

     ************************************************************************
     *************** Dalton - An Electronic Structure Program ***************
     ************************************************************************

    This is output from DALTON release Dalton2017.alpha (2016)
         ( Web site: http://daltonprogram.org )

   ----------------------------------------------------------------------------

    NOTE:
     
    Dalton is an experimental code for the evaluation of molecular
    properties using (MC)SCF, DFT, CI, and CC wave functions.
    The authors accept no responsibility for the performance of
    the code or for the correctness of the results.
     
    The code (in whole or part) is provided under a licence and
    is not to be reproduced for further distribution without
    the written permission of the authors or their representatives.
     
    See the home page "http://daltonprogram.org" for further information.
     
    If results obtained with this code are published,
    the appropriate citations would be both of:
     
       K. Aidas, C. Angeli, K. L. Bak, V. Bakken, R. Bast,
       L. Boman, O. Christiansen, R. Cimiraglia, S. Coriani,
       P. Dahle, E. K. Dalskov, U. Ekstroem,
       T. Enevoldsen, J. J. Eriksen, P. Ettenhuber, B. Fernandez,
       L. Ferrighi, H. Fliegl, L. Frediani, K. Hald, A. Halkier,
       C. Haettig, H. Heiberg, T. Helgaker, A. C. Hennum,
       H. Hettema, E. Hjertenaes, S. Hoest, I.-M. Hoeyvik,
       M. F. Iozzi, B. Jansik, H. J. Aa. Jensen, D. Jonsson,
       P. Joergensen, J. Kauczor, S. Kirpekar,
       T. Kjaergaard, W. Klopper, S. Knecht, R. Kobayashi, H. Koch,
       J. Kongsted, A. Krapp, K. Kristensen, A. Ligabue,
       O. B. Lutnaes, J. I. Melo, K. V. Mikkelsen, R. H. Myhre,
       C. Neiss, C. B. Nielsen, P. Norman, J. Olsen,
       J. M. H. Olsen, A. Osted, M. J. Packer, F. Pawlowski,
       T. B. Pedersen, P. F. Provasi, S. Reine, Z. Rinkevicius,
       T. A. Ruden, K. Ruud, V. Rybkin, P. Salek, C. C. M. Samson,
       A. Sanchez de Meras, T. Saue, S. P. A. Sauer,
       B. Schimmelpfennig, K. Sneskov, A. H. Steindal,
       K. O. Sylvester-Hvid, P. R. Taylor, A. M. Teale,
       E. I. Tellgren, D. P. Tew, A. J. Thorvaldsen, L. Thoegersen,
       O. Vahtras, M. A. Watson, D. J. D. Wilson, M. Ziolkowski
       and H. Agren,
       "The Dalton quantum chemistry program system",
       WIREs Comput. Mol. Sci. 2014, 4:269–284 (doi: 10.1002/wcms.1172)
     
    and
     
       Dalton, a Molecular Electronic Structure Program,
       Release Dalton2017.alpha (2016), see http://daltonprogram.org
   ----------------------------------------------------------------------------

    Authors in alphabetical order (major contribution(s) in parenthesis):

  Kestutis Aidas,           Vilnius University,           Lithuania   (QM/MM)
  Celestino Angeli,         University of Ferrara,        Italy       (NEVPT2)
  Keld L. Bak,              UNI-C,                        Denmark     (AOSOPPA, non-adiabatic coupling, magnetic properties)
  Vebjoern Bakken,          University of Oslo,           Norway      (DALTON; geometry optimizer, symmetry detection)
  Radovan Bast,             UiT The Arctic U. of Norway,  Norway      (DALTON installation and execution frameworks)
  Pablo Baudin,             University of Valencia,       Spain       (Cholesky excitation energies)
  Linus Boman,              NTNU,                         Norway      (Cholesky decomposition and subsystems)
  Ove Christiansen,         Aarhus University,            Denmark     (CC module)
  Renzo Cimiraglia,         University of Ferrara,        Italy       (NEVPT2)
  Sonia Coriani,            University of Trieste,        Italy       (CC module, MCD in RESPONS)
  Janusz Cukras,            University of Trieste,        Italy       (MChD in RESPONS)
  Paal Dahle,               University of Oslo,           Norway      (Parallelization)
  Erik K. Dalskov,          UNI-C,                        Denmark     (SOPPA)
  Thomas Enevoldsen,        Univ. of Southern Denmark,    Denmark     (SOPPA)
  Janus J. Eriksen,         Aarhus University,            Denmark     (Polarizable embedding model, TDA)
  Rasmus Faber,             University of Copenhagen,     Denmark     (Vib.avg. NMR with SOPPA, parallel AO-SOPPA)
  Berta Fernandez,          U. of Santiago de Compostela, Spain       (doublet spin, ESR in RESPONS)
  Lara Ferrighi,            Aarhus University,            Denmark     (PCM Cubic response)
  Heike Fliegl,             University of Oslo,           Norway      (CCSD(R12))
  Luca Frediani,            UiT The Arctic U. of Norway,  Norway      (PCM)
  Bin Gao,                  UiT The Arctic U. of Norway,  Norway      (Gen1Int library)
  Christof Haettig,         Ruhr-University Bochum,       Germany     (CC module)
  Kasper Hald,              Aarhus University,            Denmark     (CC module)
  Asger Halkier,            Aarhus University,            Denmark     (CC module)
  Frederik Beyer Hansen,    University of Copenhagen,     Denmark     (Parallel AO-SOPPA)
  Erik D. Hedegaard,        Univ. of Southern Denmark,    Denmark     (Polarizable embedding model, QM/MM)
  Hanne Heiberg,            University of Oslo,           Norway      (geometry analysis, selected one-electron integrals)
  Trygve Helgaker,          University of Oslo,           Norway      (DALTON; ABACUS, ERI, DFT modules, London, and much more)
  Alf Christian Hennum,     University of Oslo,           Norway      (Parity violation)
  Hinne Hettema,            University of Auckland,       New Zealand (quadratic response in RESPONS; SIRIUS supersymmetry)
  Eirik Hjertenaes,         NTNU,                         Norway      (Cholesky decomposition)
  Pi A. B. Haase,           University of Copenhagen,     Denmark     (Triplet AO-SOPPA)
  Maria Francesca Iozzi,    University of Oslo,           Norway      (RPA)
  Brano Jansik              Technical Univ. of Ostrava    Czech Rep.  (DFT cubic response)
  Hans Joergen Aa. Jensen,  Univ. of Southern Denmark,    Denmark     (DALTON; SIRIUS, RESPONS, ABACUS modules, London, and much more)
  Dan Jonsson,              UiT The Arctic U. of Norway,  Norway      (cubic response in RESPONS module)
  Poul Joergensen,          Aarhus University,            Denmark     (RESPONS, ABACUS, and CC modules)
  Maciej Kaminski,          University of Warsaw,         Poland      (CPPh in RESPONS)
  Joanna Kauczor,           Linkoeping University,        Sweden      (Complex polarization propagator (CPP) module)
  Sheela Kirpekar,          Univ. of Southern Denmark,    Denmark     (Mass-velocity & Darwin integrals)
  Wim Klopper,              KIT Karlsruhe,                Germany     (R12 code in CC, SIRIUS, and ABACUS modules)
  Stefan Knecht,            ETH Zurich,                   Switzerland (Parallel CI and MCSCF)
  Rika Kobayashi,           Australian National Univ.,    Australia   (DIIS in CC, London in MCSCF)
  Henrik Koch,              NTNU,                         Norway      (CC module, Cholesky decomposition)
  Jacob Kongsted,           Univ. of Southern Denmark,    Denmark     (Polarizable embedding model, QM/MM)
  Andrea Ligabue,           University of Modena,         Italy       (CTOCD, AOSOPPA)
  Nanna H. List             Univ. of Southern Denmark,    Denmark     (Polarizable embedding model)
  Ola B. Lutnaes,           University of Oslo,           Norway      (DFT Hessian)
  Juan I. Melo,             University of Buenos Aires,   Argentina   (LRESC, Relativistic Effects on NMR Shieldings)
  Kurt V. Mikkelsen,        University of Copenhagen,     Denmark     (MC-SCRF and QM/MM)
  Rolf H. Myhre,            NTNU,                         Norway      (Cholesky, subsystems and ECC2)
  Christian Neiss,          Univ. Erlangen-Nuernberg,     Germany     (CCSD(R12))
  Christian B. Nielsen,     University of Copenhagen,     Denmark     (QM/MM)
  Patrick Norman,           Linkoeping University,        Sweden      (Cubic response and complex frequency response in RESPONS)
  Jeppe Olsen,              Aarhus University,            Denmark     (SIRIUS CI/density modules)
  Jogvan Magnus H. Olsen,   Univ. of Southern Denmark,    Denmark     (Polarizable embedding model, QM/MM)
  Anders Osted,             Copenhagen University,        Denmark     (QM/MM)
  Martin J. Packer,         University of Sheffield,      UK          (SOPPA)
  Filip Pawlowski,          Kazimierz Wielki University,  Poland      (CC3)
  Morten N. Pedersen,       Univ. of Southern Denmark,    Denmark     (Polarizable embedding model)
  Thomas B. Pedersen,       University of Oslo,           Norway      (Cholesky decomposition)
  Patricio F. Provasi,      University of Northeastern,   Argentina   (Analysis of coupling constants in localized orbitals)
  Zilvinas Rinkevicius,     KTH Stockholm,                Sweden      (open-shell DFT, ESR)
  Elias Rudberg,            KTH Stockholm,                Sweden      (DFT grid and basis info)
  Torgeir A. Ruden,         University of Oslo,           Norway      (Numerical derivatives in ABACUS)
  Kenneth Ruud,             UiT The Arctic U. of Norway,  Norway      (DALTON; ABACUS magnetic properties and much more)
  Pawel Salek,              KTH Stockholm,                Sweden      (DALTON; DFT code)
  Claire C. M. Samson       University of Karlsruhe       Germany     (Boys localization, r12 integrals in ERI)
  Alfredo Sanchez de Meras, University of Valencia,       Spain       (CC module, Cholesky decomposition)
  Trond Saue,               Paul Sabatier University,     France      (direct Fock matrix construction)
  Stephan P. A. Sauer,      University of Copenhagen,     Denmark     (SOPPA(CCSD), SOPPA prop., AOSOPPA, vibrational g-factors)
  Bernd Schimmelpfennig,    Forschungszentrum Karlsruhe,  Germany     (AMFI module)
  Kristian Sneskov,         Aarhus University,            Denmark     (Polarizable embedding model, QM/MM)
  Arnfinn H. Steindal,      UiT The Arctic U. of Norway,  Norway      (parallel QM/MM, Polarizable embedding model)
  Casper Steinmann,         Univ. of Southern Denmark,    Denmark     (QFIT, Polarizable embedding model)
  K. O. Sylvester-Hvid,     University of Copenhagen,     Denmark     (MC-SCRF)
  Peter R. Taylor,          VLSCI/Univ. of Melbourne,     Australia   (Symmetry handling ABACUS, integral transformation)
  Andrew M. Teale,          University of Nottingham,     England     (DFT-AC, DFT-D)
  David P. Tew,             University of Bristol,        England     (CCSD(R12))
  Olav Vahtras,             KTH Stockholm,                Sweden      (triplet response, spin-orbit, ESR, TDDFT, open-shell DFT)
  David J. Wilson,          La Trobe University,          Australia   (DFT Hessian and DFT magnetizabilities)
  Hans Agren,               KTH Stockholm,                Sweden      (SIRIUS module, RESPONS, MC-SCRF solvation model)
 --------------------------------------------------------------------------------

     Date and time (Linux)  : Mon Aug 13 16:34:18 2018
     Host name              : n-62-23-31                              

 * Work memory size             :   512000000 =  3.815 gigabytes.

 * Directories for basis set searches:
   1) /zhome/d7/7/119775/Vinylfluoride
   2) /zhome/d7/7/119775/My_Codes/dalton-private/build2016/basis


Compilation information
-----------------------

 Who compiled             | soco
 Host                     | hpclogin1
 System                   | Linux-2.6.32-696.20.1.el6.x86_64
 CMake generator          | Unix Makefiles
 Processor                | x86_64
 64-bit integers          | ON
 MPI                      | OFF
 Fortran compiler         | /opt/intel/2016update2/compilers_and_libraries_201
                          | 6.2.181/linux/bin/intel64/ifort
 Fortran compiler version | ifort (IFORT) 16.0.2 20160204
 C compiler               | /opt/intel/2016update2/compilers_and_libraries_201
                          | 6.2.181/linux/bin/intel64/icc
 C compiler version       | icc (ICC) 16.0.2 20160204
 C++ compiler             | /opt/intel/2016update2/compilers_and_libraries_201
                          | 6.2.181/linux/bin/intel64/icpc
 C++ compiler version     | icpc (ICC) 16.0.2 20160204
 Static linking           | OFF
 Last Git revision        | ed040e3212b88786272871181646ac7f3e590142
 Git branch               | cvs
 Configuration time       | 2018-07-17 12:04:55.895650


   Content of the .dal input file
 ----------------------------------

**DALTON INPUT
.RUN WAVE FUNCTIONS
!*MOLBAS
!.CM FUN
! 2 3 4
!.ZCMVAL
! 1
**INTEGRALS
.DIPLEN  !integrali dell'operatore dipolo elettrico
**WAVE FUNCTION
.CC      !funzione d'onda coupled cluster
*PRINT
.PRINTL
   0 11
*SCF INP !parte da Hartree-Fock
!.DOUBLY OCCUPIED
!3 1 1 0
.THRESH  !soglia di convergenza
 1.0D-10
!*ORBITAL INPUT
!.MOSTART
! NEWORB
*CC INPUT !specifiche funzione CC
.PRINT
 2
.CCSD
.FCORE
3 0
!.LCOR
!.CC3
.MAXRED
 3000
.MAX ITE
 900
.MXLRV
 2999
!.RESTART
*CCEXCI
.NCCEXC     !nro di eccitazioni per IRRE8
22 15
.CVSEPARATION
2 0
2 3 !quali di A1
0   !quali di B1
*CCLRSD     !momenti di transizione di dipolo
.EOMTMO
.DIPOLE
**END OF DALTON INPUT


   Content of the .mol file
 ----------------------------

ATOMBASIS
riga di commento
riga di commento
ATOMTYPES=3 Angstrom
   9.0    1    basis=aug-cc-pVTZ
F      -1.1529023119     0.2247766372     0.0000000000
   6.0    2    basis=aug-cc-pVTZ
C1      1.1793501171     0.1997294858     0.0000000000
C2      0.0163188564    -0.4355681094     0.0000000000
   1.0    3    basis=aug-cc-pVTZ
H      -0.1189530186    -1.5078996853     0.0000000000
H       1.2308254859     1.2785611362     0.0000000000
H       2.0902344982    -0.3786194440     0.0000000000
   0.0    1
X        0.000         0.000         0.000



       *******************************************************************
       *********** Output from DALTON general input processing ***********
       *******************************************************************

 --------------------------------------------------------------------------------
   Overall default print level:    0
   Print level for DALTON.STAT:    1

    HERMIT 1- and 2-electron integral sections will be executed
    "Old" integral transformation used (limited to max 255 basis functions)
    Wave function sections will be executed (SIRIUS module)
 --------------------------------------------------------------------------------


   ****************************************************************************
   *************** Output of molecule and basis set information ***************
   ****************************************************************************


    The two title cards from your ".mol" input:
    ------------------------------------------------------------------------
 1: riga di commento                                                        
 2: riga di commento                                                        
    ------------------------------------------------------------------------

  Coordinates are entered in Angstrom and converted to atomic units.
          - Conversion factor : 1 bohr = 0.52917721 A

  Atomic type no.    1
  --------------------
  Nuclear charge:   9.00000
  Number of symmetry independent centers:    1
  Number of basis sets to read;    2
  The basis set is "aug-cc-pVTZ" from the basis set library.
  Basis set file used for this atomic type with Z =   9 :
     "/zhome/d7/7/119775/My_Codes/dalton-private/build2016/basis/aug-cc-pVTZ"

  Atomic type no.    2
  --------------------
  Nuclear charge:   6.00000
  Number of symmetry independent centers:    2
  Number of basis sets to read;    2
  The basis set is "aug-cc-pVTZ" from the basis set library.
  Basis set file used for this atomic type with Z =   6 :
     "/zhome/d7/7/119775/My_Codes/dalton-private/build2016/basis/aug-cc-pVTZ"

  Atomic type no.    3
  --------------------
  Nuclear charge:   1.00000
  Number of symmetry independent centers:    3
  Number of basis sets to read;    2
  The basis set is "aug-cc-pVTZ" from the basis set library.
  Basis set file used for this atomic type with Z =   1 :
     "/zhome/d7/7/119775/My_Codes/dalton-private/build2016/basis/aug-cc-pVTZ"


                      SYMADD: Requested addition of symmetry
                      --------------------------------------

 Symmetry test threshold:  5.00E-06

@   The molecule is centered at center of mass and rotated
@   so principal axes of inertia are along coordinate axes.

 Symmetry class found: C(s)           

 Symmetry Independent Centres             
 ----------------------------
       9 :      0.00000000    -0.33348548    -2.01129402  Isotope  1
       6 :      0.00000000     0.85078270     0.23294635  Isotope  1
       6 :      0.00000000    -0.41202583     2.39557865  Isotope  1
       1 :      0.00000000     2.88366890     0.03528909  Isotope  1
       1 :      0.00000000    -2.45266854     2.43459728  Isotope  1
       1 :      0.00000000     0.63129631     4.14740766  Isotope  1

 The following element was found:   X        


                         SYMGRP: Point group information
                         -------------------------------

@    Full point group is: C(s)           
@    Represented as:      Cs 

@  * The irrep name for each symmetry:    1: A'     2: A" 

   * The point group was generated by:

      Reflection in the yz-plane

   * Group multiplication table

        |  E   Oyz
   -----+----------
     E  |  E   Oyz
    Oyz | Oyz   E 

   * Character table

        |  E   Oyz
   -----+----------
    A'  |   1    1
    A"  |   1   -1

   * Direct product table

        | A'   A" 
   -----+----------
    A'  | A'   A" 
    A"  | A"   A' 


                                 Isotopic Masses
                                 ---------------

                           F          18.998403
                           C1         12.000000
                           C2         12.000000
                           H           1.007825
                           H           1.007825
                           H           1.007825

                       Total mass:    46.021878 amu
                       Natural abundance:  97.768 %

 Center-of-mass coordinates (a.u.):    0.000000    0.000000   -0.000000


  Atoms and basis sets
  --------------------

  Number of atom types :    3
  Total number of atoms:    6

  label    atoms   charge   prim   cont     basis
  ----------------------------------------------------------------------
  F           1    9.0000    58    46      [11s6p3d2f|5s4p3d2f]                               
  C2          2    6.0000    58    46      [11s6p3d2f|5s4p3d2f]                               
  H           3    1.0000    25    23      [6s3p2d|4s3p2d]                                    
  ----------------------------------------------------------------------
  total:      6   24.0000   249   207
  ----------------------------------------------------------------------
  Spherical harmonic basis used.

  Threshold for neglecting AO integrals:  1.00D-12


  Cartesian Coordinates (a.u.)
  ----------------------------

  Total number of coordinates:   18
  F       :     1  x   0.0000000000    2  y  -0.3334854839    3  z  -2.0112940222
  C1      :     4  x   0.0000000000    5  y  -0.4120258297    6  z   2.3955786504
  C2      :     7  x   0.0000000000    8  y   0.8507827028    9  z   0.2329463520
  H       :    10  x   0.0000000000   11  y   2.8836688990   12  z   0.0352890906
  H       :    13  x   0.0000000000   14  y  -2.4526685398   15  z   2.4345972819
  H       :    16  x   0.0000000000   17  y   0.6312963095   18  z   4.1474076585


  Symmetry Coordinates
  --------------------

  Number of coordinates in each symmetry:    12    6

  Symmetry  A'  ( 1)

    1   F     y    2
    2   F     z    3
    3   C1    y    5
    4   C1    z    6
    5   C2    y    8
    6   C2    z    9
    7   H     y   11
    8   H     z   12
    9   H     y   14
   10   H     z   15
   11   H     y   17
   12   H     z   18

  Symmetry  A"  ( 2)

   13   F     x    1
   14   C1    x    4
   15   C2    x    7
   16   H     x   10
   17   H     x   13
   18   H     x   16


   Interatomic separations (in Angstrom):
   --------------------------------------

            F           C1          C2          H           H           H     
            ------      ------      ------      ------      ------      ------
 F     :    0.000000
 C1    :    2.332387    0.000000
 C2    :    1.342808    1.325234    0.000000
 H     :    2.017726    2.145131    1.080830    0.000000
 H     :    2.606266    1.080059    2.100777    3.096170    0.000000
 H     :    3.298791    1.078980    2.074697    2.481085    1.866770    0.000000


  Max    interatomic separation is    3.2988 Angstrom (    6.2338 Bohr)
  between atoms    6 and    1, "H     " and "F     ".

  Min HX interatomic separation is    1.0790 Angstrom (    2.0390 Bohr)

  Min YX interatomic separation is    1.3252 Angstrom (    2.5043 Bohr)


  Bond distances (Angstrom):
  --------------------------

                  atom 1     atom 2       distance
                  ------     ------       --------
  bond distance:  C2         F            1.342808
  bond distance:  C2         C1           1.325234
  bond distance:  H          C2           1.080830
  bond distance:  H          C1           1.080059
  bond distance:  H          C1           1.078980


  Bond angles (degrees):
  ----------------------

                  atom 1     atom 2     atom 3         angle
                  ------     ------     ------         -----
  bond angle:     C2         C1         H            121.377
  bond angle:     C2         C1         H            118.942
  bond angle:     H          C1         H            119.681
  bond angle:     F          C2         C1           121.898
  bond angle:     F          C2         H            112.267
  bond angle:     C1         C2         H            125.835




 Principal moments of inertia (u*A**2) and principal axes
 --------------------------------------------------------

   IA       7.751454          0.000000    0.000000    1.000000
   IB      47.515668          0.000000    1.000000    0.000000
   IC      55.267121          1.000000    0.000000    0.000000


 Rotational constants
 --------------------

@    The molecule is planar.

               A                   B                   C

          65197.9664          10636.0498           9144.2976 MHz
            2.174770            0.354780            0.305021 cm-1


@  Nuclear repulsion energy :   67.548214669811 Hartree


  Symmetry Orbitals
  -----------------

  Number of orbitals in each symmetry:         138   69


  Symmetry  A' ( 1)

    1     F        1s         1
    2     F        1s         2
    3     F        1s         3
    4     F        1s         4
    5     F        1s         5
    6     F        2py        7
    7     F        2pz        8
    8     F        2py       10
    9     F        2pz       11
   10     F        2py       13
   11     F        2pz       14
   12     F        2py       16
   13     F        2pz       17
   14     F        3d1-      19
   15     F        3d0       20
   16     F        3d2+      22
   17     F        3d1-      24
   18     F        3d0       25
   19     F        3d2+      27
   20     F        3d1-      29
   21     F        3d0       30
   22     F        3d2+      32
   23     F        4f3-      33
   24     F        4f1-      35
   25     F        4f0       36
   26     F        4f2+      38
   27     F        4f3-      40
   28     F        4f1-      42
   29     F        4f0       43
   30     F        4f2+      45
   31     C1       1s        47
   32     C1       1s        48
   33     C1       1s        49
   34     C1       1s        50
   35     C1       1s        51
   36     C1       2py       53
   37     C1       2pz       54
   38     C1       2py       56
   39     C1       2pz       57
   40     C1       2py       59
   41     C1       2pz       60
   42     C1       2py       62
   43     C1       2pz       63
   44     C1       3d1-      65
   45     C1       3d0       66
   46     C1       3d2+      68
   47     C1       3d1-      70
   48     C1       3d0       71
   49     C1       3d2+      73
   50     C1       3d1-      75
   51     C1       3d0       76
   52     C1       3d2+      78
   53     C1       4f3-      79
   54     C1       4f1-      81
   55     C1       4f0       82
   56     C1       4f2+      84
   57     C1       4f3-      86
   58     C1       4f1-      88
   59     C1       4f0       89
   60     C1       4f2+      91
   61     C2       1s        93
   62     C2       1s        94
   63     C2       1s        95
   64     C2       1s        96
   65     C2       1s        97
   66     C2       2py       99
   67     C2       2pz      100
   68     C2       2py      102
   69     C2       2pz      103
   70     C2       2py      105
   71     C2       2pz      106
   72     C2       2py      108
   73     C2       2pz      109
   74     C2       3d1-     111
   75     C2       3d0      112
   76     C2       3d2+     114
   77     C2       3d1-     116
   78     C2       3d0      117
   79     C2       3d2+     119
   80     C2       3d1-     121
   81     C2       3d0      122
   82     C2       3d2+     124
   83     C2       4f3-     125
   84     C2       4f1-     127
   85     C2       4f0      128
   86     C2       4f2+     130
   87     C2       4f3-     132
   88     C2       4f1-     134
   89     C2       4f0      135
   90     C2       4f2+     137
   91     H        1s       139
   92     H        1s       140
   93     H        1s       141
   94     H        1s       142
   95     H        2py      144
   96     H        2pz      145
   97     H        2py      147
   98     H        2pz      148
   99     H        2py      150
  100     H        2pz      151
  101     H        3d1-     153
  102     H        3d0      154
  103     H        3d2+     156
  104     H        3d1-     158
  105     H        3d0      159
  106     H        3d2+     161
  107     H        1s       162
  108     H        1s       163
  109     H        1s       164
  110     H        1s       165
  111     H        2py      167
  112     H        2pz      168
  113     H        2py      170
  114     H        2pz      171
  115     H        2py      173
  116     H        2pz      174
  117     H        3d1-     176
  118     H        3d0      177
  119     H        3d2+     179
  120     H        3d1-     181
  121     H        3d0      182
  122     H        3d2+     184
  123     H        1s       185
  124     H        1s       186
  125     H        1s       187
  126     H        1s       188
  127     H        2py      190
  128     H        2pz      191
  129     H        2py      193
  130     H        2pz      194
  131     H        2py      196
  132     H        2pz      197
  133     H        3d1-     199
  134     H        3d0      200
  135     H        3d2+     202
  136     H        3d1-     204
  137     H        3d0      205
  138     H        3d2+     207


  Symmetry  A" ( 2)

  139     F        2px        6
  140     F        2px        9
  141     F        2px       12
  142     F        2px       15
  143     F        3d2-      18
  144     F        3d1+      21
  145     F        3d2-      23
  146     F        3d1+      26
  147     F        3d2-      28
  148     F        3d1+      31
  149     F        4f2-      34
  150     F        4f1+      37
  151     F        4f3+      39
  152     F        4f2-      41
  153     F        4f1+      44
  154     F        4f3+      46
  155     C1       2px       52
  156     C1       2px       55
  157     C1       2px       58
  158     C1       2px       61
  159     C1       3d2-      64
  160     C1       3d1+      67
  161     C1       3d2-      69
  162     C1       3d1+      72
  163     C1       3d2-      74
  164     C1       3d1+      77
  165     C1       4f2-      80
  166     C1       4f1+      83
  167     C1       4f3+      85
  168     C1       4f2-      87
  169     C1       4f1+      90
  170     C1       4f3+      92
  171     C2       2px       98
  172     C2       2px      101
  173     C2       2px      104
  174     C2       2px      107
  175     C2       3d2-     110
  176     C2       3d1+     113
  177     C2       3d2-     115
  178     C2       3d1+     118
  179     C2       3d2-     120
  180     C2       3d1+     123
  181     C2       4f2-     126
  182     C2       4f1+     129
  183     C2       4f3+     131
  184     C2       4f2-     133
  185     C2       4f1+     136
  186     C2       4f3+     138
  187     H        2px      143
  188     H        2px      146
  189     H        2px      149
  190     H        3d2-     152
  191     H        3d1+     155
  192     H        3d2-     157
  193     H        3d1+     160
  194     H        2px      166
  195     H        2px      169
  196     H        2px      172
  197     H        3d2-     175
  198     H        3d1+     178
  199     H        3d2-     180
  200     H        3d1+     183
  201     H        2px      189
  202     H        2px      192
  203     H        2px      195
  204     H        3d2-     198
  205     H        3d1+     201
  206     H        3d2-     203
  207     H        3d1+     206

  Symmetries of electric field:  A" (2)  A' (1)  A' (1)

  Symmetries of magnetic field:  A' (1)  A" (2)  A" (2)


                     .---------------------------------------.
                     | Starting in Integral Section (HERMIT) |
                     `---------------------------------------'



 ***************************************************************************************
 ****************** Output from **INTEGRALS input processing (HERMIT) ******************
 ***************************************************************************************



    *************************************************************************
    ****************** Output from HERMIT input processing ******************
    *************************************************************************


 Default print level:        1

 * Nuclear model: Point charge

 Calculation of one- and two-electron Hamiltonian integrals.

 The following one-electron property integrals are calculated as requested:
          - overlap integrals
          - dipole length integrals

 Center of mass  (bohr):      0.000000000000      0.000000000000     -0.000000000000
 Operator center (bohr):      0.000000000000      0.000000000000      0.000000000000
 Gauge origin    (bohr):      0.000000000000      0.000000000000     -0.000000000000
 Dipole origin   (bohr):      0.000000000000      0.000000000000     -0.000000000000


     ************************************************************************
     ************************** Output from HERINT **************************
     ************************************************************************



                      Nuclear contribution to dipole moments
                      --------------------------------------

                 au               Debye          C m (/(10**-30)

      y      0.69346855         1.76262113         5.87947123
      z      4.28679785        10.89595260        36.34498569


  Time used in HUCKEL     is       0.12 seconds
  Time used in OVERLAP    is       0.12 seconds
  Time used in POPOVLP    is       0.12 seconds
  Time used in DIPLEN     is       0.39 seconds
  Time used in QUADRUP    is       0.40 seconds
  Time used in KINENE     is       0.11 seconds

 Threshold for neglecting two-electron integrals:  1.00D-12
 HERMIT - Number of two-electron integrals written:   115340188 ( 49.8% )
 HERMIT - Megabytes written:                           1320.699

  Time used in TWOINT     is      49.51 seconds
  Total CPU  time used in HERMIT:  50.82 seconds
  Total wall time used in HERMIT:  16.10 seconds


                        .----------------------------------.
                        | End of Integral Section (HERMIT) |
                        `----------------------------------'



                   .--------------------------------------------.
                   | Starting in Wave Function Section (SIRIUS) |
                   `--------------------------------------------'

NCCEXCI for singlet:   22   15
 CCSD_INPUT: core-val requested
 Requested number of core orbs per sym
                     2                     0
 Indices of requested core orbs
                     2                     3
 

 *** Output from Huckel module :

     Using EWMO model:          T
     Using EHT  model:          F
     Number of Huckel orbitals each symmetry:   15    3

 EWMO - Energy Weighted Maximum Overlap - is a Huckel type method,
        which normally is better than Extended Huckel Theory.
 Reference: Linderberg and Ohrn, Propagators in Quantum Chemistry (Wiley, 1973)

 Huckel EWMO eigenvalues for symmetry :  1
          -26.384395     -11.355928     -11.346749      -1.832332      -1.392567
           -1.013694      -0.833137      -0.706825      -0.607311      -0.509111
           -0.227698      -0.127596      -0.124097      -0.095412      -0.086945

 Huckel EWMO eigenvalues for symmetry :  2
           -0.789532      -0.510487      -0.243781

 **********************************************************************
 *SIRIUS* a direct, restricted step, second order MCSCF program       *
 **********************************************************************

 
     Date and time (Linux)  : Mon Aug 13 16:34:35 2018
     Host name              : n-62-23-31                              

 Title lines from ".mol" input file:
     riga di commento                                                        
     riga di commento                                                        

 Print level on unit LUPRI =   2 is   0
 Print level on unit LUW4  =   2 is  11

@    (Integral direct) CC calculation.

@    This is a combination run starting with
@              a restricted, closed shell Hartree-Fock calculation


 Initial molecular orbitals are obtained according to
 ".MOSTART EWMO  " input option

     Wave function specification
     ============================

     For the specification of the Coupled Cluster: see later.

@    Wave function type        --- CC ---
@    Number of closed shell electrons          24
@    Number of electrons in active shells       0
@    Total charge of the molecule               0

@    Spin multiplicity and 2 M_S                1         0
@    Total number of symmetries                 2 (point group: Cs )
@    Reference state symmetry                   1 (irrep name : A' )

     Orbital specifications
     ======================
@    Abelian symmetry species          All |    1    2
@                                          |  A'   A" 
                                       --- |  ---  ---
@    Total number of orbitals          207 |  138   69
@    Number of basis functions         207 |  138   69

      ** Automatic occupation of RHF orbitals **

      -- Initial occupation of symmetries is determined from extended Huckel guess.           
      -- Initial occupation of symmetries is :
@    Occupied SCF orbitals              12 |   10    2

     Maximum number of Fock   iterations      0
     Maximum number of DIIS   iterations     60
     Maximum number of QC-SCF iterations     60
     Threshold for SCF convergence     1.00D-10


 Changes of defaults for CC:
 ---------------------------

 -Excitation energies calculated
 -One-photon absorption strengths will be calculated
 -Oscillator strengths calculated
  
* Read MO coefficients from SIRIUS.RST with label "NEWORB  " and header info: 13Aug18  REORTHO 


 ***********************************************
 ***** DIIS acceleration of SCF iterations *****
 ***********************************************

 C1-DIIS algorithm; max error vectors =    8
 -----------------------------------------------------------------------------

 *** DIIS iteration number    1
 RDSUPM called. NFMAT, ISYMDM(1:NFMAT)                     1
                     1

Calculating AOSUPINT
     (Precalculated AO two-electron integrals are transformed to P-supermatrix elements.
      Threshold for discarding integrals :  1.00D-12 )
  CPU  time used in FORMSUP    is   7.31 seconds
  WALL time used in FORMSUP    is  17.03 seconds

 ITDIIS, energy, error norm, change in energy, scr.thr., difden:
@ DIIS iter.   1    -176.428660151        2.97691D+00   -1.76D+02  -20    T

@ AUTO OCC: current SCF occupation  10   2

 (DIIS_RED) Control Parameters C2DIIS =         F NEVC =    1


 (DIIS_RED) B matrix:

               Column   1
       1       8.86200055
    ==== End of matrix output ====

 DIIS C vector; C2DIIS = F, LAMBDA = -8.86D+00
    1.000000
* Read MO coefficients from SIRIUS.RST with label "NEWORB  " and header info: 13Aug18  DIIS   1
      Virial theorem: -V/T =      2.000669
@    MULPOP   F      -0.53; C1     -0.44; C2      0.31; H       0.23; H       0.22; H       0.21; 
   1  Level shift: doubly occupied orbital energies shifted by -2.00D-01

 DIIS Fock eigenvalues in symmetry 1
      -26.22611      -12.09238      -11.89404       -1.82035       -1.50605
       -1.16304       -1.06029       -0.99060       -0.88629       -0.78572
        0.01349        0.03111        0.04359        0.07920        0.09076
        0.09590        0.10802        0.13273        0.13445        0.16459
        0.19306        0.21700        0.23057        0.24730        0.28084
        0.28956        0.32277        0.34149        0.35041        0.35720
        0.37070        0.39437        0.40749        0.43090        0.45135
        0.47807        0.49532        0.53617        0.57048        0.64456
        0.69718        0.73815        0.75470        0.78360        0.80316
        0.83853        0.84349        0.87448        0.89409        0.90758
        0.91755        0.98703        1.00187        1.04314        1.06140
        1.08112        1.12484        1.21234        1.23818        1.26730
        1.33453        1.35534        1.39630        1.42105        1.47866
        1.52510        1.57147        1.61306        1.64580        1.65940
        1.72614        1.76194        1.78904        1.86676        1.93772
        1.94706        2.02716        2.14037        2.18651        2.29193
        2.33473        2.49818        2.65921        2.79270        2.91667
        2.95746        2.99987        3.04040        3.09663        3.13719
        3.18645        3.28337        3.33781        3.37344        3.46146
        3.49990        3.54485        3.57118        3.63277        3.66351
        3.70335        3.79435        3.84081        3.97582        4.04046
        4.08495        4.20939        4.26196        4.33834        4.45915
        4.59261        4.63346        4.75682        4.81760        5.00035
        5.00850        5.13805        5.25680        5.32807        5.46371
        5.58998        5.67142        5.98876        6.10421        6.34589
        6.44836        6.69231        7.28667        9.00653        9.24599
        9.41557        9.54981        9.60153        9.94736        9.98834
       14.71839       16.79402       16.98622

 DIIS Fock eigenvalues in symmetry 2
       -0.92070       -0.74870       -0.05913        0.06870        0.10603
        0.20190        0.26751        0.27123        0.32119        0.35792
        0.40129        0.43017        0.48106        0.57149        0.65251
        0.77266        0.81714        0.85491        0.90381        0.91057
        1.00011        1.03309        1.05990        1.08141        1.12039
        1.25575        1.29089        1.37200        1.42611        1.50259
        1.53344        1.63097        1.69544        1.80892        1.92308
        1.99416        2.18084        2.54599        2.87809        2.89194
        2.93647        2.97462        3.05904        3.14180        3.19142
        3.25551        3.31557        3.43581        3.52702        3.55490
        3.61815        3.87445        4.07498        4.14551        4.29755
        4.45149        4.56973        4.71796        4.78422        4.85991
        4.93190        5.19679        5.32109        5.66682        8.97960
        9.21363        9.39289        9.53015        9.71432
 Time used in FCKEIG, thr_jaco:   1.53D-01  3.90D-02  1.98D-04
 CPU and wall times used in FCKEIG, THR_FCKEIG:   1.53D-01  3.90D-02  2.98D-02
 -----------------------------------------------------------------------------

 *** DIIS iteration number    2
 RDSUPM called. NFMAT, ISYMDM(1:NFMAT)                     1
                     1

 ITDIIS, energy, error norm, change in energy, scr.thr., difden:
@ DIIS iter.   2    -176.894065773        1.14565D+00   -4.65D-01  -20    T

@ AUTO OCC: current SCF occupation  10   2

 (DIIS_RED) Control Parameters C2DIIS =         F NEVC =    2


 (DIIS_RED) B matrix:

               Column   1     Column   2
       1       8.86200055
       2      -1.66276647     1.31252385
    ==== End of matrix output ====

 DIIS C vector; C2DIIS = F, LAMBDA = -6.57D-01
    0.220391    0.779609
* Read MO coefficients from SIRIUS.RST with label "NEWORB  " and header info: 13Aug18  DIIS   2
      Virial theorem: -V/T =      2.004882
@    MULPOP   F      -0.25; C1     -1.01; C2     -0.37; H       0.73; H       0.47; H       0.44; 
   2  Level shift: doubly occupied orbital energies shifted by -1.00D-01

 DIIS Fock eigenvalues in symmetry 1
      -26.54392      -11.44430      -11.34565       -1.77728       -1.16613
       -0.96817       -0.87645       -0.81124       -0.71009       -0.67611
        0.02934        0.03881        0.04588        0.08846        0.10195
        0.12628        0.13639        0.15273        0.17742        0.19044
        0.22636        0.24676        0.25646        0.28806        0.29585
        0.32843        0.35817        0.37106        0.38130        0.39548
        0.40163        0.42338        0.45580        0.47862        0.48525
        0.50469        0.57146        0.60805        0.62898        0.70978
        0.74935        0.79699        0.82791        0.84945        0.88359
        0.88715        0.90858        0.92149        0.94363        0.97885
        0.98758        1.02068        1.04726        1.08142        1.11004
        1.12397        1.17142        1.21265        1.26182        1.28430
        1.30638        1.42693        1.45522        1.49711        1.54687
        1.58054        1.67299        1.71659        1.72157        1.74950
        1.82468        1.84299        1.88878        1.95695        2.00729
        2.03400        2.10779        2.22874        2.26900        2.39724
        2.42770        2.63028        2.73850        2.96436        3.02741
        3.04580        3.07183        3.13682        3.19665        3.21875
        3.29011        3.40209        3.50568        3.52278        3.59337
        3.63611        3.68880        3.72644        3.78777        3.80321
        3.89345        3.96698        4.04851        4.12166        4.16294
        4.21040        4.31790        4.37847        4.48829        4.61353
        4.75980        4.76279        4.87967        4.98912        5.09388
        5.22024        5.27120        5.34880        5.44843        5.60142
        5.66784        5.82186        6.07882        6.26181        6.53324
        6.66374        6.86191        7.24919        8.88213        9.14124
        9.30905        9.41468        9.43175        9.79574        9.81391
       14.68389       17.03781       17.31411

 DIIS Fock eigenvalues in symmetry 2
       -0.83474       -0.50683        0.08574        0.09143        0.15564
        0.22436        0.27298        0.29582        0.36469        0.39151
        0.43681        0.44525        0.56100        0.60360        0.72457
        0.84144        0.89493        0.93286        0.94783        0.97026
        1.04579        1.06907        1.08707        1.10863        1.13373
        1.29683        1.36643        1.42539        1.53492        1.58698
        1.61386        1.73095        1.78071        1.90300        2.00362
        2.07095        2.26835        2.75832        2.90530        2.95202
        3.03132        3.17857        3.25236        3.33942        3.35608
        3.41608        3.49476        3.54865        3.63484        3.72588
        3.74889        4.04464        4.23225        4.29262        4.43788
        4.55364        4.66463        4.85031        4.93904        4.96661
        5.09693        5.31129        5.46287        5.59013        8.85510
        9.10928        9.26280        9.32597        9.55596
 Time used in FCKEIG, thr_jaco:   1.03D-01  2.60D-02  7.62D-05
 CPU and wall times used in FCKEIG, THR_FCKEIG:   1.04D-01  2.60D-02  1.15D-02
 -----------------------------------------------------------------------------

 *** DIIS iteration number    3
 RDSUPM called. NFMAT, ISYMDM(1:NFMAT)                     1
                     1

 ITDIIS, energy, error norm, change in energy, scr.thr., difden:
@ DIIS iter.   3    -176.951026036        2.81127D-01   -5.70D-02  -20    T

@ AUTO OCC: current SCF occupation  10   2

 (DIIS_RED) Control Parameters C2DIIS =         F NEVC =    3


 (DIIS_RED) B matrix:

               Column   1     Column   2     Column   3
       1       8.86200055
       2      -1.66276647     1.31252385
       3       0.41898397    -0.09419986     0.07903255
    ==== End of matrix output ====

 DIIS C vector; C2DIIS = F, LAMBDA = -5.71D-02
   -0.022543    0.082413    0.940129
* Read MO coefficients from SIRIUS.RST with label "NEWORB  " and header info: 13Aug18  DIIS   3
      Virial theorem: -V/T =      1.999367
@    MULPOP   F      -0.40; C1     -0.99; C2     -0.20; H       0.72; H       0.46; H       0.41; 
   3  Level shift: doubly occupied orbital energies shifted by -2.50D-02

 DIIS Fock eigenvalues in symmetry 1
      -26.30365      -11.33191      -11.23155       -1.63919       -1.06379
       -0.85448       -0.75518       -0.69804       -0.60323       -0.57583
        0.03037        0.03920        0.04643        0.08996        0.10335
        0.12818        0.14001        0.15504        0.18227        0.19330
        0.23287        0.25156        0.26778        0.29391        0.30019
        0.33370        0.36013        0.38126        0.38683        0.39921
        0.41250        0.42953        0.46508        0.48530        0.49240
        0.52079        0.58188        0.62301        0.64221        0.72169
        0.76074        0.81048        0.83812        0.85955        0.89434
        0.90212        0.91909        0.93300        0.95343        0.98889
        0.99939        1.02781        1.05679        1.08827        1.11952
        1.13539        1.18127        1.22892        1.27193        1.29758
        1.32339        1.44083        1.46634        1.51063        1.56469
        1.59963        1.68979        1.72896        1.73906        1.76372
        1.84177        1.85994        1.90732        1.97767        2.02409
        2.05201        2.12363        2.24461        2.28732        2.41691
        2.44717        2.66087        2.77287        2.99205        3.06634
        3.08381        3.10383        3.16558        3.22284        3.25145
        3.31807        3.43249        3.53631        3.55365        3.62245
        3.66758        3.71817        3.75620        3.81634        3.83401
        3.92362        3.99810        4.07742        4.15187        4.19224
        4.23889        4.34862        4.40927        4.52164        4.64483
        4.79198        4.79481        4.91124        5.02006        5.12056
        5.24552        5.30619        5.38439        5.48243        5.64142
        5.71075        5.85876        6.12424        6.29625        6.57146
        6.69960        6.90214        7.32640        8.95067        9.21227
        9.38462        9.49624        9.50855        9.88682        9.90509
       14.76240       17.08376       17.34952

 DIIS Fock eigenvalues in symmetry 2
       -0.70291       -0.40216        0.09011        0.09590        0.17409
        0.23053        0.27630        0.29903        0.37252        0.39739
        0.44163        0.44936        0.57155        0.61103        0.73590
        0.85156        0.90378        0.94602        0.95534        0.98276
        1.05849        1.07720        1.09661        1.12113        1.14749
        1.31777        1.37799        1.43782        1.55085        1.60369
        1.63032        1.74771        1.79433        1.91784        2.01810
        2.08677        2.28320        2.78668        2.94640        2.98697
        3.06271        3.20659        3.28295        3.36892        3.38507
        3.44426        3.52450        3.57788        3.66395        3.75492
        3.77410        4.07128        4.25838        4.32171        4.46455
        4.58816        4.68869        4.87344        4.97000        4.99157
        5.12928        5.35068        5.50068        5.65289        8.92362
        9.18062        9.33337        9.41697        9.64927
 Time used in FCKEIG, thr_jaco:   8.50D-02  2.10D-02  1.87D-05
 CPU and wall times used in FCKEIG, THR_FCKEIG:   8.50D-02  2.10D-02  2.81D-03
 -----------------------------------------------------------------------------

 *** DIIS iteration number    4
 RDSUPM called. NFMAT, ISYMDM(1:NFMAT)                     1
                     1

 ITDIIS, energy, error norm, change in energy, scr.thr., difden:
@ DIIS iter.   4    -176.955642772        8.65094D-02   -4.62D-03  -20    T

@ AUTO OCC: current SCF occupation  10   2

 (DIIS_RED) Control Parameters C2DIIS =         F NEVC =    4


 (DIIS_RED) B matrix:

               Column   1     Column   2     Column   3     Column   4
       1       8.86200055
       2      -1.66276647     1.31252385
       3       0.41898397    -0.09419986     0.07903255
       4       0.08391768     0.02432063    -0.00368776     0.00748387
    ==== End of matrix output ====

 DIIS C vector; C2DIIS = F, LAMBDA = -3.55D-03
   -0.021129   -0.028696    0.164090    0.885734
* Read MO coefficients from SIRIUS.RST with label "NEWORB  " and header info: 13Aug18  DIIS   4
      Virial theorem: -V/T =      2.002249
@    MULPOP   F      -0.40; C1     -1.01; C2     -0.18; H       0.72; H       0.45; H       0.41; 
   4  Level shift: doubly occupied orbital energies shifted by -1.25D-02

 DIIS Fock eigenvalues in symmetry 1
      -26.32658      -11.34481      -11.24848       -1.64196       -1.06455
       -0.85126       -0.75313       -0.69666       -0.60099       -0.57199
        0.03031        0.03916        0.04642        0.08987        0.10336
        0.12786        0.13946        0.15469        0.18190        0.19306
        0.23273        0.25133        0.26639        0.29343        0.29958
        0.33297        0.36020        0.37926        0.38528        0.39828
        0.41055        0.42865        0.46344        0.48428        0.49170
        0.51767        0.57955        0.61953        0.63828        0.71870
        0.75824        0.80754        0.83644        0.85856        0.89293
        0.89641        0.91683        0.93062        0.95184        0.98637
        0.99598        1.02701        1.05498        1.08667        1.11831
        1.13289        1.17962        1.22682        1.27024        1.29518
        1.32118        1.43746        1.46390        1.50721        1.56022
        1.59648        1.68642        1.72595        1.73351        1.75999
        1.83790        1.85520        1.90316        1.97257        2.02023
        2.04970        2.12162        2.24268        2.28265        2.41288
        2.44145        2.65373        2.76480        2.98583        3.05933
        3.07602        3.09652        3.15998        3.21319        3.24395
        3.31509        3.42493        3.52751        3.54639        3.61627
        3.65917        3.71016        3.74897        3.80865        3.82502
        3.91612        3.99121        4.06770        4.14599        4.18743
        4.23491        4.34449        4.40415        4.51668        4.63925
        4.78562        4.78793        4.90960        5.01231        5.12212
        5.24223        5.29592        5.38082        5.47911        5.63652
        5.70299        5.85224        6.11571        6.29240        6.56637
        6.69358        6.89361        7.30930        8.93902        9.19951
        9.37055        9.48269        9.49319        9.86882        9.88787
       14.74385       17.06557       17.32820

 DIIS Fock eigenvalues in symmetry 2
       -0.70388       -0.39842        0.08973        0.09510        0.16996
        0.22959        0.27625        0.29860        0.37090        0.39666
        0.44049        0.44831        0.56893        0.60970        0.73305
        0.85097        0.90221        0.94348        0.95506        0.97913
        1.05694        1.07618        1.09507        1.11908        1.14499
        1.31376        1.37462        1.43538        1.54604        1.59996
        1.62733        1.74206        1.79050        1.91374        2.01549
        2.08480        2.28046        2.77604        2.93775        2.97913
        3.05570        3.19604        3.27344        3.35876        3.37698
        3.43536        3.51676        3.57039        3.65649        3.74895
        3.76755        4.06637        4.25232        4.31628        4.46073
        4.58065        4.69032        4.87445        4.96176        4.99283
        5.12306        5.34470        5.49436        5.63995        8.91199
        9.16764        9.32149        9.40051        9.63126
 Time used in FCKEIG, thr_jaco:   8.00D-02  2.10D-02  5.75D-06
 CPU and wall times used in FCKEIG, THR_FCKEIG:   8.10D-02  2.10D-02  8.65D-04
 -----------------------------------------------------------------------------

 *** DIIS iteration number    5
 RDSUPM called. NFMAT, ISYMDM(1:NFMAT)                     1
                     1

 ITDIIS, energy, error norm, change in energy, scr.thr., difden:
@ DIIS iter.   5    -176.956241985        1.92640D-02   -5.99D-04  -20    T

@ AUTO OCC: current SCF occupation  10   2

 (DIIS_RED) Control Parameters C2DIIS =         F NEVC =    5


 (DIIS_RED) B matrix:

               Column   1     Column   2     Column   3     Column   4     Column   5
       1       8.86200055
       2      -1.66276647     1.31252385
       3       0.41898397    -0.09419986     0.07903255
       4       0.08391768     0.02432063    -0.00368776     0.00748387
       5       0.01499029     0.00031593     0.00328150     0.00065570     0.00037110
    ==== End of matrix output ====

 DIIS C vector; C2DIIS = F, LAMBDA = -1.64D-04
    0.003163    0.001726   -0.071177   -0.161829    1.228117
* Read MO coefficients from SIRIUS.RST with label "NEWORB  " and header info: 13Aug18  DIIS   5
      Virial theorem: -V/T =      2.001323
@    MULPOP   F      -0.40; C1     -1.03; C2     -0.18; H       0.73; H       0.46; H       0.42; 

 DIIS Fock eigenvalues in symmetry 1
      -26.31029      -11.32909      -11.23692       -1.62726       -1.05157
       -0.83796       -0.73895       -0.68397       -0.58895       -0.55980
        0.03016        0.03905        0.04636        0.08994        0.10320
        0.12782        0.13921        0.15454        0.18179        0.19327
        0.23274        0.25131        0.26661        0.29288        0.29971
        0.33283        0.35998        0.37934        0.38519        0.39809
        0.41023        0.42837        0.46336        0.48422        0.49190
        0.51790        0.57984        0.61906        0.63834        0.71868
        0.75833        0.80721        0.83611        0.85811        0.89269
        0.89637        0.91631        0.93050        0.95156        0.98621
        0.99591        1.02699        1.05468        1.08639        1.11793
        1.13251        1.17929        1.22742        1.27021        1.29498
        1.32200        1.43736        1.46384        1.50768        1.55963
        1.59604        1.68595        1.72591        1.73349        1.75977
        1.83762        1.85507        1.90281        1.97238        2.02006
        2.04888        2.12117        2.24196        2.28247        2.41264
        2.44128        2.65377        2.76548        2.98613        3.06053
        3.07666        3.09680        3.16095        3.21312        3.24423
        3.31484        3.42574        3.52763        3.54631        3.61628
        3.65962        3.71052        3.74887        3.80844        3.82472
        3.91539        3.99052        4.06742        4.14607        4.18729
        4.23399        4.34415        4.40406        4.51612        4.63911
        4.78654        4.78751        4.90891        5.01227        5.12113
        5.24180        5.29571        5.38040        5.47808        5.63620
        5.70327        5.85200        6.11600        6.29172        6.56536
        6.69321        6.89340        7.31122        8.94132        9.20161
        9.37250        9.48468        9.49542        9.87103        9.89007
       14.74598       17.06770       17.32771

 DIIS Fock eigenvalues in symmetry 2
       -0.69009       -0.38491        0.08977        0.09526        0.17031
        0.22971        0.27611        0.29869        0.37098        0.39655
        0.44056        0.44838        0.56941        0.60988        0.73326
        0.85044        0.90221        0.94325        0.95462        0.97938
        1.05672        1.07595        1.09519        1.11912        1.14511
        1.31371        1.37451        1.43534        1.54666        1.59994
        1.62680        1.74215        1.79029        1.91413        2.01514
        2.08398        2.28030        2.77644        2.93922        2.98027
        3.05668        3.19656        3.27290        3.35892        3.37736
        3.43548        3.51599        3.57089        3.65723        3.74814
        3.76745        4.06581        4.25217        4.31587        4.45996
        4.58136        4.68946        4.87376        4.96108        4.99187
        5.12273        5.34423        5.49403        5.64106        8.91431
        9.16969        9.32352        9.40310        9.63368
 Time used in FCKEIG, thr_jaco:   7.40D-02  1.90D-02  1.28D-06
 CPU and wall times used in FCKEIG, THR_FCKEIG:   7.40D-02  1.90D-02  1.93D-04
 -----------------------------------------------------------------------------

 *** DIIS iteration number    6
 RDSUPM called. NFMAT, ISYMDM(1:NFMAT)                     1
                     1

 ITDIIS, energy, error norm, change in energy, scr.thr., difden:
@ DIIS iter.   6    -176.956305489        4.74789D-03   -6.35D-05  -20    T

@ AUTO OCC: current SCF occupation  10   2

 (DIIS_RED) Control Parameters C2DIIS =         F NEVC =    6


 (DIIS_RED) B matrix:

               Column   1     Column   2     Column   3     Column   4     Column   5     Column   6
       1       8.86200055
       2      -1.66276647     1.31252385
       3       0.41898397    -0.09419986     0.07903255
       4       0.08391768     0.02432063    -0.00368776     0.00748387
       5       0.01499029     0.00031593     0.00328150     0.00065570     0.00037110
       6       0.00002742     0.00050544     0.00007676     0.00016325     0.00005382     0.00002254
    ==== End of matrix output ====

 DIIS C vector; C2DIIS = F, LAMBDA = -1.67D-05
    0.000329    0.000497    0.002720   -0.015123   -0.131956    1.143534
* Read MO coefficients from SIRIUS.RST with label "NEWORB  " and header info: 13Aug18  DIIS   6
      Virial theorem: -V/T =      2.001352
@    MULPOP   F      -0.40; C1     -1.04; C2     -0.18; H       0.73; H       0.47; H       0.42; 

 DIIS Fock eigenvalues in symmetry 1
      -26.31081      -11.32967      -11.23579       -1.62760       -1.05158
       -0.83806       -0.73907       -0.68410       -0.58893       -0.55988
        0.03017        0.03904        0.04634        0.08993        0.10320
        0.12783        0.13923        0.15450        0.18177        0.19325
        0.23274        0.25132        0.26660        0.29287        0.29971
        0.33282        0.35995        0.37929        0.38521        0.39808
        0.41022        0.42842        0.46333        0.48424        0.49187
        0.51781        0.57977        0.61910        0.63830        0.71866
        0.75829        0.80721        0.83613        0.85811        0.89266
        0.89632        0.91632        0.93048        0.95154        0.98620
        0.99587        1.02702        1.05467        1.08637        1.11788
        1.13250        1.17925        1.22736        1.27013        1.29494
        1.32189        1.43735        1.46381        1.50760        1.55968
        1.59599        1.68597        1.72590        1.73344        1.75976
        1.83766        1.85505        1.90281        1.97234        2.02004
        2.04890        2.12115        2.24199        2.28244        2.41255
        2.44129        2.65375        2.76537        2.98606        3.06033
        3.07657        3.09672        3.16076        3.21309        3.24416
        3.31485        3.42563        3.52764        3.54633        3.61624
        3.65955        3.71047        3.74892        3.80849        3.82482
        3.91558        3.99070        4.06749        4.14603        4.18728
        4.23404        4.34412        4.40401        4.51620        4.63907
        4.78635        4.78750        4.90897        5.01230        5.12114
        5.24183        5.29579        5.38043        5.47821        5.63625
        5.70325        5.85204        6.11594        6.29181        6.56566
        6.69334        6.89344        7.31088        8.94101        9.20122
        9.37204        9.48429        9.49497        9.87052        9.88962
       14.74568       17.06736       17.32834

 DIIS Fock eigenvalues in symmetry 2
       -0.69067       -0.38474        0.08977        0.09530        0.17037
        0.22968        0.27610        0.29872        0.37104        0.39653
        0.44056        0.44837        0.56948        0.60987        0.73335
        0.85046        0.90222        0.94332        0.95463        0.97925
        1.05671        1.07589        1.09514        1.11910        1.14503
        1.31364        1.37448        1.43531        1.54662        1.59989
        1.62689        1.74213        1.79029        1.91409        2.01512
        2.08397        2.28029        2.77644        2.93897        2.98010
        3.05657        3.19648        3.27312        3.35897        3.37733
        3.43543        3.51615        3.57078        3.65709        3.74835
        3.76745        4.06585        4.25209        4.31591        4.46002
        4.58125        4.68956        4.87363        4.96117        4.99197
        5.12275        5.34422        5.49405        5.64082        8.91400
        9.16929        9.32314        9.40273        9.63322
 Time used in FCKEIG, thr_jaco:   7.50D-02  1.90D-02  3.16D-07
 CPU and wall times used in FCKEIG, THR_FCKEIG:   7.50D-02  1.90D-02  4.75D-05
 -----------------------------------------------------------------------------

 *** DIIS iteration number    7
 RDSUPM called. NFMAT, ISYMDM(1:NFMAT)                     1
                     1

 ITDIIS, energy, error norm, change in energy, scr.thr., difden:
@ DIIS iter.   7    -176.956309903        2.55789D-03   -4.41D-06  -20    T

@ AUTO OCC: current SCF occupation  10   2

 (DIIS_RED) Control Parameters C2DIIS =         F NEVC =    7


 (DIIS_RED) B matrix:

               Column   1     Column   2     Column   3     Column   4     Column   5     Column   6
       1       8.86200055
       2      -1.66276647     1.31252385
       3       0.41898397    -0.09419986     0.07903255
       4       0.08391768     0.02432063    -0.00368776     0.00748387
       5       0.01499029     0.00031593     0.00328150     0.00065570     0.00037110
       6       0.00002742     0.00050544     0.00007676     0.00016325     0.00005382     0.00002254
       7      -0.00032761    -0.00005443     0.00005366     0.00001912     0.00002563     0.00000452

               Column   7
       7       0.00000654
    ==== End of matrix output ====

 DIIS C vector; C2DIIS = F, LAMBDA = -3.02D-06
   -0.000197    0.000094    0.009010    0.015434   -0.191838    0.266952    0.900544
* Read MO coefficients from SIRIUS.RST with label "NEWORB  " and header info: 13Aug18  DIIS   7
      Virial theorem: -V/T =      2.001345
@    MULPOP   F      -0.40; C1     -1.03; C2     -0.18; H       0.73; H       0.47; H       0.42; 

 DIIS Fock eigenvalues in symmetry 1
      -26.31057      -11.32902      -11.23669       -1.62736       -1.05167
       -0.83799       -0.73888       -0.68417       -0.58909       -0.55992
        0.03017        0.03904        0.04633        0.08994        0.10318
        0.12785        0.13921        0.15447        0.18175        0.19326
        0.23272        0.25131        0.26665        0.29280        0.29973
        0.33281        0.35992        0.37931        0.38522        0.39806
        0.41015        0.42839        0.46330        0.48421        0.49189
        0.51787        0.57982        0.61904        0.63833        0.71869
        0.75833        0.80713        0.83609        0.85801        0.89264
        0.89630        0.91622        0.93042        0.95153        0.98621
        0.99586        1.02706        1.05461        1.08633        1.11782
        1.13248        1.17923        1.22740        1.27013        1.29490
        1.32195        1.43734        1.46378        1.50764        1.55963
        1.59590        1.68595        1.72594        1.73344        1.75968
        1.83760        1.85502        1.90278        1.97233        2.01998
        2.04875        2.12110        2.24191        2.28240        2.41251
        2.44127        2.65375        2.76547        2.98608        3.06049
        3.07663        3.09669        3.16084        3.21304        3.24413
        3.31480        3.42569        3.52763        3.54631        3.61623
        3.65959        3.71053        3.74884        3.80838        3.82467
        3.91539        3.99050        4.06742        4.14611        4.18730
        4.23380        4.34401        4.40403        4.51607        4.63906
        4.78653        4.78743        4.90888        5.01229        5.12103
        5.24180        5.29567        5.38034        5.47798        5.63618
        5.70330        5.85201        6.11592        6.29165        6.56537
        6.69332        6.89335        7.31109        8.94122        9.20142
        9.37222        9.48447        9.49515        9.87070        9.88981
       14.74587       17.06771       17.32779

 DIIS Fock eigenvalues in symmetry 2
       -0.69059       -0.38477        0.08975        0.09531        0.17036
        0.22966        0.27606        0.29874        0.37102        0.39649
        0.44057        0.44837        0.56949        0.60988        0.73331
        0.85033        0.90228        0.94329        0.95459        0.97925
        1.05669        1.07586        1.09518        1.11908        1.14502
        1.31362        1.37445        1.43530        1.54674        1.59986
        1.62672        1.74213        1.79024        1.91419        2.01506
        2.08378        2.28029        2.77641        2.93913        2.98022
        3.05664        3.19661        3.27288        3.35891        3.37738
        3.43542        3.51586        3.57084        3.65722        3.74816
        3.76748        4.06572        4.25207        4.31585        4.45989
        4.58137        4.68952        4.87346        4.96102        4.99186
        5.12274        5.34402        5.49397        5.64091        8.91421
        9.16948        9.32333        9.40293        9.63344
 Time used in FCKEIG, thr_jaco:   7.50D-02  1.90D-02  1.70D-07
 CPU and wall times used in FCKEIG, THR_FCKEIG:   7.50D-02  1.90D-02  2.56D-05
 -----------------------------------------------------------------------------

 *** DIIS iteration number    8
 RDSUPM called. NFMAT, ISYMDM(1:NFMAT)                     1
                     1

 ITDIIS, energy, error norm, change in energy, scr.thr., difden:
@ DIIS iter.   8    -176.956310609        6.31133D-04   -7.07D-07  -20    T

@ AUTO OCC: current SCF occupation  10   2

 (DIIS_RED) Control Parameters C2DIIS =         F NEVC =    8


 (DIIS_RED) B matrix:

               Column   1     Column   2     Column   3     Column   4     Column   5     Column   6
       1       8.86200055
       2      -1.66276647     1.31252385
       3       0.41898397    -0.09419986     0.07903255
       4       0.08391768     0.02432063    -0.00368776     0.00748387
       5       0.01499029     0.00031593     0.00328150     0.00065570     0.00037110
       6       0.00002742     0.00050544     0.00007676     0.00016325     0.00005382     0.00002254
       7      -0.00032761    -0.00005443     0.00005366     0.00001912     0.00002563     0.00000452
       8      -0.00000081    -0.00002883     0.00000554    -0.00000384     0.00000241     0.00000168

               Column   7     Column   8
       7       0.00000654
       8       0.00000084     0.00000040
    ==== End of matrix output ====

 DIIS C vector; C2DIIS = F, LAMBDA = -2.17D-07
   -0.000066   -0.000095   -0.000319    0.002784    0.019402   -0.119642   -0.126859    1.224795
* Read MO coefficients from SIRIUS.RST with label "NEWORB  " and header info: 13Aug18  DIIS   8
      Virial theorem: -V/T =      2.001345
@    MULPOP   F      -0.40; C1     -1.03; C2     -0.18; H       0.73; H       0.47; H       0.42; 

 DIIS Fock eigenvalues in symmetry 1
      -26.31053      -11.32905      -11.23662       -1.62733       -1.05165
       -0.83797       -0.73883       -0.68414       -0.58907       -0.55990
        0.03016        0.03904        0.04633        0.08994        0.10318
        0.12785        0.13921        0.15447        0.18174        0.19326
        0.23272        0.25131        0.26665        0.29279        0.29974
        0.33281        0.35992        0.37931        0.38522        0.39806
        0.41015        0.42839        0.46330        0.48421        0.49189
        0.51787        0.57983        0.61904        0.63834        0.71870
        0.75834        0.80713        0.83609        0.85801        0.89264
        0.89631        0.91622        0.93043        0.95153        0.98621
        0.99587        1.02707        1.05461        1.08633        1.11781
        1.13248        1.17923        1.22741        1.27014        1.29491
        1.32198        1.43735        1.46379        1.50766        1.55963
        1.59591        1.68595        1.72594        1.73346        1.75968
        1.83760        1.85503        1.90279        1.97234        2.02000
        2.04874        2.12110        2.24190        2.28242        2.41252
        2.44128        2.65376        2.76549        2.98609        3.06051
        3.07664        3.09671        3.16087        3.21306        3.24414
        3.31481        3.42571        3.52765        3.54632        3.61624
        3.65961        3.71055        3.74886        3.80839        3.82468
        3.91540        3.99051        4.06743        4.14612        4.18730
        4.23379        4.34403        4.40403        4.51608        4.63906
        4.78654        4.78744        4.90887        5.01230        5.12102
        5.24181        5.29569        5.38033        5.47797        5.63618
        5.70331        5.85202        6.11594        6.29165        6.56538
        6.69331        6.89336        7.31112        8.94126        9.20145
        9.37225        9.48451        9.49519        9.87073        9.88985
       14.74589       17.06771       17.32783

 DIIS Fock eigenvalues in symmetry 2
       -0.69059       -0.38476        0.08974        0.09532        0.17036
        0.22966        0.27605        0.29875        0.37102        0.39649
        0.44058        0.44837        0.56949        0.60988        0.73332
        0.85032        0.90229        0.94329        0.95458        0.97926
        1.05669        1.07586        1.09519        1.11908        1.14503
        1.31362        1.37445        1.43531        1.54675        1.59987
        1.62671        1.74215        1.79024        1.91421        2.01506
        2.08376        2.28030        2.77642        2.93916        2.98025
        3.05666        3.19662        3.27289        3.35892        3.37740
        3.43544        3.51587        3.57086        3.65724        3.74816
        3.76748        4.06572        4.25209        4.31585        4.45989
        4.58139        4.68950        4.87346        4.96103        4.99185
        5.12275        5.34402        5.49397        5.64093        8.91425
        9.16951        9.32337        9.40298        9.63348
 Time used in FCKEIG, thr_jaco:   7.70D-02  2.00D-02  4.20D-08
 CPU and wall times used in FCKEIG, THR_FCKEIG:   7.70D-02  2.00D-02  6.31D-06
 -----------------------------------------------------------------------------

 *** DIIS iteration number    9
 RDSUPM called. NFMAT, ISYMDM(1:NFMAT)                     1
                     1

 ITDIIS, energy, error norm, change in energy, scr.thr., difden:
@ DIIS iter.   9    -176.956310701        2.31191D-04   -9.13D-08  -20    T

@ AUTO OCC: current SCF occupation  10   2

 (DIIS_RED) Control Parameters C2DIIS =         F NEVC =    8


 (DIIS_RED) B matrix:

               Column   1     Column   2     Column   3     Column   4     Column   5     Column   6
       1       0.00000005
       2       0.00002597     1.31252385
       3      -0.00000130    -0.09419986     0.07903255
       4       0.00000031     0.02432063    -0.00368776     0.00748387
       5       0.00000088     0.00031593     0.00328150     0.00065570     0.00037110
       6       0.00000020     0.00050544     0.00007676     0.00016325     0.00005382     0.00002254
       7       0.00000046    -0.00005443     0.00005366     0.00001912     0.00002563     0.00000452
       8       0.00000009    -0.00002883     0.00000554    -0.00000384     0.00000241     0.00000168

               Column   7     Column   8
       7       0.00000654
       8       0.00000084     0.00000040
    ==== End of matrix output ====

 DIIS C vector; C2DIIS = F, LAMBDA = -1.65D-08
    1.161419   -0.000046   -0.000377   -0.000694    0.009213    0.001421   -0.102423   -0.068512
* Read MO coefficients from SIRIUS.RST with label "NEWORB  " and header info: 13Aug18  DIIS   9
      Virial theorem: -V/T =      2.001345
@    MULPOP   F      -0.40; C1     -1.03; C2     -0.18; H       0.73; H       0.47; H       0.42; 

 DIIS Fock eigenvalues in symmetry 1
      -26.31051      -11.32900      -11.23665       -1.62731       -1.05164
       -0.83795       -0.73881       -0.68414       -0.58908       -0.55990
        0.03017        0.03904        0.04633        0.08994        0.10318
        0.12786        0.13921        0.15447        0.18174        0.19327
        0.23272        0.25131        0.26666        0.29279        0.29974
        0.33281        0.35991        0.37931        0.38522        0.39806
        0.41014        0.42839        0.46330        0.48421        0.49189
        0.51788        0.57983        0.61904        0.63835        0.71870
        0.75835        0.80712        0.83609        0.85800        0.89264
        0.89631        0.91622        0.93042        0.95154        0.98622
        0.99587        1.02708        1.05461        1.08633        1.11781
        1.13248        1.17923        1.22742        1.27015        1.29491
        1.32198        1.43735        1.46379        1.50766        1.55964
        1.59591        1.68596        1.72595        1.73346        1.75967
        1.83760        1.85503        1.90279        1.97234        2.02000
        2.04873        2.12110        2.24190        2.28242        2.41251
        2.44129        2.65377        2.76550        2.98610        3.06053
        3.07665        3.09671        3.16087        3.21307        3.24414
        3.31481        3.42572        3.52765        3.54633        3.61625
        3.65962        3.71056        3.74886        3.80839        3.82468
        3.91539        3.99050        4.06744        4.14614        4.18732
        4.23377        4.34402        4.40404        4.51607        4.63907
        4.78656        4.78744        4.90888        5.01231        5.12101
        5.24182        5.29569        5.38033        5.47796        5.63618
        5.70333        5.85203        6.11594        6.29164        6.56537
        6.69333        6.89337        7.31114        8.94128        9.20147
        9.37227        9.48452        9.49520        9.87075        9.88986
       14.74591       17.06774       17.32781

 DIIS Fock eigenvalues in symmetry 2
       -0.69058       -0.38476        0.08974        0.09532        0.17036
        0.22966        0.27605        0.29875        0.37102        0.39648
        0.44058        0.44837        0.56949        0.60988        0.73331
        0.85031        0.90230        0.94330        0.95459        0.97926
        1.05669        1.07586        1.09519        1.11908        1.14503
        1.31362        1.37445        1.43531        1.54676        1.59987
        1.62670        1.74215        1.79024        1.91423        2.01505
        2.08374        2.28030        2.77642        2.93917        2.98026
        3.05667        3.19663        3.27288        3.35893        3.37740
        3.43544        3.51585        3.57087        3.65726        3.74815
        3.76750        4.06571        4.25209        4.31586        4.45988
        4.58140        4.68951        4.87344        4.96102        4.99185
        5.12276        5.34401        5.49398        5.64094        8.91427
        9.16953        9.32339        9.40299        9.63349
 Time used in FCKEIG, thr_jaco:   7.50D-02  1.90D-02  1.54D-08
 CPU and wall times used in FCKEIG, THR_FCKEIG:   7.60D-02  1.90D-02  2.31D-06
 -----------------------------------------------------------------------------

 *** DIIS iteration number   10
 RDSUPM called. NFMAT, ISYMDM(1:NFMAT)                     1
                     1

 ITDIIS, energy, error norm, change in energy, scr.thr., difden:
@ DIIS iter.  10    -176.956310709        5.45183D-05   -8.30D-09  -20    T

@ AUTO OCC: current SCF occupation  10   2

 (DIIS_RED) Control Parameters C2DIIS =         F NEVC =    8


 (DIIS_RED) B matrix:

               Column   1     Column   2     Column   3     Column   4     Column   5     Column   6
       1       0.00000005
       2       0.00000001     0.00000000
       3      -0.00000130     0.00000023     0.07903255
       4       0.00000031    -0.00000041    -0.00368776     0.00748387
       5       0.00000088     0.00000011     0.00328150     0.00065570     0.00037110
       6       0.00000020    -0.00000003     0.00007676     0.00016325     0.00005382     0.00002254
       7       0.00000046     0.00000006     0.00005366     0.00001912     0.00002563     0.00000452
       8       0.00000009     0.00000001     0.00000554    -0.00000384     0.00000241     0.00000168

               Column   7     Column   8
       7       0.00000654
       8       0.00000084     0.00000040
    ==== End of matrix output ====

 DIIS C vector; C2DIIS = F, LAMBDA = -9.46D-10
   -0.288647    1.302753    0.000143    0.000191   -0.003924    0.010862    0.018839   -0.040217
* Read MO coefficients from SIRIUS.RST with label "NEWORB  " and header info: 13Aug18  DIIS  10
      Virial theorem: -V/T =      2.001345
@    MULPOP   F      -0.40; C1     -1.03; C2     -0.18; H       0.73; H       0.47; H       0.42; 

 DIIS Fock eigenvalues in symmetry 1
      -26.31050      -11.32900      -11.23666       -1.62731       -1.05164
[...]
             4 ^1A'      -166.9269151303                                        
             5 ^1A'      -166.9036689922                                        
             6 ^1A'      -166.8952045918                                        
             7 ^1A'      -166.8895513750                                        
             8 ^1A'      -166.8758898083                                        
             9 ^1A'      -166.8729844885                                        
            10 ^1A'      -166.8671791220                                        
            11 ^1A'      -166.8583822783                                        
            12 ^1A'      -166.8539976837                                        
            13 ^1A'      -166.8428035981                                        
            14 ^1A'      -166.8354812711                                        
            15 ^1A'      -166.8085504474                                        
            16 ^1A'      -166.8026996943                                        
            17 ^1A'      -166.7958773808                                        
            18 ^1A'      -166.7925699671                                        
            19 ^1A'      -166.7820768171                                        
            20 ^1A'      -166.7815368406                                        
            21 ^1A'      -166.7695323988                                        
            22 ^1A'      -166.7651442806                                        
             1 ^1A"      -167.0713000560                                        
             2 ^1A"      -166.9936024848                                        
             3 ^1A"      -166.9323961623                                        
             4 ^1A"      -166.8787771874                                        
             5 ^1A"      -166.8363741322                                        
             6 ^1A"      -166.8328002454                                        
             7 ^1A"      -166.7847325371                                        
             8 ^1A"      -166.7516299014                                        
             9 ^1A"      -166.7496989081                                        
            10 ^1A"      -166.7350792352                                        
            11 ^1A"      -166.7003835816                                        
            12 ^1A"      -166.6833826463                                        
            13 ^1A"      -166.6610652631                                        
            14 ^1A"      -166.6580329427                                        
            15 ^1A"      -166.6275399044                                        
                                                                                
                                                                                
 +=============================================================================+
 |  sym. | Exci.  |        CCSD       Length   Gauge Oscillator Strength       |
 |(spin, |        +------------------------------------------------------------+
 | spat) |        | Dipole Strength(a.u.) | Oscillator strength  | Direction   |
 +=============================================================================+
 | ^1A'  |    1   |        0.0007814      |      0.0055095       |  (Y,Z)      |
 | ^1A'  |    2   |        0.0016847      |      0.0119038       |  (Y,Z)      |
 | ^1A'  |    3   |        0.0004971      |      0.0035203       |  (Y,Z)      |
 | ^1A'  |    4   |        0.0005226      |      0.0037051       |  (Y,Z)      |
 | ^1A'  |    5   |        0.0000874      |      0.0006213       |  (Y,Z)      |
 | ^1A'  |    6   |        0.0030411      |      0.0216240       |  (Y,Z)      |
 | ^1A'  |    7   |        0.0011915      |      0.0084768       |  (Y,Z)      |
 | ^1A'  |    8   |        0.0000515      |      0.0003669       |  (Y,Z)      |
 | ^1A'  |    9   |        0.0007611      |      0.0054234       |  (Y,Z)      |
 | ^1A'  |   10   |        0.0027107      |      0.0193253       |  (Y,Z)      |
 | ^1A'  |   11   |        0.0003317      |      0.0023670       |  (Y,Z)      |
 | ^1A'  |   12   |        0.0005277      |      0.0037670       |  (Y,Z)      |
 | ^1A'  |   13   |        0.0000045      |      0.0000324       |  (Y,Z)      |
 | ^1A'  |   14   |        0.0004673      |      0.0033410       |  (Y,Z)      |
 | ^1A'  |   15   |        0.0006252      |      0.0044819       |  (Y,Z)      |
 | ^1A'  |   16   |        0.0000786      |      0.0005639       |  (Y,Z)      |
 | ^1A'  |   17   |        0.0012811      |      0.0091943       |  (Y,Z)      |
 | ^1A'  |   18   |        0.0003227      |      0.0023166       |  (Y,Z)      |
 | ^1A'  |   19   |        0.0003640      |      0.0026158       |  (Y,Z)      |
 | ^1A'  |   20   |        0.0001327      |      0.0009540       |  (Y,Z)      |
 | ^1A'  |   21   |        0.0007369      |      0.0053015       |  (Y,Z)      |
 | ^1A'  |   22   |        0.0001930      |      0.0013888       |  (Y,Z)      |
 +-----------------------------------------------------------------------------+
 | ^1A"  |    1   |        0.0065349      |      0.0456995       |    X        |
 | ^1A"  |    2   |        0.0083420      |      0.0587688       |    X        |
 | ^1A"  |    3   |        0.0009340      |      0.0066181       |    X        |
 | ^1A"  |    4   |        0.0005004      |      0.0035637       |    X        |
 | ^1A"  |    5   |        0.0003855      |      0.0027566       |    X        |
 | ^1A"  |    6   |        0.0000136      |      0.0000972       |    X        |
 | ^1A"  |    7   |        0.0004120      |      0.0029602       |    X        |
 | ^1A"  |    8   |        0.0010295      |      0.0074189       |    X        |
 | ^1A"  |    9   |        0.0000199      |      0.0001437       |    X        |
 | ^1A"  |   10   |        0.0001470      |      0.0010613       |    X        |
 | ^1A"  |   11   |        0.0012410      |      0.0089851       |    X        |
 | ^1A"  |   12   |        0.0001549      |      0.0011235       |    X        |
 | ^1A"  |   13   |        0.0004022      |      0.0029223       |    X        |
 | ^1A"  |   14   |        0.0002087      |      0.0015169       |    X        |
 | ^1A"  |   15   |        0.0000211      |      0.0001535       |    X        |
 +=============================================================================+

  1 a.u. =        27.21138 eV.  
  1 a.u. =    219474.62934 cm-1.
  

 *******************************************************************************
 *******************************************************************************
 *                                                                             *
 *                                                                             *
 *                      END OF COUPLED CLUSTER CALCULATION                     *
 *                                                                             *
 *                                                                             *
 *******************************************************************************
 *******************************************************************************


 CPU and wall time for CC :   75739.640   19508.482

 
     Date and time (Linux)  : Mon Aug 13 22:00:27 2018
     Host name              : n-62-23-31                              


                      .-------------------------------------.
                      | End of Coupled Cluster Section (CC) |
                      `-------------------------------------'

  Total CPU  time used in DALTON:  21 hours  3 minutes 54 seconds
  Total wall time used in DALTON:   5 hours 26 minutes  8 seconds

 
     Date and time (Linux)  : Mon Aug 13 22:00:27 2018
     Host name              : n-62-23-31                              
  

 +---------------------------------------------------------+ 
 | List of selected calculated molecular properties (a.u.) | 
 +---------------------------------------------------------+ 

  Properties are read from unit number                      4

 CCSD       properties :
 #  1 1 ENERGY   Ground state Energy =    -177.5609774878
 #  2 1 Sy: 1 Sp: 1 Exc:  1 E_tot:   -166.9846206035 w:     10.5763568844 E_grs:   -177.5609774878
 #  3 1 Exctot   Excited state Energy =    -166.9846206035
 #  4 1 Sy: 1 Sp: 1 Exc:  2 E_tot:   -166.9623846732 w:     10.5985928146 E_grs:   -177.5609774878
 #  5 1 Exctot   Excited state Energy =    -166.9623846732
 #  6 1 Sy: 1 Sp: 1 Exc:  3 E_tot:   -166.9391720036 w:     10.6218054842 E_grs:   -177.5609774878
 #  7 1 Exctot   Excited state Energy =    -166.9391720036
 #  8 1 Sy: 1 Sp: 1 Exc:  4 E_tot:   -166.9269151303 w:     10.6340623575 E_grs:   -177.5609774878
 #  9 1 Exctot   Excited state Energy =    -166.9269151303
 # 10 1 Sy: 1 Sp: 1 Exc:  5 E_tot:   -166.9036689922 w:     10.6573084956 E_grs:   -177.5609774878
 # 11 1 Exctot   Excited state Energy =    -166.9036689922
 # 12 1 Sy: 1 Sp: 1 Exc:  6 E_tot:   -166.8952045918 w:     10.6657728961 E_grs:   -177.5609774878
 # 13 1 Exctot   Excited state Energy =    -166.8952045918
 # 14 1 Sy: 1 Sp: 1 Exc:  7 E_tot:   -166.8895513750 w:     10.6714261128 E_grs:   -177.5609774878
 # 15 1 Exctot   Excited state Energy =    -166.8895513750
 # 16 1 Sy: 1 Sp: 1 Exc:  8 E_tot:   -166.8758898083 w:     10.6850876795 E_grs:   -177.5609774878
 # 17 1 Exctot   Excited state Energy =    -166.8758898083
 # 18 1 Sy: 1 Sp: 1 Exc:  9 E_tot:   -166.8729844885 w:     10.6879929993 E_grs:   -177.5609774878
 # 19 1 Exctot   Excited state Energy =    -166.8729844885
 # 20 1 Sy: 1 Sp: 1 Exc: 10 E_tot:   -166.8671791220 w:     10.6937983659 E_grs:   -177.5609774878
 # 21 1 Exctot   Excited state Energy =    -166.8671791220
 # 22 1 Sy: 1 Sp: 1 Exc: 11 E_tot:   -166.8583822783 w:     10.7025952096 E_grs:   -177.5609774878
 # 23 1 Exctot   Excited state Energy =    -166.8583822783
 # 24 1 Sy: 1 Sp: 1 Exc: 12 E_tot:   -166.8539976837 w:     10.7069798041 E_grs:   -177.5609774878
 # 25 1 Exctot   Excited state Energy =    -166.8539976837
 # 26 1 Sy: 1 Sp: 1 Exc: 13 E_tot:   -166.8428035981 w:     10.7181738898 E_grs:   -177.5609774878
 # 27 1 Exctot   Excited state Energy =    -166.8428035981
 # 28 1 Sy: 1 Sp: 1 Exc: 14 E_tot:   -166.8354812711 w:     10.7254962168 E_grs:   -177.5609774878
 # 29 1 Exctot   Excited state Energy =    -166.8354812711
 # 30 1 Sy: 1 Sp: 1 Exc: 15 E_tot:   -166.8085504474 w:     10.7524270404 E_grs:   -177.5609774878
 # 31 1 Exctot   Excited state Energy =    -166.8085504474
 # 32 1 Sy: 1 Sp: 1 Exc: 16 E_tot:   -166.8026996943 w:     10.7582777936 E_grs:   -177.5609774878
 # 33 1 Exctot   Excited state Energy =    -166.8026996943
 # 34 1 Sy: 1 Sp: 1 Exc: 17 E_tot:   -166.7958773808 w:     10.7651001071 E_grs:   -177.5609774878
 # 35 1 Exctot   Excited state Energy =    -166.7958773808
 # 36 1 Sy: 1 Sp: 1 Exc: 18 E_tot:   -166.7925699671 w:     10.7684075207 E_grs:   -177.5609774878
 # 37 1 Exctot   Excited state Energy =    -166.7925699671
 # 38 1 Sy: 1 Sp: 1 Exc: 19 E_tot:   -166.7820768171 w:     10.7789006707 E_grs:   -177.5609774878
 # 39 1 Exctot   Excited state Energy =    -166.7820768171
 # 40 1 Sy: 1 Sp: 1 Exc: 20 E_tot:   -166.7815368406 w:     10.7794406472 E_grs:   -177.5609774878
 # 41 1 Exctot   Excited state Energy =    -166.7815368406
 # 42 1 Sy: 1 Sp: 1 Exc: 21 E_tot:   -166.7695323988 w:     10.7914450891 E_grs:   -177.5609774878
 # 43 1 Exctot   Excited state Energy =    -166.7695323988
 # 44 1 Sy: 1 Sp: 1 Exc: 22 E_tot:   -166.7651442806 w:     10.7958332072 E_grs:   -177.5609774878
 # 45 1 Exctot   Excited state Energy =    -166.7651442806
 # 46 1 Sy: 2 Sp: 1 Exc:  1 E_tot:   -167.0713000560 w:     10.4896774319 E_grs:   -177.5609774878
 # 47 1 Exctot   Excited state Energy =    -167.0713000560
 # 48 1 Sy: 2 Sp: 1 Exc:  2 E_tot:   -166.9936024848 w:     10.5673750030 E_grs:   -177.5609774878
 # 49 1 Exctot   Excited state Energy =    -166.9936024848
 # 50 1 Sy: 2 Sp: 1 Exc:  3 E_tot:   -166.9323961623 w:     10.6285813255 E_grs:   -177.5609774878
 # 51 1 Exctot   Excited state Energy =    -166.9323961623
 # 52 1 Sy: 2 Sp: 1 Exc:  4 E_tot:   -166.8787771874 w:     10.6822003004 E_grs:   -177.5609774878
 # 53 1 Exctot   Excited state Energy =    -166.8787771874
 # 54 1 Sy: 2 Sp: 1 Exc:  5 E_tot:   -166.8363741322 w:     10.7246033557 E_grs:   -177.5609774878
 # 55 1 Exctot   Excited state Energy =    -166.8363741322
 # 56 1 Sy: 2 Sp: 1 Exc:  6 E_tot:   -166.8328002454 w:     10.7281772425 E_grs:   -177.5609774878
 # 57 1 Exctot   Excited state Energy =    -166.8328002454
 # 58 1 Sy: 2 Sp: 1 Exc:  7 E_tot:   -166.7847325371 w:     10.7762449507 E_grs:   -177.5609774878
 # 59 1 Exctot   Excited state Energy =    -166.7847325371
 # 60 1 Sy: 2 Sp: 1 Exc:  8 E_tot:   -166.7516299014 w:     10.8093475864 E_grs:   -177.5609774878
 # 61 1 Exctot   Excited state Energy =    -166.7516299014
 # 62 1 Sy: 2 Sp: 1 Exc:  9 E_tot:   -166.7496989081 w:     10.8112785798 E_grs:   -177.5609774878
 # 63 1 Exctot   Excited state Energy =    -166.7496989081
 # 64 1 Sy: 2 Sp: 1 Exc: 10 E_tot:   -166.7350792352 w:     10.8258982526 E_grs:   -177.5609774878
 # 65 1 Exctot   Excited state Energy =    -166.7350792352
 # 66 1 Sy: 2 Sp: 1 Exc: 11 E_tot:   -166.7003835816 w:     10.8605939062 E_grs:   -177.5609774878
 # 67 1 Exctot   Excited state Energy =    -166.7003835816
 # 68 1 Sy: 2 Sp: 1 Exc: 12 E_tot:   -166.6833826463 w:     10.8775948415 E_grs:   -177.5609774878
 # 69 1 Exctot   Excited state Energy =    -166.6833826463
 # 70 1 Sy: 2 Sp: 1 Exc: 13 E_tot:   -166.6610652631 w:     10.8999122248 E_grs:   -177.5609774878
 # 71 1 Exctot   Excited state Energy =    -166.6610652631
 # 72 1 Sy: 2 Sp: 1 Exc: 14 E_tot:   -166.6580329427 w:     10.9029445452 E_grs:   -177.5609774878
 # 73 1 Exctot   Excited state Energy =    -166.6580329427
 # 74 1 Sy: 2 Sp: 1 Exc: 15 E_tot:   -166.6275399044 w:     10.9334375835 E_grs:   -177.5609774878
 # 75 1 Exctot   Excited state Energy =    -166.6275399044
 # 76 2 |<O|XDIPLEN |i(10.576357)>| =     0.00000000
 # 78 2 |<O|XDIPLEN |i(10.598593)>| =     0.00000000
 # 80 2 |<O|XDIPLEN |i(10.621805)>| =     0.00000000
 # 82 2 |<O|XDIPLEN |i(10.634062)>| =     0.00000000
 # 84 2 |<O|XDIPLEN |i(10.657308)>| =     0.00000000
 # 86 2 |<O|XDIPLEN |i(10.665773)>| =     0.00000000
 # 88 2 |<O|XDIPLEN |i(10.671426)>| =     0.00000000
 # 90 2 |<O|XDIPLEN |i(10.685088)>| =     0.00000000
 # 92 2 |<O|XDIPLEN |i(10.687993)>| =     0.00000000
 # 94 2 |<O|XDIPLEN |i(10.693798)>| =     0.00000000
 # 96 2 |<O|XDIPLEN |i(10.702595)>| =     0.00000000
 # 98 2 |<O|XDIPLEN |i(10.706980)>| =     0.00000000
 #100 2 |<O|XDIPLEN |i(10.718174)>| =     0.00000000
 #102 2 |<O|XDIPLEN |i(10.725496)>| =     0.00000000
 #104 2 |<O|XDIPLEN |i(10.752427)>| =     0.00000000
 #106 2 |<O|XDIPLEN |i(10.758278)>| =     0.00000000
 #108 2 |<O|XDIPLEN |i(10.765100)>| =     0.00000000
 #110 2 |<O|XDIPLEN |i(10.768408)>| =     0.00000000
 #112 2 |<O|XDIPLEN |i(10.778901)>| =     0.00000000
 #114 2 |<O|XDIPLEN |i(10.779441)>| =     0.00000000
 #116 2 |<O|XDIPLEN |i(10.791445)>| =     0.00000000
 #118 2 |<O|XDIPLEN |i(10.795833)>| =     0.00000000
 #120 1 |<O|XDIPLEN |i(10.489677)>| =     0.08083885
 #122 1 |<O|XDIPLEN |i(10.567375)>| =     0.09133463
 #124 1 |<O|XDIPLEN |i(10.628581)>| =     0.03056161
 #126 1 |<O|XDIPLEN |i(10.682200)>| =     0.02236998
 #128 1 |<O|XDIPLEN |i(10.724603)>| =     0.01963535
 #130 1 |<O|XDIPLEN |i(10.728177)>| =     0.00368557
 #132 1 |<O|XDIPLEN |i(10.776245)>| =     0.02029882
 #134 1 |<O|XDIPLEN |i(10.809348)>| =     0.03208601
 #136 1 |<O|XDIPLEN |i(10.811279)>| =     0.00446478
 #138 1 |<O|XDIPLEN |i(10.825898)>| =     0.01212627
 #140 1 |<O|XDIPLEN |i(10.860594)>| =     0.03522734
 #142 1 |<O|XDIPLEN |i(10.877595)>| =     0.01244728
 #144 1 |<O|XDIPLEN |i(10.899912)>| =     0.02005376
 #146 1 |<O|XDIPLEN |i(10.902945)>| =     0.01444597
 #148 1 |<O|XDIPLEN |i(10.933438)>| =     0.00458929
 #150 1 |<O|YDIPLEN |i(10.576357)>| =     0.00006569
 #152 1 |<O|YDIPLEN |i(10.598593)>| =     0.03973106
 #154 1 |<O|YDIPLEN |i(10.621805)>| =     0.01340051
 #156 1 |<O|YDIPLEN |i(10.634062)>| =     0.02275659
 #158 1 |<O|YDIPLEN |i(10.657308)>| =     0.00894561
 #160 1 |<O|YDIPLEN |i(10.665773)>| =     0.04937072
 #162 1 |<O|YDIPLEN |i(10.671426)>| =     0.00142153
 #164 1 |<O|YDIPLEN |i(10.685088)>| =     0.00688004
 #166 1 |<O|YDIPLEN |i(10.687993)>| =     0.02753679
 #168 1 |<O|YDIPLEN |i(10.693798)>| =     0.01073093
 #170 1 |<O|YDIPLEN |i(10.702595)>| =     0.01742959
 #172 1 |<O|YDIPLEN |i(10.706980)>| =     0.02177148
 #174 1 |<O|YDIPLEN |i(10.718174)>| =     0.00212552
 #176 1 |<O|YDIPLEN |i(10.725496)>| =     0.01037159
 #178 1 |<O|YDIPLEN |i(10.752427)>| =     0.02250171
 #180 1 |<O|YDIPLEN |i(10.758278)>| =     0.00187159
 #182 1 |<O|YDIPLEN |i(10.765100)>| =     0.03364686
 #184 1 |<O|YDIPLEN |i(10.768408)>| =     0.00100268
 #186 1 |<O|YDIPLEN |i(10.778901)>| =     0.00748171
 #188 1 |<O|YDIPLEN |i(10.779441)>| =     0.00626181
 #190 1 |<O|YDIPLEN |i(10.791445)>| =     0.00710825
 #192 1 |<O|YDIPLEN |i(10.795833)>| =     0.00703513
 #194 2 |<O|YDIPLEN |i(10.489677)>| =     0.00000000
 #196 2 |<O|YDIPLEN |i(10.567375)>| =     0.00000000
 #198 2 |<O|YDIPLEN |i(10.628581)>| =     0.00000000
 #200 2 |<O|YDIPLEN |i(10.682200)>| =     0.00000000
 #202 2 |<O|YDIPLEN |i(10.724603)>| =     0.00000000
 #204 2 |<O|YDIPLEN |i(10.728177)>| =     0.00000000
 #206 2 |<O|YDIPLEN |i(10.776245)>| =     0.00000000
 #208 2 |<O|YDIPLEN |i(10.809348)>| =     0.00000000
 #210 2 |<O|YDIPLEN |i(10.811279)>| =     0.00000000
 #212 2 |<O|YDIPLEN |i(10.825898)>| =     0.00000000
 #214 2 |<O|YDIPLEN |i(10.860594)>| =     0.00000000
 #216 2 |<O|YDIPLEN |i(10.877595)>| =     0.00000000
 #218 2 |<O|YDIPLEN |i(10.899912)>| =     0.00000000
 #220 2 |<O|YDIPLEN |i(10.902945)>| =     0.00000000
 #222 2 |<O|YDIPLEN |i(10.933438)>| =     0.00000000
 #224 1 |<O|ZDIPLEN |i(10.576357)>| =     0.02795319
 #226 1 |<O|ZDIPLEN |i(10.598593)>| =     0.01030396
 #228 1 |<O|ZDIPLEN |i(10.621805)>| =     0.01782009
 #230 1 |<O|ZDIPLEN |i(10.634062)>| =     0.00218226
 #232 1 |<O|ZDIPLEN |i(10.657308)>| =     0.00272466
 #234 1 |<O|ZDIPLEN |i(10.665773)>| =     0.02456955
 #236 1 |<O|ZDIPLEN |i(10.671426)>| =     0.03448913
 #238 1 |<O|ZDIPLEN |i(10.685088)>| =     0.00204251
 #240 1 |<O|ZDIPLEN |i(10.687993)>| =     0.00169227
 #242 1 |<O|ZDIPLEN |i(10.693798)>| =     0.05094679
 #244 1 |<O|ZDIPLEN |i(10.702595)>| =     0.00528654
 #246 1 |<O|ZDIPLEN |i(10.706980)>| =     0.00733072
 #248 1 |<O|ZDIPLEN |i(10.718174)>| =     0.00010496
 #250 1 |<O|ZDIPLEN |i(10.725496)>| =     0.01896525
 #252 1 |<O|ZDIPLEN |i(10.752427)>| =     0.01090468
 #254 1 |<O|ZDIPLEN |i(10.758278)>| =     0.00866751
 #256 1 |<O|ZDIPLEN |i(10.765100)>| =     0.01220719
 #258 1 |<O|ZDIPLEN |i(10.768408)>| =     0.01793564
 #260 1 |<O|ZDIPLEN |i(10.778901)>| =     0.01755101
 #262 1 |<O|ZDIPLEN |i(10.779441)>| =     0.00967141
 #264 1 |<O|ZDIPLEN |i(10.791445)>| =     0.02619886
 #266 1 |<O|ZDIPLEN |i(10.795833)>| =     0.01197774
 #268 2 |<O|ZDIPLEN |i(10.489677)>| =     0.00000000
 #270 2 |<O|ZDIPLEN |i(10.567375)>| =     0.00000000
 #272 2 |<O|ZDIPLEN |i(10.628581)>| =     0.00000000
 #274 2 |<O|ZDIPLEN |i(10.682200)>| =     0.00000000
 #276 2 |<O|ZDIPLEN |i(10.724603)>| =     0.00000000
 #278 2 |<O|ZDIPLEN |i(10.728177)>| =     0.00000000
 #280 2 |<O|ZDIPLEN |i(10.776245)>| =     0.00000000
 #282 2 |<O|ZDIPLEN |i(10.809348)>| =     0.00000000
 #284 2 |<O|ZDIPLEN |i(10.811279)>| =     0.00000000
 #286 2 |<O|ZDIPLEN |i(10.825898)>| =     0.00000000
 #288 2 |<O|ZDIPLEN |i(10.860594)>| =     0.00000000
 #290 2 |<O|ZDIPLEN |i(10.877595)>| =     0.00000000
 #292 2 |<O|ZDIPLEN |i(10.899912)>| =     0.00000000
 #294 2 |<O|ZDIPLEN |i(10.902945)>| =     0.00000000
 #296 2 |<O|ZDIPLEN |i(10.933438)>| =     0.00000000

 THE_END   
