

     ************************************************************************
     *************** Dalton - An Electronic Structure Program ***************
     ************************************************************************

    This is output from DALTON release Dalton2017.alpha (2016)
         ( Web site: http://daltonprogram.org )

   ----------------------------------------------------------------------------

    NOTE:
     
    Dalton is an experimental code for the evaluation of molecular
    properties using (MC)SCF, DFT, CI, and CC wave functions.
    The authors accept no responsibility for the performance of
    the code or for the correctness of the results.
     
    The code (in whole or part) is provided under a licence and
    is not to be reproduced for further distribution without
    the written permission of the authors or their representatives.
     
    See the home page "http://daltonprogram.org" for further information.
     
    If results obtained with this code are published,
    the appropriate citations would be both of:
     
       K. Aidas, C. Angeli, K. L. Bak, V. Bakken, R. Bast,
       L. Boman, O. Christiansen, R. Cimiraglia, S. Coriani,
       P. Dahle, E. K. Dalskov, U. Ekstroem,
       T. Enevoldsen, J. J. Eriksen, P. Ettenhuber, B. Fernandez,
       L. Ferrighi, H. Fliegl, L. Frediani, K. Hald, A. Halkier,
       C. Haettig, H. Heiberg, T. Helgaker, A. C. Hennum,
       H. Hettema, E. Hjertenaes, S. Hoest, I.-M. Hoeyvik,
       M. F. Iozzi, B. Jansik, H. J. Aa. Jensen, D. Jonsson,
       P. Joergensen, J. Kauczor, S. Kirpekar,
       T. Kjaergaard, W. Klopper, S. Knecht, R. Kobayashi, H. Koch,
       J. Kongsted, A. Krapp, K. Kristensen, A. Ligabue,
       O. B. Lutnaes, J. I. Melo, K. V. Mikkelsen, R. H. Myhre,
       C. Neiss, C. B. Nielsen, P. Norman, J. Olsen,
       J. M. H. Olsen, A. Osted, M. J. Packer, F. Pawlowski,
       T. B. Pedersen, P. F. Provasi, S. Reine, Z. Rinkevicius,
       T. A. Ruden, K. Ruud, V. Rybkin, P. Salek, C. C. M. Samson,
       A. Sanchez de Meras, T. Saue, S. P. A. Sauer,
       B. Schimmelpfennig, K. Sneskov, A. H. Steindal,
       K. O. Sylvester-Hvid, P. R. Taylor, A. M. Teale,
       E. I. Tellgren, D. P. Tew, A. J. Thorvaldsen, L. Thoegersen,
       O. Vahtras, M. A. Watson, D. J. D. Wilson, M. Ziolkowski
       and H. Agren,
       "The Dalton quantum chemistry program system",
       WIREs Comput. Mol. Sci. 2014, 4:269–284 (doi: 10.1002/wcms.1172)
     
    and
     
       Dalton, a Molecular Electronic Structure Program,
       Release Dalton2017.alpha (2016), see http://daltonprogram.org
   ----------------------------------------------------------------------------

    Authors in alphabetical order (major contribution(s) in parenthesis):

  Kestutis Aidas,           Vilnius University,           Lithuania   (QM/MM)
  Celestino Angeli,         University of Ferrara,        Italy       (NEVPT2)
  Keld L. Bak,              UNI-C,                        Denmark     (AOSOPPA, non-adiabatic coupling, magnetic properties)
  Vebjoern Bakken,          University of Oslo,           Norway      (DALTON; geometry optimizer, symmetry detection)
  Radovan Bast,             UiT The Arctic U. of Norway,  Norway      (DALTON installation and execution frameworks)
  Pablo Baudin,             University of Valencia,       Spain       (Cholesky excitation energies)
  Linus Boman,              NTNU,                         Norway      (Cholesky decomposition and subsystems)
  Ove Christiansen,         Aarhus University,            Denmark     (CC module)
  Renzo Cimiraglia,         University of Ferrara,        Italy       (NEVPT2)
  Sonia Coriani,            University of Trieste,        Italy       (CC module, MCD in RESPONS)
  Janusz Cukras,            University of Trieste,        Italy       (MChD in RESPONS)
  Paal Dahle,               University of Oslo,           Norway      (Parallelization)
  Erik K. Dalskov,          UNI-C,                        Denmark     (SOPPA)
  Thomas Enevoldsen,        Univ. of Southern Denmark,    Denmark     (SOPPA)
  Janus J. Eriksen,         Aarhus University,            Denmark     (Polarizable embedding model, TDA)
  Rasmus Faber,             University of Copenhagen,     Denmark     (Vib.avg. NMR with SOPPA, parallel AO-SOPPA)
  Berta Fernandez,          U. of Santiago de Compostela, Spain       (doublet spin, ESR in RESPONS)
  Lara Ferrighi,            Aarhus University,            Denmark     (PCM Cubic response)
  Heike Fliegl,             University of Oslo,           Norway      (CCSD(R12))
  Luca Frediani,            UiT The Arctic U. of Norway,  Norway      (PCM)
  Bin Gao,                  UiT The Arctic U. of Norway,  Norway      (Gen1Int library)
  Christof Haettig,         Ruhr-University Bochum,       Germany     (CC module)
  Kasper Hald,              Aarhus University,            Denmark     (CC module)
  Asger Halkier,            Aarhus University,            Denmark     (CC module)
  Frederik Beyer Hansen,    University of Copenhagen,     Denmark     (Parallel AO-SOPPA)
  Erik D. Hedegaard,        Univ. of Southern Denmark,    Denmark     (Polarizable embedding model, QM/MM)
  Hanne Heiberg,            University of Oslo,           Norway      (geometry analysis, selected one-electron integrals)
  Trygve Helgaker,          University of Oslo,           Norway      (DALTON; ABACUS, ERI, DFT modules, London, and much more)
  Alf Christian Hennum,     University of Oslo,           Norway      (Parity violation)
  Hinne Hettema,            University of Auckland,       New Zealand (quadratic response in RESPONS; SIRIUS supersymmetry)
  Eirik Hjertenaes,         NTNU,                         Norway      (Cholesky decomposition)
  Pi A. B. Haase,           University of Copenhagen,     Denmark     (Triplet AO-SOPPA)
  Maria Francesca Iozzi,    University of Oslo,           Norway      (RPA)
  Brano Jansik              Technical Univ. of Ostrava    Czech Rep.  (DFT cubic response)
  Hans Joergen Aa. Jensen,  Univ. of Southern Denmark,    Denmark     (DALTON; SIRIUS, RESPONS, ABACUS modules, London, and much more)
  Dan Jonsson,              UiT The Arctic U. of Norway,  Norway      (cubic response in RESPONS module)
  Poul Joergensen,          Aarhus University,            Denmark     (RESPONS, ABACUS, and CC modules)
  Maciej Kaminski,          University of Warsaw,         Poland      (CPPh in RESPONS)
  Joanna Kauczor,           Linkoeping University,        Sweden      (Complex polarization propagator (CPP) module)
  Sheela Kirpekar,          Univ. of Southern Denmark,    Denmark     (Mass-velocity & Darwin integrals)
  Wim Klopper,              KIT Karlsruhe,                Germany     (R12 code in CC, SIRIUS, and ABACUS modules)
  Stefan Knecht,            ETH Zurich,                   Switzerland (Parallel CI and MCSCF)
  Rika Kobayashi,           Australian National Univ.,    Australia   (DIIS in CC, London in MCSCF)
  Henrik Koch,              NTNU,                         Norway      (CC module, Cholesky decomposition)
  Jacob Kongsted,           Univ. of Southern Denmark,    Denmark     (Polarizable embedding model, QM/MM)
  Andrea Ligabue,           University of Modena,         Italy       (CTOCD, AOSOPPA)
  Nanna H. List             Univ. of Southern Denmark,    Denmark     (Polarizable embedding model)
  Ola B. Lutnaes,           University of Oslo,           Norway      (DFT Hessian)
  Juan I. Melo,             University of Buenos Aires,   Argentina   (LRESC, Relativistic Effects on NMR Shieldings)
  Kurt V. Mikkelsen,        University of Copenhagen,     Denmark     (MC-SCRF and QM/MM)
  Rolf H. Myhre,            NTNU,                         Norway      (Cholesky, subsystems and ECC2)
  Christian Neiss,          Univ. Erlangen-Nuernberg,     Germany     (CCSD(R12))
  Christian B. Nielsen,     University of Copenhagen,     Denmark     (QM/MM)
  Patrick Norman,           Linkoeping University,        Sweden      (Cubic response and complex frequency response in RESPONS)
  Jeppe Olsen,              Aarhus University,            Denmark     (SIRIUS CI/density modules)
  Jogvan Magnus H. Olsen,   Univ. of Southern Denmark,    Denmark     (Polarizable embedding model, QM/MM)
  Anders Osted,             Copenhagen University,        Denmark     (QM/MM)
  Martin J. Packer,         University of Sheffield,      UK          (SOPPA)
  Filip Pawlowski,          Kazimierz Wielki University,  Poland      (CC3)
  Morten N. Pedersen,       Univ. of Southern Denmark,    Denmark     (Polarizable embedding model)
  Thomas B. Pedersen,       University of Oslo,           Norway      (Cholesky decomposition)
  Patricio F. Provasi,      University of Northeastern,   Argentina   (Analysis of coupling constants in localized orbitals)
  Zilvinas Rinkevicius,     KTH Stockholm,                Sweden      (open-shell DFT, ESR)
  Elias Rudberg,            KTH Stockholm,                Sweden      (DFT grid and basis info)
  Torgeir A. Ruden,         University of Oslo,           Norway      (Numerical derivatives in ABACUS)
  Kenneth Ruud,             UiT The Arctic U. of Norway,  Norway      (DALTON; ABACUS magnetic properties and much more)
  Pawel Salek,              KTH Stockholm,                Sweden      (DALTON; DFT code)
  Claire C. M. Samson       University of Karlsruhe       Germany     (Boys localization, r12 integrals in ERI)
  Alfredo Sanchez de Meras, University of Valencia,       Spain       (CC module, Cholesky decomposition)
  Trond Saue,               Paul Sabatier University,     France      (direct Fock matrix construction)
  Stephan P. A. Sauer,      University of Copenhagen,     Denmark     (SOPPA(CCSD), SOPPA prop., AOSOPPA, vibrational g-factors)
  Bernd Schimmelpfennig,    Forschungszentrum Karlsruhe,  Germany     (AMFI module)
  Kristian Sneskov,         Aarhus University,            Denmark     (Polarizable embedding model, QM/MM)
  Arnfinn H. Steindal,      UiT The Arctic U. of Norway,  Norway      (parallel QM/MM, Polarizable embedding model)
  Casper Steinmann,         Univ. of Southern Denmark,    Denmark     (QFIT, Polarizable embedding model)
  K. O. Sylvester-Hvid,     University of Copenhagen,     Denmark     (MC-SCRF)
  Peter R. Taylor,          VLSCI/Univ. of Melbourne,     Australia   (Symmetry handling ABACUS, integral transformation)
  Andrew M. Teale,          University of Nottingham,     England     (DFT-AC, DFT-D)
  David P. Tew,             University of Bristol,        England     (CCSD(R12))
  Olav Vahtras,             KTH Stockholm,                Sweden      (triplet response, spin-orbit, ESR, TDDFT, open-shell DFT)
  David J. Wilson,          La Trobe University,          Australia   (DFT Hessian and DFT magnetizabilities)
  Hans Agren,               KTH Stockholm,                Sweden      (SIRIUS module, RESPONS, MC-SCRF solvation model)
 --------------------------------------------------------------------------------

     Date and time (Linux)  : Mon Aug 13 15:11:09 2018
     Host name              : n-62-24-6                               

 * Work memory size             :   512000000 =  3.815 gigabytes.

 * Directories for basis set searches:
   1) /zhome/d7/7/119775/Vinylfluoride
   2) /zhome/d7/7/119775/My_Codes/dalton-private/build2016/basis


Compilation information
-----------------------

 Who compiled             | soco
 Host                     | hpclogin1
 System                   | Linux-2.6.32-696.20.1.el6.x86_64
 CMake generator          | Unix Makefiles
 Processor                | x86_64
 64-bit integers          | ON
 MPI                      | OFF
 Fortran compiler         | /opt/intel/2016update2/compilers_and_libraries_201
                          | 6.2.181/linux/bin/intel64/ifort
 Fortran compiler version | ifort (IFORT) 16.0.2 20160204
 C compiler               | /opt/intel/2016update2/compilers_and_libraries_201
                          | 6.2.181/linux/bin/intel64/icc
 C compiler version       | icc (ICC) 16.0.2 20160204
 C++ compiler             | /opt/intel/2016update2/compilers_and_libraries_201
                          | 6.2.181/linux/bin/intel64/icpc
 C++ compiler version     | icpc (ICC) 16.0.2 20160204
 Static linking           | OFF
 Last Git revision        | ed040e3212b88786272871181646ac7f3e590142
 Git branch               | cvs
 Configuration time       | 2018-07-17 12:04:55.895650


   Content of the .dal input file
 ----------------------------------

**DALTON INPUT
.RUN WAVE FUNCTIONS
!*MOLBAS
!.CM FUN
! 2 3 4
!.ZCMVAL
! 1
**INTEGRALS
.DIPLEN  !integrali dell'operatore dipolo elettrico
**WAVE FUNCTION
.CC      !funzione d'onda coupled cluster
*PRINT
.PRINTL
   0 11
*SCF INP !parte da Hartree-Fock
!.DOUBLY OCCUPIED
!3 1 1 0
.THRESH  !soglia di convergenza
 1.0D-10
!*ORBITAL INPUT
!.MOSTART
! NEWORB
*CC INPUT !specifiche funzione CC
.PRINT
 2
.CCSD
.FCORE
3 0
!.LCOR
!.CC3
.MAXRED
 3000
.MAX ITE
 900
.MXLRV
 2999
!.RESTART
*CCEXCI
.NCCEXC     !nro di eccitazioni per IRRE8
22 15
.CVSEPARATION
2 0
2 3 !quali di A1
0   !quali di B1
*CCLRSD     !momenti di transizione di dipolo
.EOMTMO
.DIPOLE
**END OF DALTON INPUT


   Content of the .mol file
 ----------------------------

ATOMBASIS
riga di commento
riga di commento
ATOMTYPES=3 Angstrom
   9.0    1    basis=6-311++G**
F      -1.1529023119     0.2247766372     0.0000000000
   6.0    2    basis=6-311++G**
C1      1.1793501171     0.1997294858     0.0000000000
C2      0.0163188564    -0.4355681094     0.0000000000
   1.0    3    basis=6-311++G**
H      -0.1189530186    -1.5078996853     0.0000000000
H       1.2308254859     1.2785611362     0.0000000000
H       2.0902344982    -0.3786194440     0.0000000000
   0.0    1
X        0.000         0.000         0.000



       *******************************************************************
       *********** Output from DALTON general input processing ***********
       *******************************************************************

 --------------------------------------------------------------------------------
   Overall default print level:    0
   Print level for DALTON.STAT:    1

    HERMIT 1- and 2-electron integral sections will be executed
    "Old" integral transformation used (limited to max 255 basis functions)
    Wave function sections will be executed (SIRIUS module)
 --------------------------------------------------------------------------------


   ****************************************************************************
   *************** Output of molecule and basis set information ***************
   ****************************************************************************


    The two title cards from your ".mol" input:
    ------------------------------------------------------------------------
 1: riga di commento                                                        
 2: riga di commento                                                        
    ------------------------------------------------------------------------

  Coordinates are entered in Angstrom and converted to atomic units.
          - Conversion factor : 1 bohr = 0.52917721 A

  Atomic type no.    1
  --------------------
  Nuclear charge:   9.00000
  Number of symmetry independent centers:    1
  Number of basis sets to read;    2
  The basis set is "6-311++G**" from the basis set library.
  Basis set file used for this atomic type with Z =   9 :
     "/zhome/d7/7/119775/My_Codes/dalton-private/build2016/basis/6-311++G**"

  Info about the basis set file: your basis has no documentation.
  Basis set: 6-311++G**                                                                      

  Atomic type no.    2
  --------------------
  Nuclear charge:   6.00000
  Number of symmetry independent centers:    2
  Number of basis sets to read;    2
  The basis set is "6-311++G**" from the basis set library.
  Basis set file used for this atomic type with Z =   6 :
     "/zhome/d7/7/119775/My_Codes/dalton-private/build2016/basis/6-311++G**"

  Info about the basis set file: your basis has no documentation.
  Basis set: 6-311++G**                                                                      

  Atomic type no.    3
  --------------------
  Nuclear charge:   1.00000
  Number of symmetry independent centers:    3
  Number of basis sets to read;    2
  The basis set is "6-311++G**" from the basis set library.
  Basis set file used for this atomic type with Z =   1 :
     "/zhome/d7/7/119775/My_Codes/dalton-private/build2016/basis/6-311++G**"

  Info about the basis set file: your basis has no documentation.
  Basis set: 6-311++G**                                                                      


                      SYMADD: Requested addition of symmetry
                      --------------------------------------

 Symmetry test threshold:  5.00E-06

@   The molecule is centered at center of mass and rotated
@   so principal axes of inertia are along coordinate axes.

 Symmetry class found: C(s)           

 Symmetry Independent Centres             
 ----------------------------
       9 :      0.00000000    -0.33348548    -2.01129402  Isotope  1
       6 :      0.00000000     0.85078270     0.23294635  Isotope  1
       6 :      0.00000000    -0.41202583     2.39557865  Isotope  1
       1 :      0.00000000     2.88366890     0.03528909  Isotope  1
       1 :      0.00000000    -2.45266854     2.43459728  Isotope  1
       1 :      0.00000000     0.63129631     4.14740766  Isotope  1

 The following element was found:   X        


                         SYMGRP: Point group information
                         -------------------------------

@    Full point group is: C(s)           
@    Represented as:      Cs 

@  * The irrep name for each symmetry:    1: A'     2: A" 

   * The point group was generated by:

      Reflection in the yz-plane

   * Group multiplication table

        |  E   Oyz
   -----+----------
     E  |  E   Oyz
    Oyz | Oyz   E 

   * Character table

        |  E   Oyz
   -----+----------
    A'  |   1    1
    A"  |   1   -1

   * Direct product table

        | A'   A" 
   -----+----------
    A'  | A'   A" 
    A"  | A"   A' 


                                 Isotopic Masses
                                 ---------------

                           F          18.998403
                           C1         12.000000
                           C2         12.000000
                           H           1.007825
                           H           1.007825
                           H           1.007825

                       Total mass:    46.021878 amu
                       Natural abundance:  97.768 %

 Center-of-mass coordinates (a.u.):    0.000000    0.000000   -0.000000


  Atoms and basis sets
  --------------------

  Number of atom types :    3
  Total number of atoms:    6

  label    atoms   charge   prim   cont     basis
  ----------------------------------------------------------------------
  F           1    9.0000    35    22      [12s6p1d|5s4p1d]                                   
  C2          2    6.0000    35    22      [12s6p1d|5s4p1d]                                   
  H           3    1.0000     9     7      [6s1p|4s1p]                                        
  ----------------------------------------------------------------------
  total:      6   24.0000   132    87
  ----------------------------------------------------------------------
  Spherical harmonic basis used.

  Threshold for neglecting AO integrals:  1.00D-12


  Cartesian Coordinates (a.u.)
  ----------------------------

  Total number of coordinates:   18
  F       :     1  x   0.0000000000    2  y  -0.3334854839    3  z  -2.0112940222
  C1      :     4  x   0.0000000000    5  y  -0.4120258297    6  z   2.3955786504
  C2      :     7  x   0.0000000000    8  y   0.8507827028    9  z   0.2329463520
  H       :    10  x   0.0000000000   11  y   2.8836688990   12  z   0.0352890906
  H       :    13  x   0.0000000000   14  y  -2.4526685398   15  z   2.4345972819
  H       :    16  x   0.0000000000   17  y   0.6312963095   18  z   4.1474076585


  Symmetry Coordinates
  --------------------

  Number of coordinates in each symmetry:    12    6

  Symmetry  A'  ( 1)

    1   F     y    2
    2   F     z    3
    3   C1    y    5
    4   C1    z    6
    5   C2    y    8
    6   C2    z    9
    7   H     y   11
    8   H     z   12
    9   H     y   14
   10   H     z   15
   11   H     y   17
   12   H     z   18

  Symmetry  A"  ( 2)

   13   F     x    1
   14   C1    x    4
   15   C2    x    7
   16   H     x   10
   17   H     x   13
   18   H     x   16


   Interatomic separations (in Angstrom):
   --------------------------------------

            F           C1          C2          H           H           H     
            ------      ------      ------      ------      ------      ------
 F     :    0.000000
 C1    :    2.332387    0.000000
 C2    :    1.342808    1.325234    0.000000
 H     :    2.017726    2.145131    1.080830    0.000000
 H     :    2.606266    1.080059    2.100777    3.096170    0.000000
 H     :    3.298791    1.078980    2.074697    2.481085    1.866770    0.000000


  Max    interatomic separation is    3.2988 Angstrom (    6.2338 Bohr)
  between atoms    6 and    1, "H     " and "F     ".

  Min HX interatomic separation is    1.0790 Angstrom (    2.0390 Bohr)

  Min YX interatomic separation is    1.3252 Angstrom (    2.5043 Bohr)


  Bond distances (Angstrom):
  --------------------------

                  atom 1     atom 2       distance
                  ------     ------       --------
  bond distance:  C2         F            1.342808
  bond distance:  C2         C1           1.325234
  bond distance:  H          C2           1.080830
  bond distance:  H          C1           1.080059
  bond distance:  H          C1           1.078980


  Bond angles (degrees):
  ----------------------

                  atom 1     atom 2     atom 3         angle
                  ------     ------     ------         -----
  bond angle:     C2         C1         H            121.377
  bond angle:     C2         C1         H            118.942
  bond angle:     H          C1         H            119.681
  bond angle:     F          C2         C1           121.898
  bond angle:     F          C2         H            112.267
  bond angle:     C1         C2         H            125.835




 Principal moments of inertia (u*A**2) and principal axes
 --------------------------------------------------------

   IA       7.751454          0.000000    0.000000    1.000000
   IB      47.515668          0.000000    1.000000    0.000000
   IC      55.267121          1.000000    0.000000    0.000000


 Rotational constants
 --------------------

@    The molecule is planar.

               A                   B                   C

          65197.9664          10636.0498           9144.2976 MHz
            2.174770            0.354780            0.305021 cm-1


@  Nuclear repulsion energy :   67.548214669811 Hartree


  Symmetry Orbitals
  -----------------

  Number of orbitals in each symmetry:          66   21


  Symmetry  A' ( 1)

    1     F        1s         1
    2     F        1s         2
    3     F        1s         3
    4     F        1s         4
    5     F        1s         5
    6     F        2py        7
    7     F        2pz        8
    8     F        2py       10
    9     F        2pz       11
   10     F        2py       13
   11     F        2pz       14
   12     F        2py       16
   13     F        2pz       17
   14     F        3d1-      19
   15     F        3d0       20
   16     F        3d2+      22
   17     C1       1s        23
   18     C1       1s        24
   19     C1       1s        25
   20     C1       1s        26
   21     C1       1s        27
   22     C1       2py       29
   23     C1       2pz       30
   24     C1       2py       32
   25     C1       2pz       33
   26     C1       2py       35
   27     C1       2pz       36
   28     C1       2py       38
   29     C1       2pz       39
   30     C1       3d1-      41
   31     C1       3d0       42
   32     C1       3d2+      44
   33     C2       1s        45
   34     C2       1s        46
   35     C2       1s        47
   36     C2       1s        48
   37     C2       1s        49
   38     C2       2py       51
   39     C2       2pz       52
   40     C2       2py       54
   41     C2       2pz       55
   42     C2       2py       57
   43     C2       2pz       58
   44     C2       2py       60
   45     C2       2pz       61
   46     C2       3d1-      63
   47     C2       3d0       64
   48     C2       3d2+      66
   49     H        1s        67
   50     H        1s        68
   51     H        1s        69
   52     H        1s        70
   53     H        2py       72
   54     H        2pz       73
   55     H        1s        74
   56     H        1s        75
   57     H        1s        76
   58     H        1s        77
   59     H        2py       79
   60     H        2pz       80
   61     H        1s        81
   62     H        1s        82
   63     H        1s        83
   64     H        1s        84
   65     H        2py       86
   66     H        2pz       87


  Symmetry  A" ( 2)

   67     F        2px        6
   68     F        2px        9
   69     F        2px       12
   70     F        2px       15
   71     F        3d2-      18
   72     F        3d1+      21
   73     C1       2px       28
   74     C1       2px       31
   75     C1       2px       34
   76     C1       2px       37
   77     C1       3d2-      40
   78     C1       3d1+      43
   79     C2       2px       50
   80     C2       2px       53
   81     C2       2px       56
   82     C2       2px       59
   83     C2       3d2-      62
   84     C2       3d1+      65
   85     H        2px       71
   86     H        2px       78
   87     H        2px       85

  Symmetries of electric field:  A" (2)  A' (1)  A' (1)

  Symmetries of magnetic field:  A' (1)  A" (2)  A" (2)


                     .---------------------------------------.
                     | Starting in Integral Section (HERMIT) |
                     `---------------------------------------'



 ***************************************************************************************
 ****************** Output from **INTEGRALS input processing (HERMIT) ******************
 ***************************************************************************************



    *************************************************************************
    ****************** Output from HERMIT input processing ******************
    *************************************************************************


 Default print level:        1

 * Nuclear model: Point charge

 Calculation of one- and two-electron Hamiltonian integrals.

 The following one-electron property integrals are calculated as requested:
          - overlap integrals
          - dipole length integrals

 Center of mass  (bohr):      0.000000000000      0.000000000000     -0.000000000000
 Operator center (bohr):      0.000000000000      0.000000000000      0.000000000000
 Gauge origin    (bohr):      0.000000000000      0.000000000000     -0.000000000000
 Dipole origin   (bohr):      0.000000000000      0.000000000000     -0.000000000000


     ************************************************************************
     ************************** Output from HERINT **************************
     ************************************************************************



                      Nuclear contribution to dipole moments
                      --------------------------------------

                 au               Debye          C m (/(10**-30)

      y      0.69346855         1.76262113         5.87947123
      z      4.28679785        10.89595260        36.34498569


  Time used in QUADRUP    is       0.18 seconds

 Threshold for neglecting two-electron integrals:  1.00D-12
 HERMIT - Number of two-electron integrals written:     3798942 ( 51.8% )
 HERMIT - Megabytes written:                             43.503

  Time used in TWOINT     is       2.21 seconds
  Total CPU  time used in HERMIT:   2.62 seconds
  Total wall time used in HERMIT:   0.78 seconds


                        .----------------------------------.
                        | End of Integral Section (HERMIT) |
                        `----------------------------------'



                   .--------------------------------------------.
                   | Starting in Wave Function Section (SIRIUS) |
                   `--------------------------------------------'

NCCEXCI for singlet:   22   15
 CCSD_INPUT: core-val requested
 Requested number of core orbs per sym
                     2                     0
 Indices of requested core orbs
                     2                     3
 

 *** Output from Huckel module :

     Using EWMO model:          T
     Using EHT  model:          F
     Number of Huckel orbitals each symmetry:   15    3

 EWMO - Energy Weighted Maximum Overlap - is a Huckel type method,
        which normally is better than Extended Huckel Theory.
 Reference: Linderberg and Ohrn, Propagators in Quantum Chemistry (Wiley, 1973)

 Huckel EWMO eigenvalues for symmetry :  1
          -26.384395     -11.355928     -11.346749      -1.832332      -1.392567
           -1.013694      -0.833137      -0.706825      -0.607311      -0.509111
           -0.227698      -0.127596      -0.124097      -0.095412      -0.086945

 Huckel EWMO eigenvalues for symmetry :  2
           -0.789532      -0.510487      -0.243781

 **********************************************************************
 *SIRIUS* a direct, restricted step, second order MCSCF program       *
 **********************************************************************

 
     Date and time (Linux)  : Mon Aug 13 15:11:10 2018
     Host name              : n-62-24-6                               

 Title lines from ".mol" input file:
     riga di commento                                                        
     riga di commento                                                        

 Print level on unit LUPRI =   2 is   0
 Print level on unit LUW4  =   2 is  11

@    (Integral direct) CC calculation.

@    This is a combination run starting with
@              a restricted, closed shell Hartree-Fock calculation


 Initial molecular orbitals are obtained according to
 ".MOSTART EWMO  " input option

     Wave function specification
     ============================

     For the specification of the Coupled Cluster: see later.

@    Wave function type        --- CC ---
@    Number of closed shell electrons          24
@    Number of electrons in active shells       0
@    Total charge of the molecule               0

@    Spin multiplicity and 2 M_S                1         0
@    Total number of symmetries                 2 (point group: Cs )
@    Reference state symmetry                   1 (irrep name : A' )

     Orbital specifications
     ======================
@    Abelian symmetry species          All |    1    2
@                                          |  A'   A" 
                                       --- |  ---  ---
@    Total number of orbitals           87 |   66   21
@    Number of basis functions          87 |   66   21

      ** Automatic occupation of RHF orbitals **

      -- Initial occupation of symmetries is determined from extended Huckel guess.           
      -- Initial occupation of symmetries is :
@    Occupied SCF orbitals              12 |   10    2

     Maximum number of Fock   iterations      0
     Maximum number of DIIS   iterations     60
     Maximum number of QC-SCF iterations     60
     Threshold for SCF convergence     1.00D-10


 Changes of defaults for CC:
 ---------------------------

 -Excitation energies calculated
 -One-photon absorption strengths will be calculated
 -Oscillator strengths calculated
  
* Read MO coefficients from SIRIUS.RST with label "NEWORB  " and header info: 13Aug18  REORTHO 


 ***********************************************
 ***** DIIS acceleration of SCF iterations *****
 ***********************************************

 C1-DIIS algorithm; max error vectors =    8
 -----------------------------------------------------------------------------

 *** DIIS iteration number    1
 RDSUPM called. NFMAT, ISYMDM(1:NFMAT)                     1
                     1

Calculating AOSUPINT
     (Precalculated AO two-electron integrals are transformed to P-supermatrix elements.
      Threshold for discarding integrals :  1.00D-12 )
  CPU  time used in FORMSUP    is   1.33 seconds
  WALL time used in FORMSUP    is   0.66 seconds

 ITDIIS, energy, error norm, change in energy, scr.thr., difden:
@ DIIS iter.   1    -176.422455826        2.92073D+00   -1.76D+02  -20    T

@ AUTO OCC: current SCF occupation  10   2

 (DIIS_RED) Control Parameters C2DIIS =         F NEVC =    1


 (DIIS_RED) B matrix:

               Column   1
       1       8.53069157
    ==== End of matrix output ====

 DIIS C vector; C2DIIS = F, LAMBDA = -8.53D+00
    1.000000
* Read MO coefficients from SIRIUS.RST with label "NEWORB  " and header info: 13Aug18  DIIS   1
      Virial theorem: -V/T =      2.001481
@    MULPOP   F      -0.57; C1     -0.09; C2      0.64; H      -0.04; H       0.01; H       0.05; 
   1  Level shift: doubly occupied orbital energies shifted by -2.00D-01

 DIIS Fock eigenvalues in symmetry 1
      -26.23623      -12.09252      -11.89432       -1.81904       -1.50519
       -1.16254       -1.05945       -0.98974       -0.88540       -0.78412
        0.02181        0.04434        0.06148        0.09083        0.11731
        0.14352        0.14399        0.17003        0.18050        0.19797
        0.21425        0.24633        0.32324        0.36095        0.43727
        0.46867        0.48562        0.53248        0.53665        0.58363
        0.69486        0.74026        0.76639        0.82182        0.85104
        0.92868        1.43336        1.51292        1.56428        1.65074
        1.66265        1.75349        1.76174        1.99547        2.11937
        2.22846        2.24778        2.36663        2.54797        2.70209
        2.75972        2.81810        2.85825        3.14349        3.28207
        3.54926        3.91009        4.15238        4.32162        4.61490
        5.32333        7.13785        7.41330       24.32398       24.93038
       69.02003

 DIIS Fock eigenvalues in symmetry 2
       -0.91917       -0.74699       -0.05823        0.08966        0.14163
        0.37324        0.55283        0.62789        1.04110        1.09676
        1.28291        1.66777        1.75037        1.86324        2.10367
        2.20390        2.72503        2.93792        4.29939        4.48624
        7.05922
 Time used in FCKEIG, thr_jaco:   2.10D-02  6.00D-03  2.99D-04
 CPU and wall times used in FCKEIG, THR_FCKEIG:   2.10D-02  6.00D-03  2.92D-02
 -----------------------------------------------------------------------------

 *** DIIS iteration number    2
 RDSUPM called. NFMAT, ISYMDM(1:NFMAT)                     1
                     1

 ITDIIS, energy, error norm, change in energy, scr.thr., difden:
@ DIIS iter.   2    -176.877550039        1.09283D+00   -4.55D-01  -20    T

@ AUTO OCC: current SCF occupation  10   2

 (DIIS_RED) Control Parameters C2DIIS =         F NEVC =    2


 (DIIS_RED) B matrix:

               Column   1     Column   2
       1       8.53069157
       2      -1.44439732     1.19427411
    ==== End of matrix output ====

 DIIS C vector; C2DIIS = F, LAMBDA = -6.42D-01
    0.209190    0.790810
* Read MO coefficients from SIRIUS.RST with label "NEWORB  " and header info: 13Aug18  DIIS   2
      Virial theorem: -V/T =      2.004410
@    MULPOP   F      -0.08; C1     -0.28; C2     -0.13; H       0.16; H       0.17; H       0.16; 
   2  Level shift: doubly occupied orbital energies shifted by -1.00D-01

 DIIS Fock eigenvalues in symmetry 1
      -26.54692      -11.44747      -11.34489       -1.77961       -1.16743
       -0.96951       -0.87806       -0.81198       -0.71109       -0.67695
        0.04444        0.05820        0.06633        0.11685        0.13692
        0.17323        0.17825        0.20330        0.21340        0.25682
        0.27443        0.31056        0.36552        0.44776        0.46533
        0.48622        0.53520        0.62147        0.63221        0.68961
        0.82765        0.88497        0.90643        0.93392        0.99674
        1.07197        1.54232        1.61609        1.63966        1.70905
        1.78498        1.82366        1.92326        2.11544        2.18255
        2.31872        2.41062        2.53128        2.71739        2.84182
        2.89674        2.95808        3.02295        3.33905        3.55338
        3.85664        4.11962        4.18529        4.40216        4.53125
        5.25367        6.92174        7.24173       24.81672       25.40022
       68.61449

 DIIS Fock eigenvalues in symmetry 2
       -0.83549       -0.50679        0.09895        0.11870        0.20037
        0.36778        0.68892        0.76936        1.23017        1.29292
        1.43064        1.64312        1.88345        2.01070        2.29197
        2.38302        3.04791        3.23759        4.16078        4.38096
        6.84145
 Time used in FCKEIG, thr_jaco:   1.70D-02  5.00D-03  1.12D-04
 CPU and wall times used in FCKEIG, THR_FCKEIG:   1.80D-02  5.00D-03  1.09D-02
 -----------------------------------------------------------------------------

 *** DIIS iteration number    3
 RDSUPM called. NFMAT, ISYMDM(1:NFMAT)                     1
                     1

 ITDIIS, energy, error norm, change in energy, scr.thr., difden:
@ DIIS iter.   3    -176.931410250        2.80157D-01   -5.39D-02  -20    T

@ AUTO OCC: current SCF occupation  10   2

 (DIIS_RED) Control Parameters C2DIIS =         F NEVC =    3


 (DIIS_RED) B matrix:

               Column   1     Column   2     Column   3
       1       8.53069157
       2      -1.44439732     1.19427411
       3       0.40051163    -0.09318267     0.07848771
    ==== End of matrix output ====

 DIIS C vector; C2DIIS = F, LAMBDA = -5.56D-02
   -0.021252    0.093282    0.927970
* Read MO coefficients from SIRIUS.RST with label "NEWORB  " and header info: 13Aug18  DIIS   3
      Virial theorem: -V/T =      1.999022
@    MULPOP   F      -0.18; C1     -0.25; C2      0.02; H       0.15; H       0.14; H       0.12; 
   3  Level shift: doubly occupied orbital energies shifted by -5.00D-02

 DIIS Fock eigenvalues in symmetry 1
      -26.32929      -11.36149      -11.26205       -1.66601       -1.09273
       -0.88200       -0.78243       -0.72534       -0.63100       -0.60361
        0.04586        0.05916        0.06733        0.12081        0.13957
        0.17640        0.18084        0.20602        0.21640        0.26782
        0.28820        0.32667        0.38023        0.45590        0.47694
        0.50362        0.54956        0.63836        0.65158        0.70591
        0.84431        0.90812        0.91954        0.95299        1.01755
        1.09185        1.57358        1.64744        1.66557        1.73821
        1.81196        1.84701        1.95387        2.14819        2.21618
        2.34679        2.43805        2.56076        2.74131        2.86709
        2.91933        2.98311        3.05112        3.37191        3.59328
        3.88764        4.15048        4.25836        4.43471        4.60069
        5.32132        7.02047        7.34113       24.85086       25.43366
       68.78104

 DIIS Fock eigenvalues in symmetry 2
       -0.72831       -0.42925        0.11046        0.12199        0.21797
        0.37659        0.70534        0.78868        1.25576        1.31779
        1.46514        1.67539        1.90695        2.03307        2.31849
        2.40766        3.07730        3.26539        4.23529        4.45429
        6.94104
 Time used in FCKEIG, thr_jaco:   1.40D-02  4.00D-03  2.86D-05
 CPU and wall times used in FCKEIG, THR_FCKEIG:   1.40D-02  4.00D-03  2.80D-03
 -----------------------------------------------------------------------------

 *** DIIS iteration number    4
 RDSUPM called. NFMAT, ISYMDM(1:NFMAT)                     1
                     1

 ITDIIS, energy, error norm, change in energy, scr.thr., difden:
@ DIIS iter.   4    -176.935992883        8.20988D-02   -4.58D-03  -20    T

@ AUTO OCC: current SCF occupation  10   2

 (DIIS_RED) Control Parameters C2DIIS =         F NEVC =    4


 (DIIS_RED) B matrix:

               Column   1     Column   2     Column   3     Column   4
       1       8.53069157
       2      -1.44439732     1.19427411
       3       0.40051163    -0.09318267     0.07848771
       4       0.08413449     0.02475864    -0.00218543     0.00674022
    ==== End of matrix output ====

 DIIS C vector; C2DIIS = F, LAMBDA = -3.44D-03
   -0.020020   -0.029638    0.136243    0.913414
* Read MO coefficients from SIRIUS.RST with label "NEWORB  " and header info: 13Aug18  DIIS   4
      Virial theorem: -V/T =      2.001773
@    MULPOP   F      -0.16; C1     -0.25; C2      0.00; H       0.16; H       0.14; H       0.11; 
   4  Level shift: doubly occupied orbital energies shifted by -2.50D-02

 DIIS Fock eigenvalues in symmetry 1
      -26.33911      -11.36130      -11.26458       -1.65597       -1.08042
       -0.86586       -0.76748       -0.71099       -0.61575       -0.58688
        0.04573        0.05914        0.06733        0.12051        0.13963
        0.17558        0.18018        0.20556        0.21603        0.26703
        0.28693        0.32485        0.37744        0.45464        0.47485
        0.50068        0.54726        0.63543        0.64702        0.70087
        0.83862        0.90236        0.91572        0.94773        1.00953
        1.08253        1.56768        1.64384        1.66002        1.73309
        1.80684        1.84235        1.94635        2.14133        2.20939
        2.34272        2.43239        2.55404        2.73977        2.86380
        2.91562        2.98241        3.04419        3.36334        3.57803
        3.87250        4.14290        4.24540        4.42409        4.58762
        5.30799        7.00157        7.32153       24.82605       25.40810
       68.74657

 DIIS Fock eigenvalues in symmetry 2
       -0.71650       -0.41251        0.10863        0.12150        0.21349
        0.37513        0.70076        0.78320        1.25060        1.31148
        1.45651        1.66922        1.90450        2.02983        2.31109
        2.40083        3.06222        3.25004        4.22215        4.44080
        6.92217
 Time used in FCKEIG, thr_jaco:   1.30D-02  4.00D-03  8.39D-06
 CPU and wall times used in FCKEIG, THR_FCKEIG:   1.30D-02  4.00D-03  8.21D-04
 -----------------------------------------------------------------------------

 *** DIIS iteration number    5
 RDSUPM called. NFMAT, ISYMDM(1:NFMAT)                     1
                     1

 ITDIIS, energy, error norm, change in energy, scr.thr., difden:
@ DIIS iter.   5    -176.936593387        1.91764D-02   -6.01D-04  -20    T

@ AUTO OCC: current SCF occupation  10   2

 (DIIS_RED) Control Parameters C2DIIS =         F NEVC =    5


 (DIIS_RED) B matrix:

               Column   1     Column   2     Column   3     Column   4     Column   5
       1       8.53069157
       2      -1.44439732     1.19427411
       3       0.40051163    -0.09318267     0.07848771
       4       0.08413449     0.02475864    -0.00218543     0.00674022
       5       0.01441614     0.00073558     0.00331783     0.00067371     0.00036773
    ==== End of matrix output ====

 DIIS C vector; C2DIIS = F, LAMBDA = -1.60D-04
    0.002824    0.000818   -0.067489   -0.158572    1.222419
* Read MO coefficients from SIRIUS.RST with label "NEWORB  " and header info: 13Aug18  DIIS   5
      Virial theorem: -V/T =      2.000933
@    MULPOP   F      -0.16; C1     -0.25; C2     -0.01; H       0.17; H       0.15; H       0.11; 

 DIIS Fock eigenvalues in symmetry 1
      -26.31005      -11.33248      -11.24026       -1.62852       -1.05468
       -0.83979       -0.74056       -0.68557       -0.59094       -0.56191
        0.04555        0.05894        0.06721        0.12073        0.13932
        0.17550        0.18020        0.20538        0.21594        0.26667
        0.28696        0.32518        0.37808        0.45501        0.47483
        0.50113        0.54736        0.63559        0.64694        0.70046
        0.83887        0.90199        0.91562        0.94653        1.00991
        1.08287        1.56882        1.64395        1.66014        1.73311
        1.80714        1.84215        1.94675        2.14197        2.20999
        2.34247        2.43222        2.55407        2.73958        2.86275
        2.91561        2.98160        3.04367        3.36334        3.57994
        3.87328        4.14174        4.24780        4.42429        4.58973
        5.31017        7.00436        7.32432       24.82802       25.40921
       68.75061

 DIIS Fock eigenvalues in symmetry 2
       -0.69005       -0.38627        0.10862        0.12185        0.21407
        0.37575        0.70165        0.78359        1.25009        1.31144
        1.45722        1.67037        1.90421        2.02953        2.31057
        2.40061        3.06352        3.25001        4.22459        4.44320
        6.92499
 Time used in FCKEIG, thr_jaco:   1.30D-02  3.00D-03  1.96D-06
 CPU and wall times used in FCKEIG, THR_FCKEIG:   1.30D-02  3.00D-03  1.92D-04
 -----------------------------------------------------------------------------

 *** DIIS iteration number    6
 RDSUPM called. NFMAT, ISYMDM(1:NFMAT)                     1
                     1

 ITDIIS, energy, error norm, change in energy, scr.thr., difden:
@ DIIS iter.   6    -176.936657244        4.69970D-03   -6.39D-05  -20    T

@ AUTO OCC: current SCF occupation  10   2

 (DIIS_RED) Control Parameters C2DIIS =         F NEVC =    6


 (DIIS_RED) B matrix:

               Column   1     Column   2     Column   3     Column   4     Column   5     Column   6
       1       8.53069157
       2      -1.44439732     1.19427411
       3       0.40051163    -0.09318267     0.07848771
       4       0.08413449     0.02475864    -0.00218543     0.00674022
       5       0.01441614     0.00073558     0.00331783     0.00067371     0.00036773
       6      -0.00004482     0.00046452     0.00007432     0.00015161     0.00005458     0.00002209
    ==== End of matrix output ====

 DIIS C vector; C2DIIS = F, LAMBDA = -1.56D-05
    0.000223    0.000595    0.006014   -0.009284   -0.180355    1.182808
* Read MO coefficients from SIRIUS.RST with label "NEWORB  " and header info: 13Aug18  DIIS   6
      Virial theorem: -V/T =      2.000964
@    MULPOP   F      -0.16; C1     -0.25; C2     -0.02; H       0.17; H       0.15; H       0.11; 

 DIIS Fock eigenvalues in symmetry 1
      -26.31048      -11.33310      -11.23910       -1.62879       -1.05467
       -0.83986       -0.74064       -0.68567       -0.59092       -0.56198
        0.04556        0.05893        0.06719        0.12072        0.13931
        0.17548        0.18020        0.20536        0.21596        0.26670
        0.28695        0.32519        0.37797        0.45497        0.47483
        0.50111        0.54736        0.63556        0.64691        0.70046
        0.83879        0.90203        0.91565        0.94672        1.00980
        1.08286        1.56871        1.64394        1.66012        1.73313
        1.80707        1.84222        1.94670        2.14191        2.20993
        2.34251        2.43228        2.55407        2.73957        2.86295
        2.91565        2.98165        3.04384        3.36341        3.57964
        3.87330        4.14212        4.24750        4.42439        4.58940
        5.30983        7.00401        7.32394       24.82810       25.40962
       68.75017

 DIIS Fock eigenvalues in symmetry 2
       -0.69059       -0.38608        0.10857        0.12194        0.21418
        0.37567        0.70173        0.78377        1.25025        1.31150
        1.45705        1.67021        1.90420        2.02958        2.31066
        2.40063        3.06349        3.25030        4.22428        4.44286
        6.92462
 Time used in FCKEIG, thr_jaco:   1.20D-02  3.00D-03  4.80D-07
 CPU and wall times used in FCKEIG, THR_FCKEIG:   1.20D-02  3.00D-03  4.70D-05
 -----------------------------------------------------------------------------

 *** DIIS iteration number    7
 RDSUPM called. NFMAT, ISYMDM(1:NFMAT)                     1
                     1

 ITDIIS, energy, error norm, change in energy, scr.thr., difden:
@ DIIS iter.   7    -176.936661784        2.57131D-03   -4.54D-06  -20    T

@ AUTO OCC: current SCF occupation  10   2

 (DIIS_RED) Control Parameters C2DIIS =         F NEVC =    7


 (DIIS_RED) B matrix:

               Column   1     Column   2     Column   3     Column   4     Column   5     Column   6
       1       8.53069157
       2      -1.44439732     1.19427411
       3       0.40051163    -0.09318267     0.07848771
       4       0.08413449     0.02475864    -0.00218543     0.00674022
       5       0.01441614     0.00073558     0.00331783     0.00067371     0.00036773
       6      -0.00004482     0.00046452     0.00007432     0.00015161     0.00005458     0.00002209
       7      -0.00042452    -0.00000448     0.00004981     0.00002015     0.00002525     0.00000436

               Column   7
       7       0.00000661
    ==== End of matrix output ====

 DIIS C vector; C2DIIS = F, LAMBDA = -2.69D-06
   -0.000175    0.000218    0.009639    0.016035   -0.209585    0.321960    0.861908
* Read MO coefficients from SIRIUS.RST with label "NEWORB  " and header info: 13Aug18  DIIS   7
      Virial theorem: -V/T =      2.000958
@    MULPOP   F      -0.16; C1     -0.25; C2     -0.02; H       0.17; H       0.15; H       0.11; 

 DIIS Fock eigenvalues in symmetry 1
      -26.31027      -11.33245      -11.24000       -1.62857       -1.05476
       -0.83980       -0.74047       -0.68574       -0.59108       -0.56202
        0.04556        0.05891        0.06716        0.12075        0.13927
        0.17546        0.18023        0.20532        0.21595        0.26661
        0.28690        0.32524        0.37803        0.45500        0.47481
        0.50114        0.54733        0.63562        0.64687        0.70036
        0.83884        0.90192        0.91565        0.94643        1.00988
        1.08283        1.56878        1.64386        1.66006        1.73303
        1.80708        1.84219        1.94677        2.14196        2.20993
        2.34242        2.43221        2.55400        2.73957        2.86263
        2.91569        2.98147        3.04362        3.36331        3.57996
        3.87326        4.14165        4.24768        4.42432        4.58956
        5.31001        7.00419        7.32415       24.82813       25.40934
       68.75038

 DIIS Fock eigenvalues in symmetry 2
       -0.69052       -0.38611        0.10852        0.12197        0.21416
        0.37572        0.70177        0.78369        1.25005        1.31143
        1.45714        1.67030        1.90411        2.02954        2.31044
        2.40054        3.06360        3.25001        4.22445        4.44306
        6.92479
 Time used in FCKEIG, thr_jaco:   1.30D-02  4.00D-03  2.63D-07
 CPU and wall times used in FCKEIG, THR_FCKEIG:   1.30D-02  4.00D-03  2.57D-05
 -----------------------------------------------------------------------------

 *** DIIS iteration number    8
 RDSUPM called. NFMAT, ISYMDM(1:NFMAT)                     1
                     1

 ITDIIS, energy, error norm, change in energy, scr.thr., difden:
@ DIIS iter.   8    -176.936662454        5.98224D-04   -6.70D-07  -20    T

@ AUTO OCC: current SCF occupation  10   2

 (DIIS_RED) Control Parameters C2DIIS =         F NEVC =    8


 (DIIS_RED) B matrix:

               Column   1     Column   2     Column   3     Column   4     Column   5     Column   6
       1       8.53069157
       2      -1.44439732     1.19427411
       3       0.40051163    -0.09318267     0.07848771
       4       0.08413449     0.02475864    -0.00218543     0.00674022
       5       0.01441614     0.00073558     0.00331783     0.00067371     0.00036773
       6      -0.00004482     0.00046452     0.00007432     0.00015161     0.00005458     0.00002209
       7      -0.00042452    -0.00000448     0.00004981     0.00002015     0.00002525     0.00000436
       8      -0.00004508    -0.00000955     0.00000394    -0.00000325     0.00000235     0.00000155

               Column   7     Column   8
       7       0.00000661
       8       0.00000087     0.00000036
    ==== End of matrix output ====

 DIIS C vector; C2DIIS = F, LAMBDA = -1.63D-07
   -0.000036   -0.000132   -0.001398    0.000980    0.038922   -0.140125   -0.196561    1.298350
* Read MO coefficients from SIRIUS.RST with label "NEWORB  " and header info: 13Aug18  DIIS   8
      Virial theorem: -V/T =      2.000957
@    MULPOP   F      -0.16; C1     -0.25; C2     -0.02; H       0.17; H       0.15; H       0.11; 

 DIIS Fock eigenvalues in symmetry 1
      -26.31023      -11.33245      -11.23996       -1.62853       -1.05474
       -0.83977       -0.74042       -0.68572       -0.59107       -0.56200
        0.04556        0.05891        0.06716        0.12075        0.13926
        0.17546        0.18023        0.20531        0.21595        0.26661
        0.28690        0.32525        0.37804        0.45501        0.47482
        0.50116        0.54734        0.63564        0.64687        0.70037
        0.83885        0.90192        0.91566        0.94642        1.00990
        1.08285        1.56881        1.64387        1.66007        1.73303
        1.80710        1.84220        1.94678        2.14198        2.20994
        2.34242        2.43221        2.55401        2.73957        2.86262
        2.91571        2.98145        3.04362        3.36332        3.57998
        3.87329        4.14164        4.24771        4.42433        4.58960
        5.31005        7.00423        7.32419       24.82815       25.40937
       68.75042

 DIIS Fock eigenvalues in symmetry 2
       -0.69052       -0.38610        0.10851        0.12198        0.21417
        0.37572        0.70178        0.78370        1.25004        1.31144
        1.45716        1.67032        1.90410        2.02954        2.31044
        2.40055        3.06362        3.25003        4.22449        4.44310
        6.92483
 Time used in FCKEIG, thr_jaco:   1.20D-02  3.00D-03  6.12D-08
 CPU and wall times used in FCKEIG, THR_FCKEIG:   1.20D-02  3.00D-03  5.98D-06
 -----------------------------------------------------------------------------

 *** DIIS iteration number    9
 RDSUPM called. NFMAT, ISYMDM(1:NFMAT)                     1
                     1

 ITDIIS, energy, error norm, change in energy, scr.thr., difden:
@ DIIS iter.   9    -176.936662535        1.88972D-04   -8.10D-08  -20    T

@ AUTO OCC: current SCF occupation  10   2

 (DIIS_RED) Control Parameters C2DIIS =         F NEVC =    8


 (DIIS_RED) B matrix:

               Column   1     Column   2     Column   3     Column   4     Column   5     Column   6
       1       0.00000004
       2       0.00001563     1.19427411
       3       0.00000072    -0.09318267     0.07848771
       4      -0.00000026     0.02475864    -0.00218543     0.00674022
       5       0.00000072     0.00073558     0.00331783     0.00067371     0.00036773
       6       0.00000013     0.00046452     0.00007432     0.00015161     0.00005458     0.00002209
       7       0.00000036    -0.00000448     0.00004981     0.00002015     0.00002525     0.00000436
       8       0.00000008    -0.00000955     0.00000394    -0.00000325     0.00000235     0.00000155

               Column   7     Column   8
       7       0.00000661
       8       0.00000087     0.00000036
    ==== End of matrix output ====

 DIIS C vector; C2DIIS = F, LAMBDA = -1.13D-08
    1.201094   -0.000030   -0.000190   -0.000436    0.004019    0.011150   -0.064698   -0.150908
* Read MO coefficients from SIRIUS.RST with label "NEWORB  " and header info: 13Aug18  DIIS   9
      Virial theorem: -V/T =      2.000958
@    MULPOP   F      -0.16; C1     -0.25; C2     -0.02; H       0.17; H       0.15; H       0.11; 

 DIIS Fock eigenvalues in symmetry 1
      -26.31022      -11.33241      -11.23998       -1.62852       -1.05474
       -0.83976       -0.74040       -0.68572       -0.59107       -0.56200
        0.04556        0.05891        0.06716        0.12075        0.13926
        0.17546        0.18024        0.20531        0.21595        0.26661
        0.28690        0.32526        0.37805        0.45501        0.47482
        0.50116        0.54734        0.63565        0.64687        0.70036
        0.83886        0.90192        0.91566        0.94641        1.00991
        1.08285        1.56882        1.64386        1.66007        1.73303
        1.80711        1.84220        1.94679        2.14198        2.20995
        2.34242        2.43222        2.55401        2.73958        2.86260
        2.91573        2.98144        3.04361        3.36332        3.58000
        3.87330        4.14162        4.24773        4.42434        4.58961
        5.31006        7.00424        7.32421       24.82816       25.40937
       68.75044

 DIIS Fock eigenvalues in symmetry 2
       -0.69051       -0.38610        0.10851        0.12198        0.21417
        0.37573        0.70178        0.78370        1.25004        1.31144
        1.45717        1.67033        1.90410        2.02954        2.31043
        2.40056        3.06363        3.25002        4.22450        4.44311
        6.92484
 Time used in FCKEIG, thr_jaco:   1.40D-02  4.00D-03  1.93D-08
 CPU and wall times used in FCKEIG, THR_FCKEIG:   1.40D-02  4.00D-03  1.89D-06
 -----------------------------------------------------------------------------

 *** DIIS iteration number   10
 RDSUPM called. NFMAT, ISYMDM(1:NFMAT)                     1
                     1

 ITDIIS, energy, error norm, change in energy, scr.thr., difden:
@ DIIS iter.  10    -176.936662541        4.62897D-05   -5.81D-09  -20    T

@ AUTO OCC: current SCF occupation  10   2

 (DIIS_RED) Control Parameters C2DIIS =         F NEVC =    8


 (DIIS_RED) B matrix:

               Column   1     Column   2     Column   3     Column   4     Column   5     Column   6
       1       0.00000004
       2       0.00000001     0.00000000
       3       0.00000072     0.00000081     0.07848771
       4      -0.00000026    -0.00000042    -0.00218543     0.00674022
       5       0.00000072     0.00000012     0.00331783     0.00067371     0.00036773
       6       0.00000013    -0.00000002     0.00007432     0.00015161     0.00005458     0.00002209
       7       0.00000036     0.00000006     0.00004981     0.00002015     0.00002525     0.00000436
       8       0.00000008     0.00000001     0.00000394    -0.00000325     0.00000235     0.00000155

               Column   7     Column   8
       7       0.00000661
       8       0.00000087     0.00000036
    ==== End of matrix output ====

 DIIS C vector; C2DIIS = F, LAMBDA = -6.89D-10
   -0.290833    1.292931    0.000117    0.000200   -0.003249    0.008164    0.013153   -0.020483
* Read MO coefficients from SIRIUS.RST with label "NEWORB  " and header info: 13Aug18  DIIS  10
      Virial theorem: -V/T =      2.000958
@    MULPOP   F      -0.16; C1     -0.25; C2     -0.02; H       0.17; H       0.15; H       0.11; 

 DIIS Fock eigenvalues in symmetry 1
      -26.31021      -11.33241      -11.23999       -1.62851       -1.05474
       -0.83976       -0.74040       -0.68572       -0.59107       -0.56199
        0.04556        0.05891        0.06716        0.12076        0.13926
        0.17546        0.18024        0.20531        0.21595        0.26661
        0.28690        0.32526        0.37805        0.45501        0.47482
        0.50116        0.54734        0.63565        0.64687        0.70036
        0.83886        0.90192        0.91566        0.94640        1.00991
        1.08285        1.56882        1.64386        1.66007        1.73303
        1.80711        1.84220        1.94679        2.14199        2.20995
        2.34242        2.43222        2.55401        2.73958        2.86260
        2.91573        2.98144        3.04361        3.36332        3.58001
        3.87330        4.14162        4.24773        4.42434        4.58962
        5.31006        7.00424        7.32421       24.82816       25.40937
       68.75044

 DIIS Fock eigenvalues in symmetry 2
       -0.69051       -0.38610        0.10851        0.12198        0.21417
        0.37573        0.70178        0.78369        1.25003        1.31144
        1.45717        1.67033        1.90410        2.02954        2.31043
        2.40056        3.06363        3.25002        4.22451        4.44312
        6.92484
 Time used in FCKEIG, thr_jaco:   1.30D-02  4.00D-03  4.73D-09
 CPU and wall times used in FCKEIG, THR_FCKEIG:   1.30D-02  4.00D-03  4.63D-07
 -----------------------------------------------------------------------------

 *** DIIS iteration number   11
 RDSUPM called. NFMAT, ISYMDM(1:NFMAT)                     1
                     1

 ITDIIS, energy, error norm, change in energy, scr.thr., difden:
@ DIIS iter.  11    -176.936662541        1.29361D-05   -4.01D-10  -20    T

@ AUTO OCC: current SCF occupation  10   2

 (DIIS_RED) Control Parameters C2DIIS =         F NEVC =    8


 (DIIS_RED) B matrix:

               Column   1     Column   2     Column   3     Column   4     Column   5     Column   6
       1       0.00000004
       2       0.00000001     0.00000000
       3       0.00000000     0.00000000     0.00000000
       4      -0.00000026    -0.00000042    -0.00000004     0.00674022
       5       0.00000072     0.00000012     0.00000001     0.00067371     0.00036773
       6       0.00000013    -0.00000002    -0.00000000     0.00015161     0.00005458     0.00002209
       7       0.00000036     0.00000006     0.00000001     0.00002015     0.00002525     0.00000436
       8       0.00000008     0.00000001     0.00000000    -0.00000325     0.00000235     0.00000155

               Column   7     Column   8
       7       0.00000661
       8       0.00000087     0.00000036
    ==== End of matrix output ====

 DIIS C vector; C2DIIS = F, LAMBDA = -4.90D-11
   -0.026488   -0.294439    1.303791    0.000013    0.000375   -0.002139   -0.001559    0.020445
* Read MO coefficients from SIRIUS.RST with label "NEWORB  " and header info: 13Aug18  DIIS  11
      Virial theorem: -V/T =      2.000958
@    MULPOP   F      -0.16; C1     -0.25; C2     -0.02; H       0.17; H       0.15; H       0.11; 

 DIIS Fock eigenvalues in symmetry 1
      -26.31021      -11.33241      -11.23999       -1.62851       -1.05474
       -0.83976       -0.74040       -0.68572       -0.59107       -0.56199
        0.04556        0.05891        0.06716        0.12076        0.13926
        0.17546        0.18024        0.20531        0.21595        0.26661
        0.28690        0.32526        0.37805        0.45501        0.47482
        0.50116        0.54734        0.63565        0.64687        0.70036
        0.83886        0.90192        0.91566        0.94640        1.00991
        1.08285        1.56882        1.64386        1.66007        1.73303
        1.80711        1.84221        1.94680        2.14199        2.20995
        2.34242        2.43222        2.55401        2.73958        2.86260
        2.91573        2.98144        3.04361        3.36332        3.58001
        3.87330        4.14162        4.24773        4.42434        4.58962
        5.31007        7.00424        7.32421       24.82816       25.40937
       68.75044

 DIIS Fock eigenvalues in symmetry 2
       -0.69051       -0.38610        0.10851        0.12198        0.21417
        0.37573        0.70178        0.78369        1.25003        1.31144
        1.45717        1.67033        1.90410        2.02954        2.31043
        2.40056        3.06364        3.25002        4.22451        4.44312
        6.92485
 Time used in FCKEIG, thr_jaco:   1.10D-02  4.00D-03  1.32D-09
 CPU and wall times used in FCKEIG, THR_FCKEIG:   1.10D-02  4.00D-03  1.29D-07
 -----------------------------------------------------------------------------

 *** DIIS iteration number   12
 RDSUPM called. NFMAT, ISYMDM(1:NFMAT)                     1
                     1

 ITDIIS, energy, error norm, change in energy, scr.thr., difden:
@ DIIS iter.  12    -176.936662542        3.25787D-06   -2.56D-11  -20    T

@ AUTO OCC: current SCF occupation  10   2

 (DIIS_RED) Control Parameters C2DIIS =         F NEVC =    8


 (DIIS_RED) B matrix:

               Column   1     Column   2     Column   3     Column   4     Column   5     Column   6
       1     3.571037D-08
       2     7.051548D-09   2.142737D-09
       3     1.575382D-09   4.901925D-10   1.673417D-10
       4     3.699269D-11   3.516004D-11   3.058079D-12   1.061370D-11
       5     7.162508D-07   1.162392D-07   1.116266D-08   1.653181D-08   3.677349D-04
       6     1.293201D-07  -2.279094D-08  -2.485209D-09  -6.203829D-10   5.458331D-05   2.208713D-05
       7     3.646304D-07   5.729914D-08   1.438560D-08   9.061820D-10   2.524927D-05   4.362383D-06
       8     7.809801D-08   1.124992D-08   1.479936D-09  -3.909507D-11   2.352525D-06   1.545532D-06

               Column   7     Column   8
       7     6.611612D-06
       8     8.669431D-07   3.578716D-07
    ==== End of matrix output ====

 DIIS C vector; C2DIIS = F, LAMBDA = -6.57D-12
    0.005369   -0.090814    0.249404    0.834035    0.000019   -0.000218   -0.000440    0.002646
* Read MO coefficients from SIRIUS.RST with label "NEWORB  " and header info: 13Aug18  DIIS  12
      Virial theorem: -V/T =      2.000958
@    MULPOP   F      -0.16; C1     -0.25; C2     -0.02; H       0.17; H       0.15; H       0.11; 

 DIIS Fock eigenvalues in symmetry 1
      -26.31021      -11.33241      -11.23999       -1.62851       -1.05474
       -0.83976       -0.74040       -0.68572       -0.59107       -0.56199
        0.04556        0.05891        0.06716        0.12076        0.13926
        0.17546        0.18024        0.20531        0.21595        0.26661
        0.28690        0.32526        0.37805        0.45501        0.47482
        0.50116        0.54734        0.63565        0.64687        0.70036
        0.83886        0.90192        0.91566        0.94640        1.00991
        1.08285        1.56882        1.64386        1.66007        1.73303
        1.80711        1.84221        1.94679        2.14199        2.20995
        2.34242        2.43222        2.55401        2.73958        2.86260
        2.91573        2.98144        3.04361        3.36332        3.58001
        3.87330        4.14162        4.24773        4.42434        4.58962
        5.31007        7.00424        7.32421       24.82816       25.40937
       68.75044

 DIIS Fock eigenvalues in symmetry 2
       -0.69051       -0.38610        0.10851        0.12198        0.21417
        0.37573        0.70178        0.78369        1.25003        1.31144
        1.45717        1.67033        1.90410        2.02954        2.31043
        2.40056        3.06364        3.25002        4.22451        4.44312
        6.92485
 Time used in FCKEIG, thr_jaco:   1.50D-02  4.00D-03  8.18D-13
 CPU and wall times used in FCKEIG, THR_FCKEIG:   1.50D-02  4.00D-03  8.00D-11
 -----------------------------------------------------------------------------

 *** DIIS iteration number   13
 RDSUPM called. NFMAT, ISYMDM(1:NFMAT)                     1
                     1

 ITDIIS, energy, error norm, change in energy, scr.thr., difden:
@ DIIS iter.  13    -176.936662542        1.05465D-06   -7.96D-13  -20    T

@ AUTO OCC: current SCF occupation  10   2

 (DIIS_RED) Control Parameters C2DIIS =         F NEVC =    8


 (DIIS_RED) B matrix:

               Column   1     Column   2     Column   3     Column   4     Column   5     Column   6
       1     3.571037D-08
       2     7.051548D-09   2.142737D-09
       3     1.575382D-09   4.901925D-10   1.673417D-10
       4     3.699269D-11   3.516004D-11   3.058079D-12   1.061370D-11
       5     4.273443D-11   1.712649D-11   9.684741D-12   6.196408D-15   1.112294D-12
       6     1.293201D-07  -2.279094D-08  -2.485209D-09  -6.203829D-10  -2.300065D-10   2.208713D-05
       7     3.646304D-07   5.729914D-08   1.438560D-08   9.061820D-10   4.559691D-10   4.362383D-06
       8     7.809801D-08   1.124992D-08   1.479936D-09  -3.909507D-11   2.093159D-11   1.545532D-06

               Column   7     Column   8
       7     6.611612D-06
       8     8.669431D-07   3.578716D-07
    ==== End of matrix output ====

 DIIS C vector; C2DIIS = F, LAMBDA = -3.38D-13
    0.003941    0.016697   -0.132044    0.005907    1.106582    0.000080   -0.000060   -0.001102
* Read MO coefficients from SIRIUS.RST with label "NEWORB  " and header info: 13Aug18  DIIS  13
      Virial theorem: -V/T =      2.000958
@    MULPOP   F      -0.16; C1     -0.25; C2     -0.02; H       0.17; H       0.15; H       0.11; 

 DIIS Fock eigenvalues in symmetry 1
      -26.31021      -11.33241      -11.23999       -1.62851       -1.05474
       -0.83976       -0.74040       -0.68572       -0.59107       -0.56199
        0.04556        0.05891        0.06716        0.12076        0.13926
        0.17546        0.18024        0.20531        0.21595        0.26661
        0.28690        0.32526        0.37805        0.45501        0.47482
        0.50116        0.54734        0.63565        0.64687        0.70036
        0.83886        0.90192        0.91566        0.94640        1.00991
        1.08285        1.56882        1.64386        1.66007        1.73303
        1.80711        1.84221        1.94679        2.14199        2.20995
        2.34242        2.43222        2.55401        2.73958        2.86260
        2.91573        2.98144        3.04361        3.36332        3.58001
        3.87330        4.14162        4.24773        4.42434        4.58962
        5.31007        7.00424        7.32421       24.82816       25.40937
       68.75044

 DIIS Fock eigenvalues in symmetry 2
       -0.69051       -0.38610        0.10851        0.12198        0.21417
        0.37573        0.70178        0.78369        1.25003        1.31144
        1.45717        1.67033        1.90410        2.02954        2.31043
        2.40056        3.06364        3.25002        4.22451        4.44312
        6.92485
 Time used in FCKEIG, thr_jaco:   1.20D-02  3.00D-03  8.18D-13
 CPU and wall times used in FCKEIG, THR_FCKEIG:   1.30D-02  3.00D-03  8.00D-11
 -----------------------------------------------------------------------------

 *** DIIS iteration number   14
 RDSUPM called. NFMAT, ISYMDM(1:NFMAT)                     1
                     1

 ITDIIS, energy, error norm, change in energy, scr.thr., difden:
@ DIIS iter.  14    -176.936662542        2.22616D-07   -2.84D-13  -20    T

@ AUTO OCC: current SCF occupation  10   2

 (DIIS_RED) Control Parameters C2DIIS =         F NEVC =    8


 (DIIS_RED) B matrix:

               Column   1     Column   2     Column   3     Column   4     Column   5     Column   6
       1     3.571037D-08
       2     7.051548D-09   2.142737D-09
       3     1.575382D-09   4.901925D-10   1.673417D-10
       4     3.699269D-11   3.516004D-11   3.058079D-12   1.061370D-11
       5     4.273443D-11   1.712649D-11   9.684741D-12   6.196408D-15   1.112294D-12
       6     3.172249D-12   1.238263D-12   1.826776D-13   4.528260D-13   6.578104D-14   4.955809D-14
       7     3.646304D-07   5.729914D-08   1.438560D-08   9.061820D-10   4.559691D-10   4.764524D-11
       8     7.809801D-08   1.124992D-08   1.479936D-09  -3.909507D-11   2.093159D-11   7.365249D-12

               Column   7     Column   8
       7     6.611612D-06
       8     8.669431D-07   3.578716D-07
    ==== End of matrix output ====

 DIIS C vector; C2DIIS = F, LAMBDA = -2.84D-14
   -0.000559    0.000122    0.010500   -0.048850   -0.119014    1.157761    0.000010    0.000029
* Read MO coefficients from SIRIUS.RST with label "NEWORB  " and header info: 13Aug18  DIIS  14
      Virial theorem: -V/T =      2.000958
@    MULPOP   F      -0.16; C1     -0.25; C2     -0.02; H       0.17; H       0.15; H       0.11; 

 DIIS Fock eigenvalues in symmetry 1
      -26.31021      -11.33241      -11.23999       -1.62851       -1.05474
       -0.83976       -0.74040       -0.68572       -0.59107       -0.56199
        0.04556        0.05891        0.06716        0.12076        0.13926
        0.17546        0.18024        0.20531        0.21595        0.26661
        0.28690        0.32526        0.37805        0.45501        0.47482
        0.50116        0.54734        0.63565        0.64687        0.70036
        0.83886        0.90192        0.91566        0.94640        1.00991
        1.08285        1.56882        1.64386        1.66007        1.73303
        1.80711        1.84221        1.94679        2.14199        2.20995
        2.34242        2.43222        2.55401        2.73958        2.86260
        2.91573        2.98144        3.04361        3.36332        3.58001
        3.87330        4.14162        4.24773        4.42434        4.58962
        5.31007        7.00424        7.32421       24.82816       25.40937
       68.75044

 DIIS Fock eigenvalues in symmetry 2
       -0.69051       -0.38610        0.10851        0.12198        0.21417
        0.37573        0.70178        0.78369        1.25003        1.31144
        1.45717        1.67033        1.90410        2.02954        2.31043
        2.40056        3.06364        3.25002        4.22451        4.44312
        6.92485
 Time used in FCKEIG, thr_jaco:   1.30D-02  3.00D-03  8.18D-13
 CPU and wall times used in FCKEIG, THR_FCKEIG:   1.30D-02  3.00D-03  8.00D-11
 -----------------------------------------------------------------------------

 *** DIIS iteration number   15
 RDSUPM called. NFMAT, ISYMDM(1:NFMAT)                     1
                     1

 ITDIIS, energy, error norm, change in energy, scr.thr., difden:
@ DIIS iter.  15    -176.936662542        6.60004D-08    2.84D-13  -20    T

@ AUTO OCC: current SCF occupation  10   2

 (DIIS_RED) Control Parameters C2DIIS =         F NEVC =    8


 (DIIS_RED) B matrix:

               Column   1     Column   2     Column   3     Column   4     Column   5     Column   6
       1     3.571037D-08
       2     7.051548D-09   2.142737D-09
       3     1.575382D-09   4.901925D-10   1.673417D-10
       4     3.699269D-11   3.516004D-11   3.058079D-12   1.061370D-11
       5     4.273443D-11   1.712649D-11   9.684741D-12   6.196408D-15   1.112294D-12
       6     3.172249D-12   1.238263D-12   1.826776D-13   4.528260D-13   6.578104D-14   4.955809D-14
       7    -1.845936D-12  -6.154620D-13  -1.180749D-13   5.089582D-14   1.714081D-14   5.062182D-15
       8     7.809801D-08   1.124992D-08   1.479936D-09  -3.909507D-11   2.093159D-11   7.365249D-12

               Column   7     Column   8
       7     4.356050D-15
       8    -4.608349D-12   3.578716D-07
    ==== End of matrix output ====

 DIIS C vector; C2DIIS = F, LAMBDA = -2.46D-15
   -0.000268   -0.000017    0.007128   -0.010866   -0.072463    0.133865    0.942580    0.000042
* Read MO coefficients from SIRIUS.RST with label "NEWORB  " and header info: 13Aug18  DIIS  15
      Virial theorem: -V/T =      2.000958
@    MULPOP   F      -0.16; C1     -0.25; C2     -0.02; H       0.17; H       0.15; H       0.11; 

 DIIS Fock eigenvalues in symmetry 1
      -26.31021      -11.33241      -11.23999       -1.62851       -1.05474
       -0.83976       -0.74040       -0.68572       -0.59107       -0.56199
        0.04556        0.05891        0.06716        0.12076        0.13926
        0.17546        0.18024        0.20531        0.21595        0.26661
        0.28690        0.32526        0.37805        0.45501        0.47482
        0.50116        0.54734        0.63565        0.64687        0.70036
        0.83886        0.90192        0.91566        0.94640        1.00991
        1.08285        1.56882        1.64386        1.66007        1.73303
        1.80711        1.84221        1.94679        2.14199        2.20995
        2.34242        2.43222        2.55401        2.73958        2.86260
        2.91573        2.98144        3.04361        3.36332        3.58001
        3.87330        4.14162        4.24773        4.42434        4.58962
        5.31007        7.00424        7.32421       24.82816       25.40937
       68.75044

 DIIS Fock eigenvalues in symmetry 2
       -0.69051       -0.38610        0.10851        0.12198        0.21417
        0.37573        0.70178        0.78369        1.25003        1.31144
        1.45717        1.67033        1.90410        2.02954        2.31043
        2.40056        3.06364        3.25002        4.22451        4.44312
        6.92485
 Time used in FCKEIG, thr_jaco:   1.30D-02  4.00D-03  8.18D-13
 CPU and wall times used in FCKEIG, THR_FCKEIG:   1.30D-02  4.00D-03  8.00D-11
 -----------------------------------------------------------------------------

 *** DIIS iteration number   16
 RDSUPM called. NFMAT, ISYMDM(1:NFMAT)                     1
                     1

 ITDIIS, energy, error norm, change in energy, scr.thr., difden:
@ DIIS iter.  16    -176.936662542        1.99048D-08   -1.14D-13  -20    T

@ AUTO OCC: current SCF occupation  10   2

 (DIIS_RED) Control Parameters C2DIIS =         F NEVC =    8


 (DIIS_RED) B matrix:

               Column   1     Column   2     Column   3     Column   4     Column   5     Column   6
       1     3.571037D-08
       2     7.051548D-09   2.142737D-09
       3     1.575382D-09   4.901925D-10   1.673417D-10
       4     3.699269D-11   3.516004D-11   3.058079D-12   1.061370D-11
       5     4.273443D-11   1.712649D-11   9.684741D-12   6.196408D-15   1.112294D-12
       6     3.172249D-12   1.238263D-12   1.826776D-13   4.528260D-13   6.578104D-14   4.955809D-14
       7    -1.845936D-12  -6.154620D-13  -1.180749D-13   5.089582D-14   1.714081D-14   5.062182D-15
       8     1.476186D-12   3.595520D-13   6.842424D-14   1.904381D-14   2.677055D-15   2.763524D-15

               Column   7     Column   8
       7     4.356050D-15
       8     2.557104D-16   3.962011D-16
    ==== End of matrix output ====

 DIIS C vector; C2DIIS = F, LAMBDA = -1.75D-16
   -0.000006   -0.000044   -0.000960    0.002391    0.012492   -0.088173   -0.034359    1.108658
* Read MO coefficients from SIRIUS.RST with label "NEWORB  " and header info: 13Aug18  DIIS  16
      Virial theorem: -V/T =      2.000958
@    MULPOP   F      -0.16; C1     -0.25; C2     -0.02; H       0.17; H       0.15; H       0.11; 

 DIIS Fock eigenvalues in symmetry 1
      -26.31021      -11.33241      -11.23999       -1.62851       -1.05474
       -0.83976       -0.74040       -0.68572       -0.59107       -0.56199
        0.04556        0.05891        0.06716        0.12076        0.13926
        0.17546        0.18024        0.20531        0.21595        0.26661
        0.28690        0.32526        0.37805        0.45501        0.47482
        0.50116        0.54734        0.63565        0.64687        0.70036
        0.83886        0.90192        0.91566        0.94640        1.00991
        1.08285        1.56882        1.64386        1.66007        1.73303
        1.80711        1.84221        1.94679        2.14199        2.20995
        2.34242        2.43222        2.55401        2.73958        2.86260
[...]
             4 ^1A'      -166.7948166903                                        
             5 ^1A'      -166.7669885219                                        
             6 ^1A'      -166.7666754364                                        
             7 ^1A'      -166.7486974491                                        
             8 ^1A'      -166.7359779535                                        
             9 ^1A'      -166.7292970302                                        
            10 ^1A'      -166.7231452542                                        
            11 ^1A'      -166.7143968471                                        
            12 ^1A'      -166.7044078735                                        
            13 ^1A'      -166.6965785279                                        
            14 ^1A'      -166.6898768863                                        
            15 ^1A'      -166.6715707292                                        
            16 ^1A'      -166.6710492254                                        
            17 ^1A'      -166.6448146633                                        
            18 ^1A'      -166.6403095470                                        
            19 ^1A'      -166.6385469846                                        
            20 ^1A'      -166.6264108696                                        
            21 ^1A'      -166.5951488824                                        
            22 ^1A'      -166.5877773225                                        
             1 ^1A"      -166.9406879114                                        
             2 ^1A"      -166.8624909280                                        
             3 ^1A"      -166.7958391903                                        
             4 ^1A"      -166.7343154183                                        
             5 ^1A"      -166.6993449643                                        
             6 ^1A"      -166.6396368905                                        
             7 ^1A"      -166.5440237181                                        
             8 ^1A"      -166.4716217419                                        
             9 ^1A"      -166.3799646966                                        
            10 ^1A"      -166.3291579306                                        
            11 ^1A"      -166.3084338728                                        
            12 ^1A"      -166.2953615600                                        
            13 ^1A"      -166.2801163517                                        
            14 ^1A"      -166.1979378626                                        
            15 ^1A"      -166.1466084922                                        
                                                                                
                                                                                
 +=============================================================================+
 |  sym. | Exci.  |        CCSD       Length   Gauge Oscillator Strength       |
 |(spin, |        +------------------------------------------------------------+
 | spat) |        | Dipole Strength(a.u.) | Oscillator strength  | Direction   |
 +=============================================================================+
 | ^1A'  |    1   |        0.0008311      |      0.0058682       |  (Y,Z)      |
 | ^1A'  |    2   |        0.0016978      |      0.0120133       |  (Y,Z)      |
 | ^1A'  |    3   |        0.0006073      |      0.0043075       |  (Y,Z)      |
 | ^1A'  |    4   |        0.0004017      |      0.0028529       |  (Y,Z)      |
 | ^1A'  |    5   |        0.0025164      |      0.0179179       |  (Y,Z)      |
 | ^1A'  |    6   |        0.0004489      |      0.0031966       |  (Y,Z)      |
 | ^1A'  |    7   |        0.0006676      |      0.0047616       |  (Y,Z)      |
 | ^1A'  |    8   |        0.0030538      |      0.0218075       |  (Y,Z)      |
 | ^1A'  |    9   |        0.0002108      |      0.0015060       |  (Y,Z)      |
 | ^1A'  |   10   |        0.0012090      |      0.0086436       |  (Y,Z)      |
 | ^1A'  |   11   |        0.0014012      |      0.0100259       |  (Y,Z)      |
 | ^1A'  |   12   |        0.0003624      |      0.0025953       |  (Y,Z)      |
 | ^1A'  |   13   |        0.0002396      |      0.0017172       |  (Y,Z)      |
 | ^1A'  |   14   |        0.0001170      |      0.0008388       |  (Y,Z)      |
 | ^1A'  |   15   |        0.0000978      |      0.0007028       |  (Y,Z)      |
 | ^1A'  |   16   |        0.0006923      |      0.0049738       |  (Y,Z)      |
 | ^1A'  |   17   |        0.0016231      |      0.0116893       |  (Y,Z)      |
 | ^1A'  |   18   |        0.0010642      |      0.0076676       |  (Y,Z)      |
 | ^1A'  |   19   |        0.0004909      |      0.0035372       |  (Y,Z)      |
 | ^1A'  |   20   |        0.0009410      |      0.0067884       |  (Y,Z)      |
 | ^1A'  |   21   |        0.0000385      |      0.0002786       |  (Y,Z)      |
 | ^1A'  |   22   |        0.0001006      |      0.0007285       |  (Y,Z)      |
 +-----------------------------------------------------------------------------+
 | ^1A"  |    1   |        0.0065546      |      0.0459122       |    X        |
 | ^1A"  |    2   |        0.0083480      |      0.0589098       |    X        |
 | ^1A"  |    3   |        0.0011510      |      0.0081735       |    X        |
 | ^1A"  |    4   |        0.0007436      |      0.0053107       |    X        |
 | ^1A"  |    5   |        0.0004546      |      0.0032573       |    X        |
 | ^1A"  |    6   |        0.0005843      |      0.0042099       |    X        |
 | ^1A"  |    7   |        0.0000528      |      0.0003842       |    X        |
 | ^1A"  |    8   |        0.0000118      |      0.0000866       |    X        |
 | ^1A"  |    9   |        0.0061516      |      0.0453892       |    X        |
 | ^1A"  |   10   |        0.0022260      |      0.0164997       |    X        |
 | ^1A"  |   11   |        0.0001114      |      0.0008272       |    X        |
 | ^1A"  |   12   |        0.0017999      |      0.0133820       |    X        |
 | ^1A"  |   13   |        0.0040341      |      0.0300340       |    X        |
 | ^1A"  |   14   |        0.0011590      |      0.0086924       |    X        |
 | ^1A"  |   15   |        0.0000028      |      0.0000210       |    X        |
 +=============================================================================+

  1 a.u. =        27.21138 eV.  
  1 a.u. =    219474.62934 cm-1.
  

 *******************************************************************************
 *******************************************************************************
 *                                                                             *
 *                                                                             *
 *                      END OF COUPLED CLUSTER CALCULATION                     *
 *                                                                             *
 *                                                                             *
 *******************************************************************************
 *******************************************************************************


 CPU and wall time for CC :    4442.054    1140.613

 
     Date and time (Linux)  : Mon Aug 13 15:30:13 2018
     Host name              : n-62-24-6                               


                      .-------------------------------------.
                      | End of Coupled Cluster Section (CC) |
                      `-------------------------------------'

  Total CPU  time used in DALTON:   1 hour  14 minutes 11 seconds
  Total wall time used in DALTON: 19 minutes  4 seconds

 
     Date and time (Linux)  : Mon Aug 13 15:30:13 2018
     Host name              : n-62-24-6                               
  

 +---------------------------------------------------------+ 
 | List of selected calculated molecular properties (a.u.) | 
 +---------------------------------------------------------+ 

  Properties are read from unit number                      4

 CCSD       properties :
 #  1 1 ENERGY   Ground state Energy =    -177.4475962039
 #  2 1 Sy: 1 Sp: 1 Exc:  1 E_tot:   -166.8570025245 w:     10.5905936794 E_grs:   -177.4475962039
 #  3 1 Exctot   Excited state Energy =    -166.8570025245
 #  4 1 Sy: 1 Sp: 1 Exc:  2 E_tot:   -166.8340406729 w:     10.6135555310 E_grs:   -177.4475962039
 #  5 1 Exctot   Excited state Energy =    -166.8340406729
 #  6 1 Sy: 1 Sp: 1 Exc:  3 E_tot:   -166.8080169641 w:     10.6395792398 E_grs:   -177.4475962039
 #  7 1 Exctot   Excited state Energy =    -166.8080169641
 #  8 1 Sy: 1 Sp: 1 Exc:  4 E_tot:   -166.7948166903 w:     10.6527795136 E_grs:   -177.4475962039
 #  9 1 Exctot   Excited state Energy =    -166.7948166903
 # 10 1 Sy: 1 Sp: 1 Exc:  5 E_tot:   -166.7669885219 w:     10.6806076820 E_grs:   -177.4475962039
 # 11 1 Exctot   Excited state Energy =    -166.7669885219
 # 12 1 Sy: 1 Sp: 1 Exc:  6 E_tot:   -166.7666754364 w:     10.6809207675 E_grs:   -177.4475962039
 # 13 1 Exctot   Excited state Energy =    -166.7666754364
 # 14 1 Sy: 1 Sp: 1 Exc:  7 E_tot:   -166.7486974491 w:     10.6988987548 E_grs:   -177.4475962039
 # 15 1 Exctot   Excited state Energy =    -166.7486974491
 # 16 1 Sy: 1 Sp: 1 Exc:  8 E_tot:   -166.7359779535 w:     10.7116182504 E_grs:   -177.4475962039
 # 17 1 Exctot   Excited state Energy =    -166.7359779535
 # 18 1 Sy: 1 Sp: 1 Exc:  9 E_tot:   -166.7292970302 w:     10.7182991737 E_grs:   -177.4475962039
 # 19 1 Exctot   Excited state Energy =    -166.7292970302
 # 20 1 Sy: 1 Sp: 1 Exc: 10 E_tot:   -166.7231452542 w:     10.7244509497 E_grs:   -177.4475962039
 # 21 1 Exctot   Excited state Energy =    -166.7231452542
 # 22 1 Sy: 1 Sp: 1 Exc: 11 E_tot:   -166.7143968471 w:     10.7331993568 E_grs:   -177.4475962039
 # 23 1 Exctot   Excited state Energy =    -166.7143968471
 # 24 1 Sy: 1 Sp: 1 Exc: 12 E_tot:   -166.7044078735 w:     10.7431883304 E_grs:   -177.4475962039
 # 25 1 Exctot   Excited state Energy =    -166.7044078735
 # 26 1 Sy: 1 Sp: 1 Exc: 13 E_tot:   -166.6965785279 w:     10.7510176760 E_grs:   -177.4475962039
 # 27 1 Exctot   Excited state Energy =    -166.6965785279
 # 28 1 Sy: 1 Sp: 1 Exc: 14 E_tot:   -166.6898768863 w:     10.7577193176 E_grs:   -177.4475962039
 # 29 1 Exctot   Excited state Energy =    -166.6898768863
 # 30 1 Sy: 1 Sp: 1 Exc: 15 E_tot:   -166.6715707292 w:     10.7760254747 E_grs:   -177.4475962039
 # 31 1 Exctot   Excited state Energy =    -166.6715707292
 # 32 1 Sy: 1 Sp: 1 Exc: 16 E_tot:   -166.6710492254 w:     10.7765469785 E_grs:   -177.4475962039
 # 33 1 Exctot   Excited state Energy =    -166.6710492254
 # 34 1 Sy: 1 Sp: 1 Exc: 17 E_tot:   -166.6448146633 w:     10.8027815406 E_grs:   -177.4475962039
 # 35 1 Exctot   Excited state Energy =    -166.6448146633
 # 36 1 Sy: 1 Sp: 1 Exc: 18 E_tot:   -166.6403095470 w:     10.8072866569 E_grs:   -177.4475962039
 # 37 1 Exctot   Excited state Energy =    -166.6403095470
 # 38 1 Sy: 1 Sp: 1 Exc: 19 E_tot:   -166.6385469846 w:     10.8090492193 E_grs:   -177.4475962039
 # 39 1 Exctot   Excited state Energy =    -166.6385469846
 # 40 1 Sy: 1 Sp: 1 Exc: 20 E_tot:   -166.6264108696 w:     10.8211853343 E_grs:   -177.4475962039
 # 41 1 Exctot   Excited state Energy =    -166.6264108696
 # 42 1 Sy: 1 Sp: 1 Exc: 21 E_tot:   -166.5951488824 w:     10.8524473215 E_grs:   -177.4475962039
 # 43 1 Exctot   Excited state Energy =    -166.5951488824
 # 44 1 Sy: 1 Sp: 1 Exc: 22 E_tot:   -166.5877773225 w:     10.8598188814 E_grs:   -177.4475962039
 # 45 1 Exctot   Excited state Energy =    -166.5877773225
 # 46 1 Sy: 2 Sp: 1 Exc:  1 E_tot:   -166.9406879114 w:     10.5069082925 E_grs:   -177.4475962039
 # 47 1 Exctot   Excited state Energy =    -166.9406879114
 # 48 1 Sy: 2 Sp: 1 Exc:  2 E_tot:   -166.8624909280 w:     10.5851052759 E_grs:   -177.4475962039
 # 49 1 Exctot   Excited state Energy =    -166.8624909280
 # 50 1 Sy: 2 Sp: 1 Exc:  3 E_tot:   -166.7958391903 w:     10.6517570136 E_grs:   -177.4475962039
 # 51 1 Exctot   Excited state Energy =    -166.7958391903
 # 52 1 Sy: 2 Sp: 1 Exc:  4 E_tot:   -166.7343154183 w:     10.7132807856 E_grs:   -177.4475962039
 # 53 1 Exctot   Excited state Energy =    -166.7343154183
 # 54 1 Sy: 2 Sp: 1 Exc:  5 E_tot:   -166.6993449643 w:     10.7482512396 E_grs:   -177.4475962039
 # 55 1 Exctot   Excited state Energy =    -166.6993449643
 # 56 1 Sy: 2 Sp: 1 Exc:  6 E_tot:   -166.6396368905 w:     10.8079593134 E_grs:   -177.4475962039
 # 57 1 Exctot   Excited state Energy =    -166.6396368905
 # 58 1 Sy: 2 Sp: 1 Exc:  7 E_tot:   -166.5440237181 w:     10.9035724858 E_grs:   -177.4475962039
 # 59 1 Exctot   Excited state Energy =    -166.5440237181
 # 60 1 Sy: 2 Sp: 1 Exc:  8 E_tot:   -166.4716217419 w:     10.9759744620 E_grs:   -177.4475962039
 # 61 1 Exctot   Excited state Energy =    -166.4716217419
 # 62 1 Sy: 2 Sp: 1 Exc:  9 E_tot:   -166.3799646966 w:     11.0676315073 E_grs:   -177.4475962039
 # 63 1 Exctot   Excited state Energy =    -166.3799646966
 # 64 1 Sy: 2 Sp: 1 Exc: 10 E_tot:   -166.3291579306 w:     11.1184382733 E_grs:   -177.4475962039
 # 65 1 Exctot   Excited state Energy =    -166.3291579306
 # 66 1 Sy: 2 Sp: 1 Exc: 11 E_tot:   -166.3084338728 w:     11.1391623311 E_grs:   -177.4475962039
 # 67 1 Exctot   Excited state Energy =    -166.3084338728
 # 68 1 Sy: 2 Sp: 1 Exc: 12 E_tot:   -166.2953615600 w:     11.1522346439 E_grs:   -177.4475962039
 # 69 1 Exctot   Excited state Energy =    -166.2953615600
 # 70 1 Sy: 2 Sp: 1 Exc: 13 E_tot:   -166.2801163517 w:     11.1674798522 E_grs:   -177.4475962039
 # 71 1 Exctot   Excited state Energy =    -166.2801163517
 # 72 1 Sy: 2 Sp: 1 Exc: 14 E_tot:   -166.1979378626 w:     11.2496583413 E_grs:   -177.4475962039
 # 73 1 Exctot   Excited state Energy =    -166.1979378626
 # 74 1 Sy: 2 Sp: 1 Exc: 15 E_tot:   -166.1466084922 w:     11.3009877117 E_grs:   -177.4475962039
 # 75 1 Exctot   Excited state Energy =    -166.1466084922
 # 76 2 |<O|XDIPLEN |i(10.590594)>| =     0.00000000
 # 78 2 |<O|XDIPLEN |i(10.613556)>| =     0.00000000
 # 80 2 |<O|XDIPLEN |i(10.639579)>| =     0.00000000
 # 82 2 |<O|XDIPLEN |i(10.652780)>| =     0.00000000
 # 84 2 |<O|XDIPLEN |i(10.680608)>| =     0.00000000
 # 86 2 |<O|XDIPLEN |i(10.680921)>| =     0.00000000
 # 88 2 |<O|XDIPLEN |i(10.698899)>| =     0.00000000
 # 90 2 |<O|XDIPLEN |i(10.711618)>| =     0.00000000
 # 92 2 |<O|XDIPLEN |i(10.718299)>| =     0.00000000
 # 94 2 |<O|XDIPLEN |i(10.724451)>| =     0.00000000
 # 96 2 |<O|XDIPLEN |i(10.733199)>| =     0.00000000
 # 98 2 |<O|XDIPLEN |i(10.743188)>| =     0.00000000
 #100 2 |<O|XDIPLEN |i(10.751018)>| =     0.00000000
 #102 2 |<O|XDIPLEN |i(10.757719)>| =     0.00000000
 #104 2 |<O|XDIPLEN |i(10.776025)>| =     0.00000000
 #106 2 |<O|XDIPLEN |i(10.776547)>| =     0.00000000
 #108 2 |<O|XDIPLEN |i(10.802782)>| =     0.00000000
 #110 2 |<O|XDIPLEN |i(10.807287)>| =     0.00000000
 #112 2 |<O|XDIPLEN |i(10.809049)>| =     0.00000000
 #114 2 |<O|XDIPLEN |i(10.821185)>| =     0.00000000
 #116 2 |<O|XDIPLEN |i(10.852447)>| =     0.00000000
 #118 2 |<O|XDIPLEN |i(10.859819)>| =     0.00000000
 #120 1 |<O|XDIPLEN |i(10.506908)>| =     0.08096028
 #122 1 |<O|XDIPLEN |i(10.585105)>| =     0.09136748
 #124 1 |<O|XDIPLEN |i(10.651757)>| =     0.03392653
 #126 1 |<O|XDIPLEN |i(10.713281)>| =     0.02726834
 #128 1 |<O|XDIPLEN |i(10.748251)>| =     0.02132096
 #130 1 |<O|XDIPLEN |i(10.807959)>| =     0.02417198
 #132 1 |<O|XDIPLEN |i(10.903572)>| =     0.00726973
 #134 1 |<O|XDIPLEN |i(10.975974)>| =     0.00343931
 #136 1 |<O|XDIPLEN |i(11.067632)>| =     0.07843224
 #138 1 |<O|XDIPLEN |i(11.118438)>| =     0.04718038
 #140 1 |<O|XDIPLEN |i(11.139162)>| =     0.01055424
 #142 1 |<O|XDIPLEN |i(11.152235)>| =     0.04242529
 #144 1 |<O|XDIPLEN |i(11.167480)>| =     0.06351471
 #146 1 |<O|XDIPLEN |i(11.249658)>| =     0.03404446
 #148 1 |<O|XDIPLEN |i(11.300988)>| =     0.00167028
 #150 1 |<O|YDIPLEN |i(10.590594)>| =     0.00014606
 #152 1 |<O|YDIPLEN |i(10.613556)>| =     0.04000908
 #154 1 |<O|YDIPLEN |i(10.639579)>| =     0.01768034
 #156 1 |<O|YDIPLEN |i(10.652780)>| =     0.01952723
 #158 1 |<O|YDIPLEN |i(10.680608)>| =     0.04682912
 #160 1 |<O|YDIPLEN |i(10.680921)>| =     0.01721599
 #162 1 |<O|YDIPLEN |i(10.698899)>| =     0.00088223
 #164 1 |<O|YDIPLEN |i(10.711618)>| =     0.01460621
 #166 1 |<O|YDIPLEN |i(10.718299)>| =     0.01453275
 #168 1 |<O|YDIPLEN |i(10.724451)>| =     0.01977719
 #170 1 |<O|YDIPLEN |i(10.733199)>| =     0.03497068
 #172 1 |<O|YDIPLEN |i(10.743188)>| =     0.00909553
 #174 1 |<O|YDIPLEN |i(10.751018)>| =     0.01478916
 #176 1 |<O|YDIPLEN |i(10.757719)>| =     0.01051473
 #178 1 |<O|YDIPLEN |i(10.776025)>| =     0.00545553
 #180 1 |<O|YDIPLEN |i(10.776547)>| =     0.02404297
 #182 1 |<O|YDIPLEN |i(10.802782)>| =     0.03279683
 #184 1 |<O|YDIPLEN |i(10.807287)>| =     0.03088757
 #186 1 |<O|YDIPLEN |i(10.809049)>| =     0.00448238
 #188 1 |<O|YDIPLEN |i(10.821185)>| =     0.00213440
 #190 1 |<O|YDIPLEN |i(10.852447)>| =     0.00152638
 #192 1 |<O|YDIPLEN |i(10.859819)>| =     0.00199611
 #194 2 |<O|YDIPLEN |i(10.506908)>| =     0.00000000
 #196 2 |<O|YDIPLEN |i(10.585105)>| =     0.00000000
 #198 2 |<O|YDIPLEN |i(10.651757)>| =     0.00000000
 #200 2 |<O|YDIPLEN |i(10.713281)>| =     0.00000000
 #202 2 |<O|YDIPLEN |i(10.748251)>| =     0.00000000
 #204 2 |<O|YDIPLEN |i(10.807959)>| =     0.00000000
 #206 2 |<O|YDIPLEN |i(10.903572)>| =     0.00000000
 #208 2 |<O|YDIPLEN |i(10.975974)>| =     0.00000000
 #210 2 |<O|YDIPLEN |i(11.067632)>| =     0.00000000
 #212 2 |<O|YDIPLEN |i(11.118438)>| =     0.00000000
 #214 2 |<O|YDIPLEN |i(11.139162)>| =     0.00000000
 #216 2 |<O|YDIPLEN |i(11.152235)>| =     0.00000000
 #218 2 |<O|YDIPLEN |i(11.167480)>| =     0.00000000
 #220 2 |<O|YDIPLEN |i(11.249658)>| =     0.00000000
 #222 2 |<O|YDIPLEN |i(11.300988)>| =     0.00000000
 #224 1 |<O|ZDIPLEN |i(10.590594)>| =     0.02882923
 #226 1 |<O|ZDIPLEN |i(10.613556)>| =     0.00985369
 #228 1 |<O|ZDIPLEN |i(10.639579)>| =     0.01716637
 #230 1 |<O|ZDIPLEN |i(10.652780)>| =     0.00451583
 #232 1 |<O|ZDIPLEN |i(10.680608)>| =     0.01798490
 #234 1 |<O|ZDIPLEN |i(10.680921)>| =     0.01235018
 #236 1 |<O|ZDIPLEN |i(10.698899)>| =     0.02582251
 #238 1 |<O|ZDIPLEN |i(10.711618)>| =     0.05329603
 #240 1 |<O|ZDIPLEN |i(10.718299)>| =    -0.00066340
 #242 1 |<O|ZDIPLEN |i(10.724451)>| =     0.02859744
 #244 1 |<O|ZDIPLEN |i(10.733199)>| =     0.01334942
 #246 1 |<O|ZDIPLEN |i(10.743188)>| =     0.01672242
 #248 1 |<O|ZDIPLEN |i(10.751018)>| =     0.00456742
 #250 1 |<O|ZDIPLEN |i(10.757719)>| =     0.00253069
 #252 1 |<O|ZDIPLEN |i(10.776025)>| =     0.00825056
 #254 1 |<O|ZDIPLEN |i(10.776547)>| =     0.01068827
 #256 1 |<O|ZDIPLEN |i(10.802782)>| =     0.02339785
 #258 1 |<O|ZDIPLEN |i(10.807287)>| =     0.01049707
 #260 1 |<O|ZDIPLEN |i(10.809049)>| =     0.02169725
 #262 1 |<O|ZDIPLEN |i(10.821185)>| =     0.03060128
 #264 1 |<O|ZDIPLEN |i(10.852447)>| =     0.00601517
 #266 1 |<O|ZDIPLEN |i(10.859819)>| =     0.00983031
 #268 2 |<O|ZDIPLEN |i(10.506908)>| =     0.00000000
 #270 2 |<O|ZDIPLEN |i(10.585105)>| =     0.00000000
 #272 2 |<O|ZDIPLEN |i(10.651757)>| =     0.00000000
 #274 2 |<O|ZDIPLEN |i(10.713281)>| =     0.00000000
 #276 2 |<O|ZDIPLEN |i(10.748251)>| =     0.00000000
 #278 2 |<O|ZDIPLEN |i(10.807959)>| =     0.00000000
 #280 2 |<O|ZDIPLEN |i(10.903572)>| =     0.00000000
 #282 2 |<O|ZDIPLEN |i(10.975974)>| =     0.00000000
 #284 2 |<O|ZDIPLEN |i(11.067632)>| =     0.00000000
 #286 2 |<O|ZDIPLEN |i(11.118438)>| =     0.00000000
 #288 2 |<O|ZDIPLEN |i(11.139162)>| =     0.00000000
 #290 2 |<O|ZDIPLEN |i(11.152235)>| =     0.00000000
 #292 2 |<O|ZDIPLEN |i(11.167480)>| =     0.00000000
 #294 2 |<O|ZDIPLEN |i(11.249658)>| =     0.00000000
 #296 2 |<O|ZDIPLEN |i(11.300988)>| =     0.00000000

 THE_END   
