

     ************************************************************************
     *************** Dalton - An Electronic Structure Program ***************
     ************************************************************************

    This is output from DALTON release Dalton2017.alpha (2016)
         ( Web site: http://daltonprogram.org )

   ----------------------------------------------------------------------------

    NOTE:
     
    Dalton is an experimental code for the evaluation of molecular
    properties using (MC)SCF, DFT, CI, and CC wave functions.
    The authors accept no responsibility for the performance of
    the code or for the correctness of the results.
     
    The code (in whole or part) is provided under a licence and
    is not to be reproduced for further distribution without
    the written permission of the authors or their representatives.
     
    See the home page "http://daltonprogram.org" for further information.
     
    If results obtained with this code are published,
    the appropriate citations would be both of:
     
       K. Aidas, C. Angeli, K. L. Bak, V. Bakken, R. Bast,
       L. Boman, O. Christiansen, R. Cimiraglia, S. Coriani,
       P. Dahle, E. K. Dalskov, U. Ekstroem,
       T. Enevoldsen, J. J. Eriksen, P. Ettenhuber, B. Fernandez,
       L. Ferrighi, H. Fliegl, L. Frediani, K. Hald, A. Halkier,
       C. Haettig, H. Heiberg, T. Helgaker, A. C. Hennum,
       H. Hettema, E. Hjertenaes, S. Hoest, I.-M. Hoeyvik,
       M. F. Iozzi, B. Jansik, H. J. Aa. Jensen, D. Jonsson,
       P. Joergensen, J. Kauczor, S. Kirpekar,
       T. Kjaergaard, W. Klopper, S. Knecht, R. Kobayashi, H. Koch,
       J. Kongsted, A. Krapp, K. Kristensen, A. Ligabue,
       O. B. Lutnaes, J. I. Melo, K. V. Mikkelsen, R. H. Myhre,
       C. Neiss, C. B. Nielsen, P. Norman, J. Olsen,
       J. M. H. Olsen, A. Osted, M. J. Packer, F. Pawlowski,
       T. B. Pedersen, P. F. Provasi, S. Reine, Z. Rinkevicius,
       T. A. Ruden, K. Ruud, V. Rybkin, P. Salek, C. C. M. Samson,
       A. Sanchez de Meras, T. Saue, S. P. A. Sauer,
       B. Schimmelpfennig, K. Sneskov, A. H. Steindal,
       K. O. Sylvester-Hvid, P. R. Taylor, A. M. Teale,
       E. I. Tellgren, D. P. Tew, A. J. Thorvaldsen, L. Thoegersen,
       O. Vahtras, M. A. Watson, D. J. D. Wilson, M. Ziolkowski
       and H. Agren,
       "The Dalton quantum chemistry program system",
       WIREs Comput. Mol. Sci. 2014, 4:269–284 (doi: 10.1002/wcms.1172)
     
    and
     
       Dalton, a Molecular Electronic Structure Program,
       Release Dalton2017.alpha (2016), see http://daltonprogram.org
   ----------------------------------------------------------------------------

    Authors in alphabetical order (major contribution(s) in parenthesis):

  Kestutis Aidas,           Vilnius University,           Lithuania   (QM/MM)
  Celestino Angeli,         University of Ferrara,        Italy       (NEVPT2)
  Keld L. Bak,              UNI-C,                        Denmark     (AOSOPPA, non-adiabatic coupling, magnetic properties)
  Vebjoern Bakken,          University of Oslo,           Norway      (DALTON; geometry optimizer, symmetry detection)
  Radovan Bast,             UiT The Arctic U. of Norway,  Norway      (DALTON installation and execution frameworks)
  Pablo Baudin,             University of Valencia,       Spain       (Cholesky excitation energies)
  Linus Boman,              NTNU,                         Norway      (Cholesky decomposition and subsystems)
  Ove Christiansen,         Aarhus University,            Denmark     (CC module)
  Renzo Cimiraglia,         University of Ferrara,        Italy       (NEVPT2)
  Sonia Coriani,            University of Trieste,        Italy       (CC module, MCD in RESPONS)
  Janusz Cukras,            University of Trieste,        Italy       (MChD in RESPONS)
  Paal Dahle,               University of Oslo,           Norway      (Parallelization)
  Erik K. Dalskov,          UNI-C,                        Denmark     (SOPPA)
  Thomas Enevoldsen,        Univ. of Southern Denmark,    Denmark     (SOPPA)
  Janus J. Eriksen,         Aarhus University,            Denmark     (Polarizable embedding model, TDA)
  Rasmus Faber,             University of Copenhagen,     Denmark     (Vib.avg. NMR with SOPPA, parallel AO-SOPPA)
  Berta Fernandez,          U. of Santiago de Compostela, Spain       (doublet spin, ESR in RESPONS)
  Lara Ferrighi,            Aarhus University,            Denmark     (PCM Cubic response)
  Heike Fliegl,             University of Oslo,           Norway      (CCSD(R12))
  Luca Frediani,            UiT The Arctic U. of Norway,  Norway      (PCM)
  Bin Gao,                  UiT The Arctic U. of Norway,  Norway      (Gen1Int library)
  Christof Haettig,         Ruhr-University Bochum,       Germany     (CC module)
  Kasper Hald,              Aarhus University,            Denmark     (CC module)
  Asger Halkier,            Aarhus University,            Denmark     (CC module)
  Frederik Beyer Hansen,    University of Copenhagen,     Denmark     (Parallel AO-SOPPA)
  Erik D. Hedegaard,        Univ. of Southern Denmark,    Denmark     (Polarizable embedding model, QM/MM)
  Hanne Heiberg,            University of Oslo,           Norway      (geometry analysis, selected one-electron integrals)
  Trygve Helgaker,          University of Oslo,           Norway      (DALTON; ABACUS, ERI, DFT modules, London, and much more)
  Alf Christian Hennum,     University of Oslo,           Norway      (Parity violation)
  Hinne Hettema,            University of Auckland,       New Zealand (quadratic response in RESPONS; SIRIUS supersymmetry)
  Eirik Hjertenaes,         NTNU,                         Norway      (Cholesky decomposition)
  Pi A. B. Haase,           University of Copenhagen,     Denmark     (Triplet AO-SOPPA)
  Maria Francesca Iozzi,    University of Oslo,           Norway      (RPA)
  Brano Jansik              Technical Univ. of Ostrava    Czech Rep.  (DFT cubic response)
  Hans Joergen Aa. Jensen,  Univ. of Southern Denmark,    Denmark     (DALTON; SIRIUS, RESPONS, ABACUS modules, London, and much more)
  Dan Jonsson,              UiT The Arctic U. of Norway,  Norway      (cubic response in RESPONS module)
  Poul Joergensen,          Aarhus University,            Denmark     (RESPONS, ABACUS, and CC modules)
  Maciej Kaminski,          University of Warsaw,         Poland      (CPPh in RESPONS)
  Joanna Kauczor,           Linkoeping University,        Sweden      (Complex polarization propagator (CPP) module)
  Sheela Kirpekar,          Univ. of Southern Denmark,    Denmark     (Mass-velocity & Darwin integrals)
  Wim Klopper,              KIT Karlsruhe,                Germany     (R12 code in CC, SIRIUS, and ABACUS modules)
  Stefan Knecht,            ETH Zurich,                   Switzerland (Parallel CI and MCSCF)
  Rika Kobayashi,           Australian National Univ.,    Australia   (DIIS in CC, London in MCSCF)
  Henrik Koch,              NTNU,                         Norway      (CC module, Cholesky decomposition)
  Jacob Kongsted,           Univ. of Southern Denmark,    Denmark     (Polarizable embedding model, QM/MM)
  Andrea Ligabue,           University of Modena,         Italy       (CTOCD, AOSOPPA)
  Nanna H. List             Univ. of Southern Denmark,    Denmark     (Polarizable embedding model)
  Ola B. Lutnaes,           University of Oslo,           Norway      (DFT Hessian)
  Juan I. Melo,             University of Buenos Aires,   Argentina   (LRESC, Relativistic Effects on NMR Shieldings)
  Kurt V. Mikkelsen,        University of Copenhagen,     Denmark     (MC-SCRF and QM/MM)
  Rolf H. Myhre,            NTNU,                         Norway      (Cholesky, subsystems and ECC2)
  Christian Neiss,          Univ. Erlangen-Nuernberg,     Germany     (CCSD(R12))
  Christian B. Nielsen,     University of Copenhagen,     Denmark     (QM/MM)
  Patrick Norman,           Linkoeping University,        Sweden      (Cubic response and complex frequency response in RESPONS)
  Jeppe Olsen,              Aarhus University,            Denmark     (SIRIUS CI/density modules)
  Jogvan Magnus H. Olsen,   Univ. of Southern Denmark,    Denmark     (Polarizable embedding model, QM/MM)
  Anders Osted,             Copenhagen University,        Denmark     (QM/MM)
  Martin J. Packer,         University of Sheffield,      UK          (SOPPA)
  Filip Pawlowski,          Kazimierz Wielki University,  Poland      (CC3)
  Morten N. Pedersen,       Univ. of Southern Denmark,    Denmark     (Polarizable embedding model)
  Thomas B. Pedersen,       University of Oslo,           Norway      (Cholesky decomposition)
  Patricio F. Provasi,      University of Northeastern,   Argentina   (Analysis of coupling constants in localized orbitals)
  Zilvinas Rinkevicius,     KTH Stockholm,                Sweden      (open-shell DFT, ESR)
  Elias Rudberg,            KTH Stockholm,                Sweden      (DFT grid and basis info)
  Torgeir A. Ruden,         University of Oslo,           Norway      (Numerical derivatives in ABACUS)
  Kenneth Ruud,             UiT The Arctic U. of Norway,  Norway      (DALTON; ABACUS magnetic properties and much more)
  Pawel Salek,              KTH Stockholm,                Sweden      (DALTON; DFT code)
  Claire C. M. Samson       University of Karlsruhe       Germany     (Boys localization, r12 integrals in ERI)
  Alfredo Sanchez de Meras, University of Valencia,       Spain       (CC module, Cholesky decomposition)
  Trond Saue,               Paul Sabatier University,     France      (direct Fock matrix construction)
  Stephan P. A. Sauer,      University of Copenhagen,     Denmark     (SOPPA(CCSD), SOPPA prop., AOSOPPA, vibrational g-factors)
  Bernd Schimmelpfennig,    Forschungszentrum Karlsruhe,  Germany     (AMFI module)
  Kristian Sneskov,         Aarhus University,            Denmark     (Polarizable embedding model, QM/MM)
  Arnfinn H. Steindal,      UiT The Arctic U. of Norway,  Norway      (parallel QM/MM, Polarizable embedding model)
  Casper Steinmann,         Univ. of Southern Denmark,    Denmark     (QFIT, Polarizable embedding model)
  K. O. Sylvester-Hvid,     University of Copenhagen,     Denmark     (MC-SCRF)
  Peter R. Taylor,          VLSCI/Univ. of Melbourne,     Australia   (Symmetry handling ABACUS, integral transformation)
  Andrew M. Teale,          University of Nottingham,     England     (DFT-AC, DFT-D)
  David P. Tew,             University of Bristol,        England     (CCSD(R12))
  Olav Vahtras,             KTH Stockholm,                Sweden      (triplet response, spin-orbit, ESR, TDDFT, open-shell DFT)
  David J. Wilson,          La Trobe University,          Australia   (DFT Hessian and DFT magnetizabilities)
  Hans Agren,               KTH Stockholm,                Sweden      (SIRIUS module, RESPONS, MC-SCRF solvation model)
 --------------------------------------------------------------------------------

     Date and time (Linux)  : Tue Aug 14 14:58:09 2018
     Host name              : n-62-23-19                              

 * Work memory size             :   512000000 =  3.815 gigabytes.

 * Directories for basis set searches:
   1) /zhome/d7/7/119775/Vinylfluoride
   2) /zhome/d7/7/119775/My_Codes/dalton-private/build2016/basis


Compilation information
-----------------------

 Who compiled             | soco
 Host                     | hpclogin1
 System                   | Linux-2.6.32-696.20.1.el6.x86_64
 CMake generator          | Unix Makefiles
 Processor                | x86_64
 64-bit integers          | ON
 MPI                      | OFF
 Fortran compiler         | /opt/intel/2016update2/compilers_and_libraries_201
                          | 6.2.181/linux/bin/intel64/ifort
 Fortran compiler version | ifort (IFORT) 16.0.2 20160204
 C compiler               | /opt/intel/2016update2/compilers_and_libraries_201
                          | 6.2.181/linux/bin/intel64/icc
 C compiler version       | icc (ICC) 16.0.2 20160204
 C++ compiler             | /opt/intel/2016update2/compilers_and_libraries_201
                          | 6.2.181/linux/bin/intel64/icpc
 C++ compiler version     | icpc (ICC) 16.0.2 20160204
 Static linking           | OFF
 Last Git revision        | ed040e3212b88786272871181646ac7f3e590142
 Git branch               | cvs
 Configuration time       | 2018-07-17 12:04:55.895650


   Content of the .dal input file
 ----------------------------------

**DALTON INPUT
.RUN WAVE FUNCTIONS
*MOLBAS
.CM FUN
 2 3 4
.ZCMVAL
 1
**INTEGRALS
.DIPLEN  !integrali dell'operatore dipolo elettrico
**WAVE FUNCTION
.CC      !funzione d'onda coupled cluster
*PRINT
.PRINTL
   0 11
*SCF INP !parte da Hartree-Fock
!.DOUBLY OCCUPIED
!3 1 1 0
.THRESH  !soglia di convergenza
 1.0D-10
!*ORBITAL INPUT
!.MOSTART
! NEWORB
*CC INPUT !specifiche funzione CC
.PRINT
 2
.CCSD
.FCORE
3 0
!.LCOR
!.CC3
.MAXRED
 3000
.MAX ITE
 900
.MXLRV
 2999
!.RESTART
*CCEXCI
.NCCEXC     !nro di eccitazioni per IRRE8
22 15
.CVSEPARATION
2 0
2 3 !quali di A1
0   !quali di B1
*CCLRSD     !momenti di transizione di dipolo
.EOMTMO
.DIPOLE
**END OF DALTON INPUT


   Content of the .mol file
 ----------------------------

ATOMBASIS
riga di commento
riga di commento
ATOMTYPES=4 Angstrom
   9.0    1    basis=aug-cc-pVTZ
F      -1.1529023119     0.2247766372     0.0000000000
   6.0    2    basis=aug-cc-pVTZ
C1      1.1793501171     0.1997294858     0.0000000000
C2      0.0163188564    -0.4355681094     0.0000000000
   1.0    3    basis=aug-cc-pVTZ
H      -0.1189530186    -1.5078996853     0.0000000000
H       1.2308254859     1.2785611362     0.0000000000
H       2.0902344982    -0.3786194440     0.0000000000
   0.0    1
X        0.000         0.000         0.000



       *******************************************************************
       *********** Output from DALTON general input processing ***********
       *******************************************************************

 --------------------------------------------------------------------------------
   Overall default print level:    0
   Print level for DALTON.STAT:    1

    HERMIT 1- and 2-electron integral sections will be executed
    "Old" integral transformation used (limited to max 255 basis functions)
    Wave function sections will be executed (SIRIUS module)
 --------------------------------------------------------------------------------


 Changes of defaults for *MOLBAS
 -------------------------------


 Rydberg center of mass basis fctns with l(max) =    2
 Sequence starts at n= 3.0 and ends at n= 4.0

 Proper reference for these basis functions:
 K. Kaufmann, W. Baumeister, and M. Jungen
 "Universal Gaussian basis sets for an optimum
 representation of Rydberg and continuum wavefunctions"
 J. Phys. B: At. Mol. Opt. Phys. 22 (1989) 2223-2240



   ****************************************************************************
   *************** Output of molecule and basis set information ***************
   ****************************************************************************


    The two title cards from your ".mol" input:
    ------------------------------------------------------------------------
 1: riga di commento                                                        
 2: riga di commento                                                        
    ------------------------------------------------------------------------

  Coordinates are entered in Angstrom and converted to atomic units.
          - Conversion factor : 1 bohr = 0.52917721 A

  Atomic type no.    1
  --------------------
  Nuclear charge:   9.00000
  Number of symmetry independent centers:    1
  Number of basis sets to read;    2
  The basis set is "aug-cc-pVTZ" from the basis set library.
  Basis set file used for this atomic type with Z =   9 :
     "/zhome/d7/7/119775/My_Codes/dalton-private/build2016/basis/aug-cc-pVTZ"

  Atomic type no.    2
  --------------------
  Nuclear charge:   6.00000
  Number of symmetry independent centers:    2
  Number of basis sets to read;    2
  The basis set is "aug-cc-pVTZ" from the basis set library.
  Basis set file used for this atomic type with Z =   6 :
     "/zhome/d7/7/119775/My_Codes/dalton-private/build2016/basis/aug-cc-pVTZ"

  Atomic type no.    3
  --------------------
  Nuclear charge:   1.00000
  Number of symmetry independent centers:    3
  Number of basis sets to read;    2
  The basis set is "aug-cc-pVTZ" from the basis set library.
  Basis set file used for this atomic type with Z =   1 :
     "/zhome/d7/7/119775/My_Codes/dalton-private/build2016/basis/aug-cc-pVTZ"

  Atomic type no.    4
  --------------------
  Nuclear charge:   0.00000
  Number of symmetry independent centers:    1
  Number of basis sets to read;    2


                      SYMADD: Requested addition of symmetry
                      --------------------------------------

 Symmetry test threshold:  5.00E-06

@   The molecule is centered at center of mass and rotated
@   so principal axes of inertia are along coordinate axes.

 Symmetry class found: C(s)           

 Symmetry Independent Centres             
 ----------------------------
       9 :      0.00000000    -0.33348548    -2.01129402  Isotope  1
       6 :      0.00000000     0.85078270     0.23294635  Isotope  1
       6 :      0.00000000    -0.41202583     2.39557865  Isotope  1
       1 :      0.00000000     2.88366890     0.03528909  Isotope  1
       1 :      0.00000000    -2.45266854     2.43459728  Isotope  1
       1 :      0.00000000     0.63129631     4.14740766  Isotope  1
       0 :      0.00000000     0.02889452     0.17861658  Isotope  1

 The following element was found:   X        


                         SYMGRP: Point group information
                         -------------------------------

@    Full point group is: C(s)           
@    Represented as:      Cs 

@  * The irrep name for each symmetry:    1: A'     2: A" 

   * The point group was generated by:

      Reflection in the yz-plane

   * Group multiplication table

        |  E   Oyz
   -----+----------
     E  |  E   Oyz
    Oyz | Oyz   E 

   * Character table

        |  E   Oyz
   -----+----------
    A'  |   1    1
    A"  |   1   -1

   * Direct product table

        | A'   A" 
   -----+----------
    A'  | A'   A" 
    A"  | A"   A' 


                                 Isotopic Masses
                                 ---------------

                           F          18.998403
                           C1         12.000000
                           C2         12.000000
                           H           1.007825
                           H           1.007825
                           H           1.007825

                       Total mass:    46.021878 amu
                       Natural abundance:  97.768 %

 Center-of-mass coordinates (a.u.):    0.000000    0.000000   -0.000000


  Atoms and basis sets
  --------------------

  Number of atom types :    4
  Total number of atoms:    7

  label    atoms   charge   prim   cont     basis
  ----------------------------------------------------------------------
  F           1    9.0000    58    46      [11s6p3d2f|5s4p3d2f]                               
  C2          2    6.0000    58    46      [11s6p3d2f|5s4p3d2f]                               
  H           3    1.0000    25    23      [6s3p2d|4s3p2d]                                    
  X           1    0.0000    27    27      [3s3p3d|3s3p3d]                                    
  ----------------------------------------------------------------------
  total:      7   24.0000   276   234
  ----------------------------------------------------------------------
  Spherical harmonic basis used.

  Threshold for neglecting AO integrals:  1.00D-12


  Cartesian Coordinates (a.u.)
  ----------------------------

  Total number of coordinates:   21
  F       :     1  x   0.0000000000    2  y  -0.3334854839    3  z  -2.0112940222
  C1      :     4  x   0.0000000000    5  y  -0.4120258297    6  z   2.3955786504
  C2      :     7  x   0.0000000000    8  y   0.8507827028    9  z   0.2329463520
  H       :    10  x   0.0000000000   11  y   2.8836688990   12  z   0.0352890906
  H       :    13  x   0.0000000000   14  y  -2.4526685398   15  z   2.4345972819
  H       :    16  x   0.0000000000   17  y   0.6312963095   18  z   4.1474076585
  X       :    19  x   0.0000000000   20  y   0.0288945230   21  z   0.1786165769


  Symmetry Coordinates
  --------------------

  Number of coordinates in each symmetry:    14    7

  Symmetry  A'  ( 1)

    1   F     y    2
    2   F     z    3
    3   C1    y    5
    4   C1    z    6
    5   C2    y    8
    6   C2    z    9
    7   H     y   11
    8   H     z   12
    9   H     y   14
   10   H     z   15
   11   H     y   17
   12   H     z   18
   13   X     y   20
   14   X     z   21

  Symmetry  A"  ( 2)

   15   F     x    1
   16   C1    x    4
   17   C2    x    7
   18   H     x   10
   19   H     x   13
   20   H     x   16
   21   X     x   19


   Interatomic separations (in Angstrom):
   --------------------------------------

            F           C1          C2          H           H           H     
            ------      ------      ------      ------      ------      ------
 F     :    0.000000
 C1    :    2.332387    0.000000
 C2    :    1.342808    1.325234    0.000000
 H     :    2.017726    2.145131    1.080830    0.000000
 H     :    2.606266    1.080059    2.100777    3.096170    0.000000
 H     :    3.298791    1.078980    2.074697    2.481085    1.866770    0.000000
 X     :    1.174610    1.196143    0.435874    1.512584    1.774725    2.124249

            X     
            ------
 X     :    0.000000


  Max    interatomic separation is    3.2988 Angstrom (    6.2338 Bohr)
  between atoms    6 and    1, "H     " and "F     ".

  Min HX interatomic separation is    1.0790 Angstrom (    2.0390 Bohr)

  Min YX interatomic separation is    1.3252 Angstrom (    2.5043 Bohr)


  Bond distances (Angstrom):
  --------------------------

                  atom 1     atom 2       distance
                  ------     ------       --------
  bond distance:  C2         F            1.342808
  bond distance:  C2         C1           1.325234
  bond distance:  H          C2           1.080830
  bond distance:  H          C1           1.080059
  bond distance:  H          C1           1.078980


  Bond angles (degrees):
  ----------------------

                  atom 1     atom 2     atom 3         angle
                  ------     ------     ------         -----
  bond angle:     C2         C1         H            121.377
  bond angle:     C2         C1         H            118.942
  bond angle:     H          C1         H            119.681
  bond angle:     F          C2         C1           121.898
  bond angle:     F          C2         H            112.267
  bond angle:     C1         C2         H            125.835




 Principal moments of inertia (u*A**2) and principal axes
 --------------------------------------------------------

   IA       7.751454          0.000000    0.000000    1.000000
   IB      47.515668          0.000000    1.000000    0.000000
   IC      55.267121          1.000000    0.000000    0.000000


 Rotational constants
 --------------------

@    The molecule is planar.

               A                   B                   C

          65197.9664          10636.0498           9144.2976 MHz
            2.174770            0.354780            0.305021 cm-1


@  Nuclear repulsion energy :   67.548214669811 Hartree


  Symmetry Orbitals
  -----------------

  Number of orbitals in each symmetry:         156   78


  Symmetry  A' ( 1)

    1     F        1s         1
    2     F        1s         2
    3     F        1s         3
    4     F        1s         4
    5     F        1s         5
    6     F        2py        7
    7     F        2pz        8
    8     F        2py       10
    9     F        2pz       11
   10     F        2py       13
   11     F        2pz       14
   12     F        2py       16
   13     F        2pz       17
   14     F        3d1-      19
   15     F        3d0       20
   16     F        3d2+      22
   17     F        3d1-      24
   18     F        3d0       25
   19     F        3d2+      27
   20     F        3d1-      29
   21     F        3d0       30
   22     F        3d2+      32
   23     F        4f3-      33
   24     F        4f1-      35
   25     F        4f0       36
   26     F        4f2+      38
   27     F        4f3-      40
   28     F        4f1-      42
   29     F        4f0       43
   30     F        4f2+      45
   31     C1       1s        47
   32     C1       1s        48
   33     C1       1s        49
   34     C1       1s        50
   35     C1       1s        51
   36     C1       2py       53
   37     C1       2pz       54
   38     C1       2py       56
   39     C1       2pz       57
   40     C1       2py       59
   41     C1       2pz       60
   42     C1       2py       62
   43     C1       2pz       63
   44     C1       3d1-      65
   45     C1       3d0       66
   46     C1       3d2+      68
   47     C1       3d1-      70
   48     C1       3d0       71
   49     C1       3d2+      73
   50     C1       3d1-      75
   51     C1       3d0       76
   52     C1       3d2+      78
   53     C1       4f3-      79
   54     C1       4f1-      81
   55     C1       4f0       82
   56     C1       4f2+      84
   57     C1       4f3-      86
   58     C1       4f1-      88
   59     C1       4f0       89
   60     C1       4f2+      91
   61     C2       1s        93
   62     C2       1s        94
   63     C2       1s        95
   64     C2       1s        96
   65     C2       1s        97
   66     C2       2py       99
   67     C2       2pz      100
   68     C2       2py      102
   69     C2       2pz      103
   70     C2       2py      105
   71     C2       2pz      106
   72     C2       2py      108
   73     C2       2pz      109
   74     C2       3d1-     111
   75     C2       3d0      112
   76     C2       3d2+     114
   77     C2       3d1-     116
   78     C2       3d0      117
   79     C2       3d2+     119
   80     C2       3d1-     121
   81     C2       3d0      122
   82     C2       3d2+     124
   83     C2       4f3-     125
   84     C2       4f1-     127
   85     C2       4f0      128
   86     C2       4f2+     130
   87     C2       4f3-     132
   88     C2       4f1-     134
   89     C2       4f0      135
   90     C2       4f2+     137
   91     H        1s       139
   92     H        1s       140
   93     H        1s       141
   94     H        1s       142
   95     H        2py      144
   96     H        2pz      145
   97     H        2py      147
   98     H        2pz      148
   99     H        2py      150
  100     H        2pz      151
  101     H        3d1-     153
  102     H        3d0      154
  103     H        3d2+     156
  104     H        3d1-     158
  105     H        3d0      159
  106     H        3d2+     161
  107     H        1s       162
  108     H        1s       163
  109     H        1s       164
  110     H        1s       165
  111     H        2py      167
  112     H        2pz      168
  113     H        2py      170
  114     H        2pz      171
  115     H        2py      173
  116     H        2pz      174
  117     H        3d1-     176
  118     H        3d0      177
  119     H        3d2+     179
  120     H        3d1-     181
  121     H        3d0      182
  122     H        3d2+     184
  123     H        1s       185
  124     H        1s       186
  125     H        1s       187
  126     H        1s       188
  127     H        2py      190
  128     H        2pz      191
  129     H        2py      193
  130     H        2pz      194
  131     H        2py      196
  132     H        2pz      197
  133     H        3d1-     199
  134     H        3d0      200
  135     H        3d2+     202
  136     H        3d1-     204
  137     H        3d0      205
  138     H        3d2+     207
  139     X        1s       208
  140     X        1s       209
  141     X        1s       210
  142     X        2py      212
  143     X        2pz      213
  144     X        2py      215
  145     X        2pz      216
  146     X        2py      218
  147     X        2pz      219
  148     X        3d1-     221
  149     X        3d0      222
  150     X        3d2+     224
  151     X        3d1-     226
  152     X        3d0      227
  153     X        3d2+     229
  154     X        3d1-     231
  155     X        3d0      232
  156     X        3d2+     234


  Symmetry  A" ( 2)

  157     F        2px        6
  158     F        2px        9
  159     F        2px       12
  160     F        2px       15
  161     F        3d2-      18
  162     F        3d1+      21
  163     F        3d2-      23
  164     F        3d1+      26
  165     F        3d2-      28
  166     F        3d1+      31
  167     F        4f2-      34
  168     F        4f1+      37
  169     F        4f3+      39
  170     F        4f2-      41
  171     F        4f1+      44
  172     F        4f3+      46
  173     C1       2px       52
  174     C1       2px       55
  175     C1       2px       58
  176     C1       2px       61
  177     C1       3d2-      64
  178     C1       3d1+      67
  179     C1       3d2-      69
  180     C1       3d1+      72
  181     C1       3d2-      74
  182     C1       3d1+      77
  183     C1       4f2-      80
  184     C1       4f1+      83
  185     C1       4f3+      85
  186     C1       4f2-      87
  187     C1       4f1+      90
  188     C1       4f3+      92
  189     C2       2px       98
  190     C2       2px      101
  191     C2       2px      104
  192     C2       2px      107
  193     C2       3d2-     110
  194     C2       3d1+     113
  195     C2       3d2-     115
  196     C2       3d1+     118
  197     C2       3d2-     120
  198     C2       3d1+     123
  199     C2       4f2-     126
  200     C2       4f1+     129
  201     C2       4f3+     131
  202     C2       4f2-     133
  203     C2       4f1+     136
  204     C2       4f3+     138
  205     H        2px      143
  206     H        2px      146
  207     H        2px      149
  208     H        3d2-     152
  209     H        3d1+     155
  210     H        3d2-     157
  211     H        3d1+     160
  212     H        2px      166
  213     H        2px      169
  214     H        2px      172
  215     H        3d2-     175
  216     H        3d1+     178
  217     H        3d2-     180
  218     H        3d1+     183
  219     H        2px      189
  220     H        2px      192
  221     H        2px      195
  222     H        3d2-     198
  223     H        3d1+     201
  224     H        3d2-     203
  225     H        3d1+     206
  226     X        2px      211
  227     X        2px      214
  228     X        2px      217
  229     X        3d2-     220
  230     X        3d1+     223
  231     X        3d2-     225
  232     X        3d1+     228
  233     X        3d2-     230
  234     X        3d1+     233

  Number of floating/multiple basis set orbitals :    1

  Symmetries of electric field:  A" (2)  A' (1)  A' (1)

  Symmetries of magnetic field:  A' (1)  A" (2)  A" (2)


                     .---------------------------------------.
                     | Starting in Integral Section (HERMIT) |
                     `---------------------------------------'



 ***************************************************************************************
 ****************** Output from **INTEGRALS input processing (HERMIT) ******************
 ***************************************************************************************



    *************************************************************************
    ****************** Output from HERMIT input processing ******************
    *************************************************************************


 Default print level:        1

 * Nuclear model: Point charge

 Calculation of one- and two-electron Hamiltonian integrals.

 The following one-electron property integrals are calculated as requested:
          - overlap integrals
          - dipole length integrals

 Center of mass  (bohr):      0.000000000000      0.000000000000     -0.000000000000
 Operator center (bohr):      0.000000000000      0.000000000000      0.000000000000
 Gauge origin    (bohr):      0.000000000000      0.000000000000     -0.000000000000
 Dipole origin   (bohr):      0.000000000000      0.000000000000     -0.000000000000


     ************************************************************************
     ************************** Output from HERINT **************************
     ************************************************************************



                      Nuclear contribution to dipole moments
                      --------------------------------------

                 au               Debye          C m (/(10**-30)

      y      0.69346855         1.76262113         5.87947123
      z      4.28679785        10.89595260        36.34498569


  Time used in POPOVLP    is       0.10 seconds
  Time used in DIPLEN     is       0.15 seconds
  Time used in QUADRUP    is       0.46 seconds
  Time used in KINENE     is       0.14 seconds

 Threshold for neglecting two-electron integrals:  1.00D-12
 HERMIT - Number of two-electron integrals written:   188850774 ( 50.0% )
 HERMIT - Megabytes written:                           2162.431

  Time used in TWOINT     is      1 minute  23 seconds
  Total CPU  time used in HERMIT:  1 minute  24 seconds
  Total wall time used in HERMIT:  22.84 seconds


                        .----------------------------------.
                        | End of Integral Section (HERMIT) |
                        `----------------------------------'



                   .--------------------------------------------.
                   | Starting in Wave Function Section (SIRIUS) |
                   `--------------------------------------------'

NCCEXCI for singlet:   22   15
 CCSD_INPUT: core-val requested
 Requested number of core orbs per sym
                     2                     0
 Indices of requested core orbs
                     2                     3
 

 *** Output from Huckel module :

     Using EWMO model:          T
     Using EHT  model:          F
     Number of Huckel orbitals each symmetry:   15    3

 EWMO - Energy Weighted Maximum Overlap - is a Huckel type method,
        which normally is better than Extended Huckel Theory.
 Reference: Linderberg and Ohrn, Propagators in Quantum Chemistry (Wiley, 1973)

 Huckel EWMO eigenvalues for symmetry :  1
          -26.384395     -11.355928     -11.346749      -1.832332      -1.392567
           -1.013694      -0.833137      -0.706825      -0.607311      -0.509111
           -0.227698      -0.127596      -0.124097      -0.095412      -0.086945

 Huckel EWMO eigenvalues for symmetry :  2
           -0.789532      -0.510487      -0.243781

 **********************************************************************
 *SIRIUS* a direct, restricted step, second order MCSCF program       *
 **********************************************************************

 
     Date and time (Linux)  : Tue Aug 14 14:58:32 2018
     Host name              : n-62-23-19                              

 Title lines from ".mol" input file:
     riga di commento                                                        
     riga di commento                                                        

 Print level on unit LUPRI =   2 is   0
 Print level on unit LUW4  =   2 is  11

@    (Integral direct) CC calculation.

@    This is a combination run starting with
@              a restricted, closed shell Hartree-Fock calculation


 Initial molecular orbitals are obtained according to
 ".MOSTART EWMO  " input option

     Wave function specification
     ============================

     For the specification of the Coupled Cluster: see later.

@    Wave function type        --- CC ---
@    Number of closed shell electrons          24
@    Number of electrons in active shells       0
@    Total charge of the molecule               0

@    Spin multiplicity and 2 M_S                1         0
@    Total number of symmetries                 2 (point group: Cs )
@    Reference state symmetry                   1 (irrep name : A' )

     Orbital specifications
     ======================
@    Abelian symmetry species          All |    1    2
@                                          |  A'   A" 
                                       --- |  ---  ---
@    Total number of orbitals          234 |  156   78
@    Number of basis functions         234 |  156   78

      ** Automatic occupation of RHF orbitals **

      -- Initial occupation of symmetries is determined from extended Huckel guess.           
      -- Initial occupation of symmetries is :
@    Occupied SCF orbitals              12 |   10    2

     Maximum number of Fock   iterations      0
     Maximum number of DIIS   iterations     60
     Maximum number of QC-SCF iterations     60
     Threshold for SCF convergence     1.00D-10


 Changes of defaults for CC:
 ---------------------------

 -Excitation energies calculated
 -One-photon absorption strengths will be calculated
 -Oscillator strengths calculated
  
* Read MO coefficients from SIRIUS.RST with label "NEWORB  " and header info: 14Aug18  REORTHO 


 ***********************************************
 ***** DIIS acceleration of SCF iterations *****
 ***********************************************

 C1-DIIS algorithm; max error vectors =    8
 -----------------------------------------------------------------------------

 *** DIIS iteration number    1
 RDSUPM called. NFMAT, ISYMDM(1:NFMAT)                     1
                     1

Calculating AOSUPINT
     (Precalculated AO two-electron integrals are transformed to P-supermatrix elements.
      Threshold for discarding integrals :  1.00D-12 )
  CPU  time used in FORMSUP    is  23.38 seconds
  WALL time used in FORMSUP    is  39.96 seconds

 ITDIIS, energy, error norm, change in energy, scr.thr., difden:
@ DIIS iter.   1    -176.428634804        2.97689D+00   -1.76D+02  -20    T

@ AUTO OCC: current SCF occupation  10   2

 (DIIS_RED) Control Parameters C2DIIS =         F NEVC =    1


 (DIIS_RED) B matrix:

               Column   1
       1       8.86186307
    ==== End of matrix output ====

 DIIS C vector; C2DIIS = F, LAMBDA = -8.86D+00
    1.000000
* Read MO coefficients from SIRIUS.RST with label "NEWORB  " and header info: 14Aug18  DIIS   1
      Virial theorem: -V/T =      2.000681
@    MULPOP   F      -0.53; C1     -0.46; C2      0.29; H       0.25; H       0.23; H       0.21; 
   1  Level shift: doubly occupied orbital energies shifted by -2.00D-01

 DIIS Fock eigenvalues in symmetry 1
      -26.22620      -12.09245      -11.89412       -1.82037       -1.50607
       -1.16306       -1.06031       -0.99062       -0.88631       -0.78574
        0.00049        0.00534        0.00567        0.00755        0.01304
        0.01316        0.01317        0.01685        0.01887        0.02338
        0.03574        0.03581        0.03656        0.04007        0.04717
        0.05850        0.07560        0.07713        0.08065        0.08174
        0.09355        0.11033        0.12141        0.13833        0.14969
        0.16822        0.17995        0.19867        0.20961        0.23012
        0.26954        0.28131        0.30586        0.31137        0.34528
        0.35240        0.37184        0.38292        0.40172        0.40934
        0.41583        0.45212        0.45895        0.48748        0.50540
        0.55691        0.60109        0.67084        0.71283        0.75168
        0.76938        0.79519        0.80682        0.84372        0.87872
        0.88930        0.90403        0.91329        0.92887        0.99309
        1.01465        1.04782        1.07751        1.08564        1.13894
        1.22617        1.24796        1.27375        1.35091        1.35804
        1.39973        1.42534        1.48369        1.53626        1.58507
        1.62300        1.65515        1.66566        1.74978        1.77504
        1.79633        1.87638        1.94807        1.95277        2.03700
        2.15119        2.19585        2.29572        2.33935        2.50588
        2.66267        2.79713        2.91919        2.95884        3.00118
        3.04591        3.09906        3.14004        3.19087        3.29150
        3.34587        3.37900        3.46979        3.51448        3.54960
        3.58198        3.63471        3.66672        3.70581        3.80207
        3.84811        3.97798        4.04303        4.08726        4.21489
        4.26804        4.34345        4.46883        4.59770        4.63957
        4.76089        4.82153        5.00847        5.01344        5.14308
        5.26233        5.33079        5.47364        5.59112        5.67282
        5.99314        6.10838        6.34897        6.45130        6.69456
        7.29133        9.00747        9.24874        9.41633        9.55164
        9.60332        9.95091        9.99393       14.76714       16.82654
       17.02023

 DIIS Fock eigenvalues in symmetry 2
       -0.92071       -0.74871       -0.05917        0.00583        0.01309
        0.01325        0.01945        0.03625        0.03734        0.04702
        0.08217        0.08440        0.12504        0.16526        0.23383
        0.27812        0.30347        0.35689        0.37002        0.41549
        0.43357        0.49433        0.57475        0.65617        0.78173
        0.81979        0.86989        0.91998        0.93609        1.00535
        1.03379        1.06062        1.08160        1.12357        1.26653
        1.29176        1.37449        1.43252        1.50677        1.54331
        1.63211        1.69854        1.81043        1.92628        1.99982
        2.18390        2.55559        2.88199        2.89581        2.94157
        2.97664        3.06208        3.14268        3.19190        3.25569
        3.31694        3.43829        3.52852        3.55829        3.61924
        3.87472        4.07676        4.14810        4.29845        4.45262
        4.57387        4.71837        4.78555        4.86302        4.93279
        5.19780        5.32121        5.67229        8.97973        9.21389
        9.39548        9.53227        9.71821
 Time used in FCKEIG, thr_jaco:   2.29D-01  5.80D-02  1.85D-04
 CPU and wall times used in FCKEIG, THR_FCKEIG:   2.29D-01  5.80D-02  2.98D-02
 -----------------------------------------------------------------------------

 *** DIIS iteration number    2
 RDSUPM called. NFMAT, ISYMDM(1:NFMAT)                     1
                     1

 ITDIIS, energy, error norm, change in energy, scr.thr., difden:
@ DIIS iter.   2    -176.894105373        1.14542D+00   -4.65D-01  -20    T

@ AUTO OCC: current SCF occupation  10   2

 (DIIS_RED) Control Parameters C2DIIS =         F NEVC =    2


 (DIIS_RED) B matrix:

               Column   1     Column   2
       1       8.86186307
       2      -1.66187854     1.31199748
    ==== End of matrix output ====

 DIIS C vector; C2DIIS = F, LAMBDA = -6.57D-01
    0.220326    0.779674
* Read MO coefficients from SIRIUS.RST with label "NEWORB  " and header info: 14Aug18  DIIS   2
      Virial theorem: -V/T =      2.004885
@    MULPOP   F      -0.25; C1     -1.04; C2     -0.36; H       0.73; H       0.46; H       0.46; 
   2  Level shift: doubly occupied orbital energies shifted by -1.00D-01

 DIIS Fock eigenvalues in symmetry 1
      -26.54399      -11.44427      -11.34582       -1.77730       -1.16618
       -0.96820       -0.87649       -0.81127       -0.71013       -0.67615
        0.00201        0.00584        0.00611        0.00951        0.01291
        0.01299        0.01324        0.01909        0.02022        0.02683
        0.03588        0.03606        0.03726        0.04573        0.04928
        0.07224        0.08000        0.08111        0.08406        0.09228
        0.09532        0.12251        0.14380        0.17250        0.18245
        0.18972        0.21131        0.22757        0.24949        0.26479
        0.28303        0.30769        0.31769        0.35008        0.36145
        0.37852        0.40428        0.41677        0.44269        0.45366
        0.47521        0.48402        0.50395        0.51495        0.60041
        0.61718        0.64161        0.72697        0.76490        0.81243
        0.83972        0.85405        0.88601        0.89964        0.92468
        0.95291        0.95458        0.98645        0.99913        1.02969
        1.05931        1.08706        1.11491        1.13528        1.18006
        1.23188        1.27292        1.29098        1.32257        1.42869
        1.45621        1.50120        1.55367        1.59249        1.68604
        1.72431        1.72821        1.75522        1.83871        1.85913
        1.89692        1.97226        2.01999        2.03970        2.11900
        2.23591        2.27835        2.39811        2.43549        2.63599
        2.74517        2.96771        3.03128        3.04623        3.07423
        3.13932        3.19863        3.22462        3.29293        3.40356
        3.51946        3.53581        3.60062        3.64822        3.69452
        3.73794        3.78963        3.80709        3.89673        3.97292
        4.05637        4.12360        4.16512        4.21266        4.32156
        4.38574        4.49319        4.62092        4.76505        4.76854
        4.88347        4.99270        5.09662        5.22460        5.28103
        5.35368        5.45101        5.60836        5.67121        5.82293
        6.08248        6.26683        6.53613        6.66711        6.86359
        7.25475        8.88306        9.14380        9.31006        9.41645
        9.43322        9.79948        9.81989       14.73598       17.06313
       17.35240

 DIIS Fock eigenvalues in symmetry 2
       -0.83478       -0.50686        0.00626        0.01303        0.01330
        0.02086        0.03609        0.03749        0.05191        0.07759
        0.08567        0.11833        0.14785        0.20152        0.26845
        0.27768        0.31604        0.38549        0.40732        0.44892
        0.45219        0.57693        0.60693        0.72641        0.85673
        0.90457        0.94253        0.97684        0.97959        1.05178
        1.07122        1.08720        1.10949        1.13802        1.30206
        1.36724        1.42654        1.53967        1.59005        1.62133
        1.73367        1.78386        1.90414        2.00966        2.07468
        2.27148        2.77043        2.90840        2.95825        3.03262
        3.18179        3.25463        3.34067        3.35792        3.41660
        3.49568        3.55053        3.63785        3.72695        3.75059
        4.04499        4.23320        4.29518        4.43839        4.55496
        4.66853        4.85179        4.93979        4.96896        5.09831
        5.31287        5.46321        5.59403        8.85520        9.10951
        9.26556        9.32817        9.55956
 Time used in FCKEIG, thr_jaco:   1.47D-01  3.70D-02  7.13D-05
 CPU and wall times used in FCKEIG, THR_FCKEIG:   1.47D-01  3.70D-02  1.15D-02
 -----------------------------------------------------------------------------

 *** DIIS iteration number    3
 RDSUPM called. NFMAT, ISYMDM(1:NFMAT)                     1
                     1

 ITDIIS, energy, error norm, change in energy, scr.thr., difden:
@ DIIS iter.   3    -176.951036396        2.81008D-01   -5.69D-02  -20    T

@ AUTO OCC: current SCF occupation  10   2

 (DIIS_RED) Control Parameters C2DIIS =         F NEVC =    3


 (DIIS_RED) B matrix:

               Column   1     Column   2     Column   3
       1       8.86186307
       2      -1.66187854     1.31199748
       3       0.41832847    -0.09404076     0.07896576
    ==== End of matrix output ====

 DIIS C vector; C2DIIS = F, LAMBDA = -5.71D-02
   -0.022481    0.082411    0.940069
* Read MO coefficients from SIRIUS.RST with label "NEWORB  " and header info: 14Aug18  DIIS   3
      Virial theorem: -V/T =      1.999369
@    MULPOP   F      -0.40; C1     -1.03; C2     -0.19; H       0.72; H       0.46; H       0.44; 
   3  Level shift: doubly occupied orbital energies shifted by -2.50D-02

 DIIS Fock eigenvalues in symmetry 1
      -26.30370      -11.33192      -11.23159       -1.63921       -1.06381
       -0.85450       -0.75521       -0.69805       -0.60325       -0.57584
        0.00203        0.00582        0.00614        0.00962        0.01289
        0.01299        0.01327        0.01909        0.02037        0.02724
        0.03587        0.03612        0.03732        0.04603        0.04973
        0.07377        0.08015        0.08160        0.08465        0.09280
        0.09626        0.12398        0.14682        0.17468        0.18671
        0.19234        0.21424        0.23396        0.25643        0.26789
        0.29649        0.31107        0.32377        0.35432        0.36381
        0.38649        0.41030        0.42389        0.45006        0.46010
        0.48223        0.49001        0.51044        0.53508        0.61265
        0.63165        0.65317        0.73690        0.77639        0.82626
        0.84989        0.86405        0.89737        0.91359        0.93630
        0.96297        0.96470        0.99670        1.01007        1.03759
        1.06842        1.09502        1.12414        1.14603        1.18894
        1.24879        1.28395        1.30271        1.33965        1.44270
        1.46726        1.51490        1.57117        1.61186        1.70282
        1.73656        1.74586        1.76969        1.85591        1.87604
        1.91582        1.99259        2.03716        2.05755        2.13442
        2.25178        2.29644        2.41781        2.45502        2.66693
        2.77924        2.99530        3.06989        3.08435        3.10612
        3.16829        3.22483        3.25728        3.32099        3.43398
        3.55002        3.56638        3.62985        3.67963        3.72385
        3.76770        3.81826        3.83786        3.92692        4.00425
        4.08547        4.15350        4.19452        4.24117        4.35270
        4.41622        4.52652        4.65227        4.79779        4.80009
        4.91524        5.02370        5.12338        5.24954        5.31625
        5.38920        5.48499        5.64891        5.71342        5.85991
        6.12816        6.30121        6.57434        6.70293        6.90389
        7.33198        8.95160        9.21476        9.38552        9.49802
        9.51018        9.89057        9.91107       14.81417       17.10944
       17.38781

 DIIS Fock eigenvalues in symmetry 2
       -0.70293       -0.40217        0.00627        0.01303        0.01331
        0.02096        0.03620        0.03754        0.05238        0.07940
        0.08613        0.13235        0.15046        0.21382        0.27479
        0.28033        0.31901        0.39026        0.41335        0.45378
        0.45695        0.58744        0.61468        0.73756        0.86693
        0.91411        0.95477        0.98513        0.99125        1.06444
        1.07954        1.09680        1.12202        1.15186        1.32305
        1.37883        1.43883        1.55571        1.60666        1.63758
        1.75038        1.79759        1.91894        2.02441        2.09031
        2.28633        2.79869        2.94978        2.99284        3.06421
        3.20980        3.28529        3.37043        3.38666        3.44478
        3.52545        3.57977        3.66699        3.75602        3.77584
        4.07166        4.25937        4.32421        4.46508        4.58940
        4.69264        4.87490        4.97072        4.99396        5.13057
        5.35217        5.50087        5.65723        8.92372        9.18086
        9.33616        9.41911        9.65289
 Time used in FCKEIG, thr_jaco:   1.18D-01  2.90D-02  1.75D-05
 CPU and wall times used in FCKEIG, THR_FCKEIG:   1.18D-01  2.90D-02  2.81D-03
 -----------------------------------------------------------------------------

 *** DIIS iteration number    4
 RDSUPM called. NFMAT, ISYMDM(1:NFMAT)                     1
                     1

 ITDIIS, energy, error norm, change in energy, scr.thr., difden:
@ DIIS iter.   4    -176.955651674        8.64049D-02   -4.62D-03  -20    T

@ AUTO OCC: current SCF occupation  10   2

 (DIIS_RED) Control Parameters C2DIIS =         F NEVC =    4


 (DIIS_RED) B matrix:

               Column   1     Column   2     Column   3     Column   4
       1       8.86186307
       2      -1.66187854     1.31199748
       3       0.41832847    -0.09404076     0.07896576
       4       0.08418937     0.02416046    -0.00363408     0.00746581
    ==== End of matrix output ====

 DIIS C vector; C2DIIS = F, LAMBDA = -3.55D-03
   -0.021104   -0.028624    0.163504    0.886224
* Read MO coefficients from SIRIUS.RST with label "NEWORB  " and header info: 14Aug18  DIIS   4
      Virial theorem: -V/T =      2.002247
@    MULPOP   F      -0.40; C1     -1.05; C2     -0.17; H       0.73; H       0.46; H       0.44; 
   4  Level shift: doubly occupied orbital energies shifted by -1.25D-02

 DIIS Fock eigenvalues in symmetry 1
      -26.32659      -11.34484      -11.24847       -1.64196       -1.06456
       -0.85127       -0.75314       -0.69666       -0.60099       -0.57199
        0.00203        0.00582        0.00614        0.00961        0.01289
        0.01299        0.01327        0.01907        0.02039        0.02720
        0.03587        0.03612        0.03732        0.04599        0.04971
        0.07356        0.08008        0.08160        0.08464        0.09285
        0.09615        0.12394        0.14669        0.17414        0.18617
        0.19181        0.21395        0.23342        0.25592        0.26789
        0.29488        0.31066        0.32358        0.35363        0.36366
        0.38515        0.40868        0.42206        0.44849        0.45904
        0.48087        0.48908        0.50959        0.53145        0.60985
        0.62812        0.64990        0.73433        0.77392        0.82341
        0.84834        0.86301        0.89508        0.90858        0.93406
        0.96143        0.96227        0.99428        1.00694        1.03659
        1.06658        1.09287        1.12310        1.14374        1.18769
        1.24658        1.28215        1.30051        1.33743        1.43929
        1.46482        1.51149        1.56694        1.60848        1.69941
        1.73349        1.74044        1.76595        1.85223        1.87121
        1.91144        1.98747        2.03338        2.05520        2.13248
        2.24991        2.29190        2.41379        2.44924        2.65976
        2.77124        2.98911        3.06287        3.07662        3.09902
        3.16257        3.21532        3.24959        3.31792        3.42644
        3.54151        3.55889        3.62356        3.67161        3.71571
        3.76045        3.81053        3.82891        3.91936        3.99737
        4.07567        4.14780        4.18959        4.23726        4.34845
        4.41115        4.52148        4.64677        4.79090        4.79382
        4.91343        5.01602        5.12490        5.24663        5.30570
        5.38584        5.48171        5.64394        5.70577        5.85339
        6.11958        6.29739        6.56928        6.69685        6.89537
        7.31485        8.93998        9.20205        9.37148        9.48454
        9.49475        9.87259        9.89385       14.79565       17.09124
       17.36648

 DIIS Fock eigenvalues in symmetry 2
       -0.70388       -0.39842        0.00627        0.01303        0.01331
        0.02095        0.03619        0.03754        0.05232        0.07916
        0.08610        0.12984        0.15004        0.21079        0.27411
        0.28013        0.31862        0.38956        0.41253        0.45253
        0.45587        0.58487        0.61323        0.73477        0.86611
        0.91222        0.95233        0.98476        0.98809        1.06294
        1.07835        1.09524        1.11991        1.14949        1.31907
        1.37547        1.43641        1.55094        1.60303        1.63465
        1.74473        1.79370        1.91486        2.02152        2.08856
        2.28358        2.78797        2.94117        2.98502        3.05713
        3.19923        3.27585        3.36062        3.37823        3.43591
        3.51771        3.57227        3.65948        3.75012        3.76926
        4.06675        4.25334        4.31880        4.46128        4.58200
        4.69424        4.87590        4.96233        4.99538        5.12437
        5.34622        5.49460        5.64425        8.91212        9.16790
        9.32430        9.40268        9.63491
 Time used in FCKEIG, thr_jaco:   1.14D-01  2.90D-02  5.38D-06
 CPU and wall times used in FCKEIG, THR_FCKEIG:   1.14D-01  2.90D-02  8.64D-04
 -----------------------------------------------------------------------------

 *** DIIS iteration number    5
 RDSUPM called. NFMAT, ISYMDM(1:NFMAT)                     1
                     1

 ITDIIS, energy, error norm, change in energy, scr.thr., difden:
@ DIIS iter.   5    -176.956250748        1.92967D-02   -5.99D-04  -20    T

@ AUTO OCC: current SCF occupation  10   2

 (DIIS_RED) Control Parameters C2DIIS =         F NEVC =    5


 (DIIS_RED) B matrix:

               Column   1     Column   2     Column   3     Column   4     Column   5
       1       8.86186307
       2      -1.66187854     1.31199748
       3       0.41832847    -0.09404076     0.07896576
       4       0.08418937     0.02416046    -0.00363408     0.00746581
       5       0.01498498     0.00031447     0.00328359     0.00065700     0.00037236
    ==== End of matrix output ====

 DIIS C vector; C2DIIS = F, LAMBDA = -1.66D-04
    0.003150    0.001703   -0.071044   -0.161484    1.227675
* Read MO coefficients from SIRIUS.RST with label "NEWORB  " and header info: 14Aug18  DIIS   5
      Virial theorem: -V/T =      2.001323
@    MULPOP   F      -0.40; C1     -1.07; C2     -0.18; H       0.74; H       0.47; H       0.45; 

 DIIS Fock eigenvalues in symmetry 1
      -26.31028      -11.32909      -11.23695       -1.62726       -1.05158
       -0.83797       -0.73895       -0.68398       -0.58896       -0.55981
        0.00202        0.00581        0.00614        0.00960        0.01289
        0.01298        0.01327        0.01905        0.02036        0.02718
        0.03586        0.03611        0.03734        0.04595        0.04971
        0.07352        0.08009        0.08160        0.08465        0.09278
        0.09607        0.12382        0.14664        0.17419        0.18601
        0.19170        0.21379        0.23333        0.25593        0.26807
        0.29509        0.31087        0.32312        0.35342        0.36346
        0.38521        0.40868        0.42192        0.44820        0.45859
        0.48078        0.48891        0.50974        0.53181        0.61018
        0.62781        0.64984        0.73436        0.77399        0.82305
        0.84799        0.86259        0.89488        0.90853        0.93390
        0.96112        0.96179        0.99406        1.00688        1.03659
        1.06630        1.09260        1.12273        1.14338        1.18726
        1.24724        1.28211        1.30020        1.33833        1.43918
        1.46477        1.51197        1.56635        1.60807        1.69893
        1.73355        1.74030        1.76572        1.85212        1.87106
        1.91107        1.98722        2.03321        2.05433        2.13204
        2.24917        2.29174        2.41355        2.44907        2.65986
        2.77188        2.98942        3.06405        3.07727        3.09928
        3.16354        3.21522        3.24991        3.31767        3.42725
        3.54156        3.55880        3.62362        3.67208        3.71599
        3.76048        3.81035        3.82854        3.91863        3.99665
        4.07542        4.14786        4.18947        4.23632        4.34813
        4.41108        4.52093        4.64662        4.79179        4.79344
        4.91279        5.01596        5.12391        5.24618        5.30549
        5.38540        5.48067        5.64366        5.70603        5.85315
        6.11988        6.29670        6.56826        6.69651        6.89515
        7.31679        8.94229        9.20415        9.37345        9.48653
        9.49701        9.87481        9.89607       14.79779       17.09339
       17.36597

 DIIS Fock eigenvalues in symmetry 2
       -0.69009       -0.38492        0.00628        0.01303        0.01332
        0.02096        0.03619        0.03756        0.05238        0.07919
        0.08617        0.12993        0.15031        0.21107        0.27392
        0.28028        0.31878        0.38958        0.41244        0.45255
        0.45591        0.58534        0.61342        0.73497        0.86561
        0.91226        0.95217        0.98427        0.98822        1.06270
        1.07811        1.09537        1.11992        1.14965        1.31906
        1.37536        1.43638        1.55152        1.60295        1.63420
        1.74482        1.79349        1.91527        2.02121        2.08770
        2.28343        2.78839        2.94266        2.98615        3.05813
        3.19976        3.27528        3.36071        3.37868        3.43603
        3.51694        3.57279        3.66022        3.74930        3.76915
        4.06619        4.25318        4.31841        4.46051        4.58270
        4.69339        4.87521        4.96165        4.99441        5.12404
        5.34574        5.49426        5.64538        8.91444        9.16996
        9.32634        9.40529        9.63734
 Time used in FCKEIG, thr_jaco:   1.08D-01  2.70D-02  1.20D-06
 CPU and wall times used in FCKEIG, THR_FCKEIG:   1.09D-01  2.70D-02  1.93D-04
 -----------------------------------------------------------------------------

 *** DIIS iteration number    6
 RDSUPM called. NFMAT, ISYMDM(1:NFMAT)                     1
                     1

 ITDIIS, energy, error norm, change in energy, scr.thr., difden:
@ DIIS iter.   6    -176.956314491        4.77215D-03   -6.37D-05  -20    T

@ AUTO OCC: current SCF occupation  10   2

 (DIIS_RED) Control Parameters C2DIIS =         F NEVC =    6


 (DIIS_RED) B matrix:

               Column   1     Column   2     Column   3     Column   4     Column   5     Column   6
       1       8.86186307
       2      -1.66187854     1.31199748
       3       0.41832847    -0.09404076     0.07896576
       4       0.08418937     0.02416046    -0.00363408     0.00746581
       5       0.01498498     0.00031447     0.00328359     0.00065700     0.00037236
       6       0.00006158     0.00049692     0.00007823     0.00016428     0.00005394     0.00002277
    ==== End of matrix output ====

 DIIS C vector; C2DIIS = F, LAMBDA = -1.69D-05
    0.000341    0.000512    0.002448   -0.015926   -0.127264    1.139889
* Read MO coefficients from SIRIUS.RST with label "NEWORB  " and header info: 14Aug18  DIIS   6
      Virial theorem: -V/T =      2.001353
@    MULPOP   F      -0.40; C1     -1.08; C2     -0.18; H       0.74; H       0.47; H       0.45; 

 DIIS Fock eigenvalues in symmetry 1
      -26.31082      -11.32969      -11.23580       -1.62761       -1.05159
       -0.83807       -0.73908       -0.68411       -0.58894       -0.55989
        0.00202        0.00581        0.00614        0.00960        0.01289
        0.01298        0.01327        0.01905        0.02036        0.02718
        0.03586        0.03610        0.03734        0.04595        0.04971
        0.07352        0.08008        0.08159        0.08465        0.09277
        0.09606        0.12381        0.14665        0.17418        0.18603
        0.19167        0.21379        0.23333        0.25593        0.26806
        0.29508        0.31086        0.32314        0.35339        0.36343
        0.38516        0.40864        0.42194        0.44818        0.45864
        0.48074        0.48893        0.50971        0.53172        0.61010
        0.62785        0.64981        0.73435        0.77394        0.82305
        0.84800        0.86259        0.89484        0.90847        0.93385
        0.96111        0.96183        0.99406        1.00686        1.03661
        1.06628        1.09258        1.12268        1.14337        1.18723
        1.24718        1.28201        1.30018        1.33821        1.43916
        1.46474        1.51188        1.56640        1.60802        1.69894
        1.73353        1.74026        1.76571        1.85210        1.87106
        1.91109        1.98721        2.03317        2.05436        2.13201
        2.24920        2.29171        2.41346        2.44907        2.65983
        2.77178        2.98934        3.06385        3.07717        3.09920
        3.16335        3.21519        3.24983        3.31769        3.42713
        3.54159        3.55882        3.62356        3.67199        3.71597
        3.76049        3.81040        3.82865        3.91882        3.99685
        4.07548        4.14781        4.18946        4.23637        4.34811
        4.41102        4.52101        4.64658        4.79160        4.79342
        4.91284        5.01599        5.12392        5.24621        5.30558
        5.38542        5.48081        5.64370        5.70601        5.85319
        6.11982        6.29680        6.56857        6.69663        6.89519
        7.31644        8.94198        9.20376        9.37298        9.48614
        9.49655        9.87429        9.89561       14.79748       17.09304
       17.36662

 DIIS Fock eigenvalues in symmetry 2
       -0.69067       -0.38474        0.00628        0.01303        0.01332
        0.02097        0.03619        0.03756        0.05239        0.07919
        0.08618        0.12993        0.15036        0.21115        0.27389
        0.28025        0.31879        0.38959        0.41245        0.45253
        0.45593        0.58539        0.61343        0.73506        0.86563
        0.91229        0.95222        0.98427        0.98811        1.06270
        1.07805        1.09532        1.11991        1.14957        1.31898
        1.37533        1.43635        1.55147        1.60291        1.63426
        1.74481        1.79349        1.91522        2.02120        2.08770
        2.28342        2.78839        2.94240        2.98598        3.05802
        3.19967        3.27552        3.36077        3.37864        3.43598
        3.51711        3.57267        3.66008        3.74951        3.76916
        4.06622        4.25310        4.31844        4.46057        4.58258
        4.69348        4.87509        4.96174        4.99451        5.12406
        5.34574        5.49428        5.64513        8.91413        9.16955
        9.32595        9.40491        9.63688
 Time used in FCKEIG, thr_jaco:   1.07D-01  2.70D-02  2.97D-07
 CPU and wall times used in FCKEIG, THR_FCKEIG:   1.07D-01  2.70D-02  4.77D-05
 -----------------------------------------------------------------------------

 *** DIIS iteration number    7
 RDSUPM called. NFMAT, ISYMDM(1:NFMAT)                     1
                     1

 ITDIIS, energy, error norm, change in energy, scr.thr., difden:
@ DIIS iter.   7    -176.956318935        2.58222D-03   -4.44D-06  -20    T

@ AUTO OCC: current SCF occupation  10   2

 (DIIS_RED) Control Parameters C2DIIS =         F NEVC =    7


 (DIIS_RED) B matrix:

               Column   1     Column   2     Column   3     Column   4     Column   5     Column   6
       1       8.86186307
       2      -1.66187854     1.31199748
       3       0.41832847    -0.09404076     0.07896576
       4       0.08418937     0.02416046    -0.00363408     0.00746581
       5       0.01498498     0.00031447     0.00328359     0.00065700     0.00037236
       6       0.00006158     0.00049692     0.00007823     0.00016428     0.00005394     0.00002277
       7      -0.00032944    -0.00005298     0.00005407     0.00001970     0.00002605     0.00000449

               Column   7
       7       0.00000667
    ==== End of matrix output ====

 DIIS C vector; C2DIIS = F, LAMBDA = -3.04D-06
   -0.000195    0.000100    0.009024    0.015340   -0.192571    0.268768    0.899534
* Read MO coefficients from SIRIUS.RST with label "NEWORB  " and header info: 14Aug18  DIIS   7
      Virial theorem: -V/T =      2.001345
@    MULPOP   F      -0.40; C1     -1.07; C2     -0.18; H       0.74; H       0.47; H       0.45; 

 DIIS Fock eigenvalues in symmetry 1
      -26.31058      -11.32904      -11.23671       -1.62737       -1.05168
       -0.83800       -0.73889       -0.68418       -0.58910       -0.55993
        0.00202        0.00581        0.00614        0.00960        0.01289
        0.01298        0.01328        0.01905        0.02036        0.02718
        0.03586        0.03610        0.03734        0.04595        0.04971
        0.07352        0.08009        0.08159        0.08465        0.09277
        0.09605        0.12380        0.14665        0.17419        0.18601
        0.19165        0.21377        0.23329        0.25593        0.26806
        0.29512        0.31088        0.32308        0.35336        0.36342
        0.38517        0.40865        0.42193        0.44813        0.45860
        0.48072        0.48888        0.50973        0.53179        0.61015
        0.62780        0.64983        0.73437        0.77398        0.82297
        0.84795        0.86249        0.89482        0.90844        0.93382
        0.96109        0.96173        0.99406        1.00686        1.03664
        1.06624        1.09254        1.12263        1.14335        1.18719
        1.24722        1.28201        1.30013        1.33829        1.43916
        1.46471        1.51193        1.56635        1.60793        1.69893
        1.73358        1.74024        1.76563        1.85205        1.87105
        1.91105        1.98719        2.03311        2.05420        2.13197
        2.24912        2.29168        2.41342        2.44906        2.65985
        2.77186        2.98936        3.06401        3.07724        3.09917
        3.16343        3.21513        3.24981        3.31764        3.42719
        3.54156        3.55881        3.62357        3.67204        3.71600
        3.76044        3.81030        3.82848        3.91863        3.99663
        4.07542        4.14789        4.18948        4.23614        4.34800
        4.41104        4.52088        4.64657        4.79177        4.79336
        4.91275        5.01597        5.12381        5.24618        5.30546
        5.38533        5.48058        5.64364        5.70606        5.85316
        6.11979        6.29663        6.56828        6.69661        6.89511
        7.31665        8.94218        9.20395        9.37315        9.48632
        9.49673        9.87447        9.89580       14.79767       17.09338
       17.36606

 DIIS Fock eigenvalues in symmetry 2
       -0.69059       -0.38478        0.00628        0.01303        0.01332
        0.02097        0.03619        0.03756        0.05240        0.07919
        0.08618        0.12990        0.15038        0.21113        0.27384
        0.28025        0.31882        0.38957        0.41243        0.45251
        0.45593        0.58540        0.61343        0.73502        0.86550
        0.91235        0.95221        0.98421        0.98810        1.06268
        1.07801        1.09535        1.11988        1.14957        1.31897
        1.37530        1.43634        1.55158        1.60287        1.63412
        1.74481        1.79344        1.91532        2.02114        2.08749
        2.28342        2.78836        2.94256        2.98609        3.05809
        3.19980        3.27527        3.36068        3.37871        3.43596
        3.51681        3.57273        3.66021        3.74933        3.76917
        4.06609        4.25307        4.31839        4.46043        4.58270
        4.69344        4.87491        4.96160        4.99440        5.12406
        5.34553        5.49420        5.64522        8.91434        9.16975
        9.32614        9.40511        9.63709
 Time used in FCKEIG, thr_jaco:   1.05D-01  2.70D-02  1.61D-07
 CPU and wall times used in FCKEIG, THR_FCKEIG:   1.05D-01  2.70D-02  2.58D-05
 -----------------------------------------------------------------------------

 *** DIIS iteration number    8
 RDSUPM called. NFMAT, ISYMDM(1:NFMAT)                     1
                     1

 ITDIIS, energy, error norm, change in energy, scr.thr., difden:
@ DIIS iter.   8    -176.956319653        6.33843D-04   -7.18D-07  -20    T

@ AUTO OCC: current SCF occupation  10   2

 (DIIS_RED) Control Parameters C2DIIS =         F NEVC =    8


 (DIIS_RED) B matrix:

               Column   1     Column   2     Column   3     Column   4     Column   5     Column   6
       1       8.86186307
       2      -1.66187854     1.31199748
       3       0.41832847    -0.09404076     0.07896576
       4       0.08418937     0.02416046    -0.00363408     0.00746581
       5       0.01498498     0.00031447     0.00328359     0.00065700     0.00037236
       6       0.00006158     0.00049692     0.00007823     0.00016428     0.00005394     0.00002277
       7      -0.00032944    -0.00005298     0.00005407     0.00001970     0.00002605     0.00000449
       8      -0.00000310    -0.00002879     0.00000555    -0.00000382     0.00000247     0.00000169

               Column   7     Column   8
       7       0.00000667
       8       0.00000086     0.00000040
    ==== End of matrix output ====

 DIIS C vector; C2DIIS = F, LAMBDA = -2.18D-07
   -0.000066   -0.000096   -0.000321    0.002809    0.019493   -0.118884   -0.131817    1.228883
* Read MO coefficients from SIRIUS.RST with label "NEWORB  " and header info: 14Aug18  DIIS   8
      Virial theorem: -V/T =      2.001345
@    MULPOP   F      -0.40; C1     -1.07; C2     -0.18; H       0.74; H       0.47; H       0.45; 

 DIIS Fock eigenvalues in symmetry 1
      -26.31053      -11.32906      -11.23663       -1.62733       -1.05166
       -0.83797       -0.73884       -0.68415       -0.58908       -0.55991
        0.00202        0.00581        0.00614        0.00960        0.01289
        0.01298        0.01328        0.01905        0.02036        0.02718
        0.03586        0.03610        0.03734        0.04595        0.04971
        0.07352        0.08009        0.08159        0.08465        0.09276
        0.09605        0.12380        0.14665        0.17420        0.18601
        0.19165        0.21377        0.23329        0.25593        0.26807
        0.29512        0.31088        0.32307        0.35336        0.36342
        0.38517        0.40866        0.42193        0.44813        0.45860
        0.48072        0.48887        0.50973        0.53180        0.61016
        0.62780        0.64984        0.73438        0.77399        0.82297
        0.84795        0.86249        0.89482        0.90845        0.93383
        0.96109        0.96172        0.99406        1.00687        1.03665
        1.06624        1.09254        1.12262        1.14335        1.18719
        1.24723        1.28201        1.30014        1.33832        1.43917
        1.46472        1.51194        1.56635        1.60794        1.69893
        1.73359        1.74025        1.76563        1.85206        1.87106
        1.91105        1.98719        2.03312        2.05419        2.13197
        2.24911        2.29169        2.41343        2.44907        2.65986
        2.77188        2.98938        3.06403        3.07725        3.09919
        3.16346        3.21515        3.24982        3.31764        3.42722
        3.54158        3.55881        3.62358        3.67206        3.71602
        3.76046        3.81031        3.82849        3.91864        3.99664
        4.07542        4.14790        4.18948        4.23612        4.34802
        4.41105        4.52088        4.64657        4.79179        4.79337
        4.91274        5.01598        5.12379        5.24619        5.30547
        5.38533        5.48057        5.64364        5.70607        5.85317
        6.11981        6.29663        6.56829        6.69661        6.89512
        7.31669        8.94223        9.20399        9.37319        9.48635
        9.49677        9.87451        9.89583       14.79770       17.09338
       17.36610

 DIIS Fock eigenvalues in symmetry 2
       -0.69059       -0.38476        0.00628        0.01303        0.01332
        0.02097        0.03619        0.03756        0.05240        0.07919
        0.08618        0.12989        0.15039        0.21114        0.27383
        0.28026        0.31883        0.38957        0.41242        0.45252
        0.45594        0.58540        0.61344        0.73503        0.86549
        0.91237        0.95221        0.98420        0.98811        1.06267
        1.07801        1.09536        1.11988        1.14957        1.31897
        1.37530        1.43635        1.55159        1.60287        1.63411
        1.74483        1.79344        1.91534        2.02114        2.08747
        2.28343        2.78837        2.94259        2.98612        3.05811
        3.19981        3.27528        3.36070        3.37872        3.43598
        3.51682        3.57276        3.66023        3.74932        3.76918
        4.06609        4.25309        4.31839        4.46043        4.58272
        4.69342        4.87491        4.96160        4.99438        5.12406
        5.34554        5.49420        5.64524        8.91438        9.16978
        9.32618        9.40516        9.63713
 Time used in FCKEIG, thr_jaco:   1.07D-01  2.80D-02  3.95D-08
 CPU and wall times used in FCKEIG, THR_FCKEIG:   1.07D-01  2.80D-02  6.34D-06
 -----------------------------------------------------------------------------

 *** DIIS iteration number    9
 RDSUPM called. NFMAT, ISYMDM(1:NFMAT)                     1
                     1

 ITDIIS, energy, error norm, change in energy, scr.thr., difden:
@ DIIS iter.   9    -176.956319745        2.31120D-04   -9.20D-08  -20    T

@ AUTO OCC: current SCF occupation  10   2

 (DIIS_RED) Control Parameters C2DIIS =         F NEVC =    8


 (DIIS_RED) B matrix:

               Column   1     Column   2     Column   3     Column   4     Column   5     Column   6
       1       0.00000005
       2       0.00002609     1.31199748
       3      -0.00000129    -0.09404076     0.07896576
       4       0.00000028     0.02416046    -0.00363408     0.00746581
       5       0.00000088     0.00031447     0.00328359     0.00065700     0.00037236
       6       0.00000019     0.00049692     0.00007823     0.00016428     0.00005394     0.00002277
       7       0.00000046    -0.00005298     0.00005407     0.00001970     0.00002605     0.00000449
       8       0.00000009    -0.00002879     0.00000555    -0.00000382     0.00000247     0.00000169

               Column   7     Column   8
       7       0.00000667
       8       0.00000086     0.00000040
    ==== End of matrix output ====

 DIIS C vector; C2DIIS = F, LAMBDA = -1.65D-08
    1.163057   -0.000046   -0.000377   -0.000691    0.009194    0.001586   -0.101008   -0.071715
* Read MO coefficients from SIRIUS.RST with label "NEWORB  " and header info: 14Aug18  DIIS   9
      Virial theorem: -V/T =      2.001346
@    MULPOP   F      -0.40; C1     -1.07; C2     -0.18; H       0.74; H       0.47; H       0.45; 

[...]
             4 ^1A'      -166.9302075968                                        
             5 ^1A'      -166.9145494287                                        
             6 ^1A'      -166.9097966581                                        
             7 ^1A'      -166.9045555768                                        
             8 ^1A'      -166.8997121436                                        
             9 ^1A'      -166.8953475910                                        
            10 ^1A'      -166.8947221731                                        
            11 ^1A'      -166.8914106495                                        
            12 ^1A'      -166.8862936015                                        
            13 ^1A'      -166.8836837663                                        
            14 ^1A'      -166.8808274265                                        
            15 ^1A'      -166.8781852208                                        
            16 ^1A'      -166.8758169053                                        
            17 ^1A'      -166.8720159658                                        
            18 ^1A'      -166.8709697184                                        
            19 ^1A'      -166.8678999234                                        
            20 ^1A'      -166.8666993871                                        
            21 ^1A'      -166.8623624852                                        
            22 ^1A'      -166.8592189410                                        
             1 ^1A"      -167.0713813694                                        
             2 ^1A"      -166.9936607641                                        
             3 ^1A"      -166.9411818295                                        
             4 ^1A"      -166.9044767047                                        
             5 ^1A"      -166.9011141629                                        
             6 ^1A"      -166.8944558924                                        
             7 ^1A"      -166.8802891055                                        
             8 ^1A"      -166.8786328754                                        
             9 ^1A"      -166.8751723984                                        
            10 ^1A"      -166.8600474905                                        
            11 ^1A"      -166.8552801582                                        
            12 ^1A"      -166.8457203893                                        
            13 ^1A"      -166.8414238052                                        
            14 ^1A"      -166.8110268571                                        
            15 ^1A"      -166.8089212179                                        
                                                                                
                                                                                
 +=============================================================================+
 |  sym. | Exci.  |        CCSD       Length   Gauge Oscillator Strength       |
 |(spin, |        +------------------------------------------------------------+
 | spat) |        | Dipole Strength(a.u.) | Oscillator strength  | Direction   |
 +=============================================================================+
 | ^1A'  |    1   |        0.0007741      |      0.0054577       |  (Y,Z)      |
 | ^1A'  |    2   |        0.0016543      |      0.0116884       |  (Y,Z)      |
 | ^1A'  |    3   |        0.0004252      |      0.0030100       |  (Y,Z)      |
 | ^1A'  |    4   |        0.0005714      |      0.0040500       |  (Y,Z)      |
 | ^1A'  |    5   |        0.0002024      |      0.0014365       |  (Y,Z)      |
 | ^1A'  |    6   |        0.0002124      |      0.0015082       |  (Y,Z)      |
 | ^1A'  |    7   |        0.0000383      |      0.0002723       |  (Y,Z)      |
 | ^1A'  |    8   |        0.0001550      |      0.0011014       |  (Y,Z)      |
 | ^1A'  |    9   |        0.0031772      |      0.0225915       |  (Y,Z)      |
 | ^1A'  |   10   |        0.0000360      |      0.0002563       |  (Y,Z)      |
 | ^1A'  |   11   |        0.0001301      |      0.0009252       |  (Y,Z)      |
 | ^1A'  |   12   |        0.0001282      |      0.0009120       |  (Y,Z)      |
 | ^1A'  |   13   |        0.0000728      |      0.0005179       |  (Y,Z)      |
 | ^1A'  |   14   |        0.0000188      |      0.0001339       |  (Y,Z)      |
 | ^1A'  |   15   |        0.0000862      |      0.0006140       |  (Y,Z)      |
 | ^1A'  |   16   |        0.0000701      |      0.0004994       |  (Y,Z)      |
 | ^1A'  |   17   |        0.0000893      |      0.0006361       |  (Y,Z)      |
 | ^1A'  |   18   |        0.0000913      |      0.0006508       |  (Y,Z)      |
 | ^1A'  |   19   |        0.0025940      |      0.0184920       |  (Y,Z)      |
 | ^1A'  |   20   |        0.0000511      |      0.0003641       |  (Y,Z)      |
 | ^1A'  |   21   |        0.0001315      |      0.0009379       |  (Y,Z)      |
 | ^1A'  |   22   |        0.0003587      |      0.0025595       |  (Y,Z)      |
 +-----------------------------------------------------------------------------+
 | ^1A"  |    1   |        0.0065344      |      0.0456959       |    X        |
 | ^1A"  |    2   |        0.0083410      |      0.0587612       |    X        |
 | ^1A"  |    3   |        0.0006131      |      0.0043405       |    X        |
 | ^1A"  |    4   |        0.0000822      |      0.0005841       |    X        |
 | ^1A"  |    5   |        0.0000851      |      0.0006044       |    X        |
 | ^1A"  |    6   |        0.0001833      |      0.0013037       |    X        |
 | ^1A"  |    7   |        0.0000396      |      0.0002819       |    X        |
 | ^1A"  |    8   |        0.0000669      |      0.0004762       |    X        |
 | ^1A"  |    9   |        0.0000916      |      0.0006524       |    X        |
 | ^1A"  |   10   |        0.0000161      |      0.0001150       |    X        |
 | ^1A"  |   11   |        0.0002672      |      0.0019068       |    X        |
 | ^1A"  |   12   |        0.0002168      |      0.0015490       |    X        |
 | ^1A"  |   13   |        0.0003150      |      0.0022509       |    X        |
 | ^1A"  |   14   |        0.0001283      |      0.0009193       |    X        |
 | ^1A"  |   15   |        0.0003809      |      0.0027301       |    X        |
 +=============================================================================+

  1 a.u. =        27.21138 eV.  
  1 a.u. =    219474.62934 cm-1.
  

 *******************************************************************************
 *******************************************************************************
 *                                                                             *
 *                                                                             *
 *                      END OF COUPLED CLUSTER CALCULATION                     *
 *                                                                             *
 *                                                                             *
 *******************************************************************************
 *******************************************************************************


 CPU and wall time for CC :  144806.931   37063.173

 
     Date and time (Linux)  : Wed Aug 15 01:17:56 2018
     Host name              : n-62-23-19                              


                      .-------------------------------------.
                      | End of Coupled Cluster Section (CC) |
                      `-------------------------------------'

  Total CPU  time used in DALTON:  40 hours 16 minutes 22 seconds
  Total wall time used in DALTON:  10 hours 19 minutes 48 seconds

 
     Date and time (Linux)  : Wed Aug 15 01:17:56 2018
     Host name              : n-62-23-19                              
  

 +---------------------------------------------------------+ 
 | List of selected calculated molecular properties (a.u.) | 
 +---------------------------------------------------------+ 

  Properties are read from unit number                      4

 CCSD       properties :
 #  1 1 ENERGY   Ground state Energy =    -177.5610156674
 #  2 1 Sy: 1 Sp: 1 Exc:  1 E_tot:   -166.9847831937 w:     10.5762324737 E_grs:   -177.5610156674
 #  3 1 Exctot   Excited state Energy =    -166.9847831937
 #  4 1 Sy: 1 Sp: 1 Exc:  2 E_tot:   -166.9626523888 w:     10.5983632786 E_grs:   -177.5610156674
 #  5 1 Exctot   Excited state Energy =    -166.9626523888
 #  6 1 Sy: 1 Sp: 1 Exc:  3 E_tot:   -166.9412718298 w:     10.6197438376 E_grs:   -177.5610156674
 #  7 1 Exctot   Excited state Energy =    -166.9412718298
 #  8 1 Sy: 1 Sp: 1 Exc:  4 E_tot:   -166.9302075968 w:     10.6308080706 E_grs:   -177.5610156674
 #  9 1 Exctot   Excited state Energy =    -166.9302075968
 # 10 1 Sy: 1 Sp: 1 Exc:  5 E_tot:   -166.9145494287 w:     10.6464662387 E_grs:   -177.5610156674
 # 11 1 Exctot   Excited state Energy =    -166.9145494287
 # 12 1 Sy: 1 Sp: 1 Exc:  6 E_tot:   -166.9097966581 w:     10.6512190092 E_grs:   -177.5610156674
 # 13 1 Exctot   Excited state Energy =    -166.9097966581
 # 14 1 Sy: 1 Sp: 1 Exc:  7 E_tot:   -166.9045555768 w:     10.6564600906 E_grs:   -177.5610156674
 # 15 1 Exctot   Excited state Energy =    -166.9045555768
 # 16 1 Sy: 1 Sp: 1 Exc:  8 E_tot:   -166.8997121436 w:     10.6613035238 E_grs:   -177.5610156674
 # 17 1 Exctot   Excited state Energy =    -166.8997121436
 # 18 1 Sy: 1 Sp: 1 Exc:  9 E_tot:   -166.8953475910 w:     10.6656680763 E_grs:   -177.5610156674
 # 19 1 Exctot   Excited state Energy =    -166.8953475910
 # 20 1 Sy: 1 Sp: 1 Exc: 10 E_tot:   -166.8947221731 w:     10.6662934943 E_grs:   -177.5610156674
 # 21 1 Exctot   Excited state Energy =    -166.8947221731
 # 22 1 Sy: 1 Sp: 1 Exc: 11 E_tot:   -166.8914106495 w:     10.6696050179 E_grs:   -177.5610156674
 # 23 1 Exctot   Excited state Energy =    -166.8914106495
 # 24 1 Sy: 1 Sp: 1 Exc: 12 E_tot:   -166.8862936015 w:     10.6747220659 E_grs:   -177.5610156674
 # 25 1 Exctot   Excited state Energy =    -166.8862936015
 # 26 1 Sy: 1 Sp: 1 Exc: 13 E_tot:   -166.8836837663 w:     10.6773319011 E_grs:   -177.5610156674
 # 27 1 Exctot   Excited state Energy =    -166.8836837663
 # 28 1 Sy: 1 Sp: 1 Exc: 14 E_tot:   -166.8808274265 w:     10.6801882409 E_grs:   -177.5610156674
 # 29 1 Exctot   Excited state Energy =    -166.8808274265
 # 30 1 Sy: 1 Sp: 1 Exc: 15 E_tot:   -166.8781852208 w:     10.6828304466 E_grs:   -177.5610156674
 # 31 1 Exctot   Excited state Energy =    -166.8781852208
 # 32 1 Sy: 1 Sp: 1 Exc: 16 E_tot:   -166.8758169053 w:     10.6851987621 E_grs:   -177.5610156674
 # 33 1 Exctot   Excited state Energy =    -166.8758169053
 # 34 1 Sy: 1 Sp: 1 Exc: 17 E_tot:   -166.8720159658 w:     10.6889997016 E_grs:   -177.5610156674
 # 35 1 Exctot   Excited state Energy =    -166.8720159658
 # 36 1 Sy: 1 Sp: 1 Exc: 18 E_tot:   -166.8709697184 w:     10.6900459490 E_grs:   -177.5610156674
 # 37 1 Exctot   Excited state Energy =    -166.8709697184
 # 38 1 Sy: 1 Sp: 1 Exc: 19 E_tot:   -166.8678999234 w:     10.6931157440 E_grs:   -177.5610156674
 # 39 1 Exctot   Excited state Energy =    -166.8678999234
 # 40 1 Sy: 1 Sp: 1 Exc: 20 E_tot:   -166.8666993871 w:     10.6943162803 E_grs:   -177.5610156674
 # 41 1 Exctot   Excited state Energy =    -166.8666993871
 # 42 1 Sy: 1 Sp: 1 Exc: 21 E_tot:   -166.8623624852 w:     10.6986531821 E_grs:   -177.5610156674
 # 43 1 Exctot   Excited state Energy =    -166.8623624852
 # 44 1 Sy: 1 Sp: 1 Exc: 22 E_tot:   -166.8592189410 w:     10.7017967264 E_grs:   -177.5610156674
 # 45 1 Exctot   Excited state Energy =    -166.8592189410
 # 46 1 Sy: 2 Sp: 1 Exc:  1 E_tot:   -167.0713813694 w:     10.4896342979 E_grs:   -177.5610156674
 # 47 1 Exctot   Excited state Energy =    -167.0713813694
 # 48 1 Sy: 2 Sp: 1 Exc:  2 E_tot:   -166.9936607641 w:     10.5673549033 E_grs:   -177.5610156674
 # 49 1 Exctot   Excited state Energy =    -166.9936607641
 # 50 1 Sy: 2 Sp: 1 Exc:  3 E_tot:   -166.9411818295 w:     10.6198338379 E_grs:   -177.5610156674
 # 51 1 Exctot   Excited state Energy =    -166.9411818295
 # 52 1 Sy: 2 Sp: 1 Exc:  4 E_tot:   -166.9044767047 w:     10.6565389626 E_grs:   -177.5610156674
 # 53 1 Exctot   Excited state Energy =    -166.9044767047
 # 54 1 Sy: 2 Sp: 1 Exc:  5 E_tot:   -166.9011141629 w:     10.6599015044 E_grs:   -177.5610156674
 # 55 1 Exctot   Excited state Energy =    -166.9011141629
 # 56 1 Sy: 2 Sp: 1 Exc:  6 E_tot:   -166.8944558924 w:     10.6665597750 E_grs:   -177.5610156674
 # 57 1 Exctot   Excited state Energy =    -166.8944558924
 # 58 1 Sy: 2 Sp: 1 Exc:  7 E_tot:   -166.8802891055 w:     10.6807265618 E_grs:   -177.5610156674
 # 59 1 Exctot   Excited state Energy =    -166.8802891055
 # 60 1 Sy: 2 Sp: 1 Exc:  8 E_tot:   -166.8786328754 w:     10.6823827920 E_grs:   -177.5610156674
 # 61 1 Exctot   Excited state Energy =    -166.8786328754
 # 62 1 Sy: 2 Sp: 1 Exc:  9 E_tot:   -166.8751723984 w:     10.6858432689 E_grs:   -177.5610156674
 # 63 1 Exctot   Excited state Energy =    -166.8751723984
 # 64 1 Sy: 2 Sp: 1 Exc: 10 E_tot:   -166.8600474905 w:     10.7009681769 E_grs:   -177.5610156674
 # 65 1 Exctot   Excited state Energy =    -166.8600474905
 # 66 1 Sy: 2 Sp: 1 Exc: 11 E_tot:   -166.8552801582 w:     10.7057355091 E_grs:   -177.5610156674
 # 67 1 Exctot   Excited state Energy =    -166.8552801582
 # 68 1 Sy: 2 Sp: 1 Exc: 12 E_tot:   -166.8457203893 w:     10.7152952781 E_grs:   -177.5610156674
 # 69 1 Exctot   Excited state Energy =    -166.8457203893
 # 70 1 Sy: 2 Sp: 1 Exc: 13 E_tot:   -166.8414238052 w:     10.7195918621 E_grs:   -177.5610156674
 # 71 1 Exctot   Excited state Energy =    -166.8414238052
 # 72 1 Sy: 2 Sp: 1 Exc: 14 E_tot:   -166.8110268571 w:     10.7499888103 E_grs:   -177.5610156674
 # 73 1 Exctot   Excited state Energy =    -166.8110268571
 # 74 1 Sy: 2 Sp: 1 Exc: 15 E_tot:   -166.8089212179 w:     10.7520944494 E_grs:   -177.5610156674
 # 75 1 Exctot   Excited state Energy =    -166.8089212179
 # 76 2 |<O|XDIPLEN |i(10.576232)>| =     0.00000000
 # 78 2 |<O|XDIPLEN |i(10.598363)>| =     0.00000000
 # 80 2 |<O|XDIPLEN |i(10.619744)>| =     0.00000000
 # 82 2 |<O|XDIPLEN |i(10.630808)>| =     0.00000000
 # 84 2 |<O|XDIPLEN |i(10.646466)>| =     0.00000000
 # 86 2 |<O|XDIPLEN |i(10.651219)>| =     0.00000000
 # 88 2 |<O|XDIPLEN |i(10.656460)>| =     0.00000000
 # 90 2 |<O|XDIPLEN |i(10.661304)>| =     0.00000000
 # 92 2 |<O|XDIPLEN |i(10.665668)>| =     0.00000000
 # 94 2 |<O|XDIPLEN |i(10.666293)>| =     0.00000000
 # 96 2 |<O|XDIPLEN |i(10.669605)>| =     0.00000000
 # 98 2 |<O|XDIPLEN |i(10.674722)>| =     0.00000000
 #100 2 |<O|XDIPLEN |i(10.677332)>| =     0.00000000
 #102 2 |<O|XDIPLEN |i(10.680188)>| =     0.00000000
 #104 2 |<O|XDIPLEN |i(10.682830)>| =     0.00000000
 #106 2 |<O|XDIPLEN |i(10.685199)>| =     0.00000000
 #108 2 |<O|XDIPLEN |i(10.689000)>| =     0.00000000
 #110 2 |<O|XDIPLEN |i(10.690046)>| =     0.00000000
 #112 2 |<O|XDIPLEN |i(10.693116)>| =     0.00000000
 #114 2 |<O|XDIPLEN |i(10.694316)>| =     0.00000000
 #116 2 |<O|XDIPLEN |i(10.698653)>| =     0.00000000
 #118 2 |<O|XDIPLEN |i(10.701797)>| =     0.00000000
 #120 1 |<O|XDIPLEN |i(10.489634)>| =     0.08083583
 #122 1 |<O|XDIPLEN |i(10.567355)>| =     0.09132884
 #124 1 |<O|XDIPLEN |i(10.619834)>| =     0.02476038
 #126 1 |<O|XDIPLEN |i(10.656539)>| =     0.00906753
 #128 1 |<O|XDIPLEN |i(10.659902)>| =     0.00922231
 #130 1 |<O|XDIPLEN |i(10.666560)>| =     0.01354005
 #132 1 |<O|XDIPLEN |i(10.680727)>| =     0.00629233
 #134 1 |<O|XDIPLEN |i(10.682383)>| =     0.00817731
 #136 1 |<O|XDIPLEN |i(10.685843)>| =     0.00956967
 #138 1 |<O|XDIPLEN |i(10.700968)>| =     0.00401481
 #140 1 |<O|XDIPLEN |i(10.705736)>| =     0.01634513
 #142 1 |<O|XDIPLEN |i(10.715295)>| =     0.01472527
 #144 1 |<O|XDIPLEN |i(10.719592)>| =     0.01774750
 #146 1 |<O|XDIPLEN |i(10.749989)>| =     0.01132603
 #148 1 |<O|XDIPLEN |i(10.752094)>| =     0.01951606
 #150 1 |<O|YDIPLEN |i(10.576232)>| =     0.00009194
 #152 1 |<O|YDIPLEN |i(10.598363)>| =     0.03932171
 #154 1 |<O|YDIPLEN |i(10.619744)>| =     0.01076340
 #156 1 |<O|YDIPLEN |i(10.630808)>| =     0.02386783
 #158 1 |<O|YDIPLEN |i(10.646466)>| =     0.00599805
 #160 1 |<O|YDIPLEN |i(10.651219)>| =     0.00335714
 #162 1 |<O|YDIPLEN |i(10.656460)>| =     0.00532989
 #164 1 |<O|YDIPLEN |i(10.661304)>| =     0.01208190
 #166 1 |<O|YDIPLEN |i(10.665668)>| =     0.04979333
 #168 1 |<O|YDIPLEN |i(10.666293)>| =     0.00167053
 #170 1 |<O|YDIPLEN |i(10.669605)>| =     0.01133709
 #172 1 |<O|YDIPLEN |i(10.674722)>| =     0.00169102
 #174 1 |<O|YDIPLEN |i(10.677332)>| =     0.00454908
 #176 1 |<O|YDIPLEN |i(10.680188)>| =     0.00368201
 #178 1 |<O|YDIPLEN |i(10.682830)>| =     0.00896034
 #180 1 |<O|YDIPLEN |i(10.685199)>| =     0.00490397
 #182 1 |<O|YDIPLEN |i(10.689000)>| =     0.00944793
 #184 1 |<O|YDIPLEN |i(10.690046)>| =     0.00073180
 #186 1 |<O|YDIPLEN |i(10.693116)>| =     0.00961031
 #188 1 |<O|YDIPLEN |i(10.694316)>| =     0.00037677
 #190 1 |<O|YDIPLEN |i(10.698653)>| =     0.01125009
 #192 1 |<O|YDIPLEN |i(10.701797)>| =     0.01755527
 #194 2 |<O|YDIPLEN |i(10.489634)>| =     0.00000000
 #196 2 |<O|YDIPLEN |i(10.567355)>| =     0.00000000
 #198 2 |<O|YDIPLEN |i(10.619834)>| =     0.00000000
 #200 2 |<O|YDIPLEN |i(10.656539)>| =     0.00000000
 #202 2 |<O|YDIPLEN |i(10.659902)>| =     0.00000000
 #204 2 |<O|YDIPLEN |i(10.666560)>| =     0.00000000
 #206 2 |<O|YDIPLEN |i(10.680727)>| =     0.00000000
 #208 2 |<O|YDIPLEN |i(10.682383)>| =     0.00000000
 #210 2 |<O|YDIPLEN |i(10.685843)>| =     0.00000000
 #212 2 |<O|YDIPLEN |i(10.700968)>| =     0.00000000
 #214 2 |<O|YDIPLEN |i(10.705736)>| =     0.00000000
 #216 2 |<O|YDIPLEN |i(10.715295)>| =     0.00000000
 #218 2 |<O|YDIPLEN |i(10.719592)>| =     0.00000000
 #220 2 |<O|YDIPLEN |i(10.749989)>| =     0.00000000
 #222 2 |<O|YDIPLEN |i(10.752094)>| =     0.00000000
 #224 1 |<O|ZDIPLEN |i(10.576232)>| =     0.02782162
 #226 1 |<O|ZDIPLEN |i(10.598363)>| =     0.01039587
 #228 1 |<O|ZDIPLEN |i(10.619744)>| =     0.01758709
 #230 1 |<O|ZDIPLEN |i(10.630808)>| =     0.00133186
 #232 1 |<O|ZDIPLEN |i(10.646466)>| =     0.01290043
 #234 1 |<O|ZDIPLEN |i(10.651219)>| =     0.01418180
 #236 1 |<O|ZDIPLEN |i(10.656460)>| =     0.00315021
 #238 1 |<O|ZDIPLEN |i(10.661304)>| =     0.00299764
 #240 1 |<O|ZDIPLEN |i(10.665668)>| =     0.02641687
 #242 1 |<O|ZDIPLEN |i(10.666293)>| =     0.00576647
 #244 1 |<O|ZDIPLEN |i(10.669605)>| =     0.00124097
 #246 1 |<O|ZDIPLEN |i(10.674722)>| =     0.01119350
 #248 1 |<O|ZDIPLEN |i(10.677332)>| =     0.00721557
 #250 1 |<O|ZDIPLEN |i(10.680188)>| =     0.00229156
 #252 1 |<O|ZDIPLEN |i(10.682830)>| =     0.00243517
 #254 1 |<O|ZDIPLEN |i(10.685199)>| =     0.00678680
 #256 1 |<O|ZDIPLEN |i(10.689000)>| =     0.00006325
 #258 1 |<O|ZDIPLEN |i(10.690046)>| =     0.00952837
 #260 1 |<O|ZDIPLEN |i(10.693116)>| =     0.05001647
 #262 1 |<O|ZDIPLEN |i(10.694316)>| =     0.00713612
 #264 1 |<O|ZDIPLEN |i(10.698653)>| =     0.00222205
 #266 1 |<O|ZDIPLEN |i(10.701797)>| =     0.00711051
 #268 2 |<O|ZDIPLEN |i(10.489634)>| =     0.00000000
 #270 2 |<O|ZDIPLEN |i(10.567355)>| =     0.00000000
 #272 2 |<O|ZDIPLEN |i(10.619834)>| =     0.00000000
 #274 2 |<O|ZDIPLEN |i(10.656539)>| =     0.00000000
 #276 2 |<O|ZDIPLEN |i(10.659902)>| =     0.00000000
 #278 2 |<O|ZDIPLEN |i(10.666560)>| =     0.00000000
 #280 2 |<O|ZDIPLEN |i(10.680727)>| =     0.00000000
 #282 2 |<O|ZDIPLEN |i(10.682383)>| =     0.00000000
 #284 2 |<O|ZDIPLEN |i(10.685843)>| =     0.00000000
 #286 2 |<O|ZDIPLEN |i(10.700968)>| =     0.00000000
 #288 2 |<O|ZDIPLEN |i(10.705736)>| =     0.00000000
 #290 2 |<O|ZDIPLEN |i(10.715295)>| =     0.00000000
 #292 2 |<O|ZDIPLEN |i(10.719592)>| =     0.00000000
 #294 2 |<O|ZDIPLEN |i(10.749989)>| =     0.00000000
 #296 2 |<O|ZDIPLEN |i(10.752094)>| =     0.00000000

 THE_END   
