Q-Chem Developer Version!
                  Welcome to Q-Chem
     A Quantum Leap Into The Future Of Chemistry


 Q-Chem 5.1, Q-Chem, Inc., Pleasanton, CA (2018)

 Yihan Shao,  Zhengting Gan,  E. Epifanovsky,  A. T. B. Gilbert,  M. Wormit,  
 J. Kussmann,  A. W. Lange,  A. Behn,  Jia Deng,  Xintian Feng,  D. Ghosh,  
 M. Goldey,  P. R. Horn,  L. D. Jacobson,  I. Kaliman,  T. Kus,  A. Landau,  
 Jie Liu,  E. I. Proynov,  R. M. Richard,  R. P. Steele,  E. J. Sundstrom,  
 H. L. Woodcock III,  P. M. Zimmerman,  D. Zuev,  B. Albrecht,  E. Alguire,  
 S. A. Baeppler,  D. Barton,  Z. Benda,  Y. A. Bernard,  E. J. Berquist,  
 K. B. Bravaya,  H. Burton,  D. Casanova,  Chun-Min Chang,  Yunqing Chen,  
 A. Chien,  K. D. Closser,  M. P. Coons,  S. Coriani,  S. Dasgupta,  
 A. L. Dempwolff,  M. Diedenhofen,  Hainam Do,  R. G. Edgar,  Po-Tung Fang,  
 S. Faraji,  S. Fatehi,  Qingguo Feng,  K. D. Fenk,  J. Fosso-Tande,  
 Qinghui Ge,  A. Ghysels,  G. Gidofalvi,  J. Gomes,  J. Gonthier,  A. Gunina,  
 D. Hait,  M. W. D. Hanson-Heine,  P. H. P. Harbach,  A. W. Hauser,  
 J. E. Herr,  E. G. Hohenstein,  Z. C. Holden,  Kerwin Hui,  B. C. Huynh,  
 T.-C. Jagau,  Hyunjun Ji,  B. Kaduk,  K. Khistyaev,  Jaehoon Kim,  
 P. Klunzinger,  K. Koh,  D. Kosenkov,  L. Koulias,  T. Kowalczyk,  
 C. M. Krauter,  A. Kunitsa,  Ka Un Lao,  A. Laurent,  K. V. Lawler,  
 Joonho Lee,  D. Lefrancois,  S. Lehtola,  D. S. Levine,  Yi-Pei Li,  
 You-Sheng Lin,  Fenglai Liu,  E. Livshits,  A. Luenser,  P. Manohar,  
 E. Mansoor,  S. F. Manzer,  Shan-Ping Mao,  Yuezhi Mao,  N. Mardirossian,  
 A. V. Marenich,  T. Markovich,  L. A. Martinez-Martinez,  S. A. Maurer,  
 N. J. Mayhall,  S. C. McKenzie,  J.-M. Mewes,  A. F. Morrison,  
 J. W. Mullinax,  K. Nanda,  T. S. Nguyen-Beck,  R. Olivares-Amaya,  
 J. A. Parkhill,  T. M. Perrine,  F. Plasser,  P. Pokhilko,  S. Prager,  
 A. Prociuk,  E. Ramos,  D. R. Rehn,  F. Rob,  M. Schneider,  N. Sergueev,  
 S. M. Sharada,  S. Sharma,  D. W. Small,  T. Stauch,  T. Stein,  
 Yu-Chuan Su,  A. J. W. Thom,  A. Tkatchenko,  T. Tsuchimochi,  N. M. Tubman,  
 L. Vogt,  M. L. Vidal,  O. Vydrov,  M. A. Watson,  J. Wenzel,  
 M. de Wergifosse,  T. A. Wesolowski,  A. White,  J. Witte,  A. Yamada,  
 Jun Yang,  K. Yao,  S. Yeganeh,  S. R. Yost,  Zhi-Qiang You,  A. Zech,  
 Igor Ying Zhang,  Xing Zhang,  Yan Zhao,  Ying Zhu,  B. R. Brooks,  
 G. K. L. Chan,  C. J. Cramer,  M. S. Gordon,  W. J. Hehre,  A. Klamt,  
 M. W. Schmidt,  C. D. Sherrill,  D. G. Truhlar,  A. Aspuru-Guzik,  R. Baer,  
 A. T. Bell,  N. A. Besley,  Jeng-Da Chai,  A. E. DePrince, III,  
 R. A. DiStasio Jr.,  A. Dreuw,  B. D. Dunietz,  T. R. Furlani,  
 Chao-Ping Hsu,  Yousung Jung,  Jing Kong,  D. S. Lambrecht,  WanZhen Liang,  
 C. Ochsenfeld,  V. A. Rassolov,  L. V. Slipchenko,  J. E. Subotnik,  
 T. Van Voorhis,  J. M. Herbert,  A. I. Krylov,  P. M. W. Gill,  M. Head-Gordon

 Contributors to earlier versions of Q-Chem not listed above: 
 R. D. Adamson,  B. Austin,  J. Baker,  G. J. O. Beran,  K. Brandhorst,  
 S. T. Brown,  E. F. C. Byrd,  A. K. Chakraborty,  C.-L. Cheng,  
 Siu Hung Chien,  D. M. Chipman,  D. L. Crittenden,  H. Dachsel,  
 R. J. Doerksen,  A. D. Dutoi,  L. Fusti-Molnar,  W. A. Goddard III,  
 A. Golubeva-Zadorozhnaya,  S. R. Gwaltney,  G. Hawkins,  A. Heyden,  
 S. Hirata,  G. Kedziora,  F. J. Keil,  C. Kelley,  Jihan Kim,  R. A. King,  
 R. Z. Khaliullin,  P. P. Korambath,  W. Kurlancheek,  A. M. Lee,  M. S. Lee,  
 S. V. Levchenko,  Ching Yeh Lin,  D. Liotard,  R. C. Lochan,  I. Lotan,  
 P. E. Maslen,  N. Nair,  D. P. O'Neill,  D. Neuhauser,  E. Neuscamman,  
 C. M. Oana,  R. Olson,  B. Peters,  R. Peverati,  P. A. Pieniazek,  
 Y. M. Rhee,  J. Ritchie,  M. A. Rohrdanz,  E. Rosta,  N. J. Russ,  
 H. F. Schaefer III,  N. E. Schultz,  N. Shenvi,  A. C. Simmonett,  A. Sodt,  
 D. Stuck,  K. S. Thanthiriwatte,  V. Vanovschi,  Tao Wang,  A. Warshel,  
 C. F. Williams,  Q. Wu,  X. Xu,  W. Zhang

 Please cite Q-Chem as follows:
 Y. Shao et al., Mol. Phys. 113, 184-215 (2015)
 DOI: 10.1080/00268976.2014.952696

 Q-Chem 5.1.1 for Intel X86 EM64T Linux

 Parts of Q-Chem use Armadillo 8.300.2 (Tropical Shenanigans).
 http://arma.sourceforge.net/

 Q-Chem begins on Wed Dec 19 15:35:26 2018  


Host: 0

     Scratch files written to /work1/malop/qc_7592508.hnode2//
Input Ideriv = 0
Curr. Ideriv = -1
Max.  Ideriv = 0

Checking the input file for inconsistencies... 	...done.

--------------------------------------------------------------
User input:
--------------------------------------------------------------
$comment 
NEXAFS VINYLFLUORIDE / 6-311++G**+Rydberg
Optimized geometry with CFour
$end

$molecule
0 1
C
Gh   1 nc2
F    2 fn3         1 fnc3
C    3 cf4         2 cfn4          1 dih4
H    4 hc5         1 hcc5          2 dih5
H    1 hc6         4 hcc6          3 dih6
H    1 hc7         4 hcc7          3 dih7

nc2         1.196145
fn3         1.174610
fnc3        159.355
cf4         1.342808
cfn4         18.424
dih4        180.000
hc5         1.080830
hcc5        125.835
dih5        180.000
hc6         1.080059
hcc6        121.377
dih6          0.000
hc7         1.078980
hcc7        118.942
dih7        180.000
$end

$rem
!    input_bohr = true
    jobtype = sp
    method = eom-ccsd
    cvs_ee_singlets    [30,13]
    basis = gen
    n_frozen_core = fc 
    cc_trans_prop = true
    cc_eom_prop = true
   EOM_DAVIDSON_MAXVECTORS = 1000
   eom_preconv_singles = true
   eom_shift = 10470
   eom_davidson_convergence = 4   !as we discussed, this is good for core
   use_libqints = 1   !use new int library (will be def in trunk)
   thresh = 14   !this already should be default, but just in case
   scf_convergence = 13   !v. tight scf convergence, to reduce noise
   cc_convergence = 12   !tight CC, for the same reason
   basis_lin_dep_thresh = 8  !default is 6, use smaller, just in case
   cc_memory = 100000
   EOM_DAVIDSON_MAX_ITER 200
$end

$basis
C    0
S    6    1.000000
   4.56324000E+03    1.96665000E-03
   6.82024000E+02    1.52306000E-02
   1.54973000E+02    7.61269000E-02
   4.44553000E+01    2.60801000E-01
   1.30290000E+01    6.16462000E-01
   1.82773000E+00    2.21006000E-01
SP   3    1.000000
   2.09642000E+01    1.14660000E-01   4.02487000E-02
   4.80331000E+00    9.19999000E-01   2.37594000E-01
   1.45933000E+00   -3.03068000E-03   8.15854000E-01
SP   1    1.000000
   4.83456000E-01    1.00000000E+00   1.00000000E+00
SP   1    1.000000
   1.45585000E-01    1.00000000E+00   1.00000000E+00
SP   1    1.000000
   4.38000000E-02    1.00000000E+00   1.00000000E+00
D    1    1.000000
   6.26000000E-01    1.00000000E+00
****
Gh   0
S   1   1.00
        0.0112533427        1.0000000000
S   1   1.00
        0.0058583805        1.0000000000
S   1   1.00
        0.0033459739        1.0000000000
S   1   1.00
        0.0020484225        1.0000000000
S   1   1.00
        0.0013236424        1.0000000000
P   1   1.00
        0.0192542060        1.0000000000
P   1   1.00
        0.0099882106        1.0000000000
P   1   1.00
        0.0056893607        1.0000000000
P   1   1.00
        0.0034756797        1.0000000000
P   1   1.00
        0.0022420590        1.0000000000
D   1   1.00
        0.0274456919        1.0000000000
D   1   1.00
        0.0142043987        1.0000000000
D   1   1.00
        0.0080765930        1.0000000000
D   1   1.00
        0.0049271863        1.0000000000
D   1   1.00
        0.0031748110        1.0000000000
****
F    0
S    6    1.000000
   1.14271000E+04    1.80093000E-03
   1.72235000E+03    1.37419000E-02
   3.95746000E+02    6.81334000E-02
   1.15139000E+02    2.33325000E-01
   3.36026000E+01    5.89086000E-01
   4.91901000E+00    2.99505000E-01
SP   3    1.000000
   5.54441000E+01    1.14536000E-01   3.54609000E-02
   1.26323000E+01    9.20512000E-01   2.37451000E-01
   3.71756000E+00   -3.37804000E-03   8.20458000E-01
SP   1    1.000000
   1.16545000E+00    1.00000000E+00   1.00000000E+00
SP   1    1.000000
   3.21892000E-01    1.00000000E+00   1.00000000E+00
SP   1    1.000000
   1.07600000E-01    1.00000000E+00   1.00000000E+00
D    1    1.000000
   1.75000000E+00    1.00000000E+00
****
C    0
S    6    1.000000
   4.56324000E+03    1.96665000E-03
   6.82024000E+02    1.52306000E-02
   1.54973000E+02    7.61269000E-02
   4.44553000E+01    2.60801000E-01
   1.30290000E+01    6.16462000E-01
   1.82773000E+00    2.21006000E-01
SP   3    1.000000
   2.09642000E+01    1.14660000E-01   4.02487000E-02
   4.80331000E+00    9.19999000E-01   2.37594000E-01
   1.45933000E+00   -3.03068000E-03   8.15854000E-01
SP   1    1.000000
   4.83456000E-01    1.00000000E+00   1.00000000E+00
SP   1    1.000000
   1.45585000E-01    1.00000000E+00   1.00000000E+00
SP   1    1.000000
   4.38000000E-02    1.00000000E+00   1.00000000E+00
D    1    1.000000
   6.26000000E-01    1.00000000E+00
****
H    0
S    3    1.000000
   3.38650000E+01    2.54938000E-02
   5.09479000E+00    1.90373000E-01
   1.15879000E+00    8.52161000E-01
S    1    1.000000
   3.25840000E-01    1.00000000E+00
S    1    1.000000
   1.02741000E-01    1.00000000E+00
S    1    1.000000
   3.60000000E-02    1.00000000E+00
P    1    1.000000
   7.50000000E-01    1.00000000E+00
****
H    0
S    3    1.000000
   3.38650000E+01    2.54938000E-02
   5.09479000E+00    1.90373000E-01
   1.15879000E+00    8.52161000E-01
S    1    1.000000
   3.25840000E-01    1.00000000E+00
S    1    1.000000
   1.02741000E-01    1.00000000E+00
S    1    1.000000
   3.60000000E-02    1.00000000E+00
P    1    1.000000
   7.50000000E-01    1.00000000E+00
****
$end
--------------------------------------------------------------

 Q-Chem warning in module forms1/BasisType.C, line 1761:

 Setting pure/cartesian flag to 2111 for general basis


 Requested basis set is non-standard
 There are 48 shells and 132 basis functions
MEM_TOTAL is adjusted to CC_MEMORY + MEM_STATIC!
 Total memory of 100192MB is distributed as follows: 
   QALLOC including MEM_STATIC uses 192MB
   MEM_STATIC is set to 192MB
   CCMAN JOB total memory use is  100000MB
 Warning: actual memory use might exceed 100192MB

 Total QAlloc Memory Limit    192 MB
 Mega-Array Size       188 MB
 MEM_STATIC part       192 MB
 Smallest overlap matrix eigenvalue = 4.92E-05

 Scale SEOQF with 1.000000e-02/1.000000e-02/1.000000e-02

 Standard Electronic Orientation quadrupole field applied
 Nucleus-field energy     =     0.0000000001 hartrees
 Guess MOs from core Hamiltonian diagonalization

 -----------------------------------------------------------------------
  General SCF calculation program by
  Eric Jon Sundstrom, Paul Horn, Yuezhi Mao, Dmitri Zuev, Alec White,
  David Stuck, Shaama M.S., Shane Yost, Joonho Lee, David Small,
  Daniel Levine, Susi Lehtola, Hugh Burton, Evgeny Epifanovsky
 -----------------------------------------------------------------------
 Hartree-Fock
 A restricted SCF calculation will be
 performed using DIIS
 SCF converges when DIIS error is below 1.0e-13
 ---------------------------------------
  Cycle       Energy         DIIS error
 ---------------------------------------
    1    -141.8762264088      1.72e-01  
    2    -134.6947093818      6.31e-02  
    3    -154.4282865833      9.70e-02  
    4    -161.0733311652      7.48e-02  
    5    -168.4340690194      5.94e-02  
    6    -171.0025084840      4.89e-02  
    7    -173.9713689258      3.51e-02  
    8    -175.9995999869      1.98e-02  
    9    -176.7763686186      7.57e-03  
   10    -176.9195996022      1.81e-03  
   11    -176.9342118110      6.70e-04  
   12    -176.9364326953      4.12e-04  
   13    -176.9368554418      2.06e-04  
   14    -176.9369963051      3.81e-05  
   15    -176.9370008631      5.67e-06  
   16    -176.9370009739      8.57e-07  
   17    -176.9370009779      1.95e-07  
   18    -176.9370009781      4.57e-08  
   19    -176.9370009782      9.26e-09  
   20    -176.9370009782      1.87e-09  
   21    -176.9370009782      3.44e-10  
   22    -176.9370009782      6.66e-11  
   23    -176.9370009782      1.57e-11  
   24    -176.9370009782      2.90e-12  
   25    -176.9370009782      5.49e-13  
   26    -176.9370009782      1.16e-13  
   27    -176.9370009782      5.49e-14  Convergence criterion met
 ---------------------------------------
 SCF time:   CPU 70.76s  wall 9.00s 
 SCF   energy in the final basis set =     -176.9370009782
 Total energy in the final basis set =     -176.9370009782


 ------------------------------------------------------------------------------

   CCMAN2: suite of methods based on coupled cluster
           and equation of motion theories.

   Components:
   * libvmm-1.3-trunk
     by Evgeny Epifanovsky, Ilya Kaliman.
   * libtensor-2.5-trunk
     by Evgeny Epifanovsky, Michael Wormit, Dmitry Zuev, Sam Manzer, 
        Ilya Kaliman.
   * libcc-2.5-trunk
     by Evgeny Epifanovsky, Arik Landau, Tomasz Kus, Kirill Khistyaev, 
        Dmitry Zuev, Prashant Manohar, Xintian Feng, Anna Krylov, 
        Matthew Goldey, Alec White, Thomas Jagau, Kaushik Nanda, 
        Anastasia Gunina, Alexander Kunitsa, Joonho Lee.

   CCMAN original authors:
   Anna I. Krylov, C. David Sherrill, Steven R. Gwaltney,
   Edward F. C. Byrd (2000)
   Sergey V. Levchenko, Lyudmila V. Slipchenko, Tao Wang,
   Ana-Maria C. Cristian (2003)
   Piotr A. Pieniazek, C. Melania Oana, Evgeny Epifanovsky (2007)
   Prashant Manohar (2009)

 ------------------------------------------------------------------------------


 Allocating and initializing 100000MB of RAM...
 Calculation will run on 10 cores.

 ----------------------------------------------------------------
             Standard Nuclear Orientation (Angstroms)
    I     Atom           X                Y                Z
 ----------------------------------------------------------------
    1      C       1.1793501531     0.1997297036     0.0000000000
    2      GH     -0.0000008629    -0.0000052260     0.0000000000
    3      F      -1.1529022759     0.2247768549    -0.0000000000
    4      C       0.0163188924    -0.4355678917     0.0000000000
    5      H      -0.1189529826    -1.5078994676    -0.0000000000
    6      H       1.2308255218     1.2785613540    -0.0000000000
    7      H       2.0902345342    -0.3786192262     0.0000000000
 ----------------------------------------------------------------
 Molecular Point Group                 Cs    NOp =  2
 Largest Abelian Subgroup              Cs    NOp =  2
 Nuclear Repulsion Energy =    67.5482146678 hartrees
 There are       12 alpha and       12 beta electrons

                       Distance Matrix (Angstroms)
             C (  1)   GH(  2)   F (  3)   C (  4)   H (  5)   H (  6)
   GH(  2)  1.196145
   F (  3)  2.332387  1.174610
   C (  4)  1.325234  0.435868  1.342808
   H (  5)  2.145131  1.512579  2.017726  1.080830
   H (  6)  1.080059  1.774730  2.606266  2.100777  3.096170
   H (  7)  1.078980  2.124249  3.298791  2.074697  2.481085  1.866770


 A cutoff of  1.0D-14 yielded   1174 shell pairs
 There are      8949 function pairs (     10081 Cartesian)

 -------------------------------------------------------
 OpenMP Integral Computing Module                       
 Release: version 1.0, May 2013, Q-Chem Inc. Pittsburgh 
 -------------------------------------------------------
 Integral Job Info:
 Integral job number is                      11
 Integral operator is                         1
 short-range coefficients                     0
 long-range coefficients              100000000
 Omega coefficients                           0
 if combine SR and LR in K                    0
 Integral screening is                        0
 Integral computing path is                   2
 max size of driver memory is            800000
 size of driver memory is                593474
 size of scratch memory is              2361544
 max col of scratch BK array               1296
 max len of scratch array in speh3          155
 max len of scratch index in speh4           18
 max int batch size is                      520
 min int batch size is                       52
 fixed nKL is                                52
 max L of basis functions is                  2
 order of int derivative is                   0
 number of shells is                         48
 number of basis is                         140
 number of cartesian basis is               140
 number of contracted shell pairs          1174
 number of primitive shell pairs           2621
 maxK2 (contraction) of shell pair           36
 max number of K2 of shell pair               1
 max number of CS2 of shell pair            127
 max number of PS2 of shell pair            264
 mem total for path MDJ                  524862
 -------------------------------------------------------

 Alpha MOs, Restricted
 -- Occupied --                  
-26.310 -11.332 -11.240  -1.628  -1.055  -0.840  -0.740  -0.690
  1 A'    2 A'    3 A'    4 A'    5 A'    6 A'    7 A'    1 A"                 
 -0.686  -0.591  -0.562  -0.386
  8 A'    9 A'   10 A'    2 A"                                                 
 -- Virtual --                   
  0.001   0.003   0.004   0.004   0.005   0.008   0.008   0.008
 11 A'   12 A'   13 A'    3 A"   14 A'   15 A'   16 A'    4 A"                 
  0.008   0.008   0.011   0.011   0.012   0.014   0.021   0.021
 17 A'    5 A"   18 A'   19 A'    6 A"   20 A'   21 A'   22 A'                 
  0.021   0.021   0.021   0.025   0.026   0.027   0.030   0.044
  7 A"   23 A'    8 A"   24 A'   25 A'    9 A"   26 A'   27 A'                 
  0.044   0.044   0.045   0.045   0.051   0.055   0.055   0.063
 28 A'   10 A"   29 A'   11 A"   30 A'   12 A"   31 A'   32 A'                 

 Occupation and symmetry of molecular orbitals

 Point group: Cs (2 irreducible representations).

                           A'   A"    All 
 ------------------------------------------
 All molecular orbitals:
  - Alpha                  96   36    132 
  - Beta                   96   36    132 
 ------------------------------------------
 Alpha orbitals:
  - Frozen occupied        3    0     3   
  - Active occupied        7    2     9   
  - Active virtual         86   34    120 
  - Frozen virtual         0    0     0   
 ------------------------------------------
 Beta orbitals:
  - Frozen occupied        3    0     3   
  - Active occupied        7    2     9   
  - Active virtual         86   34    120 
  - Frozen virtual         0    0     0   
 ------------------------------------------

 Import integrals:   CPU 0.00 s  wall 0.00 s

 Import integrals:   CPU 35.72 s  wall 7.50 s

 MP2 amplitudes:   CPU 0.50 s  wall 0.34 s

Running a double precision version
           CCSD T amplitudes will be solved using DIIS.

           Start     Size      MaxIter   EConv     TConv     
           3         7         100       1.00e-12  1.00e-11  
 ------------------------------------------------------------------------------
           Energy (a.u.)   Ediff      Tdiff       Comment
 ------------------------------------------------------------------------------
          -177.42617045                           
     1    -177.43208300   5.91e-03   6.17e-01     
     2    -177.44563135   1.35e-02   7.48e-02     
     3    -177.44637663   7.45e-04   2.95e-02     
     4    -177.44787452   1.50e-03   1.07e-02     Switched to DIIS steps.
     5    -177.44846011   5.86e-04   9.18e-03     
     6    -177.44847626   1.62e-05   1.55e-03     
     7    -177.44847124   5.02e-06   6.63e-04     
     8    -177.44847037   8.68e-07   1.08e-04     
     9    -177.44847049   1.18e-07   4.41e-05     
    10    -177.44847050   1.15e-08   1.10e-05     
    11    -177.44847051   1.11e-08   3.68e-06     
    12    -177.44847052   3.58e-09   1.70e-06     
    13    -177.44847052   2.70e-09   5.55e-07     
    14    -177.44847051   9.32e-10   1.80e-07     
    15    -177.44847051   8.05e-11   6.44e-08     
    16    -177.44847051   4.05e-10   3.02e-08     
    17    -177.44847051   9.59e-11   1.14e-08     
    18    -177.44847051   2.48e-11   5.62e-09     
    19    -177.44847051   2.05e-11   1.76e-09     
    20    -177.44847051   1.57e-12   7.14e-10     
    21    -177.44847051   5.84e-13   2.93e-10     
    22    -177.44847051   7.90e-13   1.24e-10     
    23    -177.44847051   2.09e-13   4.34e-11     
    24    -177.44847051   3.95e-13   1.90e-11     
    25    -177.44847051   9.47e-14   8.85e-12     
 ------------------------------------------------------------------------------
          -177.44847051                           CCSD T converged.

End of double precision
 SCF energy                 = -176.93700098
 MP2 energy                 = -177.42617045
 CCSD correlation energy     =   -0.51146954
 CCSD total energy           = -177.44847051

 CCSD  T1^2 = 0.0059  T2^2 = 0.1647  Leading amplitudes:

 Amplitude    Orbitals with energies
 -0.0190       1 (A") A                  ->    16 (A") A                  
              -0.6904                          0.1356                     
 -0.0190       1 (A") B                  ->    16 (A") B                  
              -0.6904                          0.1356                     
 -0.0186       2 (A") A                  ->    22 (A") A                  
              -0.3860                          0.8157                     
 -0.0186       2 (A") B                  ->    22 (A") B                  
              -0.3860                          0.8157                     

 Amplitude    Orbitals with energies
 -0.0658       2 (A") A      2 (A") B    ->    16 (A") A     16 (A") B    
              -0.3860       -0.3860            0.1356        0.1356       
  0.0658       2 (A") A      2 (A") B    ->    16 (A") B     16 (A") A    
              -0.3860       -0.3860            0.1356        0.1356       
  0.0658       2 (A") B      2 (A") A    ->    16 (A") A     16 (A") B    
              -0.3860       -0.3860            0.1356        0.1356       
 -0.0658       2 (A") B      2 (A") A    ->    16 (A") B     16 (A") A    
              -0.3860       -0.3860            0.1356        0.1356       

 Computing CCSD intemediates for later calculations in double precision
 Finished.

Running a double precision version
           CCSD Lambda amplitudes will be solved using DIIS.
           Start     Size      MaxIter   EConv     LConv     
           3         7         100       1.00e-12  1.00e-11  
 ------------------------------------------------------------------------------
            Enorm      Ldiff       Comment
 ------------------------------------------------------------------------------
     1     3.67e-02   2.33e-02     
     2     1.09e-02   4.90e-03     
     3     4.09e-03   7.02e-04     
     4     2.06e-03   6.98e-04     Switched to DIIS steps.
     5     5.07e-04   3.86e-04     
     6     2.22e-04   6.85e-05     
     7     5.99e-05   1.43e-05     
     8     2.49e-05   1.01e-06     
     9     8.98e-06   2.34e-06     
    10     3.35e-06   9.66e-07     
    11     1.29e-06   2.94e-07     
    12     3.72e-07   1.42e-07     
    13     1.41e-07   2.52e-08     
    14     5.26e-08   1.37e-08     
    15     1.89e-08   6.98e-09     
    16     9.07e-09   2.26e-09     
    17     3.72e-09   1.17e-09     
    18     1.66e-09   2.93e-10     
    19     6.95e-10   3.04e-11     
    20     3.00e-10   2.72e-11     
    21     1.35e-10   2.02e-11     
    22     5.47e-11   1.23e-11     
    23     2.00e-11   5.84e-12     
    24     8.05e-12   1.05e-12     
    25     3.26e-12   7.21e-13     
    26     1.21e-12   1.68e-13     
    27     4.61e-13   4.80e-14     
 ------------------------------------------------------------------------------
                                   CCSD Lambda converged.

 CCSD calculation:   CPU 737.53 s  wall 96.98 s

        Solving for CVS-EOMEE-CCSD A' singlet states.

       EOMEE-CCSD-SINGLES right amplitudes will be solved using Davidson.
        Amplitudes will be solved using shifted  algorithm.
     Hard-coded thresholds: 
     LinDepThresh=1.00e-15  NormThresh=1.00e-06  ReorthogonThresh=1.00e-02

      Roots     MaxVec    MaxIter   Precond   Conv      Shift    
      30        1000      200       1         1.00e-04  1.05e+01  
 ------------------------------------------------------------------------------
      Iter ConvRoots NVecs ResNorm Current eigenvalues (eV)
 ------------------------------------------------------------------------------
      0    2      30    5.62e-04   302.4414   303.2416   303.4865   304.0150   304.0987   304.1442   304.1850   304.3823   304.4445   304.6236   304.6622   304.6802   304.6984   304.8040   304.8369   304.9444   305.0004   305.0305   305.0478   305.2649   305.2953   305.3755   305.7222   305.7837   305.8204   306.4105   306.9619   306.9884   307.0866*  307.2527*  
Rerun orthogonalization...
      1    0      58    9.27e-03   300.8465   301.7733   302.9956   303.4555   303.7022   303.8746   303.9423   304.0679   304.2465   304.3773   304.4800   304.5337   304.5779   304.6315   304.7157   304.7830   304.8102   304.8395   304.8653   304.9103   304.9866   305.0236   305.1195   305.2616   305.2778   305.3889   305.6075   305.6271   305.8503   306.0914   
Rerun orthogonalization...
      2    8      88    1.14e-03   300.2663   300.5033   302.8975   302.9396   303.0197   303.4100   303.7555   303.8824*  304.0328*  304.2133   304.2381   304.3489   304.4797   304.5454*  304.6083*  304.6959*  304.7088   304.7589   304.8313   304.8775*  304.9532*  304.9933*  305.0596   305.1186   305.1668   305.2999   305.4907   305.4996   305.5366   305.7135   
Rerun orthogonalization...
      3    23     110   3.63e-03   300.2587*  300.4964*  301.8374   302.9015*  303.0129*  303.4056*  303.7532*  303.8819*  304.0319   304.2120   304.2346   304.2937   304.3484   304.4784*  304.5452*  304.6081*  304.6955*  304.7069*  304.7577*  304.8301*  304.8773*  304.9525*  304.9931*  305.0569*  305.1161*  305.1647*  305.2814   305.2986*  305.4831*  305.4969*  
Rerun orthogonalization...
      4    27     117   7.90e-04   300.2586*  300.4955*  300.9949   302.8132   302.9014*  303.0145*  303.4061*  303.7532*  303.8820*  304.0325*  304.2124*  304.2354*  304.3466*  304.4784*  304.5452*  304.6080*  304.6955*  304.7069*  304.7577*  304.8301*  304.8773*  304.9525*  304.9931*  305.0568*  305.1160*  305.1417   305.1647*  305.2985*  305.4830*  305.4969*  
      5    27     120   7.89e-05   300.2585*  300.4951*  300.8748   302.7305   302.9014*  303.0141*  303.4061*  303.7532*  303.8820*  304.0325*  304.2124*  304.2354*  304.3466*  304.4784*  304.5452*  304.6080*  304.6955*  304.7069*  304.7577*  304.8301*  304.8773*  304.9525*  304.9931*  305.0568*  305.0891   305.1160*  305.1647*  305.2985*  305.4830*  305.4969*  
      6    29     123   5.27e-06   300.2585*  300.4951*  300.8724*  302.7289*  302.9014*  303.0141*  303.4061*  303.7532*  303.8820*  304.0325*  304.2124*  304.2354*  304.3466*  304.4784*  304.5452*  304.6080*  304.6955*  304.7069*  304.7577*  304.8301*  304.8773*  304.9525*  304.9931*  305.0567*  305.0786   305.1160*  305.1647*  305.2985*  305.4830*  305.4969*  
      7    30     124   2.18e-06   300.2585*  300.4951*  300.8724*  302.7289*  302.9014*  303.0141*  303.4061*  303.7532*  303.8820*  304.0325*  304.2124*  304.2354*  304.3466*  304.4784*  304.5452*  304.6080*  304.6955*  304.7069*  304.7577*  304.8301*  304.8773*  304.9525*  304.9931*  305.0567*  305.0777*  305.1160*  305.1647*  305.2985*  305.4830*  305.4969*  

     Davidson procedure converged

        CVS-EOMEE-CCSD/MP2 right amplitudes will be solved using Davidson.
        Amplitudes will be solved using shifted  algorithm.
     Hard-coded thresholds: 
     LinDepThresh=1.00e-15  NormThresh=1.00e-06  ReorthogonThresh=1.00e-02

      Roots     MaxVec    MaxIter   Precond   Conv      Shift    
      30        1000      200       1         1.00e-04  1.05e+01  
 ------------------------------------------------------------------------------
      Iter ConvRoots NVecs ResNorm Current eigenvalues (eV)
 ------------------------------------------------------------------------------
      0    0      30    1.86e+00   300.2585   300.4951   300.8724   302.7289   302.9014   303.0141   303.4061   303.7532   303.8820   304.0325   304.2124   304.2354   304.3466   304.4784   304.5452   304.6080   304.6955   304.7069   304.7577   304.8301   304.8773   304.9525   304.9931   305.0567   305.0777   305.1160   305.1647   305.2985   305.4830   305.4969   
      1    0      60    1.12e+00   297.6880   297.9733   298.5292   300.0257   300.1736   300.2106   300.5369   300.8824   301.0061   301.1515   301.3324   301.3688   301.4668   301.6047   301.6702   301.7315   301.8161   301.8354   301.8781   301.9571   302.0018   302.0735   302.1166   302.1820   302.2359   302.2395   302.2926   302.4290   302.6135   302.6231   
      2    0      90    5.78e-02   288.6815   289.3626   289.8217   290.2971   290.5608   290.6685   290.7804   290.9523   291.0693   291.1991   291.3239   291.3618   291.3795   291.4308   291.5099   291.5558   291.6221   291.6884   291.7275   291.7594   291.8369   291.8783   291.9803   292.0366   292.1784   292.3237   292.4933   292.6025   292.6319   292.8191   
      3    0      120   7.07e-03   288.2279   288.8778   289.3809   289.8127   290.1153   290.2204   290.3378   290.4859   290.6104   290.7265   290.8328   290.8553   290.8960   290.9647   291.0337   291.0838   291.1455   291.2086   291.2516   291.2859   291.3574   291.4034   291.4996   291.5611   291.6978   291.7983   291.9534   291.9993   292.0880   292.1267   
      4    0      150   1.49e-03   288.1748   288.8070   289.3530   289.7425   290.0842   290.1897   290.3200   290.4584   290.5912   290.6954   290.7121   290.8276   290.8749   290.9479   291.0124   291.0667   291.1227   291.1831   291.2305   291.2694   291.3364   291.3854   291.4753   291.5341   291.6474   291.7458   291.7570   291.9163   291.9547   292.0259   
      5    3      180   1.11e-03   288.1559   288.7795   289.3430   289.7111   290.0710   290.1775   290.3135   290.4469   290.5847   290.6577   290.6834   290.8160   290.8676   290.9426*  291.0044   291.0615*  291.1148   291.1727   291.2235   291.2645*  291.3283   291.3798   291.4662   291.5239   291.6235   291.6251   291.7430   291.8074   291.9332   292.0001   
Found complex roots...
      6    10     207   5.18e-04   288.1496   288.7694   289.3401*  289.6943   290.0644   290.1723   290.3114*  290.4419   290.5827*  290.6297   290.6779   290.8096   290.8654*  290.9415*  291.0011   291.0606*  291.1118*  291.1671   291.2213*  291.2637*  291.3247   291.3782*  291.4607   291.5179   291.5485   291.6101   291.7233   291.7371   291.9156   291.9818   
      7    13     227   3.88e-04   288.1472*  288.7650   289.3391*  289.6887   290.0608   290.1701   290.3106*  290.4394   290.5818*  290.6166   290.6759*  290.8055   290.8642*  290.9408*  290.9993*  291.0599*  291.1106*  291.1633   291.2201*  291.2631*  291.3223   291.3770*  291.4572   291.5013   291.5154   291.6000   291.6512   291.7343   291.9016   291.9673   
Found complex roots...
      8    24     244   1.64e-04   288.1468*  288.7647*  289.3387*  289.6868*  290.0600*  290.1692*  290.3101*  290.4386*  290.5814*  290.6129   290.6754*  290.8044*  290.8638*  290.9404*  290.9985*  291.0596*  291.1103*  291.1620*  291.2197*  291.2628*  291.3213*  291.3765*  291.4557*  291.4819   291.5145*  291.5963   291.6227   291.7330*  291.8943   291.9586   
      9    24     250   1.37e-04   288.1469*  288.7648*  289.3387*  289.6864*  290.0600*  290.1691*  290.3101*  290.4381*  290.5814*  290.6090   290.6754*  290.8041*  290.8637*  290.9404*  290.9980*  291.0596*  291.1103*  291.1613*  291.2196*  291.2628*  291.3205*  291.3762*  291.4551*  291.4619   291.5143*  291.5930   291.5940   291.7330*  291.8876   291.9503   
Found complex roots...
      10   26     256   9.77e-05   288.1469*  288.7647*  289.3387*  289.6864*  290.0600*  290.1691*  290.3101*  290.4379*  290.5814*  290.6064*  290.6754*  290.8039*  290.8637*  290.9404*  290.9979*  291.0596*  291.1103*  291.1610*  291.2195*  291.2627*  291.3202*  291.3762*  291.4467   291.4548*  291.5141*  291.5742   291.5915*  291.7329*  291.8839   291.9448   
      11   26     260   6.99e-05   288.1469*  288.7647*  289.3387*  289.6864*  290.0599*  290.1691*  290.3101*  290.4379*  290.5814*  290.6062*  290.6754*  290.8039*  290.8637*  290.9404*  290.9978*  291.0596*  291.1103*  291.1610*  291.2195*  291.2627*  291.3200*  291.3762*  291.4412   291.4547*  291.5141*  291.5659   291.5914*  291.7329*  291.8815   291.9411   
      12   27     264   5.24e-05   288.1469*  288.7647*  289.3387*  289.6864*  290.0599*  290.1691*  290.3100*  290.4379*  290.5814*  290.6062*  290.6754*  290.8039*  290.8637*  290.9404*  290.9978*  291.0596*  291.1103*  291.1610*  291.2195*  291.2627*  291.3199*  291.3762*  291.4386   291.4547*  291.5141*  291.5615   291.5914*  291.7329*  291.8803*  291.9373   
Found complex roots...
      13   27     267   4.67e-05   288.1469*  288.7647*  289.3387*  289.6864*  290.0598*  290.1691*  290.3100*  290.4378*  290.5814*  290.6060*  290.6754*  290.8038*  290.8637*  290.9404*  290.9978*  291.0596*  291.1103*  291.1609*  291.2195*  291.2627*  291.3199*  291.3762*  291.4336   291.4546*  291.5141*  291.5574   291.5913*  291.7329*  291.8799*  291.9332   
Found complex roots...
      14   27     270   3.69e-05   288.1469*  288.7647*  289.3387*  289.6864*  290.0598*  290.1691*  290.3100*  290.4378*  290.5814*  290.6060*  290.6754*  290.8038*  290.8637*  290.9404*  290.9978*  291.0596*  291.1103*  291.1609*  291.2195*  291.2627*  291.3199*  291.3762*  291.4298   291.4546*  291.5140*  291.5547   291.5913*  291.7329*  291.8798*  291.9304   
Found complex roots...
      15   30     273   2.92e-05   288.1469*  288.7646*  289.3387*  289.6864*  290.0598*  290.1691*  290.3100*  290.4378*  290.5814*  290.6060*  290.6754*  290.8038*  290.8637*  290.9404*  290.9978*  291.0596*  291.1103*  291.1608*  291.2195*  291.2627*  291.3199*  291.3762*  291.4284*  291.4545*  291.5140*  291.5537*  291.5913*  291.7329*  291.8797*  291.9290*  

     Davidson procedure converged

 EOMEE transition 1/A'
 Total energy = -166.85926801 a.u.  Excitation energy = 288.1469 eV.
 R0^2 = 0.0000  R1^2 = 0.8139  R2_CCVV^2 = 0.0012  R2_COVV^2 = 0.0925  Res^2 = 6.83e-06
 Conv-d = yes

 Amplitude    Transitions between orbitals
  0.2743       3 (A') A                  ->    32 (A') A                  
  0.2743       3 (A') B                  ->    32 (A') B                  
 -0.2199       3 (A') A                  ->    39 (A') A                  
 -0.2199       3 (A') B                  ->    39 (A') B                  
  0.2161       3 (A') A                  ->    26 (A') A                  
  0.2161       3 (A') B                  ->    26 (A') B                  
  0.1971       3 (A') A                  ->    25 (A') A                  
  0.1971       3 (A') B                  ->    25 (A') B                  
 -0.1848       3 (A') A                  ->    20 (A') A                  
 -0.1848       3 (A') B                  ->    20 (A') B                  
 -0.1762       3 (A') A                  ->    31 (A') A                  
 -0.1762       3 (A') B                  ->    31 (A') B                  
  0.1516       3 (A') A                  ->    14 (A') A                  
  0.1516       3 (A') B                  ->    14 (A') B                  
 -0.1343       3 (A') A                  ->    19 (A') A                  
 -0.1343       3 (A') B                  ->    19 (A') B                  
 -0.1291       3 (A') A                  ->    38 (A') A                  
 -0.1291       3 (A') B                  ->    38 (A') B                  
 -0.1237       3 (A') A                  ->    50 (A') A                  
 -0.1237       3 (A') B                  ->    50 (A') B                  

              Summary of significant orbitals:

               Number  Type             Irrep      Energy
               3       Occ  Alpha       3 (A')    -11.2400
               3       Occ  Beta        3 (A')    -11.2400
               17      Vir  Alpha      14 (A')      0.0052
               24      Vir  Alpha      19 (A')      0.0114
               26      Vir  Alpha      20 (A')      0.0137
               33      Vir  Alpha      25 (A')      0.0263
               35      Vir  Alpha      26 (A')      0.0297
               43      Vir  Alpha      31 (A')      0.0547
               44      Vir  Alpha      32 (A')      0.0626
               53      Vir  Alpha      38 (A')      0.1257
               55      Vir  Alpha      39 (A')      0.1359
               70      Vir  Alpha      50 (A')      0.3333
               17      Vir  Beta       14 (A')      0.0052
               24      Vir  Beta       19 (A')      0.0114
               26      Vir  Beta       20 (A')      0.0137
               33      Vir  Beta       25 (A')      0.0263
               35      Vir  Beta       26 (A')      0.0297
               43      Vir  Beta       31 (A')      0.0547
               44      Vir  Beta       32 (A')      0.0626
               53      Vir  Beta       38 (A')      0.1257
               55      Vir  Beta       39 (A')      0.1359
               70      Vir  Beta       50 (A')      0.3333


 EOMEE transition 2/A'
 Total energy = -166.83656484 a.u.  Excitation energy = 288.7646 eV.
 R0^2 = 0.0000  R1^2 = 0.8144  R2_CCVV^2 = 0.0012  R2_COVV^2 = 0.0922  Res^2 = 1.93e-05
 Conv-d = yes

 Amplitude    Transitions between orbitals
  0.3071       3 (A') A                  ->    30 (A') A                  
  0.3071       3 (A') B                  ->    30 (A') B                  
  0.2716       3 (A') A                  ->    36 (A') A                  
  0.2716       3 (A') B                  ->    36 (A') B                  
 -0.2485       3 (A') A                  ->    24 (A') A                  
 -0.2485       3 (A') B                  ->    24 (A') B                  
  0.1589       3 (A') A                  ->    18 (A') A                  
  0.1589       3 (A') B                  ->    18 (A') B                  
 -0.1381       3 (A') A                  ->    46 (A') A                  
 -0.1381       3 (A') B                  ->    46 (A') B                  
 -0.1335       3 (A') A                  ->    41 (A') A                  
 -0.1335       3 (A') B                  ->    41 (A') B                  
  0.1247       3 (A') A                  ->    51 (A') A                  
  0.1247       3 (A') B                  ->    51 (A') B                  
  0.1135       3 (A') A                  ->    38 (A') A                  
  0.1135       3 (A') B                  ->    38 (A') B                  
  0.1102       3 (A') A                  ->    48 (A') A                  
  0.1102       3 (A') B                  ->    48 (A') B                  
  0.1009       3 (A') A                  ->    33 (A') A                  
  0.1009       3 (A') B                  ->    33 (A') B                  
  0.1004       3 (A') A                  ->    40 (A') A                  
  0.1004       3 (A') B                  ->    40 (A') B                  

              Summary of significant orbitals:

               Number  Type             Irrep      Energy
               3       Occ  Alpha       3 (A')    -11.2400
               3       Occ  Beta        3 (A')    -11.2400
               23      Vir  Alpha      18 (A')      0.0111
               32      Vir  Alpha      24 (A')      0.0254
               41      Vir  Alpha      30 (A')      0.0513
               46      Vir  Alpha      33 (A')      0.0841
               50      Vir  Alpha      36 (A')      0.1023
               53      Vir  Alpha      38 (A')      0.1257
               56      Vir  Alpha      40 (A')      0.1450
               57      Vir  Alpha      41 (A')      0.1604
               64      Vir  Alpha      46 (A')      0.2456
               68      Vir  Alpha      48 (A')      0.2844
               71      Vir  Alpha      51 (A')      0.3513
               23      Vir  Beta       18 (A')      0.0111
               32      Vir  Beta       24 (A')      0.0254
               41      Vir  Beta       30 (A')      0.0513
               46      Vir  Beta       33 (A')      0.0841
               50      Vir  Beta       36 (A')      0.1023
               53      Vir  Beta       38 (A')      0.1257
               56      Vir  Beta       40 (A')      0.1450
               57      Vir  Beta       41 (A')      0.1604
               64      Vir  Beta       46 (A')      0.2456
               68      Vir  Beta       48 (A')      0.2844
               71      Vir  Beta       51 (A')      0.3513


 EOMEE transition 3/A'
 Total energy = -166.81547020 a.u.  Excitation energy = 289.3387 eV.
 R0^2 = 0.0000  R1^2 = 0.8043  R2_CCVV^2 = 0.0012  R2_COVV^2 = 0.0973  Res^2 = 1.65e-05
 Conv-d = yes

 Amplitude    Transitions between orbitals
  0.2503       3 (A') A                  ->    31 (A') A                  
  0.2503       3 (A') B                  ->    31 (A') B                  
  0.2196       3 (A') A                  ->    26 (A') A                  
  0.2196       3 (A') B                  ->    26 (A') B                  
 -0.1975       3 (A') A                  ->    25 (A') A                  
 -0.1975       3 (A') B                  ->    25 (A') B                  
  0.1938       3 (A') A                  ->    32 (A') A                  
  0.1938       3 (A') B                  ->    32 (A') B                  
 -0.1724       3 (A') A                  ->    37 (A') A                  
 -0.1724       3 (A') B                  ->    37 (A') B                  
 -0.1580       3 (A') A                  ->    20 (A') A                  
 -0.1580       3 (A') B                  ->    20 (A') B                  
  0.1403       3 (A') A                  ->    19 (A') A                  
  0.1403       3 (A') B                  ->    19 (A') B                  
  0.1389       3 (A') A                  ->    38 (A') A                  
  0.1389       3 (A') B                  ->    38 (A') B                  
 -0.1249       3 (A') A                  ->    35 (A') A                  
 -0.1249       3 (A') B                  ->    35 (A') B                  
  0.1086       3 (A') A                  ->    29 (A') A                  
  0.1086       3 (A') B                  ->    29 (A') B                  
 -0.1058       3 (A') A                  ->    39 (A') A                  
 -0.1058       3 (A') B                  ->    39 (A') B                  

              Summary of significant orbitals:

               Number  Type             Irrep      Energy
               3       Occ  Alpha       3 (A')    -11.2400
               3       Occ  Beta        3 (A')    -11.2400
               24      Vir  Alpha      19 (A')      0.0114
               26      Vir  Alpha      20 (A')      0.0137
               33      Vir  Alpha      25 (A')      0.0263
               35      Vir  Alpha      26 (A')      0.0297
               39      Vir  Alpha      29 (A')      0.0449
               43      Vir  Alpha      31 (A')      0.0547
               44      Vir  Alpha      32 (A')      0.0626
               48      Vir  Alpha      35 (A')      0.0874
               51      Vir  Alpha      37 (A')      0.1093
               53      Vir  Alpha      38 (A')      0.1257
               55      Vir  Alpha      39 (A')      0.1359
               24      Vir  Beta       19 (A')      0.0114
               26      Vir  Beta       20 (A')      0.0137
               33      Vir  Beta       25 (A')      0.0263
               35      Vir  Beta       26 (A')      0.0297
               39      Vir  Beta       29 (A')      0.0449
               43      Vir  Beta       31 (A')      0.0547
               44      Vir  Beta       32 (A')      0.0626
               48      Vir  Beta       35 (A')      0.0874
               51      Vir  Beta       37 (A')      0.1093
               53      Vir  Beta       38 (A')      0.1257
               55      Vir  Beta       39 (A')      0.1359


 EOMEE transition 4/A'
 Total energy = -166.80269083 a.u.  Excitation energy = 289.6864 eV.
 R0^2 = 0.0000  R1^2 = 0.8064  R2_CCVV^2 = 0.0012  R2_COVV^2 = 0.0962  Res^2 = 6.65e-05
 Conv-d = yes

 Amplitude    Transitions between orbitals
 -0.2485       3 (A') A                  ->    34 (A') A                  
 -0.2485       3 (A') B                  ->    34 (A') B                  
  0.2140       3 (A') A                  ->    45 (A') A                  
  0.2140       3 (A') B                  ->    45 (A') B                  
  0.2061       3 (A') A                  ->    42 (A') A                  
  0.2061       3 (A') B                  ->    42 (A') B                  
  0.1832       3 (A') A                  ->    28 (A') A                  
  0.1832       3 (A') B                  ->    28 (A') B                  
  0.1525       3 (A') A                  ->    37 (A') A                  
  0.1525       3 (A') B                  ->    37 (A') B                  
  0.1406       3 (A') A                  ->    51 (A') A                  
  0.1406       3 (A') B                  ->    51 (A') B                  
  0.1388       3 (A') A                  ->    22 (A') A                  
  0.1388       3 (A') B                  ->    22 (A') B                  
  0.1293       3 (A') A                  ->    24 (A') A                  
  0.1293       3 (A') B                  ->    24 (A') B                  
  0.1219       3 (A') A                  ->    27 (A') A                  
  0.1219       3 (A') B                  ->    27 (A') B                  
  0.1171       3 (A') A                  ->    33 (A') A                  
  0.1171       3 (A') B                  ->    33 (A') B                  
 -0.1158       3 (A') A                  ->    18 (A') A                  
 -0.1158       3 (A') B                  ->    18 (A') B                  
 -0.1106       3 (A') A                  ->    41 (A') A                  
 -0.1106       3 (A') B                  ->    41 (A') B                  
  0.1105       3 (A') A                  ->    52 (A') A                  
  0.1105       3 (A') B                  ->    52 (A') B                  
  0.1072       3 (A') A                  ->    38 (A') A                  
  0.1072       3 (A') B                  ->    38 (A') B                  

              Summary of significant orbitals:

               Number  Type             Irrep      Energy
               3       Occ  Alpha       3 (A')    -11.2400
               3       Occ  Beta        3 (A')    -11.2400
               23      Vir  Alpha      18 (A')      0.0111
               28      Vir  Alpha      22 (A')      0.0210
               32      Vir  Alpha      24 (A')      0.0254
               36      Vir  Alpha      27 (A')      0.0436
               37      Vir  Alpha      28 (A')      0.0442
               46      Vir  Alpha      33 (A')      0.0841
               47      Vir  Alpha      34 (A')      0.0851
               51      Vir  Alpha      37 (A')      0.1093
               53      Vir  Alpha      38 (A')      0.1257
               57      Vir  Alpha      41 (A')      0.1604
               58      Vir  Alpha      42 (A')      0.1655
               63      Vir  Alpha      45 (A')      0.2198
               71      Vir  Alpha      51 (A')      0.3513
               72      Vir  Alpha      52 (A')      0.3947
               23      Vir  Beta       18 (A')      0.0111
               28      Vir  Beta       22 (A')      0.0210
               32      Vir  Beta       24 (A')      0.0254
               36      Vir  Beta       27 (A')      0.0436
               37      Vir  Beta       28 (A')      0.0442
               46      Vir  Beta       33 (A')      0.0841
               47      Vir  Beta       34 (A')      0.0851
               51      Vir  Beta       37 (A')      0.1093
               53      Vir  Beta       38 (A')      0.1257
               57      Vir  Beta       41 (A')      0.1604
               58      Vir  Beta       42 (A')      0.1655
               63      Vir  Beta       45 (A')      0.2198
               71      Vir  Beta       51 (A')      0.3513
               72      Vir  Beta       52 (A')      0.3947


 EOMEE transition 5/A'
 Total energy = -166.78896939 a.u.  Excitation energy = 290.0598 eV.
 R0^2 = 0.0000  R1^2 = 0.8070  R2_CCVV^2 = 0.0012  R2_COVV^2 = 0.0959  Res^2 = 1.94e-05
 Conv-d = yes

 Amplitude    Transitions between orbitals
  0.2299       3 (A') A                  ->    14 (A') A                  
  0.2299       3 (A') B                  ->    14 (A') B                  
 -0.1860       3 (A') A                  ->    11 (A') A                  
 -0.1860       3 (A') B                  ->    11 (A') B                  
 -0.1592       3 (A') A                  ->    19 (A') A                  
 -0.1592       3 (A') B                  ->    19 (A') B                  
  0.1465       3 (A') A                  ->    39 (A') A                  
  0.1465       3 (A') B                  ->    39 (A') B                  
  0.1448       3 (A') A                  ->    38 (A') A                  
  0.1448       3 (A') B                  ->    38 (A') B                  
 -0.1369       3 (A') A                  ->    20 (A') A                  
 -0.1369       3 (A') B                  ->    20 (A') B                  
  0.1323       3 (A') A                  ->    27 (A') A                  
  0.1323       3 (A') B                  ->    27 (A') B                  
  0.1321       3 (A') A                  ->    33 (A') A                  
  0.1321       3 (A') B                  ->    33 (A') B                  
 -0.1278       3 (A') A                  ->    32 (A') A                  
 -0.1278       3 (A') B                  ->    32 (A') B                  
 -0.1175       3 (A') A                  ->    28 (A') A                  
 -0.1175       3 (A') B                  ->    28 (A') B                  
  0.1154       3 (A') A                  ->    13 (A') A                  
  0.1154       3 (A') B                  ->    13 (A') B                  
  0.1096       3 (A') A                  ->    34 (A') A                  
  0.1096       3 (A') B                  ->    34 (A') B                  
  0.1087       3 (A') A                  ->    50 (A') A                  
  0.1087       3 (A') B                  ->    50 (A') B                  
 -0.1085       3 (A') A                  ->    35 (A') A                  
 -0.1085       3 (A') B                  ->    35 (A') B                  
 -0.1082       3 (A') A                  ->    40 (A') A                  
 -0.1082       3 (A') B                  ->    40 (A') B                  

              Summary of significant orbitals:

               Number  Type             Irrep      Energy
               3       Occ  Alpha       3 (A')    -11.2400
               3       Occ  Beta        3 (A')    -11.2400
               13      Vir  Alpha      11 (A')      0.0011
               15      Vir  Alpha      13 (A')      0.0036
               17      Vir  Alpha      14 (A')      0.0052
               24      Vir  Alpha      19 (A')      0.0114
               26      Vir  Alpha      20 (A')      0.0137
               36      Vir  Alpha      27 (A')      0.0436
               37      Vir  Alpha      28 (A')      0.0442
               44      Vir  Alpha      32 (A')      0.0626
               46      Vir  Alpha      33 (A')      0.0841
               47      Vir  Alpha      34 (A')      0.0851
               48      Vir  Alpha      35 (A')      0.0874
               53      Vir  Alpha      38 (A')      0.1257
               55      Vir  Alpha      39 (A')      0.1359
               56      Vir  Alpha      40 (A')      0.1450
               70      Vir  Alpha      50 (A')      0.3333
               13      Vir  Beta       11 (A')      0.0011
               15      Vir  Beta       13 (A')      0.0036
               17      Vir  Beta       14 (A')      0.0052
               24      Vir  Beta       19 (A')      0.0114
               26      Vir  Beta       20 (A')      0.0137
               36      Vir  Beta       27 (A')      0.0436
               37      Vir  Beta       28 (A')      0.0442
               44      Vir  Beta       32 (A')      0.0626
               46      Vir  Beta       33 (A')      0.0841
               47      Vir  Beta       34 (A')      0.0851
               48      Vir  Beta       35 (A')      0.0874
               53      Vir  Beta       38 (A')      0.1257
               55      Vir  Beta       39 (A')      0.1359
               56      Vir  Beta       40 (A')      0.1450
               70      Vir  Beta       50 (A')      0.3333


 EOMEE transition 6/A'
 Total energy = -166.78495272 a.u.  Excitation energy = 290.1691 eV.
 R0^2 = 0.0000  R1^2 = 0.8041  R2_CCVV^2 = 0.0012  R2_COVV^2 = 0.0974  Res^2 = 2.08e-05
 Conv-d = yes

 Amplitude    Transitions between orbitals
  0.2377       3 (A') A                  ->    29 (A') A                  
  0.2377       3 (A') B                  ->    29 (A') B                  
 -0.2163       3 (A') A                  ->    35 (A') A                  
 -0.2163       3 (A') B                  ->    35 (A') B                  
 -0.1977       3 (A') A                  ->    27 (A') A                  
 -0.1977       3 (A') B                  ->    27 (A') B                  
 -0.1958       3 (A') A                  ->    33 (A') A                  
 -0.1958       3 (A') B                  ->    33 (A') B                  
 -0.1891       3 (A') A                  ->    21 (A') A                  
 -0.1891       3 (A') B                  ->    21 (A') B                  
  0.1776       3 (A') A                  ->    23 (A') A                  
  0.1776       3 (A') B                  ->    23 (A') B                  
  0.1633       3 (A') A                  ->    41 (A') A                  
  0.1633       3 (A') B                  ->    41 (A') B                  
  0.1419       3 (A') A                  ->    28 (A') A                  
  0.1419       3 (A') B                  ->    28 (A') B                  
  0.1055       3 (A') A                  ->    25 (A') A                  
  0.1055       3 (A') B                  ->    25 (A') B                  
  0.1008       3 (A') A                  ->    43 (A') A                  
  0.1008       3 (A') B                  ->    43 (A') B                  

              Summary of significant orbitals:

               Number  Type             Irrep      Energy
               3       Occ  Alpha       3 (A')    -11.2400
               3       Occ  Beta        3 (A')    -11.2400
               27      Vir  Alpha      21 (A')      0.0209
               30      Vir  Alpha      23 (A')      0.0213
               33      Vir  Alpha      25 (A')      0.0263
               36      Vir  Alpha      27 (A')      0.0436
               37      Vir  Alpha      28 (A')      0.0442
               39      Vir  Alpha      29 (A')      0.0449
               46      Vir  Alpha      33 (A')      0.0841
               48      Vir  Alpha      35 (A')      0.0874
               57      Vir  Alpha      41 (A')      0.1604
               59      Vir  Alpha      43 (A')      0.1720
               27      Vir  Beta       21 (A')      0.0209
               30      Vir  Beta       23 (A')      0.0213
               33      Vir  Beta       25 (A')      0.0263
               36      Vir  Beta       27 (A')      0.0436
               37      Vir  Beta       28 (A')      0.0442
               39      Vir  Beta       29 (A')      0.0449
               46      Vir  Beta       33 (A')      0.0841
               48      Vir  Beta       35 (A')      0.0874
               57      Vir  Beta       41 (A')      0.1604
               59      Vir  Beta       43 (A')      0.1720


 EOMEE transition 7/A'
 Total energy = -166.77977245 a.u.  Excitation energy = 290.3100 eV.
 R0^2 = 0.0000  R1^2 = 0.8040  R2_CCVV^2 = 0.0012  R2_COVV^2 = 0.0974  Res^2 = 1.71e-05
 Conv-d = yes

 Amplitude    Transitions between orbitals
  0.2393       3 (A') A                  ->    14 (A') A                  
  0.2393       3 (A') B                  ->    14 (A') B                  
 -0.2068       3 (A') A                  ->    11 (A') A                  
 -0.2068       3 (A') B                  ->    11 (A') B                  
 -0.1688       3 (A') A                  ->    29 (A') A                  
 -0.1688       3 (A') B                  ->    29 (A') B                  
 -0.1387       3 (A') A                  ->    23 (A') A                  
 -0.1387       3 (A') B                  ->    23 (A') B                  
 -0.1377       3 (A') A                  ->    32 (A') A                  
 -0.1377       3 (A') B                  ->    32 (A') B                  
 -0.1376       3 (A') A                  ->    21 (A') A                  
 -0.1376       3 (A') B                  ->    21 (A') B                  
  0.1372       3 (A') A                  ->    31 (A') A                  
  0.1372       3 (A') B                  ->    31 (A') B                  
 -0.1372       3 (A') A                  ->    27 (A') A                  
 -0.1372       3 (A') B                  ->    27 (A') B                  
 -0.1308       3 (A') A                  ->    20 (A') A                  
 -0.1308       3 (A') B                  ->    20 (A') B                  
  0.1215       3 (A') A                  ->    39 (A') A                  
  0.1215       3 (A') B                  ->    39 (A') B                  
  0.1211       3 (A') A                  ->    28 (A') A                  
  0.1211       3 (A') B                  ->    28 (A') B                  
 -0.1124       3 (A') A                  ->    37 (A') A                  
 -0.1124       3 (A') B                  ->    37 (A') B                  
 -0.1114       3 (A') A                  ->    24 (A') A                  
 -0.1114       3 (A') B                  ->    24 (A') B                  
 -0.1103       3 (A') A                  ->    34 (A') A                  
 -0.1103       3 (A') B                  ->    34 (A') B                  
  0.1075       3 (A') A                  ->    35 (A') A                  
  0.1075       3 (A') B                  ->    35 (A') B                  
  0.1075       3 (A') A                  ->    22 (A') A                  
  0.1075       3 (A') B                  ->    22 (A') B                  

              Summary of significant orbitals:

               Number  Type             Irrep      Energy
               3       Occ  Alpha       3 (A')    -11.2400
               3       Occ  Beta        3 (A')    -11.2400
               13      Vir  Alpha      11 (A')      0.0011
               17      Vir  Alpha      14 (A')      0.0052
               26      Vir  Alpha      20 (A')      0.0137
               27      Vir  Alpha      21 (A')      0.0209
               28      Vir  Alpha      22 (A')      0.0210
               30      Vir  Alpha      23 (A')      0.0213
               32      Vir  Alpha      24 (A')      0.0254
               36      Vir  Alpha      27 (A')      0.0436
               37      Vir  Alpha      28 (A')      0.0442
               39      Vir  Alpha      29 (A')      0.0449
               43      Vir  Alpha      31 (A')      0.0547
               44      Vir  Alpha      32 (A')      0.0626
               47      Vir  Alpha      34 (A')      0.0851
               48      Vir  Alpha      35 (A')      0.0874
               51      Vir  Alpha      37 (A')      0.1093
               55      Vir  Alpha      39 (A')      0.1359
               13      Vir  Beta       11 (A')      0.0011
               17      Vir  Beta       14 (A')      0.0052
               26      Vir  Beta       20 (A')      0.0137
               27      Vir  Beta       21 (A')      0.0209
               28      Vir  Beta       22 (A')      0.0210
               30      Vir  Beta       23 (A')      0.0213
               32      Vir  Beta       24 (A')      0.0254
               36      Vir  Beta       27 (A')      0.0436
               37      Vir  Beta       28 (A')      0.0442
               39      Vir  Beta       29 (A')      0.0449
               43      Vir  Beta       31 (A')      0.0547
               44      Vir  Beta       32 (A')      0.0626
               47      Vir  Beta       34 (A')      0.0851
               48      Vir  Beta       35 (A')      0.0874
               51      Vir  Beta       37 (A')      0.1093
               55      Vir  Beta       39 (A')      0.1359


 EOMEE transition 8/A'
 Total energy = -166.77507600 a.u.  Excitation energy = 290.4378 eV.
 R0^2 = 0.0000  R1^2 = 0.8047  R2_CCVV^2 = 0.0012  R2_COVV^2 = 0.0971  Res^2 = 7.67e-06
 Conv-d = yes

 Amplitude    Transitions between orbitals
 -0.3571       3 (A') A                  ->    18 (A') A                  
 -0.3571       3 (A') B                  ->    18 (A') B                  
  0.2799       3 (A') A                  ->    12 (A') A                  
  0.2799       3 (A') B                  ->    12 (A') B                  
  0.1762       3 (A') A                  ->    36 (A') A                  
  0.1762       3 (A') B                  ->    36 (A') B                  
  0.1492       3 (A') A                  ->    24 (A') A                  
  0.1492       3 (A') B                  ->    24 (A') B                  
 -0.1346       3 (A') A                  ->    21 (A') A                  
 -0.1346       3 (A') B                  ->    21 (A') B                  
 -0.1151       3 (A') A                  ->    28 (A') A                  
 -0.1151       3 (A') B                  ->    28 (A') B                  
 -0.1040       3 (A') A                  ->    27 (A') A                  
 -0.1040       3 (A') B                  ->    27 (A') B                  
  0.1026       3 (A') A                  ->    19 (A') A                  
  0.1026       3 (A') B                  ->    19 (A') B                  
  0.1024       3 (A') A                  ->    34 (A') A                  
  0.1024       3 (A') B                  ->    34 (A') B                  
  0.1013       3 (A') A                  ->    30 (A') A                  
  0.1013       3 (A') B                  ->    30 (A') B                  

              Summary of significant orbitals:

               Number  Type             Irrep      Energy
               3       Occ  Alpha       3 (A')    -11.2400
               3       Occ  Beta        3 (A')    -11.2400
               14      Vir  Alpha      12 (A')      0.0035
               23      Vir  Alpha      18 (A')      0.0111
               24      Vir  Alpha      19 (A')      0.0114
               27      Vir  Alpha      21 (A')      0.0209
               32      Vir  Alpha      24 (A')      0.0254
               36      Vir  Alpha      27 (A')      0.0436
               37      Vir  Alpha      28 (A')      0.0442
               41      Vir  Alpha      30 (A')      0.0513
               47      Vir  Alpha      34 (A')      0.0851
               50      Vir  Alpha      36 (A')      0.1023
               14      Vir  Beta       12 (A')      0.0035
               23      Vir  Beta       18 (A')      0.0111
               24      Vir  Beta       19 (A')      0.0114
               27      Vir  Beta       21 (A')      0.0209
               32      Vir  Beta       24 (A')      0.0254
               36      Vir  Beta       27 (A')      0.0436
               37      Vir  Beta       28 (A')      0.0442
               41      Vir  Beta       30 (A')      0.0513
               47      Vir  Beta       34 (A')      0.0851
               50      Vir  Beta       36 (A')      0.1023


 EOMEE transition 9/A'
 Total energy = -166.76980156 a.u.  Excitation energy = 290.5814 eV.
 R0^2 = 0.0000  R1^2 = 0.8034  R2_CCVV^2 = 0.0012  R2_COVV^2 = 0.0977  Res^2 = 1.45e-05
 Conv-d = yes

 Amplitude    Transitions between orbitals
  0.2997       3 (A') A                  ->    19 (A') A                  
  0.2997       3 (A') B                  ->    19 (A') B                  
 -0.2780       3 (A') A                  ->    13 (A') A                  
 -0.2780       3 (A') B                  ->    13 (A') B                  
 -0.2057       3 (A') A                  ->    20 (A') A                  
 -0.2057       3 (A') B                  ->    20 (A') B                  
  0.1687       3 (A') A                  ->    14 (A') A                  
  0.1687       3 (A') B                  ->    14 (A') B                  
  0.1567       3 (A') A                  ->    37 (A') A                  
  0.1567       3 (A') B                  ->    37 (A') B                  
  0.1471       3 (A') A                  ->    23 (A') A                  
  0.1471       3 (A') B                  ->    23 (A') B                  
 -0.1299       3 (A') A                  ->    17 (A') A                  
 -0.1299       3 (A') B                  ->    17 (A') B                  
 -0.1218       3 (A') A                  ->    31 (A') A                  
 -0.1218       3 (A') B                  ->    31 (A') B                  
 -0.1121       3 (A') A                  ->    32 (A') A                  
 -0.1121       3 (A') B                  ->    32 (A') B                  

              Summary of significant orbitals:

               Number  Type             Irrep      Energy
               3       Occ  Alpha       3 (A')    -11.2400
               3       Occ  Beta        3 (A')    -11.2400
               15      Vir  Alpha      13 (A')      0.0036
               17      Vir  Alpha      14 (A')      0.0052
               21      Vir  Alpha      17 (A')      0.0079
               24      Vir  Alpha      19 (A')      0.0114
               26      Vir  Alpha      20 (A')      0.0137
               30      Vir  Alpha      23 (A')      0.0213
               43      Vir  Alpha      31 (A')      0.0547
               44      Vir  Alpha      32 (A')      0.0626
               51      Vir  Alpha      37 (A')      0.1093
               15      Vir  Beta       13 (A')      0.0036
               17      Vir  Beta       14 (A')      0.0052
               21      Vir  Beta       17 (A')      0.0079
               24      Vir  Beta       19 (A')      0.0114
               26      Vir  Beta       20 (A')      0.0137
               30      Vir  Beta       23 (A')      0.0213
               43      Vir  Beta       31 (A')      0.0547
               44      Vir  Beta       32 (A')      0.0626
               51      Vir  Beta       37 (A')      0.1093


 EOMEE transition 10/A'
 Total energy = -166.76889689 a.u.  Excitation energy = 290.6060 eV.
 R0^2 = 0.0000  R1^2 = 0.8164  R2_CCVV^2 = 0.0012  R2_COVV^2 = 0.0912  Res^2 = 4.29e-05
 Conv-d = yes

 Amplitude    Transitions between orbitals
  0.2617       2 (A') A                  ->    32 (A') A                  
  0.2617       2 (A') B                  ->    32 (A') B                  
 -0.2073       2 (A') A                  ->    39 (A') A                  
 -0.2073       2 (A') B                  ->    39 (A') B                  
  0.2054       2 (A') A                  ->    26 (A') A                  
  0.2054       2 (A') B                  ->    26 (A') B                  
 -0.1739       2 (A') A                  ->    30 (A') A                  
 -0.1739       2 (A') B                  ->    30 (A') B                  
 -0.1678       2 (A') A                  ->    50 (A') A                  
 -0.1678       2 (A') B                  ->    50 (A') B                  
 -0.1658       2 (A') A                  ->    20 (A') A                  
 -0.1658       2 (A') B                  ->    20 (A') B                  
 -0.1608       2 (A') A                  ->    36 (A') A                  
 -0.1608       2 (A') B                  ->    36 (A') B                  
  0.1593       2 (A') A                  ->    24 (A') A                  
  0.1593       2 (A') B                  ->    24 (A') B                  
  0.1261       2 (A') A                  ->    14 (A') A                  
  0.1261       2 (A') B                  ->    14 (A') B                  
  0.1243       2 (A') A                  ->    46 (A') A                  
  0.1243       2 (A') B                  ->    46 (A') B                  
 -0.1033       2 (A') A                  ->    18 (A') A                  
 -0.1033       2 (A') B                  ->    18 (A') B                  
 -0.1014       2 (A') A                  ->    45 (A') A                  
 -0.1014       2 (A') B                  ->    45 (A') B                  

              Summary of significant orbitals:

               Number  Type             Irrep      Energy
               2       Occ  Alpha       2 (A')    -11.3324
               2       Occ  Beta        2 (A')    -11.3324
               17      Vir  Alpha      14 (A')      0.0052
               23      Vir  Alpha      18 (A')      0.0111
               26      Vir  Alpha      20 (A')      0.0137
               32      Vir  Alpha      24 (A')      0.0254
               35      Vir  Alpha      26 (A')      0.0297
               41      Vir  Alpha      30 (A')      0.0513
               44      Vir  Alpha      32 (A')      0.0626
               50      Vir  Alpha      36 (A')      0.1023
               55      Vir  Alpha      39 (A')      0.1359
               63      Vir  Alpha      45 (A')      0.2198
               64      Vir  Alpha      46 (A')      0.2456
               70      Vir  Alpha      50 (A')      0.3333
               17      Vir  Beta       14 (A')      0.0052
               23      Vir  Beta       18 (A')      0.0111
               26      Vir  Beta       20 (A')      0.0137
               32      Vir  Beta       24 (A')      0.0254
               35      Vir  Beta       26 (A')      0.0297
               41      Vir  Beta       30 (A')      0.0513
               44      Vir  Beta       32 (A')      0.0626
               50      Vir  Beta       36 (A')      0.1023
               55      Vir  Beta       39 (A')      0.1359
               63      Vir  Beta       45 (A')      0.2198
               64      Vir  Beta       46 (A')      0.2456
               70      Vir  Beta       50 (A')      0.3333


 EOMEE transition 11/A'
 Total energy = -166.76634677 a.u.  Excitation energy = 290.6754 eV.
 R0^2 = 0.0000  R1^2 = 0.8041  R2_CCVV^2 = 0.0012  R2_COVV^2 = 0.0974  Res^2 = 2.45e-05
 Conv-d = yes

 Amplitude    Transitions between orbitals
 -0.3281       3 (A') A                  ->    22 (A') A                  
 -0.3281       3 (A') B                  ->    22 (A') B                  
  0.2895       3 (A') A                  ->    16 (A') A                  
  0.2895       3 (A') B                  ->    16 (A') B                  
 -0.1687       3 (A') A                  ->    21 (A') A                  
 -0.1687       3 (A') B                  ->    21 (A') B                  
 -0.1623       3 (A') A                  ->    12 (A') A                  
 -0.1623       3 (A') B                  ->    12 (A') B                  
  0.1432       3 (A') A                  ->    15 (A') A                  
  0.1432       3 (A') B                  ->    15 (A') B                  
 -0.1236       3 (A') A                  ->    30 (A') A                  
 -0.1236       3 (A') B                  ->    30 (A') B                  
  0.1110       3 (A') A                  ->    42 (A') A                  
  0.1110       3 (A') B                  ->    42 (A') B                  
 -0.1085       3 (A') A                  ->    28 (A') A                  
 -0.1085       3 (A') B                  ->    28 (A') B                  
  0.1078       3 (A') A                  ->    45 (A') A                  
  0.1078       3 (A') B                  ->    45 (A') B                  
  0.1006       3 (A') A                  ->    18 (A') A                  
  0.1006       3 (A') B                  ->    18 (A') B                  
 -0.1001       3 (A') A                  ->    27 (A') A                  
 -0.1001       3 (A') B                  ->    27 (A') B                  

              Summary of significant orbitals:

               Number  Type             Irrep      Energy
               3       Occ  Alpha       3 (A')    -11.2400
               3       Occ  Beta        3 (A')    -11.2400
               14      Vir  Alpha      12 (A')      0.0035
               18      Vir  Alpha      15 (A')      0.0077
               19      Vir  Alpha      16 (A')      0.0078
               23      Vir  Alpha      18 (A')      0.0111
               27      Vir  Alpha      21 (A')      0.0209
               28      Vir  Alpha      22 (A')      0.0210
               36      Vir  Alpha      27 (A')      0.0436
               37      Vir  Alpha      28 (A')      0.0442
               41      Vir  Alpha      30 (A')      0.0513
               58      Vir  Alpha      42 (A')      0.1655
               63      Vir  Alpha      45 (A')      0.2198
               14      Vir  Beta       12 (A')      0.0035
               18      Vir  Beta       15 (A')      0.0077
               19      Vir  Beta       16 (A')      0.0078
               23      Vir  Beta       18 (A')      0.0111
               27      Vir  Beta       21 (A')      0.0209
               28      Vir  Beta       22 (A')      0.0210
               36      Vir  Beta       27 (A')      0.0436
               37      Vir  Beta       28 (A')      0.0442
               41      Vir  Beta       30 (A')      0.0513
               58      Vir  Beta       42 (A')      0.1655
               63      Vir  Beta       45 (A')      0.2198


 EOMEE transition 12/A'
 Total energy = -166.76162888 a.u.  Excitation energy = 290.8038 eV.
 R0^2 = 0.0000  R1^2 = 0.8052  R2_CCVV^2 = 0.0012  R2_COVV^2 = 0.0968  Res^2 = 1.16e-05
 Conv-d = yes

 Amplitude    Transitions between orbitals
 -0.2606       3 (A') A                  ->    11 (A') A                  
 -0.2606       3 (A') B                  ->    11 (A') B                  
 -0.2453       3 (A') A                  ->    17 (A') A                  
 -0.2453       3 (A') B                  ->    17 (A') B                  
  0.2398       3 (A') A                  ->    23 (A') A                  
  0.2398       3 (A') B                  ->    23 (A') B                  
  0.1752       3 (A') A                  ->    20 (A') A                  
  0.1752       3 (A') B                  ->    20 (A') B                  
  0.1447       3 (A') A                  ->    13 (A') A                  
  0.1447       3 (A') B                  ->    13 (A') B                  
 -0.1364       3 (A') A                  ->    26 (A') A                  
 -0.1364       3 (A') B                  ->    26 (A') B                  
  0.1269       3 (A') A                  ->    21 (A') A                  
  0.1269       3 (A') B                  ->    21 (A') B                  
 -0.1214       3 (A') A                  ->    38 (A') A                  
 -0.1214       3 (A') B                  ->    38 (A') B                  
  0.1041       3 (A') A                  ->    16 (A') A                  
  0.1041       3 (A') B                  ->    16 (A') B                  
 -0.1005       3 (A') A                  ->    25 (A') A                  
 -0.1005       3 (A') B                  ->    25 (A') B                  
 -0.1001       3 (A') A                  ->    50 (A') A                  
 -0.1001       3 (A') B                  ->    50 (A') B                  

              Summary of significant orbitals:

               Number  Type             Irrep      Energy
               3       Occ  Alpha       3 (A')    -11.2400
               3       Occ  Beta        3 (A')    -11.2400
               13      Vir  Alpha      11 (A')      0.0011
               15      Vir  Alpha      13 (A')      0.0036
               19      Vir  Alpha      16 (A')      0.0078
               21      Vir  Alpha      17 (A')      0.0079
               26      Vir  Alpha      20 (A')      0.0137
               27      Vir  Alpha      21 (A')      0.0209
               30      Vir  Alpha      23 (A')      0.0213
               33      Vir  Alpha      25 (A')      0.0263
               35      Vir  Alpha      26 (A')      0.0297
               53      Vir  Alpha      38 (A')      0.1257
               70      Vir  Alpha      50 (A')      0.3333
               13      Vir  Beta       11 (A')      0.0011
               15      Vir  Beta       13 (A')      0.0036
               19      Vir  Beta       16 (A')      0.0078
               21      Vir  Beta       17 (A')      0.0079
               26      Vir  Beta       20 (A')      0.0137
               27      Vir  Beta       21 (A')      0.0209
               30      Vir  Beta       23 (A')      0.0213
               33      Vir  Beta       25 (A')      0.0263
               35      Vir  Beta       26 (A')      0.0297
               53      Vir  Beta       38 (A')      0.1257
               70      Vir  Beta       50 (A')      0.3333


 EOMEE transition 13/A'
 Total energy = -166.75942618 a.u.  Excitation energy = 290.8637 eV.
 R0^2 = 0.0000  R1^2 = 0.8034  R2_CCVV^2 = 0.0012  R2_COVV^2 = 0.0977  Res^2 = 1.88e-05
 Conv-d = yes

 Amplitude    Transitions between orbitals
  0.3261       3 (A') A                  ->    15 (A') A                  
  0.3261       3 (A') B                  ->    15 (A') B                  
 -0.2447       3 (A') A                  ->    17 (A') A                  
 -0.2447       3 (A') B                  ->    17 (A') B                  
 -0.1936       3 (A') A                  ->    21 (A') A                  
 -0.1936       3 (A') B                  ->    21 (A') B                  
  0.1928       3 (A') A                  ->    23 (A') A                  
  0.1928       3 (A') B                  ->    23 (A') B                  
  0.1597       3 (A') A                  ->    33 (A') A                  
  0.1597       3 (A') B                  ->    33 (A') B                  
 -0.1411       3 (A') A                  ->    16 (A') A                  
 -0.1411       3 (A') B                  ->    16 (A') B                  
 -0.1325       3 (A') A                  ->    41 (A') A                  
 -0.1325       3 (A') B                  ->    41 (A') B                  
  0.1167       3 (A') A                  ->    11 (A') A                  
  0.1167       3 (A') B                  ->    11 (A') B                  
  0.1048       3 (A') A                  ->    35 (A') A                  
  0.1048       3 (A') B                  ->    35 (A') B                  

              Summary of significant orbitals:

               Number  Type             Irrep      Energy
               3       Occ  Alpha       3 (A')    -11.2400
               3       Occ  Beta        3 (A')    -11.2400
               13      Vir  Alpha      11 (A')      0.0011
               18      Vir  Alpha      15 (A')      0.0077
               19      Vir  Alpha      16 (A')      0.0078
               21      Vir  Alpha      17 (A')      0.0079
               27      Vir  Alpha      21 (A')      0.0209
               30      Vir  Alpha      23 (A')      0.0213
               46      Vir  Alpha      33 (A')      0.0841
               48      Vir  Alpha      35 (A')      0.0874
               57      Vir  Alpha      41 (A')      0.1604
               13      Vir  Beta       11 (A')      0.0011
               18      Vir  Beta       15 (A')      0.0077
               19      Vir  Beta       16 (A')      0.0078
               21      Vir  Beta       17 (A')      0.0079
               27      Vir  Beta       21 (A')      0.0209
               30      Vir  Beta       23 (A')      0.0213
               46      Vir  Beta       33 (A')      0.0841
[...]
   B->A: 0.019975 (X -0.007614, Y 0.018467, Z 0.000000)
 Oscillator strength (a.u.): 0.003087
 Norm of one-particle transition density matrix:
   A->B: 0.895389;   B->A: 0.857005
   ||gamma^AB||*||gamma^BA||: 0.767353

 ------------------------------------------------------------------------------
 State A: ccsd: 0/A'
 State B: cvs_eomee_ccsd/rhfref/singlets: 27/A'
 Transition dipole moment (a.u.):
   A->B: 0.010953 (X -0.010883, Y 0.001241, Z 0.000000)
   B->A: 0.010650 (X -0.010598, Y 0.001056, Z 0.000000)
 Oscillator strength (a.u.): 0.000833
 Norm of one-particle transition density matrix:
   A->B: 0.900676;   B->A: 0.861403
   ||gamma^AB||*||gamma^BA||: 0.775846

 ------------------------------------------------------------------------------
 State A: ccsd: 0/A'
 State B: cvs_eomee_ccsd/rhfref/singlets: 28/A'
 Transition dipole moment (a.u.):
   A->B: 0.011899 (X -0.004417, Y -0.011049, Z 0.000000)
   B->A: 0.011678 (X -0.004430, Y -0.010805, Z 0.000000)
 Oscillator strength (a.u.): 0.000993
 Norm of one-particle transition density matrix:
   A->B: 0.900612;   B->A: 0.861103
   ||gamma^AB||*||gamma^BA||: 0.775520

 ------------------------------------------------------------------------------
 State A: ccsd: 0/A'
 State B: cvs_eomee_ccsd/rhfref/singlets: 29/A'
 Transition dipole moment (a.u.):
   A->B: 0.008861 (X -0.002443, Y 0.008518, Z 0.000000)
   B->A: 0.008620 (X -0.002330, Y 0.008299, Z 0.000000)
 Oscillator strength (a.u.): 0.000546
 Norm of one-particle transition density matrix:
   A->B: 0.900008;   B->A: 0.860871
   ||gamma^AB||*||gamma^BA||: 0.774791

 ------------------------------------------------------------------------------
 State A: ccsd: 0/A'
 State B: cvs_eomee_ccsd/rhfref/singlets: 30/A'
 Transition dipole moment (a.u.):
   A->B: 0.012354 (X 0.006306, Y -0.010623, Z 0.000000)
   B->A: 0.011904 (X 0.006083, Y -0.010232, Z 0.000000)
 Oscillator strength (a.u.): 0.001052
 Norm of one-particle transition density matrix:
   A->B: 0.900646;   B->A: 0.861037
   ||gamma^AB||*||gamma^BA||: 0.775489

 ------------------------------------------------------------------------------
 State A: ccsd: 0/A'
 State B: cvs_eomee_ccsd/rhfref/singlets: 1/A"
 Transition dipole moment (a.u.):
   A->B: 0.080006 (X 0.000000, Y 0.000000, Z 0.080006)
   B->A: 0.081769 (X 0.000000, Y 0.000000, Z 0.081769)
 Oscillator strength (a.u.): 0.045823
 Norm of one-particle transition density matrix:
   A->B: 0.884250;   B->A: 0.887421
   ||gamma^AB||*||gamma^BA||: 0.784701

 ------------------------------------------------------------------------------
 State A: ccsd: 0/A'
 State B: cvs_eomee_ccsd/rhfref/singlets: 2/A"
 Transition dipole moment (a.u.):
   A->B: 0.090701 (X 0.000000, Y 0.000000, Z -0.090701)
   B->A: 0.092007 (X 0.000000, Y 0.000000, Z -0.092007)
 Oscillator strength (a.u.): 0.058889
 Norm of one-particle transition density matrix:
   A->B: 0.886872;   B->A: 0.890735
   ||gamma^AB||*||gamma^BA||: 0.789968

 ------------------------------------------------------------------------------
 State A: ccsd: 0/A'
 State B: cvs_eomee_ccsd/rhfref/singlets: 3/A"
 Transition dipole moment (a.u.):
   A->B: 0.023862 (X 0.000000, Y 0.000000, Z 0.023862)
   B->A: 0.024293 (X 0.000000, Y 0.000000, Z 0.024293)
 Oscillator strength (a.u.): 0.004109
 Norm of one-particle transition density matrix:
   A->B: 0.901631;   B->A: 0.864252
   ||gamma^AB||*||gamma^BA||: 0.779236

 ------------------------------------------------------------------------------
 State A: ccsd: 0/A'
 State B: cvs_eomee_ccsd/rhfref/singlets: 4/A"
 Transition dipole moment (a.u.):
   A->B: 0.009908 (X 0.000000, Y 0.000000, Z 0.009908)
   B->A: 0.009688 (X 0.000000, Y 0.000000, Z 0.009688)
 Oscillator strength (a.u.): 0.000683
 Norm of one-particle transition density matrix:
   A->B: 0.900402;   B->A: 0.860483
   ||gamma^AB||*||gamma^BA||: 0.774781

 ------------------------------------------------------------------------------
 State A: ccsd: 0/A'
 State B: cvs_eomee_ccsd/rhfref/singlets: 5/A"
 Transition dipole moment (a.u.):
   A->B: 0.006948 (X 0.000000, Y 0.000000, Z 0.006948)
   B->A: 0.006803 (X 0.000000, Y 0.000000, Z 0.006803)
 Oscillator strength (a.u.): 0.000336
 Norm of one-particle transition density matrix:
   A->B: 0.900225;   B->A: 0.860073
   ||gamma^AB||*||gamma^BA||: 0.774259

 ------------------------------------------------------------------------------
 State A: ccsd: 0/A'
 State B: cvs_eomee_ccsd/rhfref/singlets: 6/A"
 Transition dipole moment (a.u.):
   A->B: 0.013319 (X 0.000000, Y 0.000000, Z 0.013319)
   B->A: 0.013484 (X 0.000000, Y 0.000000, Z 0.013484)
 Oscillator strength (a.u.): 0.001279
 Norm of one-particle transition density matrix:
   A->B: 0.900898;   B->A: 0.861580
   ||gamma^AB||*||gamma^BA||: 0.776196

 ------------------------------------------------------------------------------
 State A: ccsd: 0/A'
 State B: cvs_eomee_ccsd/rhfref/singlets: 7/A"
 Transition dipole moment (a.u.):
   A->B: 0.006283 (X 0.000000, Y 0.000000, Z 0.006283)
   B->A: 0.006117 (X 0.000000, Y 0.000000, Z 0.006117)
 Oscillator strength (a.u.): 0.000274
 Norm of one-particle transition density matrix:
   A->B: 0.900519;   B->A: 0.860393
   ||gamma^AB||*||gamma^BA||: 0.774800

 ------------------------------------------------------------------------------
 State A: ccsd: 0/A'
 State B: cvs_eomee_ccsd/rhfref/singlets: 8/A"
 Transition dipole moment (a.u.):
   A->B: 0.005309 (X 0.000000, Y 0.000000, Z 0.005309)
   B->A: 0.005186 (X 0.000000, Y 0.000000, Z 0.005186)
 Oscillator strength (a.u.): 0.000196
 Norm of one-particle transition density matrix:
   A->B: 0.900425;   B->A: 0.860250
   ||gamma^AB||*||gamma^BA||: 0.774591

 ------------------------------------------------------------------------------
 State A: ccsd: 0/A'
 State B: cvs_eomee_ccsd/rhfref/singlets: 9/A"
 Transition dipole moment (a.u.):
   A->B: 0.009002 (X 0.000000, Y 0.000000, Z -0.009002)
   B->A: 0.009098 (X 0.000000, Y 0.000000, Z -0.009098)
 Oscillator strength (a.u.): 0.000584
 Norm of one-particle transition density matrix:
   A->B: 0.900664;   B->A: 0.860893
   ||gamma^AB||*||gamma^BA||: 0.775376

 ------------------------------------------------------------------------------
 State A: ccsd: 0/A'
 State B: cvs_eomee_ccsd/rhfref/singlets: 10/A"
 Transition dipole moment (a.u.):
   A->B: 0.004865 (X 0.000000, Y 0.000000, Z -0.004865)
   B->A: 0.004736 (X 0.000000, Y 0.000000, Z -0.004736)
 Oscillator strength (a.u.): 0.000164
 Norm of one-particle transition density matrix:
   A->B: 0.900553;   B->A: 0.860384
   ||gamma^AB||*||gamma^BA||: 0.774822

 ------------------------------------------------------------------------------
 State A: ccsd: 0/A'
 State B: cvs_eomee_ccsd/rhfref/singlets: 11/A"
 Transition dipole moment (a.u.):
   A->B: 0.009742 (X 0.000000, Y 0.000000, Z -0.009742)
   B->A: 0.009677 (X 0.000000, Y 0.000000, Z -0.009677)
 Oscillator strength (a.u.): 0.000673
 Norm of one-particle transition density matrix:
   A->B: 0.900576;   B->A: 0.860824
   ||gamma^AB||*||gamma^BA||: 0.775238

 ------------------------------------------------------------------------------
 State A: ccsd: 0/A'
 State B: cvs_eomee_ccsd/rhfref/singlets: 12/A"
 Transition dipole moment (a.u.):
   A->B: 0.006568 (X 0.000000, Y 0.000000, Z 0.006568)
   B->A: 0.006933 (X 0.000000, Y 0.000000, Z 0.006933)
 Oscillator strength (a.u.): 0.000325
 Norm of one-particle transition density matrix:
   A->B: 0.900419;   B->A: 0.860823
   ||gamma^AB||*||gamma^BA||: 0.775102

 ------------------------------------------------------------------------------
 State A: ccsd: 0/A'
 State B: cvs_eomee_ccsd/rhfref/singlets: 13/A"
 Transition dipole moment (a.u.):
   A->B: 0.019573 (X 0.000000, Y 0.000000, Z 0.019573)
   B->A: 0.019245 (X 0.000000, Y 0.000000, Z 0.019245)
 Oscillator strength (a.u.): 0.002694
 Norm of one-particle transition density matrix:
   A->B: 0.901401;   B->A: 0.862175
   ||gamma^AB||*||gamma^BA||: 0.777165


 All requested transition properties have been computed

 Transition Properties:   CPU 153.22 s  wall 32.47 s

 Total ccman2 time:   CPU 18003.80 s  wall 3574.50 s

  0.083   0.084   0.085   0.087   0.089   0.102   0.109   0.112
 13 A"   33 A'   34 A'   35 A'   14 A"   36 A'   37 A'   15 A"                 
  0.126   0.136   0.136   0.145   0.160   0.166   0.172   0.175
 38 A'   16 A"   39 A'   40 A'   41 A'   42 A'   43 A'   17 A"                 
  0.177   0.179   0.220   0.246   0.256   0.261   0.269   0.284
 18 A"   44 A'   45 A'   46 A'   19 A"   47 A'   20 A"   48 A'                 
  0.295   0.333   0.351   0.395   0.453   0.483   0.491   0.511
 49 A'   50 A'   51 A'   52 A'   53 A'   21 A"   54 A'   55 A'                 
  0.540   0.614   0.683   0.706   0.771   0.816   0.837   0.883
 56 A'   57 A'   58 A'   59 A'   60 A'   22 A"   23 A"   61 A'                 
  0.938   0.949   0.994   1.037   1.098   1.257   1.312   1.481
 62 A'   63 A'   64 A'   65 A'   66 A'   24 A"   25 A"   26 A"                 
  1.602   1.661   1.695   1.724   1.749   1.840   1.860   1.913
 67 A'   68 A'   69 A'   27 A"   70 A'   71 A'   72 A'   28 A"                 
  1.960   2.032   2.172   2.286   2.316   2.369   2.402   2.460
 73 A'   29 A"   74 A'   75 A'   30 A"   76 A'   31 A"   77 A'                 
  2.587   2.797   2.877   2.935   3.041   3.061   3.137   3.286
 78 A'   79 A'   80 A'   81 A'   82 A'   83 A'   32 A"   33 A"                 
  3.383   3.598   3.895   4.148   4.225   4.251   4.436   4.444
 84 A'   85 A'   86 A'   87 A'   34 A"   88 A'   89 A'   35 A"                 
  4.591   5.330   6.981   7.029   7.342  24.846  25.411  68.776
 90 A'   91 A'   36 A"   92 A'   93 A'   94 A'   95 A'   96 A'                 

 Beta MOs, Restricted
 -- Occupied --                  
-26.310 -11.332 -11.240  -1.628  -1.055  -0.840  -0.740  -0.690
  1 A'    2 A'    3 A'    4 A'    5 A'    6 A'    7 A'    1 A"                 
 -0.686  -0.591  -0.562  -0.386
  8 A'    9 A'   10 A'    2 A"                                                 
 -- Virtual --                   
  0.001   0.003   0.004   0.004   0.005   0.008   0.008   0.008
 11 A'   12 A'   13 A'    3 A"   14 A'   15 A'   16 A'    4 A"                 
  0.008   0.008   0.011   0.011   0.012   0.014   0.021   0.021
 17 A'    5 A"   18 A'   19 A'    6 A"   20 A'   21 A'   22 A'                 
  0.021   0.021   0.021   0.025   0.026   0.027   0.030   0.044
  7 A"   23 A'    8 A"   24 A'   25 A'    9 A"   26 A'   27 A'                 
  0.044   0.044   0.045   0.045   0.051   0.055   0.055   0.063
 28 A'   10 A"   29 A'   11 A"   30 A'   12 A"   31 A'   32 A'                 
  0.083   0.084   0.085   0.087   0.089   0.102   0.109   0.112
 13 A"   33 A'   34 A'   35 A'   14 A"   36 A'   37 A'   15 A"                 
  0.126   0.136   0.136   0.145   0.160   0.166   0.172   0.175
 38 A'   16 A"   39 A'   40 A'   41 A'   42 A'   43 A'   17 A"                 
  0.177   0.179   0.220   0.246   0.256   0.261   0.269   0.284
 18 A"   44 A'   45 A'   46 A'   19 A"   47 A'   20 A"   48 A'                 
  0.295   0.333   0.351   0.395   0.453   0.483   0.491   0.511
 49 A'   50 A'   51 A'   52 A'   53 A'   21 A"   54 A'   55 A'                 
  0.540   0.614   0.683   0.706   0.771   0.816   0.837   0.883
 56 A'   57 A'   58 A'   59 A'   60 A'   22 A"   23 A"   61 A'                 
  0.938   0.949   0.994   1.037   1.098   1.257   1.312   1.481
 62 A'   63 A'   64 A'   65 A'   66 A'   24 A"   25 A"   26 A"                 
  1.602   1.661   1.695   1.724   1.749   1.840   1.860   1.913
 67 A'   68 A'   69 A'   27 A"   70 A'   71 A'   72 A'   28 A"                 
  1.960   2.032   2.172   2.286   2.316   2.369   2.402   2.460
 73 A'   29 A"   74 A'   75 A'   30 A"   76 A'   31 A"   77 A'                 
  2.587   2.797   2.877   2.935   3.041   3.061   3.137   3.286
 78 A'   79 A'   80 A'   81 A'   82 A'   83 A'   32 A"   33 A"                 
  3.383   3.598   3.895   4.148   4.225   4.251   4.436   4.444
 84 A'   85 A'   86 A'   87 A'   34 A"   88 A'   89 A'   35 A"                 
  4.591   5.330   6.981   7.029   7.342  24.846  25.411  68.776
 90 A'   91 A'   36 A"   92 A'   93 A'   94 A'   95 A'   96 A'                 

 --------------------------------------------------------------
             Orbital Energies (a.u.) and Symmetries
 --------------------------------------------------------------

 Alpha MOs, Restricted
 -- Occupied --                  
-26.310 -11.332 -11.240  -1.628  -1.055  -0.840  -0.740  -0.690
  1 A'    2 A'    3 A'    4 A'    5 A'    6 A'    7 A'    1 A"                 
 -0.686  -0.591  -0.562  -0.386
  8 A'    9 A'   10 A'    2 A"                                                 
 -- Virtual --                   
  0.001   0.003   0.004   0.004   0.005   0.008   0.008   0.008
 11 A'   12 A'   13 A'    3 A"   14 A'   15 A'   16 A'    4 A"                 
  0.008   0.008   0.011   0.011   0.012   0.014   0.021   0.021
 17 A'    5 A"   18 A'   19 A'    6 A"   20 A'   21 A'   22 A'                 
  0.021   0.021   0.021   0.025   0.026   0.027   0.030   0.044
  7 A"   23 A'    8 A"   24 A'   25 A'    9 A"   26 A'   27 A'                 
  0.044   0.044   0.045   0.045   0.051   0.055   0.055   0.063
 28 A'   10 A"   29 A'   11 A"   30 A'   12 A"   31 A'   32 A'                 
  0.083   0.084   0.085   0.087   0.089   0.102   0.109   0.112
 13 A"   33 A'   34 A'   35 A'   14 A"   36 A'   37 A'   15 A"                 
  0.126   0.136   0.136   0.145   0.160   0.166   0.172   0.175
 38 A'   16 A"   39 A'   40 A'   41 A'   42 A'   43 A'   17 A"                 
  0.177   0.179   0.220   0.246   0.256   0.261   0.269   0.284
 18 A"   44 A'   45 A'   46 A'   19 A"   47 A'   20 A"   48 A'                 
  0.295   0.333   0.351   0.395   0.453   0.483   0.491   0.511
 49 A'   50 A'   51 A'   52 A'   53 A'   21 A"   54 A'   55 A'                 
  0.540   0.614   0.683   0.706   0.771   0.816   0.837   0.883
 56 A'   57 A'   58 A'   59 A'   60 A'   22 A"   23 A"   61 A'                 
  0.938   0.949   0.994   1.037   1.098   1.257   1.312   1.481
 62 A'   63 A'   64 A'   65 A'   66 A'   24 A"   25 A"   26 A"                 
  1.602   1.661   1.695   1.724   1.749   1.840   1.860   1.913
 67 A'   68 A'   69 A'   27 A"   70 A'   71 A'   72 A'   28 A"                 
  1.960   2.032   2.172   2.286   2.316   2.369   2.402   2.460
 73 A'   29 A"   74 A'   75 A'   30 A"   76 A'   31 A"   77 A'                 
  2.587   2.797   2.877   2.935   3.041   3.061   3.137   3.286
 78 A'   79 A'   80 A'   81 A'   82 A'   83 A'   32 A"   33 A"                 
  3.383   3.598   3.895   4.148   4.225   4.251   4.436   4.444
 84 A'   85 A'   86 A'   87 A'   34 A"   88 A'   89 A'   35 A"                 
  4.591   5.330   6.981   7.029   7.342  24.846  25.411  68.776
 90 A'   91 A'   36 A"   92 A'   93 A'   94 A'   95 A'   96 A'                 

 Beta MOs, Restricted
 -- Occupied --                  
-26.310 -11.332 -11.240  -1.628  -1.055  -0.840  -0.740  -0.690
  1 A'    2 A'    3 A'    4 A'    5 A'    6 A'    7 A'    1 A"                 
 -0.686  -0.591  -0.562  -0.386
  8 A'    9 A'   10 A'    2 A"                                                 
 -- Virtual --                   
  0.001   0.003   0.004   0.004   0.005   0.008   0.008   0.008
 11 A'   12 A'   13 A'    3 A"   14 A'   15 A'   16 A'    4 A"                 
  0.008   0.008   0.011   0.011   0.012   0.014   0.021   0.021
 17 A'    5 A"   18 A'   19 A'    6 A"   20 A'   21 A'   22 A'                 
  0.021   0.021   0.021   0.025   0.026   0.027   0.030   0.044
  7 A"   23 A'    8 A"   24 A'   25 A'    9 A"   26 A'   27 A'                 
  0.044   0.044   0.045   0.045   0.051   0.055   0.055   0.063
 28 A'   10 A"   29 A'   11 A"   30 A'   12 A"   31 A'   32 A'                 
  0.083   0.084   0.085   0.087   0.089   0.102   0.109   0.112
 13 A"   33 A'   34 A'   35 A'   14 A"   36 A'   37 A'   15 A"                 
  0.126   0.136   0.136   0.145   0.160   0.166   0.172   0.175
 38 A'   16 A"   39 A'   40 A'   41 A'   42 A'   43 A'   17 A"                 
  0.177   0.179   0.220   0.246   0.256   0.261   0.269   0.284
 18 A"   44 A'   45 A'   46 A'   19 A"   47 A'   20 A"   48 A'                 
  0.295   0.333   0.351   0.395   0.453   0.483   0.491   0.511
 49 A'   50 A'   51 A'   52 A'   53 A'   21 A"   54 A'   55 A'                 
Archival summary:
1\1\n-62-23-8\SP\ProcedureUnspecified\BasisUnspecified\123h1\malop\WedDec1916:35:532018WedDec1916:35:532018\0\\#,ProcedureUnspecified,BasisUnspecified,\\0,1\C\Gh,1,0.435868\H,1,1.08083,2,170.664\F,2,1.17461,1,103.178,3,0,0\C,2,1.19615,1,97.4666,3,-180,0\H,5,1.07898,2,137.975,1,-0,0\H,5,1.08006,2,102.344,1,180,0\\HF=-176.937001\\@

 Total job time:  3627.61s(wall), 18117.89s(cpu) 
 Wed Dec 19 16:35:53 2018

        *************************************************************
        *                                                           *
        *  Thank you very much for using Q-Chem.  Have a nice day.  *
        *                                                           *
        *************************************************************


  0.540   0.614   0.683   0.706   0.771   0.816   0.837   0.883
 56 A'   57 A'   58 A'   59 A'   60 A'   22 A"   23 A"   61 A'                 
  0.938   0.949   0.994   1.037   1.098   1.257   1.312   1.481
 62 A'   63 A'   64 A'   65 A'   66 A'   24 A"   25 A"   26 A"                 
  1.602   1.661   1.695   1.724   1.749   1.840   1.860   1.913
 67 A'   68 A'   69 A'   27 A"   70 A'   71 A'   72 A'   28 A"                 
  1.960   2.032   2.172   2.286   2.316   2.369   2.402   2.460
 73 A'   29 A"   74 A'   75 A'   30 A"   76 A'   31 A"   77 A'                 
  2.587   2.797   2.877   2.935   3.041   3.061   3.137   3.286
 78 A'   79 A'   80 A'   81 A'   82 A'   83 A'   32 A"   33 A"                 
  3.383   3.598   3.895   4.148   4.225   4.251   4.436   4.444
 84 A'   85 A'   86 A'   87 A'   34 A"   88 A'   89 A'   35 A"                 
  4.591   5.330   6.981   7.029   7.342  24.846  25.411  68.776
 90 A'   91 A'   36 A"   92 A'   93 A'   94 A'   95 A'   96 A'                 
 --------------------------------------------------------------

          Ground-State Mulliken Net Atomic Charges

     Atom                 Charge (a.u.)
  ----------------------------------------
      1 C                    -0.245028
      2 GH                    0.027262
      3 F                    -0.123103
      4 C                    -0.019896
      5 H                     0.148834
      6 H                     0.111171
      7 H                     0.100761
  ----------------------------------------
  Sum of atomic charges =    -0.000000

 -----------------------------------------------------------------
                    Cartesian Multipole Moments
 -----------------------------------------------------------------
    Charge (ESU x 10^10)
                -0.0000
    Dipole Moment (Debye)
         X       1.4873      Y      -0.9279      Z      -0.0000
       Tot       1.7530
    Quadrupole Moments (Debye-Ang)
        XX     -18.0200     XY       0.9639     YY     -15.3308
        XZ       0.0000     YZ       0.0000     ZZ     -19.4790
    Octopole Moments (Debye-Ang^2)
       XXX      -3.3932    XXY      -0.3848    XYY      -2.1723
       YYY       0.4720    XXZ      -0.0000    XYZ       0.0000
       YYZ      -0.0000    XZZ      -5.0030    YZZ       0.7012
       ZZZ      -0.0000
    Hexadecapole Moments (Debye-Ang^3)
      XXXX    -121.0948   XXXY      -3.6510   XXYY     -26.6324
      XYYY       0.7415   YYYY     -36.0508   XXXZ       0.0000
      XXYZ       0.0000   XYYZ      -0.0000   YYYZ       0.0000
      XXZZ     -27.2041   XYZZ      -0.3800   YYZZ     -11.5549
      XZZZ       0.0000   YZZZ       0.0000   ZZZZ     -23.8792
 -----------------------------------------------------------------
