Q-Chem Developer Version!
                  Welcome to Q-Chem
     A Quantum Leap Into The Future Of Chemistry


 Q-Chem 5.1, Q-Chem, Inc., Pleasanton, CA (2018)

 Yihan Shao,  Zhengting Gan,  E. Epifanovsky,  A. T. B. Gilbert,  M. Wormit,  
 J. Kussmann,  A. W. Lange,  A. Behn,  Jia Deng,  Xintian Feng,  D. Ghosh,  
 M. Goldey,  P. R. Horn,  L. D. Jacobson,  I. Kaliman,  T. Kus,  A. Landau,  
 Jie Liu,  E. I. Proynov,  R. M. Richard,  R. P. Steele,  E. J. Sundstrom,  
 H. L. Woodcock III,  P. M. Zimmerman,  D. Zuev,  B. Albrecht,  E. Alguire,  
 S. A. Baeppler,  D. Barton,  Z. Benda,  Y. A. Bernard,  E. J. Berquist,  
 K. B. Bravaya,  H. Burton,  D. Casanova,  Chun-Min Chang,  Yunqing Chen,  
 A. Chien,  K. D. Closser,  M. P. Coons,  S. Coriani,  S. Dasgupta,  
 A. L. Dempwolff,  M. Diedenhofen,  Hainam Do,  R. G. Edgar,  Po-Tung Fang,  
 S. Faraji,  S. Fatehi,  Qingguo Feng,  K. D. Fenk,  J. Fosso-Tande,  
 Qinghui Ge,  A. Ghysels,  G. Gidofalvi,  J. Gomes,  J. Gonthier,  A. Gunina,  
 D. Hait,  M. W. D. Hanson-Heine,  P. H. P. Harbach,  A. W. Hauser,  
 J. E. Herr,  E. G. Hohenstein,  Z. C. Holden,  Kerwin Hui,  B. C. Huynh,  
 T.-C. Jagau,  Hyunjun Ji,  B. Kaduk,  K. Khistyaev,  Jaehoon Kim,  
 P. Klunzinger,  K. Koh,  D. Kosenkov,  L. Koulias,  T. Kowalczyk,  
 C. M. Krauter,  A. Kunitsa,  Ka Un Lao,  A. Laurent,  K. V. Lawler,  
 Joonho Lee,  D. Lefrancois,  S. Lehtola,  D. S. Levine,  Yi-Pei Li,  
 You-Sheng Lin,  Fenglai Liu,  E. Livshits,  A. Luenser,  P. Manohar,  
 E. Mansoor,  S. F. Manzer,  Shan-Ping Mao,  Yuezhi Mao,  N. Mardirossian,  
 A. V. Marenich,  T. Markovich,  L. A. Martinez-Martinez,  S. A. Maurer,  
 N. J. Mayhall,  S. C. McKenzie,  J.-M. Mewes,  A. F. Morrison,  
 J. W. Mullinax,  K. Nanda,  T. S. Nguyen-Beck,  R. Olivares-Amaya,  
 J. A. Parkhill,  T. M. Perrine,  F. Plasser,  P. Pokhilko,  S. Prager,  
 A. Prociuk,  E. Ramos,  D. R. Rehn,  F. Rob,  M. Schneider,  N. Sergueev,  
 S. M. Sharada,  S. Sharma,  D. W. Small,  T. Stauch,  T. Stein,  
 Yu-Chuan Su,  A. J. W. Thom,  A. Tkatchenko,  T. Tsuchimochi,  N. M. Tubman,  
 L. Vogt,  M. L. Vidal,  O. Vydrov,  M. A. Watson,  J. Wenzel,  
 M. de Wergifosse,  T. A. Wesolowski,  A. White,  J. Witte,  A. Yamada,  
 Jun Yang,  K. Yao,  S. Yeganeh,  S. R. Yost,  Zhi-Qiang You,  A. Zech,  
 Igor Ying Zhang,  Xing Zhang,  Yan Zhao,  Ying Zhu,  B. R. Brooks,  
 G. K. L. Chan,  C. J. Cramer,  M. S. Gordon,  W. J. Hehre,  A. Klamt,  
 M. W. Schmidt,  C. D. Sherrill,  D. G. Truhlar,  A. Aspuru-Guzik,  R. Baer,  
 A. T. Bell,  N. A. Besley,  Jeng-Da Chai,  A. E. DePrince, III,  
 R. A. DiStasio Jr.,  A. Dreuw,  B. D. Dunietz,  T. R. Furlani,  
 Chao-Ping Hsu,  Yousung Jung,  Jing Kong,  D. S. Lambrecht,  WanZhen Liang,  
 C. Ochsenfeld,  V. A. Rassolov,  L. V. Slipchenko,  J. E. Subotnik,  
 T. Van Voorhis,  J. M. Herbert,  A. I. Krylov,  P. M. W. Gill,  M. Head-Gordon

 Contributors to earlier versions of Q-Chem not listed above: 
 R. D. Adamson,  B. Austin,  J. Baker,  G. J. O. Beran,  K. Brandhorst,  
 S. T. Brown,  E. F. C. Byrd,  A. K. Chakraborty,  C.-L. Cheng,  
 Siu Hung Chien,  D. M. Chipman,  D. L. Crittenden,  H. Dachsel,  
 R. J. Doerksen,  A. D. Dutoi,  L. Fusti-Molnar,  W. A. Goddard III,  
 A. Golubeva-Zadorozhnaya,  S. R. Gwaltney,  G. Hawkins,  A. Heyden,  
 S. Hirata,  G. Kedziora,  F. J. Keil,  C. Kelley,  Jihan Kim,  R. A. King,  
 R. Z. Khaliullin,  P. P. Korambath,  W. Kurlancheek,  A. M. Lee,  M. S. Lee,  
 S. V. Levchenko,  Ching Yeh Lin,  D. Liotard,  R. C. Lochan,  I. Lotan,  
 P. E. Maslen,  N. Nair,  D. P. O'Neill,  D. Neuhauser,  E. Neuscamman,  
 C. M. Oana,  R. Olson,  B. Peters,  R. Peverati,  P. A. Pieniazek,  
 Y. M. Rhee,  J. Ritchie,  M. A. Rohrdanz,  E. Rosta,  N. J. Russ,  
 H. F. Schaefer III,  N. E. Schultz,  N. Shenvi,  A. C. Simmonett,  A. Sodt,  
 D. Stuck,  K. S. Thanthiriwatte,  V. Vanovschi,  Tao Wang,  A. Warshel,  
 C. F. Williams,  Q. Wu,  X. Xu,  W. Zhang

 Please cite Q-Chem as follows:
 Y. Shao et al., Mol. Phys. 113, 184-215 (2015)
 DOI: 10.1080/00268976.2014.952696

 Q-Chem 5.1.1 for Intel X86 EM64T Linux

 Parts of Q-Chem use Armadillo 8.300.2 (Tropical Shenanigans).
 http://arma.sourceforge.net/

 Q-Chem begins on Wed Dec 19 15:02:22 2018  


Host: 0

     Scratch files written to /work1/malop/qc_7592473.hnode2//
Input Ideriv = 0
Curr. Ideriv = -1
Max.  Ideriv = 0

Checking the input file for inconsistencies... 	...done.

--------------------------------------------------------------
User input:
--------------------------------------------------------------
$comment 
NEXAFS VINYLFLUORIDE / 6-311++G**
Optimized geometry with CFour
$end

$molecule
0 1
F      -1.1529023119     0.2247766372     0.0000000000
C1      1.1793501171     0.1997294858     0.0000000000
C2      0.0163188564    -0.4355681094     0.0000000000
H      -0.1189530186    -1.5078996853     0.0000000000
H       1.2308254859     1.2785611362     0.0000000000
H       2.0902344982    -0.3786194440     0.0000000000
$end

$rem
!    input_bohr = true
    jobtype = sp
    method = eom-ccsd
    cvs_ee_singlets    [10,10]
    basis = 6-311++G**
    n_frozen_core = fc 
    cc_trans_prop = true
    cc_eom_prop = true
   EOM_DAVIDSON_MAXVECTORS = 1000
   eom_preconv_singles = true
   eom_shift = 10470
   eom_davidson_convergence = 4   !as we discussed, this is good for core
   use_libqints = 1   !use new int library (will be def in trunk)
   thresh = 14   !this already should be default, but just in case
   scf_convergence = 13   !v. tight scf convergence, to reduce noise
   cc_convergence = 12   !tight CC, for the same reason
   basis_lin_dep_thresh = 8  !default is 6, use smaller, just in case
   cc_memory = 100000
   EOM_DAVIDSON_MAX_ITER 200
$end
--------------------------------------------------------------
 Requested basis set is 6-311++G(d,p)
 There are 33 shells and 87 basis functions
MEM_TOTAL is adjusted to CC_MEMORY + MEM_STATIC!
 Total memory of 100192MB is distributed as follows: 
   QALLOC including MEM_STATIC uses 192MB
   MEM_STATIC is set to 192MB
   CCMAN JOB total memory use is  100000MB
 Warning: actual memory use might exceed 100192MB

 Total QAlloc Memory Limit    192 MB
 Mega-Array Size       188 MB
 MEM_STATIC part       192 MB
 Smallest overlap matrix eigenvalue = 1.26E-04

 Scale SEOQF with 1.000000e-01/1.000000e-01/1.000000e-01

 Standard Electronic Orientation quadrupole field applied
 Nucleus-field energy     =     0.0000000014 hartrees
 Guess from superposition of atomic densities
 Warning:  Energy on first SCF cycle will be non-variational
 SAD guess density has 24.000000 electrons

 -----------------------------------------------------------------------
  General SCF calculation program by
  Eric Jon Sundstrom, Paul Horn, Yuezhi Mao, Dmitri Zuev, Alec White,
  David Stuck, Shaama M.S., Shane Yost, Joonho Lee, David Small,
  Daniel Levine, Susi Lehtola, Hugh Burton, Evgeny Epifanovsky
 -----------------------------------------------------------------------
 Hartree-Fock
 A restricted SCF calculation will be
 performed using DIIS
 SCF converges when DIIS error is below 1.0e-13
 ---------------------------------------
  Cycle       Energy         DIIS error
 ---------------------------------------
    1    -177.5071171334      6.50e-02  
    2    -176.8894812042      6.89e-03  
    3    -176.9276658298      3.48e-03  
    4    -176.9358686501      7.40e-04  
    5    -176.9366096205      1.59e-04  
    6    -176.9366534677      6.88e-05  
    7    -176.9366606967      2.33e-05  
    8    -176.9366623994      7.45e-06  
    9    -176.9366625340      1.61e-06  
   10    -176.9366625393      5.78e-07  
   11    -176.9366625401      1.32e-07  
   12    -176.9366625402      2.47e-08  
   13    -176.9366625402      3.54e-09  
   14    -176.9366625402      5.67e-10  
   15    -176.9366625402      1.18e-10  
   16    -176.9366625402      2.50e-11  
   17    -176.9366625402      3.81e-12  
   18    -176.9366625402      5.94e-13  
   19    -176.9366625402      1.31e-13  
   20    -176.9366625402      4.57e-14  Convergence criterion met
 ---------------------------------------
 SCF time:   CPU 18.96s  wall 3.00s 
 SCF   energy in the final basis set =     -176.9366625402
 Total energy in the final basis set =     -176.9366625402


 ------------------------------------------------------------------------------

   CCMAN2: suite of methods based on coupled cluster
           and equation of motion theories.

   Components:
   * libvmm-1.3-trunk
     by Evgeny Epifanovsky, Ilya Kaliman.
   * libtensor-2.5-trunk
     by Evgeny Epifanovsky, Michael Wormit, Dmitry Zuev, Sam Manzer, 
        Ilya Kaliman.
   * libcc-2.5-trunk
     by Evgeny Epifanovsky, Arik Landau, Tomasz Kus, Kirill Khistyaev, 
        Dmitry Zuev, Prashant Manohar, Xintian Feng, Anna Krylov, 
        Matthew Goldey, Alec White, Thomas Jagau, Kaushik Nanda, 
        Anastasia Gunina, Alexander Kunitsa, Joonho Lee.

   CCMAN original authors:
   Anna I. Krylov, C. David Sherrill, Steven R. Gwaltney,
   Edward F. C. Byrd (2000)
   Sergey V. Levchenko, Lyudmila V. Slipchenko, Tao Wang,
   Ana-Maria C. Cristian (2003)
   Piotr A. Pieniazek, C. Melania Oana, Evgeny Epifanovsky (2007)
   Prashant Manohar (2009)

 ------------------------------------------------------------------------------


 Allocating and initializing 100000MB of RAM...
 Calculation will run on 10 cores.

 ----------------------------------------------------------------
             Standard Nuclear Orientation (Angstroms)
    I     Atom           X                Y                Z
 ----------------------------------------------------------------
    1      F       1.1529023119     0.2247766372     0.0000000000
    2      C      -1.1793501171     0.1997294858     0.0000000000
    3      C      -0.0163188564    -0.4355681094    -0.0000000000
    4      H       0.1189530185    -1.5078996853    -0.0000000000
    5      H      -1.2308254859     1.2785611362     0.0000000000
    6      H      -2.0902344982    -0.3786194440    -0.0000000000
 ----------------------------------------------------------------
 Molecular Point Group                 Cs    NOp =  2
 Largest Abelian Subgroup              Cs    NOp =  2
 Nuclear Repulsion Energy =    67.5482146698 hartrees
 There are       12 alpha and       12 beta electrons

                       Distance Matrix (Angstroms)
             F (  1)   C (  2)   C (  3)   H (  4)   H (  5)
   C (  2)  2.332387
   C (  3)  1.342808  1.325234
   H (  4)  2.017726  2.145131  1.080830
   H (  5)  2.606266  1.080059  2.100777  3.096170
   H (  6)  3.298791  1.078980  2.074697  2.481085  1.866770

 A cutoff of  1.0D-14 yielded    559 shell pairs
 There are      3934 function pairs (      4216 Cartesian)

 -------------------------------------------------------
 OpenMP Integral Computing Module                       
 Release: version 1.0, May 2013, Q-Chem Inc. Pittsburgh 
 -------------------------------------------------------
 Integral Job Info:
 Integral job number is                      11
 Integral operator is                         1
 short-range coefficients                     0
 long-range coefficients              100000000
 Omega coefficients                           0
 if combine SR and LR in K                    0
 Integral screening is                        0
 Integral computing path is                   2
 max size of driver memory is            800000
 size of driver memory is                593474
 size of scratch memory is              2361544
 max col of scratch BK array               1296
 max len of scratch array in speh3          155
 max len of scratch index in speh4           18
 max int batch size is                      520
 min int batch size is                       52
 fixed nKL is                                52
 max L of basis functions is                  2
 order of int derivative is                   0
 number of shells is                         33
 number of basis is                          90
 number of cartesian basis is                90
 number of contracted shell pairs           559
 number of primitive shell pairs           1601
 maxK2 (contraction) of shell pair           36
 max number of K2 of shell pair               1
 max number of CS2 of shell pair             82
 max number of PS2 of shell pair            174
 mem total for path MDJ                  511554
 -------------------------------------------------------

 Alpha MOs, Restricted
 -- Occupied --                  
-26.310 -11.332 -11.240  -1.629  -1.055  -0.840  -0.740  -0.691
  1 A'    2 A'    3 A'    4 A'    5 A'    6 A'    7 A'    1 A"                 
 -0.686  -0.591  -0.562  -0.386
  8 A'    9 A'   10 A'    2 A"                                                 
 -- Virtual --                   
  0.046   0.059   0.067   0.109   0.121   0.122   0.139   0.175
 11 A'   12 A'   13 A'    3 A"   14 A'    4 A"   15 A'   16 A'                 
  0.180   0.205   0.214   0.216   0.267   0.287   0.325   0.376
 17 A'   18 A'    5 A"   19 A'   20 A'   21 A'   22 A'    6 A"                 
  0.378   0.455   0.475   0.501   0.547   0.636   0.647   0.700
 23 A'   24 A'   25 A'   26 A'   27 A'   28 A'   29 A'   30 A'                 
  0.702   0.784   0.839   0.902   0.916   0.946   1.010   1.083
  7 A"    8 A"   31 A'   32 A'   33 A'   34 A'   35 A'   36 A'                 
  1.250   1.311   1.457   1.569   1.644   1.660   1.670   1.733
  9 A"   10 A"   11 A"   37 A'   38 A'   39 A'   12 A"   40 A'                 

 Occupation and symmetry of molecular orbitals

 Point group: Cs (2 irreducible representations).

                           A'   A"    All 
 ------------------------------------------
 All molecular orbitals:
  - Alpha                  66   21    87  
  - Beta                   66   21    87  
 ------------------------------------------
 Alpha orbitals:
  - Frozen occupied        3    0     3   
  - Active occupied        7    2     9   
  - Active virtual         56   19    75  
  - Frozen virtual         0    0     0   
 ------------------------------------------
 Beta orbitals:
  - Frozen occupied        3    0     3   
  - Active occupied        7    2     9   
  - Active virtual         56   19    75  
  - Frozen virtual         0    0     0   
 ------------------------------------------

 Import integrals:   CPU 0.00 s  wall 0.00 s

 Import integrals:   CPU 7.25 s  wall 1.73 s

 MP2 amplitudes:   CPU 0.23 s  wall 0.16 s

Running a double precision version
           CCSD T amplitudes will be solved using DIIS.

           Start     Size      MaxIter   EConv     TConv     
           3         7         100       1.00e-12  1.00e-11  
 ------------------------------------------------------------------------------
           Energy (a.u.)   Ediff      Tdiff       Comment
 ------------------------------------------------------------------------------
          -177.42527230                           
     1    -177.43121620   5.94e-03   6.17e-01     
     2    -177.44474611   1.35e-02   7.48e-02     
     3    -177.44550138   7.55e-04   2.95e-02     
     4    -177.44700173   1.50e-03   1.07e-02     Switched to DIIS steps.
     5    -177.44758592   5.84e-04   9.17e-03     
     6    -177.44760205   1.61e-05   1.55e-03     
     7    -177.44759692   5.13e-06   6.66e-04     
     8    -177.44759605   8.66e-07   1.06e-04     
     9    -177.44759618   1.25e-07   4.18e-05     
    10    -177.44759618   6.30e-09   1.06e-05     
    11    -177.44759619   9.37e-09   3.50e-06     
    12    -177.44759620   3.97e-09   1.62e-06     
    13    -177.44759619   3.48e-09   5.14e-07     
    14    -177.44759619   9.20e-10   1.69e-07     
    15    -177.44759619   7.56e-11   5.82e-08     
    16    -177.44759619   5.11e-10   2.75e-08     
    17    -177.44759619   7.84e-11   1.08e-08     
    18    -177.44759619   3.98e-11   4.49e-09     
    19    -177.44759619   1.95e-11   1.58e-09     
    20    -177.44759619   3.08e-13   6.00e-10     
    21    -177.44759619   5.44e-13   2.33e-10     
    22    -177.44759619   6.39e-13   9.14e-11     
    23    -177.44759619   1.53e-13   3.79e-11     
    24    -177.44759619   3.33e-13   1.45e-11     
    25    -177.44759619   2.63e-14   6.34e-12     
 ------------------------------------------------------------------------------
          -177.44759619                           CCSD T converged.

End of double precision
 SCF energy                 = -176.93666254
 MP2 energy                 = -177.42527230
 CCSD correlation energy     =   -0.51093365
 CCSD total energy           = -177.44759619

 CCSD  T1^2 = 0.0059  T2^2 = 0.1645  Leading amplitudes:

 Amplitude    Orbitals with energies
 -0.0213       2 (A") A                  ->    7 (A") A                   
              -0.3861                          0.7018                     
 -0.0213       2 (A") B                  ->    7 (A") B                   
              -0.3861                          0.7018                     
 -0.0180       1 (A") A                  ->    3 (A") A                   
              -0.6905                          0.1085                     
 -0.0180       1 (A") B                  ->    3 (A") B                   
              -0.6905                          0.1085                     

 Amplitude    Orbitals with energies
 -0.0807       2 (A") A      2 (A") B    ->    5 (A") A      5 (A") B     
              -0.3861       -0.3861            0.2142        0.2142       
  0.0807       2 (A") A      2 (A") B    ->    5 (A") B      5 (A") A     
              -0.3861       -0.3861            0.2142        0.2142       
  0.0807       2 (A") B      2 (A") A    ->    5 (A") A      5 (A") B     
              -0.3861       -0.3861            0.2142        0.2142       
 -0.0807       2 (A") B      2 (A") A    ->    5 (A") B      5 (A") A     
              -0.3861       -0.3861            0.2142        0.2142       

 Computing CCSD intemediates for later calculations in double precision
 Finished.

Running a double precision version
           CCSD Lambda amplitudes will be solved using DIIS.
           Start     Size      MaxIter   EConv     LConv     
           3         7         100       1.00e-12  1.00e-11  
 ------------------------------------------------------------------------------
            Enorm      Ldiff       Comment
 ------------------------------------------------------------------------------
     1     3.66e-02   2.32e-02     
     2     1.08e-02   4.90e-03     
     3     4.07e-03   7.02e-04     
     4     2.06e-03   6.97e-04     Switched to DIIS steps.
     5     5.06e-04   3.86e-04     
     6     2.22e-04   6.81e-05     
     7     5.93e-05   1.43e-05     
     8     2.41e-05   1.04e-06     
     9     8.80e-06   2.36e-06     
    10     3.30e-06   9.54e-07     
    11     1.23e-06   3.02e-07     
    12     3.50e-07   1.38e-07     
    13     1.34e-07   2.36e-08     
    14     4.88e-08   1.35e-08     
    15     1.76e-08   6.61e-09     
    16     8.11e-09   2.16e-09     
    17     3.31e-09   1.09e-09     
    18     1.49e-09   2.19e-10     
    19     6.02e-10   8.10e-12     
    20     2.54e-10   3.40e-11     
    21     1.18e-10   2.03e-11     
    22     4.23e-11   1.23e-11     
    23     1.66e-11   3.96e-12     
    24     6.85e-12   1.27e-12     
    25     2.32e-12   7.29e-13     
    26     9.99e-13   1.71e-13     
 ------------------------------------------------------------------------------
                                   CCSD Lambda converged.

 CCSD calculation:   CPU 225.17 s  wall 34.11 s

        Solving for CVS-EOMEE-CCSD A' singlet states.

       EOMEE-CCSD-SINGLES right amplitudes will be solved using Davidson.
        Amplitudes will be solved using shifted  algorithm.
     Hard-coded thresholds: 
     LinDepThresh=1.00e-15  NormThresh=1.00e-06  ReorthogonThresh=1.00e-02

      Roots     MaxVec    MaxIter   Precond   Conv      Shift    
      10        1000      200       1         1.00e-04  1.05e+01  
 ------------------------------------------------------------------------------
      Iter ConvRoots NVecs ResNorm Current eigenvalues (eV)
 ------------------------------------------------------------------------------
      0    0      10    3.51e-03   302.1173   303.0503   303.5140   304.4810   304.5322   304.8863   305.1764   305.9387   306.3288   306.5695   
      1    0      20    3.67e-02   301.3962   302.3071   303.2447   303.9162   304.0697   304.2321   304.8379   305.6697   306.0851   306.2849   
      2    0      30    2.00e-03   300.2718   300.5136   302.1479   303.0806   303.3953   303.9353   304.1898   304.8020   304.9760   305.4103   
      3    5      40    1.05e-02   300.2577*  300.4974*  301.5633   303.0748*  303.3671   303.5180   303.9205   304.1834*  304.7959*  304.9561   
      4    8      45    2.96e-03   300.2574*  300.4964*  300.9521   302.7865   303.0747*  303.3724*  303.9194*  304.1832*  304.7958*  304.9544*  
      5    8      47    6.09e-05   300.2574*  300.4961*  300.8742   302.7309   303.0747*  303.3723*  303.9194*  304.1832*  304.7958*  304.9544*  
      6    10     49    1.06e-05   300.2574*  300.4961*  300.8725*  302.7293*  303.0747*  303.3723*  303.9194*  304.1832*  304.7958*  304.9544*  

     Davidson procedure converged

        CVS-EOMEE-CCSD/MP2 right amplitudes will be solved using Davidson.
        Amplitudes will be solved using shifted  algorithm.
     Hard-coded thresholds: 
     LinDepThresh=1.00e-15  NormThresh=1.00e-06  ReorthogonThresh=1.00e-02

      Roots     MaxVec    MaxIter   Precond   Conv      Shift    
      10        1000      200       1         1.00e-04  1.05e+01  
 ------------------------------------------------------------------------------
      Iter ConvRoots NVecs ResNorm Current eigenvalues (eV)
 ------------------------------------------------------------------------------
      0    0      10    1.84e+00   300.2574   300.4961   300.8725   302.7293   303.0747   303.3723   303.9194   304.1832   304.7958   304.9544   
      1    0      20    1.08e+00   297.6893   297.9748   298.5337   300.1871   300.2129   300.5270   301.0815   301.3266   301.9992   302.1303   
      2    0      30    5.90e-02   288.6694   289.3762   290.0056   290.4822   291.0982   291.7057   291.9156   292.5812   292.7067   292.8226   
Found complex roots...
      3    0      40    1.54e-02   288.2376   288.9010   289.5631   289.9980   290.6855   291.1652   291.2464   292.0178   292.0220   292.2313   
      4    0      50    3.39e-03   288.1983   288.8384   289.5326   289.9290   290.6593   290.9182   291.1800   291.7737   291.9236   292.1261   
      5    0      60    2.45e-03   288.1882   288.8195   289.5230   289.9004   290.6501   290.7939   291.1559   291.6409   291.8895   292.0959   
      6    2      70    1.02e-03   288.1853*  288.8126   289.5195*  289.8834   290.6449   290.7196   291.1413   291.5646   291.8677   292.0833   
      7    3      78    6.56e-04   288.1847*  288.8105*  289.5193*  289.8786   290.6426   290.6784   291.1348   291.5235   291.8509   292.0767   
      8    6      85    2.32e-04   288.1846*  288.8100*  289.5191*  289.8780*  290.6418*  290.6663   291.1336*  291.5114   291.8400   292.0729   
      9    6      89    1.89e-04   288.1845*  288.8097*  289.5191*  289.8780*  290.6403*  290.6557   291.1332*  291.5004   291.8324   292.0690   
      10   7      93    1.26e-04   288.1845*  288.8097*  289.5188*  289.8780*  290.6394*  290.6484   291.1331*  291.4929   291.8309   292.0676*  
      11   6      96    1.14e-04   288.1845*  288.8097*  289.5187*  289.8780*  290.6392   290.6471   291.1330*  291.4906   291.8294*  292.0675   
      12   7      100   1.04e-04   288.1845*  288.8097*  289.5183*  289.8777*  290.6376*  290.6448   291.1331*  291.4873   291.8290*  292.0661   
      13   6      103   2.10e-03   288.1845*  288.8097*  289.5181*  289.8777*  290.6359   290.6433*  291.1330*  291.4835   291.8284   291.9602   
Found complex roots...
      14   7      107   7.70e-04   288.1845*  288.8097*  289.5179*  289.8777*  290.6348*  290.6430*  291.1330*  291.4807   291.8066   291.8286   
Found complex roots...
      15   9      110   3.68e-04   288.1845*  288.8097*  289.5178*  289.8777*  290.6343*  290.6428*  291.1330*  291.4797*  291.7178   291.8273*  
Found complex roots...
      16   9      111   1.50e-04   288.1845*  288.8097*  289.5178*  289.8777*  290.6342*  290.6427*  291.1330*  291.4799*  291.6978   291.8273*  
      17   9      112   1.18e-04   288.1845*  288.8097*  289.5178*  289.8777*  290.6341*  290.6427*  291.1330*  291.4795*  291.6872   291.8273*  
      18   9      113   8.79e-05   288.1845*  288.8097*  289.5178*  289.8777*  290.6340*  290.6427*  291.1330*  291.4794*  291.6700   291.8273*  
      19   9      114   5.96e-05   288.1845*  288.8097*  289.5178*  289.8777*  290.6341*  290.6427*  291.1330*  291.4790*  291.6663   291.8273*  
      20   9      115   4.29e-05   288.1845*  288.8097*  289.5178*  289.8777*  290.6341*  290.6427*  291.1330*  291.4788*  291.6630   291.8273*  
      21   10     116   2.97e-05   288.1845*  288.8097*  289.5178*  289.8777*  290.6340*  290.6427*  291.1330*  291.4788*  291.6606*  291.8273*  

     Davidson procedure converged

 EOMEE transition 1/A'
 Total energy = -166.85701025 a.u.  Excitation energy = 288.1845 eV.
 R0^2 = 0.0000  R1^2 = 0.8145  R2_CCVV^2 = 0.0012  R2_COVV^2 = 0.0921  Res^2 = 7.47e-06
 Conv-d = yes

 Amplitude    Transitions between orbitals
 -0.5416       3 (A') A                  ->    11 (A') A                  
 -0.5416       3 (A') B                  ->    11 (A') B                  
  0.2125       3 (A') A                  ->    20 (A') A                  
  0.2125       3 (A') B                  ->    20 (A') B                  
  0.1792       3 (A') A                  ->    12 (A') A                  
  0.1792       3 (A') B                  ->    12 (A') B                  
 -0.1008       3 (A') A                  ->    17 (A') A                  
 -0.1008       3 (A') B                  ->    17 (A') B                  

              Summary of significant orbitals:

               Number  Type             Irrep      Energy
               3       Occ  Alpha       3 (A')    -11.2400
               3       Occ  Beta        3 (A')    -11.2400
               13      Vir  Alpha      11 (A')      0.0456
               14      Vir  Alpha      12 (A')      0.0589
               21      Vir  Alpha      17 (A')      0.1802
               25      Vir  Alpha      20 (A')      0.2666
               13      Vir  Beta       11 (A')      0.0456
               14      Vir  Beta       12 (A')      0.0589
               21      Vir  Beta       17 (A')      0.1802
               25      Vir  Beta       20 (A')      0.2666


 EOMEE transition 2/A'
 Total energy = -166.83403656 a.u.  Excitation energy = 288.8096 eV.
 R0^2 = 0.0000  R1^2 = 0.8155  R2_CCVV^2 = 0.0012  R2_COVV^2 = 0.0916  Res^2 = 6.14e-06
 Conv-d = yes

 Amplitude    Transitions between orbitals
  0.4546       3 (A') A                  ->    12 (A') A                  
  0.4546       3 (A') B                  ->    12 (A') B                  
  0.2576       3 (A') A                  ->    13 (A') A                  
  0.2576       3 (A') B                  ->    13 (A') B                  
 -0.2344       3 (A') A                  ->    21 (A') A                  
 -0.2344       3 (A') B                  ->    21 (A') B                  
  0.1648       3 (A') A                  ->    18 (A') A                  
  0.1648       3 (A') B                  ->    18 (A') B                  
 -0.1121       3 (A') A                  ->    14 (A') A                  
 -0.1121       3 (A') B                  ->    14 (A') B                  
  0.1041       3 (A') A                  ->    11 (A') A                  
  0.1041       3 (A') B                  ->    11 (A') B                  

              Summary of significant orbitals:

               Number  Type             Irrep      Energy
               3       Occ  Alpha       3 (A')    -11.2400
               3       Occ  Beta        3 (A')    -11.2400
               13      Vir  Alpha      11 (A')      0.0456
               14      Vir  Alpha      12 (A')      0.0589
               15      Vir  Alpha      13 (A')      0.0672
               17      Vir  Alpha      14 (A')      0.1208
               22      Vir  Alpha      18 (A')      0.2053
               26      Vir  Alpha      21 (A')      0.2869
               13      Vir  Beta       11 (A')      0.0456
               14      Vir  Beta       12 (A')      0.0589
               15      Vir  Beta       13 (A')      0.0672
               17      Vir  Beta       14 (A')      0.1208
               22      Vir  Beta       18 (A')      0.2053
               26      Vir  Beta       21 (A')      0.2869


 EOMEE transition 3/A'
 Total energy = -166.80801399 a.u.  Excitation energy = 289.5178 eV.
 R0^2 = 0.0000  R1^2 = 0.8051  R2_CCVV^2 = 0.0012  R2_COVV^2 = 0.0969  Res^2 = 4.52e-05
 Conv-d = yes

 Amplitude    Transitions between orbitals
 -0.4983       3 (A') A                  ->    13 (A') A                  
 -0.4983       3 (A') B                  ->    13 (A') B                  
  0.2433       3 (A') A                  ->    12 (A') A                  
  0.2433       3 (A') B                  ->    12 (A') B                  
 -0.1482       3 (A') A                  ->    18 (A') A                  
 -0.1482       3 (A') B                  ->    18 (A') B                  
 -0.1179       3 (A') A                  ->    15 (A') A                  
 -0.1179       3 (A') B                  ->    15 (A') B                  
  0.1159       3 (A') A                  ->    11 (A') A                  
  0.1159       3 (A') B                  ->    11 (A') B                  
  0.1106       3 (A') A                  ->    17 (A') A                  
  0.1106       3 (A') B                  ->    17 (A') B                  
  0.1015       3 (A') A                  ->    19 (A') A                  
  0.1015       3 (A') B                  ->    19 (A') B                  

              Summary of significant orbitals:

               Number  Type             Irrep      Energy
               3       Occ  Alpha       3 (A')    -11.2400
               3       Occ  Beta        3 (A')    -11.2400
               13      Vir  Alpha      11 (A')      0.0456
               14      Vir  Alpha      12 (A')      0.0589
               15      Vir  Alpha      13 (A')      0.0672
               19      Vir  Alpha      15 (A')      0.1393
               21      Vir  Alpha      17 (A')      0.1802
               22      Vir  Alpha      18 (A')      0.2053
               24      Vir  Alpha      19 (A')      0.2159
               13      Vir  Beta       11 (A')      0.0456
               14      Vir  Beta       12 (A')      0.0589
               15      Vir  Beta       13 (A')      0.0672
               19      Vir  Beta       15 (A')      0.1393
               21      Vir  Beta       17 (A')      0.1802
               22      Vir  Beta       18 (A')      0.2053
               24      Vir  Beta       19 (A')      0.2159


 EOMEE transition 4/A'
 Total energy = -166.79478739 a.u.  Excitation energy = 289.8777 eV.
 R0^2 = 0.0000  R1^2 = 0.8034  R2_CCVV^2 = 0.0012  R2_COVV^2 = 0.0977  Res^2 = 3.17e-05
 Conv-d = yes

 Amplitude    Transitions between orbitals
  0.4701       3 (A') A                  ->    14 (A') A                  
  0.4701       3 (A') B                  ->    14 (A') B                  
  0.1984       3 (A') A                  ->    21 (A') A                  
  0.1984       3 (A') B                  ->    21 (A') B                  
 -0.1898       3 (A') A                  ->    22 (A') A                  
 -0.1898       3 (A') B                  ->    22 (A') B                  
  0.1601       3 (A') A                  ->    12 (A') A                  
  0.1601       3 (A') B                  ->    12 (A') B                  
 -0.1421       3 (A') A                  ->    16 (A') A                  
 -0.1421       3 (A') B                  ->    16 (A') B                  
 -0.1289       3 (A') A                  ->    15 (A') A                  
 -0.1289       3 (A') B                  ->    15 (A') B                  
 -0.1236       3 (A') A                  ->    23 (A') A                  
 -0.1236       3 (A') B                  ->    23 (A') B                  

              Summary of significant orbitals:

               Number  Type             Irrep      Energy
               3       Occ  Alpha       3 (A')    -11.2400
               3       Occ  Beta        3 (A')    -11.2400
               14      Vir  Alpha      12 (A')      0.0589
               17      Vir  Alpha      14 (A')      0.1208
               19      Vir  Alpha      15 (A')      0.1393
               20      Vir  Alpha      16 (A')      0.1755
               26      Vir  Alpha      21 (A')      0.2869
               27      Vir  Alpha      22 (A')      0.3253
               29      Vir  Alpha      23 (A')      0.3781
               14      Vir  Beta       12 (A')      0.0589
               17      Vir  Beta       14 (A')      0.1208
               19      Vir  Beta       15 (A')      0.1393
               20      Vir  Beta       16 (A')      0.1755
               26      Vir  Beta       21 (A')      0.2869
               27      Vir  Beta       22 (A')      0.3253
               29      Vir  Beta       23 (A')      0.3781


 EOMEE transition 5/A'
 Total energy = -166.76699191 a.u.  Excitation energy = 290.6340 eV.
 R0^2 = 0.0000  R1^2 = 0.8149  R2_CCVV^2 = 0.0012  R2_COVV^2 = 0.0920  Res^2 = 1.31e-06
 Conv-d = yes

 Amplitude    Transitions between orbitals
 -0.4200       2 (A') A                  ->    11 (A') A                  
 -0.4200       2 (A') B                  ->    11 (A') B                  
 -0.2801       3 (A') A                  ->    15 (A') A                  
 -0.2801       3 (A') B                  ->    15 (A') B                  
 -0.1609       2 (A') A                  ->    12 (A') A                  
 -0.1609       2 (A') B                  ->    12 (A') B                  
 -0.1482       2 (A') A                  ->    17 (A') A                  
 -0.1482       2 (A') B                  ->    17 (A') B                  
  0.1411       2 (A') A                  ->    21 (A') A                  
  0.1411       2 (A') B                  ->    21 (A') B                  
  0.1409       2 (A') A                  ->    20 (A') A                  
  0.1409       2 (A') B                  ->    20 (A') B                  
  0.1108       2 (A') A                  ->    14 (A') A                  
  0.1108       2 (A') B                  ->    14 (A') B                  

              Summary of significant orbitals:

               Number  Type             Irrep      Energy
               2       Occ  Alpha       2 (A')    -11.3324
               3       Occ  Alpha       3 (A')    -11.2400
               2       Occ  Beta        2 (A')    -11.3324
               3       Occ  Beta        3 (A')    -11.2400
               13      Vir  Alpha      11 (A')      0.0456
               14      Vir  Alpha      12 (A')      0.0589
               17      Vir  Alpha      14 (A')      0.1208
               19      Vir  Alpha      15 (A')      0.1393
               21      Vir  Alpha      17 (A')      0.1802
               25      Vir  Alpha      20 (A')      0.2666
               26      Vir  Alpha      21 (A')      0.2869
               13      Vir  Beta       11 (A')      0.0456
               14      Vir  Beta       12 (A')      0.0589
               17      Vir  Beta       14 (A')      0.1208
               19      Vir  Beta       15 (A')      0.1393
               21      Vir  Beta       17 (A')      0.1802
               25      Vir  Beta       20 (A')      0.2666
               26      Vir  Beta       21 (A')      0.2869


 EOMEE transition 6/A'
 Total energy = -166.76667383 a.u.  Excitation energy = 290.6427 eV.
 R0^2 = 0.0000  R1^2 = 0.8090  R2_CCVV^2 = 0.0012  R2_COVV^2 = 0.0949  Res^2 = 4.84e-06
 Conv-d = yes

 Amplitude    Transitions between orbitals
 -0.4927       3 (A') A                  ->    15 (A') A                  
 -0.4927       3 (A') B                  ->    15 (A') B                  
  0.2392       2 (A') A                  ->    11 (A') A                  
  0.2392       2 (A') B                  ->    11 (A') B                  
 -0.1023       3 (A') A                  ->    11 (A') A                  
 -0.1023       3 (A') B                  ->    11 (A') B                  

              Summary of significant orbitals:

               Number  Type             Irrep      Energy
               2       Occ  Alpha       2 (A')    -11.3324
               3       Occ  Alpha       3 (A')    -11.2400
               2       Occ  Beta        2 (A')    -11.3324
               3       Occ  Beta        3 (A')    -11.2400
               13      Vir  Alpha      11 (A')      0.0456
               19      Vir  Alpha      15 (A')      0.1393
               13      Vir  Beta       11 (A')      0.0456
               19      Vir  Beta       15 (A')      0.1393


 EOMEE transition 7/A'
 Total energy = -166.74865405 a.u.  Excitation energy = 291.1330 eV.
 R0^2 = 0.0000  R1^2 = 0.8111  R2_CCVV^2 = 0.0012  R2_COVV^2 = 0.0938  Res^2 = 5.69e-05
 Conv-d = yes

 Amplitude    Transitions between orbitals
 -0.4798       3 (A') A                  ->    16 (A') A                  
 -0.4798       3 (A') B                  ->    16 (A') B                  
 -0.3043       3 (A') A                  ->    20 (A') A                  
 -0.3043       3 (A') B                  ->    20 (A') B                  
 -0.1587       3 (A') A                  ->    17 (A') A                  
 -0.1587       3 (A') B                  ->    17 (A') B                  
 -0.1174       3 (A') A                  ->    13 (A') A                  
 -0.1174       3 (A') B                  ->    13 (A') B                  
  0.1042       3 (A') A                  ->    22 (A') A                  
  0.1042       3 (A') B                  ->    22 (A') B                  

              Summary of significant orbitals:

               Number  Type             Irrep      Energy
               3       Occ  Alpha       3 (A')    -11.2400
               3       Occ  Beta        3 (A')    -11.2400
               15      Vir  Alpha      13 (A')      0.0672
               20      Vir  Alpha      16 (A')      0.1755
               21      Vir  Alpha      17 (A')      0.1802
               25      Vir  Alpha      20 (A')      0.2666
               27      Vir  Alpha      22 (A')      0.3253
               15      Vir  Beta       13 (A')      0.0672
               20      Vir  Beta       16 (A')      0.1755
               21      Vir  Beta       17 (A')      0.1802
               25      Vir  Beta       20 (A')      0.2666
               27      Vir  Beta       22 (A')      0.3253


 EOMEE transition 8/A'
 Total energy = -166.73594565 a.u.  Excitation energy = 291.4788 eV.
 R0^2 = 0.0000  R1^2 = 0.8287  R2_CCVV^2 = 0.0013  R2_COVV^2 = 0.0850  Res^2 = 4.93e-05
 Conv-d = yes

 Amplitude    Transitions between orbitals
 -0.4055       2 (A') A                  ->    14 (A') A                  
 -0.4055       2 (A') B                  ->    14 (A') B                  
  0.2380       2 (A') A                  ->    22 (A') A                  
  0.2380       2 (A') B                  ->    22 (A') B                  
  0.2285       2 (A') A                  ->    23 (A') A                  
  0.2285       2 (A') B                  ->    23 (A') B                  
 -0.2221       2 (A') A                  ->    11 (A') A                  
 -0.2221       2 (A') B                  ->    11 (A') B                  
 -0.1523       2 (A') A                  ->    21 (A') A                  
 -0.1523       2 (A') B                  ->    21 (A') B                  
 -0.1250       2 (A') A                  ->    13 (A') A                  
 -0.1250       2 (A') B                  ->    13 (A') B                  
 -0.1114       2 (A') A                  ->    26 (A') A                  
 -0.1114       2 (A') B                  ->    26 (A') B                  

              Summary of significant orbitals:

               Number  Type             Irrep      Energy
               2       Occ  Alpha       2 (A')    -11.3324
               2       Occ  Beta        2 (A')    -11.3324
               13      Vir  Alpha      11 (A')      0.0456
               15      Vir  Alpha      13 (A')      0.0672
               17      Vir  Alpha      14 (A')      0.1208
               26      Vir  Alpha      21 (A')      0.2869
               27      Vir  Alpha      22 (A')      0.3253
               29      Vir  Alpha      23 (A')      0.3781
               32      Vir  Alpha      26 (A')      0.5012
               13      Vir  Beta       11 (A')      0.0456
               15      Vir  Beta       13 (A')      0.0672
               17      Vir  Beta       14 (A')      0.1208
               26      Vir  Beta       21 (A')      0.2869
               27      Vir  Beta       22 (A')      0.3253
               29      Vir  Beta       23 (A')      0.3781
               32      Vir  Beta       26 (A')      0.5012


 EOMEE transition 9/A'
 Total energy = -166.72926659 a.u.  Excitation energy = 291.6606 eV.
 R0^2 = 0.0000  R1^2 = 0.7956  R2_CCVV^2 = 0.0011  R2_COVV^2 = 0.1016  Res^2 = 7.83e-05
 Conv-d = yes

 Amplitude    Transitions between orbitals
  0.5177       2 (A') A                  ->    12 (A') A                  
  0.5177       2 (A') B                  ->    12 (A') B                  
 -0.2277       2 (A') A                  ->    11 (A') A                  
 -0.2277       2 (A') B                  ->    11 (A') B                  
 -0.1446       2 (A') A                  ->    16 (A') A                  
 -0.1446       2 (A') B                  ->    16 (A') B                  
 -0.1311       2 (A') A                  ->    21 (A') A                  
 -0.1311       2 (A') B                  ->    21 (A') B                  
  0.1170       2 (A') A                  ->    19 (A') A                  
  0.1170       2 (A') B                  ->    19 (A') B                  

              Summary of significant orbitals:

               Number  Type             Irrep      Energy
               2       Occ  Alpha       2 (A')    -11.3324
               2       Occ  Beta        2 (A')    -11.3324
               13      Vir  Alpha      11 (A')      0.0456
               14      Vir  Alpha      12 (A')      0.0589
               20      Vir  Alpha      16 (A')      0.1755
               24      Vir  Alpha      19 (A')      0.2159
               26      Vir  Alpha      21 (A')      0.2869
               13      Vir  Beta       11 (A')      0.0456
               14      Vir  Beta       12 (A')      0.0589
               20      Vir  Beta       16 (A')      0.1755
               24      Vir  Beta       19 (A')      0.2159
               26      Vir  Beta       21 (A')      0.2869


 EOMEE transition 10/A'
 Total energy = -166.72314187 a.u.  Excitation energy = 291.8272 eV.
 R0^2 = 0.0000  R1^2 = 0.8125  R2_CCVV^2 = 0.0012  R2_COVV^2 = 0.0932  Res^2 = 1.62e-05
 Conv-d = yes

 Amplitude    Transitions between orbitals
  0.2882       3 (A') A                  ->    20 (A') A                  
  0.2882       3 (A') B                  ->    20 (A') B                  
 -0.2878       3 (A') A                  ->    17 (A') A                  
 -0.2878       3 (A') B                  ->    17 (A') B                  
 -0.2427       3 (A') A                  ->    18 (A') A                  
 -0.2427       3 (A') B                  ->    18 (A') B                  
  0.2171       3 (A') A                  ->    11 (A') A                  
  0.2171       3 (A') B                  ->    11 (A') B                  
 -0.1835       3 (A') A                  ->    14 (A') A                  
 -0.1835       3 (A') B                  ->    14 (A') B                  
 -0.1559       3 (A') A                  ->    16 (A') A                  
 -0.1559       3 (A') B                  ->    16 (A') B                  
  0.1459       3 (A') A                  ->    21 (A') A                  
  0.1459       3 (A') B                  ->    21 (A') B                  
  0.1438       3 (A') A                  ->    13 (A') A                  
  0.1438       3 (A') B                  ->    13 (A') B                  
 -0.1046       3 (A') A                  ->    22 (A') A                  
 -0.1046       3 (A') B                  ->    22 (A') B                  

              Summary of significant orbitals:

               Number  Type             Irrep      Energy
               3       Occ  Alpha       3 (A')    -11.2400
               3       Occ  Beta        3 (A')    -11.2400
               13      Vir  Alpha      11 (A')      0.0456
               15      Vir  Alpha      13 (A')      0.0672
               17      Vir  Alpha      14 (A')      0.1208
               20      Vir  Alpha      16 (A')      0.1755
               21      Vir  Alpha      17 (A')      0.1802
               22      Vir  Alpha      18 (A')      0.2053
               25      Vir  Alpha      20 (A')      0.2666
               26      Vir  Alpha      21 (A')      0.2869
               27      Vir  Alpha      22 (A')      0.3253
               13      Vir  Beta       11 (A')      0.0456
               15      Vir  Beta       13 (A')      0.0672
               17      Vir  Beta       14 (A')      0.1208
               20      Vir  Beta       16 (A')      0.1755
               21      Vir  Beta       17 (A')      0.1802
               22      Vir  Beta       18 (A')      0.2053
               25      Vir  Beta       20 (A')      0.2666
               26      Vir  Beta       21 (A')      0.2869
               27      Vir  Beta       22 (A')      0.3253


      CVS-EOM-CCSD/MP2 left amplitudes will be solved using Davidson.
        Amplitudes will be solved using MOM  algorithm.
     Hard-coded thresholds: 
     LinDepThresh=1.00e-15  NormThresh=1.00e-06  ReorthogonThresh=1.00e-02

      Roots     MaxVec    MaxIter   Precond   Conv      Shift    
      10        1000      200       1         1.00e-04  1.05e+01  
 ------------------------------------------------------------------------------
      Iter ConvRoots NVecs ResNorm Current eigenvalues (eV)
 ------------------------------------------------------------------------------
      0    0      10    2.43e-02   288.1845   288.8097   289.5178   289.8777   290.6340   290.6427   291.1330   291.4788   291.6606   291.8273   
      1    0      20    1.89e-02   288.1845   288.8096   289.5171   289.8772   290.6341   290.6426   291.1322   291.4780   291.6597   291.8271   
      2    0      30    7.29e-04   288.1847   288.8096   289.5179   289.8771   290.6341   290.6427   291.1321   291.4784   291.6603   291.8273   
      3    6      40    1.14e-04   288.1847*  288.8096*  289.5177*  289.8769   290.6341   290.6426*  291.1319*  291.4782   291.6599   291.8272*  
      4    10     44    5.47e-05   288.1847*  288.8096*  289.5177*  289.8769*  290.6341*  290.6426*  291.1319*  291.4782*  291.6600*  291.8272*  

     Davidson procedure converged

 Excited state properties for  CVS-EOMEE-CCSD transition 1/A'
 Dipole moment (a.u.): 1.656864 (X 1.539926, Y 0.611412, Z 0.000000)
 R-squared (a.u.): 187.363017 (XX 124.269349, YY 42.259057, ZZ 20.834612)

 Excited state properties for  CVS-EOMEE-CCSD transition 2/A'
 Dipole moment (a.u.): 1.883374 (X -0.080387, Y -1.881657, Z 0.000000)
 R-squared (a.u.): 184.378368 (XX 112.656320, YY 53.402683, ZZ 18.319365)

 Excited state properties for  CVS-EOMEE-CCSD transition 3/A'
 Dipole moment (a.u.): 1.222865 (X -1.103814, Y 0.526301, Z 0.000000)
 R-squared (a.u.): 193.729728 (XX 125.683384, YY 45.880571, ZZ 22.165773)

 Excited state properties for  CVS-EOMEE-CCSD transition 4/A'
 Dipole moment (a.u.): 1.936541 (X -1.609229, Y 1.077299, Z 0.000000)
 R-squared (a.u.): 174.169814 (XX 111.845509, YY 44.061313, ZZ 18.262992)

 Excited state properties for  CVS-EOMEE-CCSD transition 5/A'
 Dipole moment (a.u.): 1.698438 (X -0.683099, Y 1.555013, Z 0.000000)
 R-squared (a.u.): 180.925885 (XX 114.751937, YY 46.468705, ZZ 19.705243)

 Excited state properties for  CVS-EOMEE-CCSD transition 6/A'
 Dipole moment (a.u.): 0.859437 (X -0.391140, Y 0.765272, Z 0.000000)
 R-squared (a.u.): 186.435492 (XX 119.042014, YY 47.797497, ZZ 19.595981)

 Excited state properties for  CVS-EOMEE-CCSD transition 7/A'
 Dipole moment (a.u.): 0.794763 (X -0.414676, Y -0.678006, Z 0.000000)
 R-squared (a.u.): 175.738259 (XX 112.170585, YY 40.466598, ZZ 23.101077)

 Excited state properties for  CVS-EOMEE-CCSD transition 8/A'
 Dipole moment (a.u.): 1.087791 (X -0.906829, Y 0.600793, Z 0.000000)
 R-squared (a.u.): 169.767819 (XX 111.464963, YY 41.347288, ZZ 16.955568)

 Excited state properties for  CVS-EOMEE-CCSD transition 9/A'
 Dipole moment (a.u.): 2.609862 (X 1.175385, Y -2.330204, Z 0.000000)
 R-squared (a.u.): 191.509869 (XX 120.442448, YY 49.685953, ZZ 21.381468)

 Excited state properties for  CVS-EOMEE-CCSD transition 10/A'
 Dipole moment (a.u.): 2.818936 (X 2.160048, Y 1.811240, Z 0.000000)
 R-squared (a.u.): 210.272666 (XX 139.633973, YY 48.400659, ZZ 22.238034)

        Solving for CVS-EOMEE-CCSD A" singlet states.

       EOMEE-CCSD-SINGLES right amplitudes will be solved using Davidson.
        Amplitudes will be solved using shifted  algorithm.
     Hard-coded thresholds: 
     LinDepThresh=1.00e-15  NormThresh=1.00e-06  ReorthogonThresh=1.00e-02

      Roots     MaxVec    MaxIter   Precond   Conv      Shift    
      10        1000      200       1         1.00e-04  1.05e+01  
 ------------------------------------------------------------------------------
      Iter ConvRoots NVecs ResNorm Current eigenvalues (eV)
 ------------------------------------------------------------------------------
      0    0      10    1.88e-02   297.1419   300.1349   302.9625   305.2197   305.9849   307.9535   310.8887   312.1273   312.8247   318.1094   
Rerun orthogonalization...
      1    2      20    1.49e-02   296.3714   297.9129   302.8995*  305.1867*  305.7175   307.7709   310.8227   312.0892   312.2106   316.3912   
      2    9      28    4.09e-05   296.3673*  297.6323*  302.8986*  305.1864*  305.6808*  307.7461*  310.8107*  312.0800*  312.1979*  314.5997   
      3    10     29    2.85e-06   296.3673*  297.6320*  302.8986*  305.1864*  305.6807*  307.7461*  310.8107*  312.0799*  312.1979*  314.5939*  

     Davidson procedure converged

        CVS-EOMEE-CCSD/MP2 right amplitudes will be solved using Davidson.
        Amplitudes will be solved using shifted  algorithm.
     Hard-coded thresholds: 
     LinDepThresh=1.00e-15  NormThresh=1.00e-06  ReorthogonThresh=1.00e-02

      Roots     MaxVec    MaxIter   Precond   Conv      Shift    
      10        1000      200       1         1.00e-04  1.05e+01  
 ------------------------------------------------------------------------------
      Iter ConvRoots NVecs ResNorm Current eigenvalues (eV)
 ------------------------------------------------------------------------------
      0    0      10    1.84e+00   296.3673   297.6320   302.8986   305.1864   305.6807   307.7461   310.8107   312.0799   312.1979   314.5939   
      1    0      20    1.05e+00   293.8733   295.2828   300.0709   302.2813   302.8472   304.8627   307.8262   309.1606   309.6253   312.0513   
      2    0      30    5.24e-02   286.4421   288.6195   290.2496   291.9599   292.9198   294.5842   297.1529   299.0741   301.8027   304.1700   
      3    0      40    5.05e-03   285.9729   288.1311   289.8738   291.5467   292.5124   294.1387   296.7301   298.7002   301.4138   303.7502   
      4    0      50    1.94e-03   285.9200   288.0558   289.8569   291.5296   292.4854   294.1102   296.7089   298.6795   301.3484   303.6387   
      5    6      60    2.69e-03   285.9100   288.0387   289.8493*  291.5235*  292.4749*  294.1000*  296.7018*  298.6715*  301.2656   303.3349   
      6    8      64    2.26e-03   285.9074*  288.0353*  289.8491*  291.5234*  292.4748*  294.0998*  296.7016*  298.6714*  301.1836   302.8035   
      7    8      66    7.20e-04   285.9075*  288.0354*  289.8491*  291.5233*  292.4748*  294.0997*  296.7016*  298.6714*  301.1712   302.6463   
      8    8      68    2.35e-04   285.9075*  288.0352*  289.8491*  291.5233*  292.4748*  294.0998*  296.7016*  298.6714*  301.1658   302.5773   
      9    9      70    1.26e-04   285.9075*  288.0353*  289.8492*  291.5233*  292.4748*  294.0997*  296.7016*  298.6714*  301.1649*  302.5578   
      10   9      71    5.24e-05   285.9075*  288.0353*  289.8492*  291.5233*  292.4749*  294.0997*  296.7016*  298.6714*  301.1649*  302.5513   
      11   10     72    3.97e-05   285.9075*  288.0353*  289.8492*  291.5233*  292.4749*  294.0996*  296.7016*  298.6714*  301.1649*  302.5491*  

     Davidson procedure converged

 EOMEE transition 1/A"
 Total energy = -166.94068850 a.u.  Excitation energy = 285.9075 eV.
 R0^2 = 0.0000  R1^2 = 0.8250  R2_CCVV^2 = 0.0013  R2_COVV^2 = 0.0869  Res^2 = 9.58e-06
 Conv-d = yes

 Amplitude    Transitions between orbitals
  0.4381       3 (A') A                  ->    3 (A") A                   
  0.4381       3 (A') B                  ->    3 (A") B                   
  0.4379       3 (A') A                  ->    5 (A") A                   
  0.4379       3 (A') B                  ->    5 (A") B                   
 -0.1155       3 (A') A                  ->    8 (A") A                   
 -0.1155       3 (A') B                  ->    8 (A") B                   
  0.1127       3 (A') A                  ->    4 (A") A                   
  0.1127       3 (A') B                  ->    4 (A") B                   

              Summary of significant orbitals:

               Number  Type             Irrep      Energy
               3       Occ  Alpha       3 (A')    -11.2400
               3       Occ  Beta        3 (A')    -11.2400
               16      Vir  Alpha       3 (A")      0.1085
               18      Vir  Alpha       4 (A")      0.1220
               23      Vir  Alpha       5 (A")      0.2142
               38      Vir  Alpha       8 (A")      0.7837
               16      Vir  Beta        3 (A")      0.1085
               18      Vir  Beta        4 (A")      0.1220
               23      Vir  Beta        5 (A")      0.2142
               38      Vir  Beta        8 (A")      0.7837


 EOMEE transition 2/A"
 Total energy = -166.86249438 a.u.  Excitation energy = 288.0353 eV.
 R0^2 = 0.0000  R1^2 = 0.8291  R2_CCVV^2 = 0.0013  R2_COVV^2 = 0.0848  Res^2 = 8.07e-06
 Conv-d = yes

 Amplitude    Transitions between orbitals
 -0.4554       2 (A') A                  ->    3 (A") A                   
 -0.4554       2 (A') B                  ->    3 (A") B                   
 -0.4325       2 (A') A                  ->    5 (A") A                   
 -0.4325       2 (A') B                  ->    5 (A") B                   
  0.1131       2 (A') A                  ->    8 (A") A                   
  0.1131       2 (A') B                  ->    8 (A") B                   

              Summary of significant orbitals:

               Number  Type             Irrep      Energy
               2       Occ  Alpha       2 (A')    -11.3324
               2       Occ  Beta        2 (A')    -11.3324
               16      Vir  Alpha       3 (A")      0.1085
               23      Vir  Alpha       5 (A")      0.2142
               38      Vir  Alpha       8 (A")      0.7837
               16      Vir  Beta        3 (A")      0.1085
               23      Vir  Beta        5 (A")      0.2142
               38      Vir  Beta        8 (A")      0.7837


 EOMEE transition 3/A"
 Total energy = -166.79583548 a.u.  Excitation energy = 289.8491 eV.
 R0^2 = 0.0000  R1^2 = 0.8115  R2_CCVV^2 = 0.0012  R2_COVV^2 = 0.0936  Res^2 = 3.19e-05
 Conv-d = yes

 Amplitude    Transitions between orbitals
 -0.5576       3 (A') A                  ->    4 (A") A                   
 -0.5576       3 (A') B                  ->    4 (A") B                   
  0.2695       3 (A') A                  ->    3 (A") A                   
  0.2695       3 (A') B                  ->    3 (A") B                   
 -0.1110       3 (A') A                  ->    5 (A") A                   
 -0.1110       3 (A') B                  ->    5 (A") B                   

              Summary of significant orbitals:

               Number  Type             Irrep      Energy
               3       Occ  Alpha       3 (A')    -11.2400
               3       Occ  Beta        3 (A')    -11.2400
               16      Vir  Alpha       3 (A")      0.1085
               18      Vir  Alpha       4 (A")      0.1220
               23      Vir  Alpha       5 (A")      0.2142
               16      Vir  Beta        3 (A")      0.1085
               18      Vir  Beta        4 (A")      0.1220
               23      Vir  Beta        5 (A")      0.2142


 EOMEE transition 4/A"
 Total energy = -166.73431275 a.u.  Excitation energy = 291.5233 eV.
 R0^2 = 0.0000  R1^2 = 0.8049  R2_CCVV^2 = 0.0012  R2_COVV^2 = 0.0970  Res^2 = 3.23e-05
 Conv-d = yes

 Amplitude    Transitions between orbitals
  0.4343       3 (A') A                  ->    5 (A") A                   
  0.4343       3 (A') B                  ->    5 (A") B                   
 -0.3745       3 (A') A                  ->    3 (A") A                   
 -0.3745       3 (A') B                  ->    3 (A") B                   
 -0.2577       3 (A') A                  ->    4 (A") A                   
 -0.2577       3 (A') B                  ->    4 (A") B                   

              Summary of significant orbitals:

               Number  Type             Irrep      Energy
               3       Occ  Alpha       3 (A')    -11.2400
               3       Occ  Beta        3 (A')    -11.2400
               16      Vir  Alpha       3 (A")      0.1085
               18      Vir  Alpha       4 (A")      0.1220
               23      Vir  Alpha       5 (A")      0.2142
               16      Vir  Beta        3 (A")      0.1085
               18      Vir  Beta        4 (A")      0.1220
               23      Vir  Beta        5 (A")      0.2142


 EOMEE transition 5/A"
 Total energy = -166.69934125 a.u.  Excitation energy = 292.4749 eV.
 R0^2 = 0.0000  R1^2 = 0.8007  R2_CCVV^2 = 0.0012  R2_COVV^2 = 0.0991  Res^2 = 5.83e-05
 Conv-d = yes

 Amplitude    Transitions between orbitals
 -0.6239       2 (A') A                  ->    4 (A") A                   
 -0.6239       2 (A') B                  ->    4 (A") B                   
 -0.0815       2 (A') A                  ->    7 (A") A                   
 -0.0815       2 (A') B                  ->    7 (A") B                   

              Summary of significant orbitals:

               Number  Type             Irrep      Energy
               2       Occ  Alpha       2 (A')    -11.3324
               2       Occ  Beta        2 (A')    -11.3324
               18      Vir  Alpha       4 (A")      0.1220
               37      Vir  Alpha       7 (A")      0.7018
               18      Vir  Beta        4 (A")      0.1220
               37      Vir  Beta        7 (A")      0.7018


 EOMEE transition 6/A"
 Total energy = -166.63963367 a.u.  Excitation energy = 294.0996 eV.
 R0^2 = 0.0000  R1^2 = 0.7963  R2_CCVV^2 = 0.0012  R2_COVV^2 = 0.1013  Res^2 = 5.41e-05
 Conv-d = yes

 Amplitude    Transitions between orbitals
  0.4507       2 (A') A                  ->    5 (A") A                   
  0.4507       2 (A') B                  ->    5 (A") B                   
 -0.4292       2 (A') A                  ->    3 (A") A                   
 -0.4292       2 (A') B                  ->    3 (A") B                   

              Summary of significant orbitals:

               Number  Type             Irrep      Energy
               2       Occ  Alpha       2 (A')    -11.3324
               2       Occ  Beta        2 (A')    -11.3324
               16      Vir  Alpha       3 (A")      0.1085
               23      Vir  Alpha       5 (A")      0.2142
               16      Vir  Beta        3 (A")      0.1085
               23      Vir  Beta        5 (A")      0.2142


 EOMEE transition 7/A"
 Total energy = -166.54401464 a.u.  Excitation energy = 296.7015 eV.
 R0^2 = 0.0000  R1^2 = 0.7949  R2_CCVV^2 = 0.0011  R2_COVV^2 = 0.1020  Res^2 = 6.26e-05
 Conv-d = yes

 Amplitude    Transitions between orbitals
  0.6281       3 (A') A                  ->    6 (A") A                   
  0.6281       3 (A') B                  ->    6 (A") B                   
 -0.0294       3 (A') A                  ->    5 (A") A                   
 -0.0294       3 (A') B                  ->    5 (A") B                   

              Summary of significant orbitals:

               Number  Type             Irrep      Energy
               3       Occ  Alpha       3 (A')    -11.2400
               3       Occ  Beta        3 (A')    -11.2400
               23      Vir  Alpha       5 (A")      0.2142
               28      Vir  Alpha       6 (A")      0.3757
               23      Vir  Beta        5 (A")      0.2142
               28      Vir  Beta        6 (A")      0.3757


 EOMEE transition 8/A"
 Total energy = -166.47162331 a.u.  Excitation energy = 298.6714 eV.
 R0^2 = 0.0000  R1^2 = 0.8024  R2_CCVV^2 = 0.0011  R2_COVV^2 = 0.0982  Res^2 = 5.54e-05
 Conv-d = yes

 Amplitude    Transitions between orbitals
 -0.6314       2 (A') A                  ->    6 (A") A                   
 -0.6314       2 (A') B                  ->    6 (A") B                   
  0.0253       2 (A') A                  ->    4 (A") A                   
  0.0253       2 (A') B                  ->    4 (A") B                   

              Summary of significant orbitals:

               Number  Type             Irrep      Energy
               2       Occ  Alpha       2 (A')    -11.3324
               2       Occ  Beta        2 (A')    -11.3324
               18      Vir  Alpha       4 (A")      0.1220
               28      Vir  Alpha       6 (A")      0.3757
               18      Vir  Beta        4 (A")      0.1220
               28      Vir  Beta        6 (A")      0.3757


 EOMEE transition 9/A"
 Total energy = -166.37998858 a.u.  Excitation energy = 301.1649 eV.
 R0^2 = 0.0000  R1^2 = 0.8153  R2_CCVV^2 = 0.0013  R2_COVV^2 = 0.0917  Res^2 = 2.07e-05
 Conv-d = yes

 Amplitude    Transitions between orbitals
  0.5523       3 (A') A                  ->    7 (A") A                   
  0.5523       3 (A') B                  ->    7 (A") B                   
 -0.3015       3 (A') A                  ->    8 (A") A                   
 -0.3015       3 (A') B                  ->    8 (A") B                   

              Summary of significant orbitals:

               Number  Type             Irrep      Energy
               3       Occ  Alpha       3 (A')    -11.2400
               3       Occ  Beta        3 (A')    -11.2400
               37      Vir  Alpha       7 (A")      0.7018
               38      Vir  Alpha       8 (A")      0.7837
               37      Vir  Beta        7 (A")      0.7018
               38      Vir  Beta        8 (A")      0.7837


 EOMEE transition 10/A"
 Total energy = -166.32912296 a.u.  Excitation energy = 302.5490 eV.
 R0^2 = 0.0000  R1^2 = 0.2274  R2_CCVV^2 = 0.0004  R2_COVV^2 = 0.3861  Res^2 = 6.35e-05
 Conv-d = yes

 Amplitude    Transitions between orbitals


      CVS-EOM-CCSD/MP2 left amplitudes will be solved using Davidson.
        Amplitudes will be solved using MOM  algorithm.
     Hard-coded thresholds: 
     LinDepThresh=1.00e-15  NormThresh=1.00e-06  ReorthogonThresh=1.00e-02

      Roots     MaxVec    MaxIter   Precond   Conv      Shift    
      10        1000      200       1         1.00e-04  1.05e+01  
 ------------------------------------------------------------------------------
      Iter ConvRoots NVecs ResNorm Current eigenvalues (eV)
 ------------------------------------------------------------------------------
      0    0      10    2.06e-02   285.9075   288.0353   289.8492   291.5233   292.4749   294.0996   296.7016   298.6714   301.1649   302.5491   
      1    0      20    1.37e-02   285.9076   288.0353   289.8485   291.5226   292.4739   294.0987   296.7002   298.6707   301.1649   302.5485   
      2    0      30    7.44e-04   285.9076   288.0354   289.8492   291.5233   292.4750   294.0997   296.7015   298.6717   301.1652   302.5486   
      3    4      40    1.35e-04   285.9076*  288.0354*  289.8491*  291.5232*  292.4748   294.0996   296.7014   298.6716   301.1652   302.5484   
      4    8      46    9.13e-05   285.9075*  288.0353*  289.8491*  291.5232*  292.4749*  294.0996*  296.7014*  298.6717*  301.1654   302.5482   
      5    8      48    9.51e-05   285.9075*  288.0353*  289.8491*  291.5232*  292.4749*  294.0996*  296.7014*  298.6717*  301.1656   302.5482   
      6    9      50    5.37e-05   285.9076*  288.0353*  289.8491*  291.5232*  292.4749*  294.0996*  296.7014*  298.6717*  301.1656*  302.5481   
      7    10     51    4.40e-05   285.9076*  288.0353*  289.8491*  291.5232*  292.4749*  294.0996*  296.7014*  298.6717*  301.1656*  302.5482*  

     Davidson procedure converged

 Excited state properties for  CVS-EOMEE-CCSD transition 1/A"
 Dipole moment (a.u.): 1.184729 (X -1.184592, Y 0.018025, Z 0.000000)
 R-squared (a.u.): 153.895478 (XX 105.781572, YY 32.486986, ZZ 15.626920)

 Excited state properties for  CVS-EOMEE-CCSD transition 2/A"
 Dipole moment (a.u.): 0.674073 (X -0.021709, Y -0.673723, Z 0.000000)
 R-squared (a.u.): 156.111715 (XX 108.327009, YY 32.065516, ZZ 15.719189)

 Excited state properties for  CVS-EOMEE-CCSD transition 3/A"
 Dipole moment (a.u.): 0.422564 (X -0.292218, Y -0.305236, Z 0.000000)
 R-squared (a.u.): 180.507377 (XX 110.678988, YY 36.712071, ZZ 33.116318)

 Excited state properties for  CVS-EOMEE-CCSD transition 4/A"
 Dipole moment (a.u.): 1.662254 (X -1.575207, Y 0.530857, Z 0.000000)
 R-squared (a.u.): 187.984377 (XX 115.887718, YY 39.945380, ZZ 32.151280)

 Excited state properties for  CVS-EOMEE-CCSD transition 5/A"
 Dipole moment (a.u.): 0.765772 (X -0.748477, Y 0.161833, Z 0.000000)
 R-squared (a.u.): 179.802885 (XX 109.071055, YY 37.241737, ZZ 33.490093)

 Excited state properties for  CVS-EOMEE-CCSD transition 6/A"
 Dipole moment (a.u.): 1.291985 (X 0.870464, Y -0.954734, Z 0.000000)
 R-squared (a.u.): 192.083118 (XX 121.537661, YY 38.923998, ZZ 31.621459)

 Excited state properties for  CVS-EOMEE-CCSD transition 7/A"
 Dipole moment (a.u.): 4.121551 (X -4.088598, Y -0.520142, Z 0.000000)
 R-squared (a.u.): 167.284977 (XX 109.810117, YY 34.944085, ZZ 22.530775)

 Excited state properties for  CVS-EOMEE-CCSD transition 8/A"
 Dipole moment (a.u.): 3.157187 (X -2.986232, Y -1.024814, Z 0.000000)
 R-squared (a.u.): 169.020370 (XX 111.808716, YY 34.715636, ZZ 22.496018)

 Excited state properties for  CVS-EOMEE-CCSD transition 9/A"
 Dipole moment (a.u.): 0.587892 (X -0.392194, Y -0.437950, Z 0.000000)
 R-squared (a.u.): 163.769353 (XX 108.322682, YY 33.469031, ZZ 21.977640)

 Excited state properties for  CVS-EOMEE-CCSD transition 10/A"
 Dipole moment (a.u.): 1.013724 (X 0.520161, Y -0.870097, Z 0.000000)
 R-squared (a.u.): 161.683872 (XX 110.468915, YY 33.279186, ZZ 17.935771)

 CVS-EOMEE-CCSD calculation:   CPU 2228.50 s  wall 607.52 s


 Start computing the transition properties

 ------------------------------------------------------------------------------
 State A: ccsd: 0/A'
 State B: cvs_eomee_ccsd/rhfref/singlets: 1/A'
 Transition dipole moment (a.u.):
   A->B: 0.029092 (X -0.029071, Y -0.001108, Z 0.000000)
   B->A: 0.028591 (X -0.028577, Y -0.000878, Z 0.000000)
 Oscillator strength (a.u.): 0.005872
 Norm of one-particle transition density matrix:
   A->B: 0.903721;   B->A: 0.870531
   ||gamma^AB||*||gamma^BA||: 0.786717

 ------------------------------------------------------------------------------
 State A: ccsd: 0/A'
 State B: cvs_eomee_ccsd/rhfref/singlets: 2/A'
 Transition dipole moment (a.u.):
   A->B: 0.041869 (X 0.009043, Y 0.040880, Z 0.000000)
   B->A: 0.040840 (X 0.008478, Y 0.039950, Z 0.000000)
 Oscillator strength (a.u.): 0.012098
 Norm of one-particle transition density matrix:
   A->B: 0.903655;   B->A: 0.871369
   ||gamma^AB||*||gamma^BA||: 0.787417

 ------------------------------------------------------------------------------
 State A: ccsd: 0/A'
 State B: cvs_eomee_ccsd/rhfref/singlets: 3/A'
 Transition dipole moment (a.u.):
   A->B: 0.024842 (X -0.017015, Y -0.018100, Z 0.000000)
   B->A: 0.024469 (X -0.016449, Y -0.018116, Z 0.000000)
 Oscillator strength (a.u.): 0.004311
 Norm of one-particle transition density matrix:
   A->B: 0.900257;   B->A: 0.863082
   ||gamma^AB||*||gamma^BA||: 0.776996

 ------------------------------------------------------------------------------
 State A: ccsd: 0/A'
 State B: cvs_eomee_ccsd/rhfref/singlets: 4/A'
 Transition dipole moment (a.u.):
   A->B: 0.020118 (X 0.005213, Y -0.019431, Z 0.000000)
   B->A: 0.020209 (X 0.004886, Y -0.019610, Z 0.000000)
 Oscillator strength (a.u.): 0.002887
 Norm of one-particle transition density matrix:
   A->B: 0.895872;   B->A: 0.861895
   ||gamma^AB||*||gamma^BA||: 0.772147

 ------------------------------------------------------------------------------
 State A: ccsd: 0/A'
 State B: cvs_eomee_ccsd/rhfref/singlets: 5/A'
 Transition dipole moment (a.u.):
   A->B: 0.050615 (X 0.016734, Y 0.047768, Z 0.000000)
   B->A: 0.049820 (X 0.016617, Y 0.046967, Z 0.000000)
 Oscillator strength (a.u.): 0.017955
 Norm of one-particle transition density matrix:
   A->B: 0.903968;   B->A: 0.871467
   ||gamma^AB||*||gamma^BA||: 0.787778

 ------------------------------------------------------------------------------
 State A: ccsd: 0/A'
 State B: cvs_eomee_ccsd/rhfref/singlets: 6/A'
 Transition dipole moment (a.u.):
   A->B: 0.021475 (X -0.012049, Y -0.017776, Z 0.000000)
   B->A: 0.021118 (X -0.011677, Y -0.017596, Z 0.000000)
 Oscillator strength (a.u.): 0.003229
 Norm of one-particle transition density matrix:
   A->B: 0.901821;   B->A: 0.865893
   ||gamma^AB||*||gamma^BA||: 0.780881

 ------------------------------------------------------------------------------
 State A: ccsd: 0/A'
 State B: cvs_eomee_ccsd/rhfref/singlets: 7/A'
 Transition dipole moment (a.u.):
   A->B: 0.026377 (X 0.026324, Y 0.001678, Z 0.000000)
   B->A: 0.025680 (X 0.025636, Y 0.001496, Z 0.000000)
 Oscillator strength (a.u.): 0.004831
 Norm of one-particle transition density matrix:
   A->B: 0.901957;   B->A: 0.867871
   ||gamma^AB||*||gamma^BA||: 0.782783

 ------------------------------------------------------------------------------
 State A: ccsd: 0/A'
 State B: cvs_eomee_ccsd/rhfref/singlets: 8/A'
 Transition dipole moment (a.u.):
   A->B: 0.056294 (X -0.053736, Y -0.016777, Z 0.000000)
   B->A: 0.055098 (X -0.052722, Y -0.016005, Z 0.000000)
 Oscillator strength (a.u.): 0.022149
 Norm of one-particle transition density matrix:
   A->B: 0.907618;   B->A: 0.882977
   ||gamma^AB||*||gamma^BA||: 0.801406

 ------------------------------------------------------------------------------
 State A: ccsd: 0/A'
 State B: cvs_eomee_ccsd/rhfref/singlets: 9/A'
 Transition dipole moment (a.u.):
   A->B: 0.015076 (X -0.000308, Y -0.015072, Z 0.000000)
   B->A: 0.014336 (X 0.001198, Y -0.014286, Z 0.000000)
 Oscillator strength (a.u.): 0.001536
 Norm of one-particle transition density matrix:
   A->B: 0.894712;   B->A: 0.856216
   ||gamma^AB||*||gamma^BA||: 0.766067

 ------------------------------------------------------------------------------
 State A: ccsd: 0/A'
 State B: cvs_eomee_ccsd/rhfref/singlets: 10/A'
 Transition dipole moment (a.u.):
   A->B: 0.035409 (X -0.028466, Y -0.021059, Z 0.000000)
   B->A: 0.034542 (X -0.027777, Y -0.020533, Z 0.000000)
 Oscillator strength (a.u.): 0.008745
 Norm of one-particle transition density matrix:
   A->B: 0.903062;   B->A: 0.868232
   ||gamma^AB||*||gamma^BA||: 0.784067

 ------------------------------------------------------------------------------
 State A: ccsd: 0/A'
 State B: cvs_eomee_ccsd/rhfref/singlets: 1/A"
 Transition dipole moment (a.u.):
   A->B: 0.080096 (X 0.000000, Y 0.000000, Z -0.080096)
   B->A: 0.081902 (X 0.000000, Y 0.000000, Z -0.081902)
 Oscillator strength (a.u.): 0.045951
 Norm of one-particle transition density matrix:
   A->B: 0.884154;   B->A: 0.887442
   ||gamma^AB||*||gamma^BA||: 0.784636

 ------------------------------------------------------------------------------
 State A: ccsd: 0/A'
 State B: cvs_eomee_ccsd/rhfref/singlets: 2/A"
 Transition dipole moment (a.u.):
   A->B: 0.090681 (X 0.000000, Y 0.000000, Z 0.090681)
   B->A: 0.092094 (X 0.000000, Y 0.000000, Z 0.092094)
 Oscillator strength (a.u.): 0.058932
 Norm of one-particle transition density matrix:
   A->B: 0.886880;   B->A: 0.890608
   ||gamma^AB||*||gamma^BA||: 0.789862

 ------------------------------------------------------------------------------
 State A: ccsd: 0/A'
 State B: cvs_eomee_ccsd/rhfref/singlets: 3/A"
 Transition dipole moment (a.u.):
   A->B: 0.033868 (X 0.000000, Y 0.000000, Z 0.033868)
   B->A: 0.034011 (X 0.000000, Y 0.000000, Z 0.034011)
 Oscillator strength (a.u.): 0.008180
 Norm of one-particle transition density matrix:
   A->B: 0.902745;   B->A: 0.867660
   ||gamma^AB||*||gamma^BA||: 0.783275

 ------------------------------------------------------------------------------
 State A: ccsd: 0/A'
 State B: cvs_eomee_ccsd/rhfref/singlets: 4/A"
 Transition dipole moment (a.u.):
   A->B: 0.027777 (X 0.000000, Y 0.000000, Z -0.027777)
   B->A: 0.026773 (X 0.000000, Y 0.000000, Z -0.026773)
 Oscillator strength (a.u.): 0.005311
 Norm of one-particle transition density matrix:
   A->B: 0.900273;   B->A: 0.861788
   ||gamma^AB||*||gamma^BA||: 0.775844

 ------------------------------------------------------------------------------
 State A: ccsd: 0/A'
 State B: cvs_eomee_ccsd/rhfref/singlets: 5/A"
 Transition dipole moment (a.u.):
   A->B: 0.021203 (X 0.000000, Y 0.000000, Z -0.021203)
   B->A: 0.021466 (X 0.000000, Y 0.000000, Z -0.021466)
 Oscillator strength (a.u.): 0.003261
 Norm of one-particle transition density matrix:
   A->B: 0.897482;   B->A: 0.860706
   ||gamma^AB||*||gamma^BA||: 0.772469

 ------------------------------------------------------------------------------
 State A: ccsd: 0/A'
 State B: cvs_eomee_ccsd/rhfref/singlets: 6/A"
 Transition dipole moment (a.u.):
   A->B: 0.024661 (X 0.000000, Y 0.000000, Z -0.024661)
   B->A: 0.023665 (X 0.000000, Y 0.000000, Z -0.023665)
 Oscillator strength (a.u.): 0.004205
 Norm of one-particle transition density matrix:
   A->B: 0.895948;   B->A: 0.856132
   ||gamma^AB||*||gamma^BA||: 0.767049

 ------------------------------------------------------------------------------
 State A: ccsd: 0/A'
 State B: cvs_eomee_ccsd/rhfref/singlets: 7/A"
 Transition dipole moment (a.u.):
   A->B: 0.007353 (X 0.000000, Y 0.000000, Z -0.007353)
   B->A: 0.007221 (X 0.000000, Y 0.000000, Z -0.007221)
 Oscillator strength (a.u.): 0.000386
 Norm of one-particle transition density matrix:
   A->B: 0.894527;   B->A: 0.854647
   ||gamma^AB||*||gamma^BA||: 0.764505

 ------------------------------------------------------------------------------
 State A: ccsd: 0/A'
 State B: cvs_eomee_ccsd/rhfref/singlets: 8/A"
 Transition dipole moment (a.u.):
   A->B: 0.003371 (X 0.000000, Y 0.000000, Z 0.003371)
   B->A: 0.003500 (X 0.000000, Y 0.000000, Z 0.003500)
 Oscillator strength (a.u.): 0.000086
 Norm of one-particle transition density matrix:
   A->B: 0.898762;   B->A: 0.862687
   ||gamma^AB||*||gamma^BA||: 0.775351

 ------------------------------------------------------------------------------
 State A: ccsd: 0/A'
 State B: cvs_eomee_ccsd/rhfref/singlets: 9/A"
 Transition dipole moment (a.u.):
   A->B: 0.080212 (X 0.000000, Y 0.000000, Z -0.080212)
   B->A: 0.077053 (X 0.000000, Y 0.000000, Z -0.077053)
 Oscillator strength (a.u.): 0.045603
 Norm of one-particle transition density matrix:
   A->B: 0.902874;   B->A: 0.865019
   ||gamma^AB||*||gamma^BA||: 0.781003

 ------------------------------------------------------------------------------
 State A: ccsd: 0/A'
 State B: cvs_eomee_ccsd/rhfref/singlets: 10/A"
 Transition dipole moment (a.u.):
   A->B: 0.053028 (X 0.000000, Y 0.000000, Z 0.053028)
   B->A: 0.042517 (X 0.000000, Y 0.000000, Z 0.042517)
 Oscillator strength (a.u.): 0.016712
 Norm of one-particle transition density matrix:
   A->B: 0.478031;   B->A: 0.398465
   ||gamma^AB||*||gamma^BA||: 0.190479


 All requested transition properties have been computed

 Transition Properties:   CPU 37.09 s  wall 8.98 s

 Total ccman2 time:   CPU 2506.06 s  wall 654.49 s

  1.807   1.842   1.904   1.947   2.030   2.142   2.210   2.310
 41 A'   42 A'   13 A"   43 A'   14 A"   44 A'   45 A'   15 A"                 
  2.342   2.401   2.432   2.554   2.740   2.863   2.916   2.981
 46 A'   16 A"   47 A'   48 A'   49 A'   50 A'   51 A'   52 A'                 
  3.044   3.064   3.250   3.363   3.580   3.873   4.142   4.225
 53 A'   17 A"   18 A"   54 A'   55 A'   56 A'   57 A'   19 A"                 
  4.248   4.424   4.443   4.590   5.310   6.925   7.004   7.324
 58 A'   59 A'   20 A"   60 A'   61 A'   21 A"   62 A'   63 A'                 
 24.828  25.409  68.750
 64 A'   65 A'   66 A'                                                         

 Beta MOs, Restricted
 -- Occupied --                  
-26.310 -11.332 -11.240  -1.629  -1.055  -0.840  -0.740  -0.691
  1 A'    2 A'    3 A'    4 A'    5 A'    6 A'    7 A'    1 A"                 
 -0.686  -0.591  -0.562  -0.386
  8 A'    9 A'   10 A'    2 A"                                                 
 -- Virtual --                   
  0.046   0.059   0.067   0.109   0.121   0.122   0.139   0.175
 11 A'   12 A'   13 A'    3 A"   14 A'    4 A"   15 A'   16 A'                 
  0.180   0.205   0.214   0.216   0.267   0.287   0.325   0.376
 17 A'   18 A'    5 A"   19 A'   20 A'   21 A'   22 A'    6 A"                 
  0.378   0.455   0.475   0.501   0.547   0.636   0.647   0.700
 23 A'   24 A'   25 A'   26 A'   27 A'   28 A'   29 A'   30 A'                 
  0.702   0.784   0.839   0.902   0.916   0.946   1.010   1.083
  7 A"    8 A"   31 A'   32 A'   33 A'   34 A'   35 A'   36 A'                 
  1.250   1.311   1.457   1.569   1.644   1.660   1.670   1.733
  9 A"   10 A"   11 A"   37 A'   38 A'   39 A'   12 A"   40 A'                 
  1.807   1.842   1.904   1.947   2.030   2.142   2.210   2.310
 41 A'   42 A'   13 A"   43 A'   14 A"   44 A'   45 A'   15 A"                 
  2.342   2.401   2.432   2.554   2.740   2.863   2.916   2.981
 46 A'   16 A"   47 A'   48 A'   49 A'   50 A'   51 A'   52 A'                 
  3.044   3.064   3.250   3.363   3.580   3.873   4.142   4.225
 53 A'   17 A"   18 A"   54 A'   55 A'   56 A'   57 A'   19 A"                 
  4.248   4.424   4.443   4.590   5.310   6.925   7.004   7.324
 58 A'   59 A'   20 A"   60 A'   61 A'   21 A"   62 A'   63 A'                 
 24.828  25.409  68.750
 64 A'   65 A'   66 A'                                                         

 --------------------------------------------------------------
             Orbital Energies (a.u.) and Symmetries
 --------------------------------------------------------------

 Alpha MOs, Restricted
 -- Occupied --                  
-26.310 -11.332 -11.240  -1.629  -1.055  -0.840  -0.740  -0.691
  1 A'    2 A'    3 A'    4 A'    5 A'    6 A'    7 A'    1 A"                 
 -0.686  -0.591  -0.562  -0.386
  8 A'    9 A'   10 A'    2 A"                                                 
 -- Virtual --                   
  0.046   0.059   0.067   0.109   0.121   0.122   0.139   0.175
 11 A'   12 A'   13 A'    3 A"   14 A'    4 A"   15 A'   16 A'                 
  0.180   0.205   0.214   0.216   0.267   0.287   0.325   0.376
 17 A'   18 A'    5 A"   19 A'   20 A'   21 A'   22 A'    6 A"                 
  0.378   0.455   0.475   0.501   0.547   0.636   0.647   0.700
 23 A'   24 A'   25 A'   26 A'   27 A'   28 A'   29 A'   30 A'                 
  0.702   0.784   0.839   0.902   0.916   0.946   1.010   1.083
  7 A"    8 A"   31 A'   32 A'   33 A'   34 A'   35 A'   36 A'                 
  1.250   1.311   1.457   1.569   1.644   1.660   1.670   1.733
  9 A"   10 A"   11 A"   37 A'   38 A'   39 A'   12 A"   40 A'                 
  1.807   1.842   1.904   1.947   2.030   2.142   2.210   2.310
 41 A'   42 A'   13 A"   43 A'   14 A"   44 A'   45 A'   15 A"                 
  2.342   2.401   2.432   2.554   2.740   2.863   2.916   2.981
 46 A'   16 A"   47 A'   48 A'   49 A'   50 A'   51 A'   52 A'                 
  3.044   3.064   3.250   3.363   3.580   3.873   4.142   4.225
 53 A'   17 A"   18 A"   54 A'   55 A'   56 A'   57 A'   19 A"                 
Archival summary:
1\1\n-62-23-8\SP\ProcedureUnspecified\BasisUnspecified\123\malop\WedDec1915:14:052018WedDec1915:14:052018\0\\#,ProcedureUnspecified,BasisUnspecified,\\0,1\C\H,1,1.08083\C,1,1.32523,2,125.835\H,3,1.07898,1,118.942,2,0,0\H,3,1.08006,1,121.377,2,-180,0\F,1,1.34281,2,112.267,3,-180,0\\HF=-176.936663\\@

 Total job time:  703.29s(wall), 2570.16s(cpu) 
 Wed Dec 19 15:14:05 2018

        *************************************************************
        *                                                           *
        *  Thank you very much for using Q-Chem.  Have a nice day.  *
        *                                                           *
        *************************************************************


  4.248   4.424   4.443   4.590   5.310   6.925   7.004   7.324
 58 A'   59 A'   20 A"   60 A'   61 A'   21 A"   62 A'   63 A'                 
 24.828  25.409  68.750
 64 A'   65 A'   66 A'                                                         

 Beta MOs, Restricted
 -- Occupied --                  
-26.310 -11.332 -11.240  -1.629  -1.055  -0.840  -0.740  -0.691
  1 A'    2 A'    3 A'    4 A'    5 A'    6 A'    7 A'    1 A"                 
 -0.686  -0.591  -0.562  -0.386
  8 A'    9 A'   10 A'    2 A"                                                 
 -- Virtual --                   
  0.046   0.059   0.067   0.109   0.121   0.122   0.139   0.175
 11 A'   12 A'   13 A'    3 A"   14 A'    4 A"   15 A'   16 A'                 
  0.180   0.205   0.214   0.216   0.267   0.287   0.325   0.376
 17 A'   18 A'    5 A"   19 A'   20 A'   21 A'   22 A'    6 A"                 
  0.378   0.455   0.475   0.501   0.547   0.636   0.647   0.700
 23 A'   24 A'   25 A'   26 A'   27 A'   28 A'   29 A'   30 A'                 
  0.702   0.784   0.839   0.902   0.916   0.946   1.010   1.083
  7 A"    8 A"   31 A'   32 A'   33 A'   34 A'   35 A'   36 A'                 
  1.250   1.311   1.457   1.569   1.644   1.660   1.670   1.733
  9 A"   10 A"   11 A"   37 A'   38 A'   39 A'   12 A"   40 A'                 
  1.807   1.842   1.904   1.947   2.030   2.142   2.210   2.310
 41 A'   42 A'   13 A"   43 A'   14 A"   44 A'   45 A'   15 A"                 
  2.342   2.401   2.432   2.554   2.740   2.863   2.916   2.981
 46 A'   16 A"   47 A'   48 A'   49 A'   50 A'   51 A'   52 A'                 
  3.044   3.064   3.250   3.363   3.580   3.873   4.142   4.225
 53 A'   17 A"   18 A"   54 A'   55 A'   56 A'   57 A'   19 A"                 
  4.248   4.424   4.443   4.590   5.310   6.925   7.004   7.324
 58 A'   59 A'   20 A"   60 A'   61 A'   21 A"   62 A'   63 A'                 
 24.828  25.409  68.750
 64 A'   65 A'   66 A'                                                         
 --------------------------------------------------------------

          Ground-State Mulliken Net Atomic Charges

     Atom                 Charge (a.u.)
  ----------------------------------------
      1 F                    -0.161411
      2 C                    -0.250461
      3 C                    -0.020824
      4 H                     0.169571
      5 H                     0.148351
      6 H                     0.114774
  ----------------------------------------
  Sum of atomic charges =     0.000000

 -----------------------------------------------------------------
                    Cartesian Multipole Moments
 -----------------------------------------------------------------
    Charge (ESU x 10^10)
                 0.0000
    Dipole Moment (Debye)
         X      -1.4919      Y      -0.9315      Z       0.0000
       Tot       1.7588
    Quadrupole Moments (Debye-Ang)
        XX     -18.0169     XY      -0.9545     YY     -15.3190
        XZ      -0.0000     YZ       0.0000     ZZ     -19.4634
    Octopole Moments (Debye-Ang^2)
       XXX       3.3630    XXY      -0.3982    XYY       2.1562
       YYY       0.4379    XXZ       0.0000    XYZ      -0.0000
       YYZ       0.0000    XZZ       4.9913    YZZ       0.6898
       ZZZ       0.0000
    Hexadecapole Moments (Debye-Ang^3)
      XXXX    -118.9090   XXXY       3.8287   XXYY     -26.0404
      XYYY      -0.5470   YYYY     -34.4769   XXXZ      -0.0000
      XXYZ      -0.0000   XYYZ      -0.0000   YYYZ       0.0000
      XXZZ     -26.3130   XYZZ       0.5238   YYZZ     -10.9109
      XZZZ      -0.0000   YZZZ       0.0000   ZZZZ     -21.3270
 -----------------------------------------------------------------
