                  Welcome to Q-Chem
     A Quantum Leap Into The Future Of Chemistry


 Q-Chem 5.2 (devel), Q-Chem, Inc., Pleasanton, CA (2019)

 Yihan Shao,  Zhengting Gan,  E. Epifanovsky,  A. T. B. Gilbert,  M. Wormit,  
 J. Kussmann,  A. W. Lange,  A. Behn,  Jia Deng,  Xintian Feng,  D. Ghosh,  
 M. Goldey,  P. R. Horn,  L. D. Jacobson,  I. Kaliman,  T. Kus,  A. Landau,  
 Jie Liu,  E. I. Proynov,  R. M. Richard,  R. P. Steele,  E. J. Sundstrom,  
 H. L. Woodcock III,  P. M. Zimmerman,  D. Zuev,  B. Albrecht,  E. Alguire,  
 S. A. Baeppler,  D. Barton,  Z. Benda,  Y. A. Bernard,  E. J. Berquist,  
 K. B. Bravaya,  H. Burton,  D. Casanova,  Chun-Min Chang,  Yunqing Chen,  
 A. Chien,  K. D. Closser,  M. P. Coons,  S. Coriani,  S. Dasgupta,  
 A. L. Dempwolff,  M. Diedenhofen,  Hainam Do,  R. G. Edgar,  Po-Tung Fang,  
 S. Faraji,  S. Fatehi,  Qingguo Feng,  K. D. Fenk,  J. Fosso-Tande,  
 J. Gayvert,  Qinghui Ge,  A. Ghysels,  G. Gidofalvi,  J. Gomes,  
 J. Gonthier,  A. Gunina,  D. Hait,  M. W. D. Hanson-Heine,  
 P. H. P. Harbach,  A. W. Hauser,  J. E. Herr,  E. G. Hohenstein,  
 Z. C. Holden,  Kerwin Hui,  B. C. Huynh,  T.-C. Jagau,  Hyunjun Ji,  
 B. Kaduk,  K. Khistyaev,  Jaehoon Kim,  P. Klunzinger,  K. Koh,  
 D. Kosenkov,  L. Koulias,  T. Kowalczyk,  C. M. Krauter,  A. Kunitsa,  
 Ka Un Lao,  A. Laurent,  K. V. Lawler,  Joonho Lee,  D. Lefrancois,  
 S. Lehtola,  D. S. Levine,  Yi-Pei Li,  You-Sheng Lin,  Fenglai Liu,  
 E. Livshits,  A. Luenser,  P. Manohar,  E. Mansoor,  S. F. Manzer,  
 Shan-Ping Mao,  Yuezhi Mao,  N. Mardirossian,  A. V. Marenich,  
 T. Markovich,  L. A. Martinez-Martinez,  S. A. Maurer,  N. J. Mayhall,  
 S. C. McKenzie,  J.-M. Mewes,  A. F. Morrison,  J. W. Mullinax,  K. Nanda,  
 T. S. Nguyen-Beck,  R. Olivares-Amaya,  J. A. Parkhill,  T. M. Perrine,  
 F. Plasser,  P. Pokhilko,  S. Prager,  A. Prociuk,  E. Ramos,  D. R. Rehn,  
 F. Rob,  M. Schneider,  N. Sergueev,  S. M. Sharada,  S. Sharma,  
 D. W. Small,  T. Stauch,  T. Stein,  Yu-Chuan Su,  A. J. W. Thom,  
 A. Tkatchenko,  T. Tsuchimochi,  N. M. Tubman,  L. Vogt,  M. L. Vidal,  
 O. Vydrov,  M. A. Watson,  J. Wenzel,  M. de Wergifosse,  T. A. Wesolowski,  
 A. White,  J. Witte,  A. Yamada,  Jun Yang,  K. Yao,  S. Yeganeh,  
 S. R. Yost,  Zhi-Qiang You,  A. Zech,  Igor Ying Zhang,  Xing Zhang,  
 Yan Zhao,  Ying Zhu,  B. R. Brooks,  G. K. L. Chan,  C. J. Cramer,  
 M. S. Gordon,  W. J. Hehre,  A. Klamt,  M. W. Schmidt,  C. D. Sherrill,  
 D. G. Truhlar,  A. Aspuru-Guzik,  R. Baer,  A. T. Bell,  N. A. Besley,  
 Jeng-Da Chai,  A. E. DePrince, III,  R. A. DiStasio Jr.,  A. Dreuw,  
 B. D. Dunietz,  T. R. Furlani,  Chao-Ping Hsu,  Yousung Jung,  Jing Kong,  
 D. S. Lambrecht,  WanZhen Liang,  C. Ochsenfeld,  V. A. Rassolov,  
 L. V. Slipchenko,  J. E. Subotnik,  T. Van Voorhis,  J. M. Herbert,  
 A. I. Krylov,  P. M. W. Gill,  M. Head-Gordon

 Contributors to earlier versions of Q-Chem not listed above: 
 R. D. Adamson,  B. Austin,  J. Baker,  G. J. O. Beran,  K. Brandhorst,  
 S. T. Brown,  E. F. C. Byrd,  A. K. Chakraborty,  C.-L. Cheng,  
 Siu Hung Chien,  D. M. Chipman,  D. L. Crittenden,  H. Dachsel,  
 R. J. Doerksen,  A. D. Dutoi,  L. Fusti-Molnar,  W. A. Goddard III,  
 A. Golubeva-Zadorozhnaya,  S. R. Gwaltney,  G. Hawkins,  A. Heyden,  
 S. Hirata,  G. Kedziora,  F. J. Keil,  C. Kelley,  Jihan Kim,  R. A. King,  
 R. Z. Khaliullin,  P. P. Korambath,  W. Kurlancheek,  A. M. Lee,  M. S. Lee,  
 S. V. Levchenko,  Ching Yeh Lin,  D. Liotard,  R. C. Lochan,  I. Lotan,  
 P. E. Maslen,  N. Nair,  D. P. O'Neill,  D. Neuhauser,  E. Neuscamman,  
 C. M. Oana,  R. Olson,  B. Peters,  R. Peverati,  P. A. Pieniazek,  
 Y. M. Rhee,  J. Ritchie,  M. A. Rohrdanz,  E. Rosta,  N. J. Russ,  
 H. F. Schaefer III,  N. E. Schultz,  N. Shenvi,  A. C. Simmonett,  A. Sodt,  
 D. Stuck,  K. S. Thanthiriwatte,  V. Vanovschi,  Tao Wang,  A. Warshel,  
 C. F. Williams,  Q. Wu,  X. Xu,  W. Zhang

 Please cite Q-Chem as follows:
 Y. Shao et al., Mol. Phys. 113, 184-215 (2015)
 DOI: 10.1080/00268976.2014.952696

 Q-Chem 5.2.0 for Mac (Intel) OS X

 Parts of Q-Chem use Armadillo 8.300.2 (Tropical Shenanigans).
 http://arma.sourceforge.net/

 Q-Chem begins on Mon Jan 14 05:25:21 2019  

eduroam-1011.desy.de
Host: 0

     Scratch files written to /scratch/qchem48101//
Processing $rem in /Users/annakrylov/.qchemrc.
CC_MEMORY  4000
Input Ideriv = 1
Curr. Ideriv = -1
Max.  Ideriv = 1

Checking the input file for inconsistencies... 	...done.

--------------------------------------------------------------
User input:
--------------------------------------------------------------
$comment 
NEXAFS VINYLFLUORIDE / 6-311++G**
Optimized geometry with CFour
Calculation of CCSD properties. Can combine with
EE calculations of R^2 by adding this line to the EE job:
cc_ref_prop=true
$end

$molecule
0 1
F      -1.1529023119     0.2247766372     0.0000000000
C1      1.1793501171     0.1997294858     0.0000000000
C2      0.0163188564    -0.4355681094     0.0000000000
H      -0.1189530186    -1.5078996853     0.0000000000
H       1.2308254859     1.2785611362     0.0000000000
H       2.0902344982    -0.3786194440     0.0000000000
$end

$rem
    jobtype = sp
    method = ccsd
    basis = 6-311++G**
    n_frozen_core = fc 
    cc_ref_prop = true
$end
--------------------------------------------------------------
 ----------------------------------------------------------------
             Standard Nuclear Orientation (Angstroms)
    I     Atom           X                Y                Z
 ----------------------------------------------------------------
    1      F       1.1529023119     0.2247766372    -0.0000000000
    2      C      -1.1793501171     0.1997294858    -0.0000000000
    3      C      -0.0163188564    -0.4355681094     0.0000000000
    4      H       0.1189530185    -1.5078996853     0.0000000000
    5      H      -1.2308254859     1.2785611362    -0.0000000000
    6      H      -2.0902344982    -0.3786194440     0.0000000000
 ----------------------------------------------------------------
 Molecular Point Group                 Cs    NOp =  2
 Largest Abelian Subgroup              Cs    NOp =  2
 Nuclear Repulsion Energy =    67.5482146698 hartrees
 There are       12 alpha and       12 beta electrons
 Requested basis set is 6-311++G(d,p)
 There are 33 shells and 87 basis functions
 WARNING: the default MEM_TOTAL is adjusted according to given MEM_STATIC!
 Total memory of 4192 MB is distributed as follows: 
   MEM_STATIC is set to 192 MB
   QALLOC/CCMAN JOB total memory use is  4000 MB
 Warning: actual memory use might exceed 4192 MB

 Total QAlloc Memory Limit   4192 MB
 Mega-Array Size       188 MB
 MEM_STATIC part       192 MB

                       Distance Matrix (Angstroms)
             F (  1)   C (  2)   C (  3)   H (  4)   H (  5)
   C (  2)  2.332387
   C (  3)  1.342808  1.325234
   H (  4)  2.017726  2.145131  1.080830
   H (  5)  2.606266  1.080059  2.100777  3.096170
   H (  6)  3.298791  1.078980  2.074697  2.481085  1.866770

 A cutoff of  1.0D-14 yielded    559 shell pairs
 There are      3934 function pairs (      4216 Cartesian)
 Smallest overlap matrix eigenvalue = 1.26E-04

 Scale SEOQF with 1.000000e-01/1.000000e-01/1.000000e-01

 Standard Electronic Orientation quadrupole field applied
 Nucleus-field energy     =     0.0000000014 hartrees
 Guess from superposition of atomic densities
 Warning:  Energy on first SCF cycle will be non-variational
 SAD guess density has 24.000000 electrons

 -----------------------------------------------------------------------
  General SCF calculation program by
  Eric Jon Sundstrom, Paul Horn, Yuezhi Mao, Dmitri Zuev, Alec White,
  David Stuck, Shaama M.S., Shane Yost, Joonho Lee, David Small,
  Daniel Levine, Susi Lehtola, Hugh Burton, Evgeny Epifanovsky
 -----------------------------------------------------------------------
 Hartree-Fock
 A restricted SCF calculation will be
 performed using DIIS
 SCF converges when DIIS error is below 1.0e-08
 ---------------------------------------
  Cycle       Energy         DIIS error
 ---------------------------------------
    1    -177.5071171347      6.50e-02  
    2    -176.8894812054      6.89e-03  
    3    -176.9276658310      3.48e-03  
    4    -176.9358686513      7.40e-04  
    5    -176.9366096217      1.59e-04  
    6    -176.9366534689      6.88e-05  
    7    -176.9366606979      2.33e-05  
    8    -176.9366624006      7.45e-06  
    9    -176.9366625352      1.61e-06  
   10    -176.9366625405      5.78e-07  
   11    -176.9366625413      1.32e-07  
   12    -176.9366625414      2.47e-08  
   13    -176.9366625414      3.54e-09  Convergence criterion met
 ---------------------------------------
 SCF time:   CPU 3.03s  wall 4.00s 
 SCF   energy in the final basis set =     -176.9366625414
 Total energy in the final basis set =     -176.9366625414


 ------------------------------------------------------------------------------

   CCMAN2: suite of methods based on coupled cluster
           and equation of motion theories.

   Components:
   * libvmm-1.3-trunk
     by Evgeny Epifanovsky, Ilya Kaliman.
   * libtensor-2.5-trunk
     by Evgeny Epifanovsky, Michael Wormit, Dmitry Zuev, Sam Manzer, 
        Ilya Kaliman.
   * libcc-2.5-trunk
     by Evgeny Epifanovsky, Arik Landau, Tomasz Kus, Kirill Khistyaev, 
        Dmitry Zuev, Prashant Manohar, Xintian Feng, Anna Krylov, 
        Matthew Goldey, Alec White, Thomas Jagau, Kaushik Nanda, 
        Anastasia Gunina, Alexander Kunitsa, Joonho Lee.

   CCMAN original authors:
   Anna I. Krylov, C. David Sherrill, Steven R. Gwaltney,
   Edward F. C. Byrd (2000)
   Sergey V. Levchenko, Lyudmila V. Slipchenko, Tao Wang,
   Ana-Maria C. Cristian (2003)
   Piotr A. Pieniazek, C. Melania Oana, Evgeny Epifanovsky (2007)
   Prashant Manohar (2009)

 ------------------------------------------------------------------------------


 Allocating and initializing 4000MB of RAM...
 Calculation will run on 2 cores.


 Alpha MOs, Restricted
 -- Occupied --                  
-26.310 -11.332 -11.240  -1.629  -1.055  -0.840  -0.740  -0.691
  1 A'    2 A'    3 A'    4 A'    5 A'    6 A'    7 A'    1 A"                 
 -0.686  -0.591  -0.562  -0.386
  8 A'    9 A'   10 A'    2 A"                                                 
 -- Virtual --                   
  0.046   0.059   0.067   0.109   0.121   0.122   0.139   0.175
 11 A'   12 A'   13 A'    3 A"   14 A'    4 A"   15 A'   16 A'                 
  0.180   0.205   0.214   0.216   0.267   0.287   0.325   0.376
 17 A'   18 A'    5 A"   19 A'   20 A'   21 A'   22 A'    6 A"                 
  0.378   0.455   0.475   0.501   0.547   0.636   0.647   0.700
 23 A'   24 A'   25 A'   26 A'   27 A'   28 A'   29 A'   30 A'                 
  0.702   0.784   0.839   0.902   0.916   0.946   1.010   1.083
  7 A"    8 A"   31 A'   32 A'   33 A'   34 A'   35 A'   36 A'                 
  1.250   1.311   1.457   1.569   1.644   1.660   1.670   1.733
  9 A"   10 A"   11 A"   37 A'   38 A'   39 A'   12 A"   40 A'                 
  1.807   1.842   1.904   1.947   2.030   2.142   2.210   2.310
 41 A'   42 A'   13 A"   43 A'   14 A"   44 A'   45 A'   15 A"                 
  2.342   2.401   2.432   2.554   2.740   2.863   2.916   2.981
 46 A'   16 A"   47 A'   48 A'   49 A'   50 A'   51 A'   52 A'                 
  3.044   3.064   3.250   3.363   3.580   3.873   4.142   4.225
 53 A'   17 A"   18 A"   54 A'   55 A'   56 A'   57 A'   19 A"                 
  4.248   4.424   4.443   4.590   5.310   6.925   7.004   7.324
 58 A'   59 A'   20 A"   60 A'   61 A'   21 A"   62 A'   63 A'                 
 24.828  25.409  68.750
 64 A'   65 A'   66 A'                                                         

 Beta MOs, Restricted
 -- Occupied --                  
-26.310 -11.332 -11.240  -1.629  -1.055  -0.840  -0.740  -0.691
  1 A'    2 A'    3 A'    4 A'    5 A'    6 A'    7 A'    1 A"                 
 -0.686  -0.591  -0.562  -0.386
  8 A'    9 A'   10 A'    2 A"                                                 
 -- Virtual --                   
  0.046   0.059   0.067   0.109   0.121   0.122   0.139   0.175
 11 A'   12 A'   13 A'    3 A"   14 A'    4 A"   15 A'   16 A'                 
  0.180   0.205   0.214   0.216   0.267   0.287   0.325   0.376
 17 A'   18 A'    5 A"   19 A'   20 A'   21 A'   22 A'    6 A"                 
  0.378   0.455   0.475   0.501   0.547   0.636   0.647   0.700
 23 A'   24 A'   25 A'   26 A'   27 A'   28 A'   29 A'   30 A'                 
  0.702   0.784   0.839   0.902   0.916   0.946   1.010   1.083
  7 A"    8 A"   31 A'   32 A'   33 A'   34 A'   35 A'   36 A'                 
  1.250   1.311   1.457   1.569   1.644   1.660   1.670   1.733
  9 A"   10 A"   11 A"   37 A'   38 A'   39 A'   12 A"   40 A'                 
  1.807   1.842   1.904   1.947   2.030   2.142   2.210   2.310
 41 A'   42 A'   13 A"   43 A'   14 A"   44 A'   45 A'   15 A"                 
  2.342   2.401   2.432   2.554   2.740   2.863   2.916   2.981
 46 A'   16 A"   47 A'   48 A'   49 A'   50 A'   51 A'   52 A'                 
  3.044   3.064   3.250   3.363   3.580   3.873   4.142   4.225
 53 A'   17 A"   18 A"   54 A'   55 A'   56 A'   57 A'   19 A"                 
  4.248   4.424   4.443   4.590   5.310   6.925   7.004   7.324
 58 A'   59 A'   20 A"   60 A'   61 A'   21 A"   62 A'   63 A'                 
 24.828  25.409  68.750
 64 A'   65 A'   66 A'                                                         

 Occupation and symmetry of molecular orbitals

 Point group: Cs (2 irreducible representations).

                           A'   A"    All 
 ------------------------------------------
 All molecular orbitals:
  - Alpha                  66   21    87  
  - Beta                   66   21    87  
 ------------------------------------------
 Alpha orbitals:
  - Frozen occupied        3    0     3   
  - Active occupied        7    2     9   
  - Active virtual         56   19    75  
  - Frozen virtual         0    0     0   
 ------------------------------------------
 Beta orbitals:
  - Frozen occupied        3    0     3   
  - Active occupied        7    2     9   
  - Active virtual         56   19    75  
  - Frozen virtual         0    0     0   
 ------------------------------------------

 Import integrals:   CPU 0.00 s  wall 0.00 s

 Import integrals:   CPU 2.47 s  wall 2.35 s

 MP2 amplitudes:   CPU 0.14 s  wall 0.13 s

Running a double precision version
           CCSD T amplitudes will be solved using DIIS.

           Start     Size      MaxIter   EConv     TConv     
           3         7         100       1.00e-06  1.00e-04  
 ------------------------------------------------------------------------------
           Energy (a.u.)   Ediff      Tdiff       Comment
 ------------------------------------------------------------------------------
          -177.42527230                           
     1    -177.43121620   5.94e-03   6.17e-01     
     2    -177.44474611   1.35e-02   7.48e-02     
     3    -177.44550138   7.55e-04   2.95e-02     
     4    -177.44700173   1.50e-03   1.07e-02     Switched to DIIS steps.
     5    -177.44758593   5.84e-04   9.17e-03     
     6    -177.44760205   1.61e-05   1.55e-03     
     7    -177.44759692   5.13e-06   6.66e-04     
     8    -177.44759605   8.66e-07   1.06e-04     
     9    -177.44759618   1.25e-07   4.18e-05     
 ------------------------------------------------------------------------------
          -177.44759618                           CCSD T converged.

End of double precision
 SCF energy                 = -176.93666254
 MP2 energy                 = -177.42527230
 CCSD correlation energy     =   -0.51093364
 CCSD total energy           = -177.44759618

 CCSD  T1^2 = 0.0059  T2^2 = 0.1645  Leading amplitudes:

 Amplitude    Orbitals with energies
 -0.0213       2 (A") A                  ->    7 (A") A                   
              -0.3861                          0.7018                     
 -0.0213       2 (A") B                  ->    7 (A") B                   
              -0.3861                          0.7018                     
 -0.0180       1 (A") A                  ->    3 (A") A                   
              -0.6905                          0.1085                     
 -0.0180       1 (A") B                  ->    3 (A") B                   
              -0.6905                          0.1085                     

 Amplitude    Orbitals with energies
 -0.0807       2 (A") A      2 (A") B    ->    5 (A") A      5 (A") B     
              -0.3861       -0.3861            0.2142        0.2142       
  0.0807       2 (A") A      2 (A") B    ->    5 (A") B      5 (A") A     
              -0.3861       -0.3861            0.2142        0.2142       
  0.0807       2 (A") B      2 (A") A    ->    5 (A") A      5 (A") B     
              -0.3861       -0.3861            0.2142        0.2142       
 -0.0807       2 (A") B      2 (A") A    ->    5 (A") B      5 (A") A     
              -0.3861       -0.3861            0.2142        0.2142       

 Computing CCSD intemediates for later calculations in double precision
 Finished.

Running a double precision version
           CCSD Lambda amplitudes will be solved using DIIS.
           Start     Size      MaxIter   EConv     LConv     
           3         7         100       1.00e-06  1.00e-04  
 ------------------------------------------------------------------------------
            Enorm      Ldiff       Comment
 ------------------------------------------------------------------------------
     1     3.66e-02   2.32e-02     
     2     1.08e-02   4.90e-03     
     3     4.07e-03   7.02e-04     
     4     2.06e-03   6.97e-04     Switched to DIIS steps.
     5     5.06e-04   3.86e-04     
     6     2.22e-04   6.80e-05     
     7     5.94e-05   1.43e-05     
     8     2.42e-05   1.04e-06     
     9     8.82e-06   2.36e-06     
    10     3.32e-06   9.57e-07     
    11     1.24e-06   3.02e-07     
    12     3.51e-07   1.39e-07     
 ------------------------------------------------------------------------------
                                   CCSD Lambda converged.

 Computing density matrices in double precision...
 Computing density matrices... Done.
 Reference state properties
 Dipole moment (a.u.): 0.615312 (X -0.524357, Y -0.321961, Z 0.000000)
 R-squared (a.u.): 154.069867 (XX 107.039062, YY 32.673057, ZZ 14.357749)
 Density matrix was written to a file for further analysis.

 CCSD calculation:   CPU 33.54 s  wall 17.70 s

 Total ccman2 time:   CPU 38.24 s  wall 21.56 s


 --------------------------------------------------------------
             Orbital Energies (a.u.) and Symmetries
 --------------------------------------------------------------

 Alpha MOs, Restricted
 -- Occupied --                  
-26.310 -11.332 -11.240  -1.629  -1.055  -0.840  -0.740  -0.691
  1 A'    2 A'    3 A'    4 A'    5 A'    6 A'    7 A'    1 A"                 
 -0.686  -0.591  -0.562  -0.386
  8 A'    9 A'   10 A'    2 A"                                                 
 -- Virtual --                   
  0.046   0.059   0.067   0.109   0.121   0.122   0.139   0.175
 11 A'   12 A'   13 A'    3 A"   14 A'    4 A"   15 A'   16 A'                 
  0.180   0.205   0.214   0.216   0.267   0.287   0.325   0.376
 17 A'   18 A'    5 A"   19 A'   20 A'   21 A'   22 A'    6 A"                 
  0.378   0.455   0.475   0.501   0.547   0.636   0.647   0.700
 23 A'   24 A'   25 A'   26 A'   27 A'   28 A'   29 A'   30 A'                 
  0.702   0.784   0.839   0.902   0.916   0.946   1.010   1.083
  7 A"    8 A"   31 A'   32 A'   33 A'   34 A'   35 A'   36 A'                 
  1.250   1.311   1.457   1.569   1.644   1.660   1.670   1.733
  9 A"   10 A"   11 A"   37 A'   38 A'   39 A'   12 A"   40 A'                 
  1.807   1.842   1.904   1.947   2.030   2.142   2.210   2.310
 41 A'   42 A'   13 A"   43 A'   14 A"   44 A'   45 A'   15 A"                 
  2.342   2.401   2.432   2.554   2.740   2.863   2.916   2.981
 46 A'   16 A"   47 A'   48 A'   49 A'   50 A'   51 A'   52 A'                 
  3.044   3.064   3.250   3.363   3.580   3.873   4.142   4.225
 53 A'   17 A"   18 A"   54 A'   55 A'   56 A'   57 A'   19 A"                 
  4.248   4.424   4.443   4.590   5.310   6.925   7.004   7.324
 58 A'   59 A'   20 A"   60 A'   61 A'   21 A"   62 A'   63 A'                 
 24.828  25.409  68.750
 64 A'   65 A'   66 A'                                                         

 Beta MOs, Restricted
 -- Occupied --                  
-26.310 -11.332 -11.240  -1.629  -1.055  -0.840  -0.740  -0.691
  1 A'    2 A'    3 A'    4 A'    5 A'    6 A'    7 A'    1 A"                 
 -0.686  -0.591  -0.562  -0.386
  8 A'    9 A'   10 A'    2 A"                                                 
 -- Virtual --                   
  0.046   0.059   0.067   0.109   0.121   0.122   0.139   0.175
 11 A'   12 A'   13 A'    3 A"   14 A'    4 A"   15 A'   16 A'                 
  0.180   0.205   0.214   0.216   0.267   0.287   0.325   0.376
 17 A'   18 A'    5 A"   19 A'   20 A'   21 A'   22 A'    6 A"                 
  0.378   0.455   0.475   0.501   0.547   0.636   0.647   0.700
 23 A'   24 A'   25 A'   26 A'   27 A'   28 A'   29 A'   30 A'                 
  0.702   0.784   0.839   0.902   0.916   0.946   1.010   1.083
  7 A"    8 A"   31 A'   32 A'   33 A'   34 A'   35 A'   36 A'                 
  1.250   1.311   1.457   1.569   1.644   1.660   1.670   1.733
  9 A"   10 A"   11 A"   37 A'   38 A'   39 A'   12 A"   40 A'                 
  1.807   1.842   1.904   1.947   2.030   2.142   2.210   2.310
 41 A'   42 A'   13 A"   43 A'   14 A"   44 A'   45 A'   15 A"                 
  2.342   2.401   2.432   2.554   2.740   2.863   2.916   2.981
 46 A'   16 A"   47 A'   48 A'   49 A'   50 A'   51 A'   52 A'                 
  3.044   3.064   3.250   3.363   3.580   3.873   4.142   4.225
 53 A'   17 A"   18 A"   54 A'   55 A'   56 A'   57 A'   19 A"                 
  4.248   4.424   4.443   4.590   5.310   6.925   7.004   7.324
 58 A'   59 A'   20 A"   60 A'   61 A'   21 A"   62 A'   63 A'                 
 24.828  25.409  68.750
 64 A'   65 A'   66 A'                                                         
 --------------------------------------------------------------

          Ground-State Mulliken Net Atomic Charges

     Atom                 Charge (a.u.)
  ----------------------------------------
      1 F                    -0.127022
      2 C                    -0.225946
      3 C                    -0.046841
      4 H                     0.149559
      5 H                     0.138668
      6 H                     0.111582
  ----------------------------------------
  Sum of atomic charges =    -0.000000

 -----------------------------------------------------------------
                    Cartesian Multipole Moments
 -----------------------------------------------------------------
    Charge (ESU x 10^10)
                 0.0000
    Dipole Moment (Debye)
         X      -1.3328      Y      -0.8183      Z       0.0000
       Tot       1.5640
    Quadrupole Moments (Debye-Ang)
        XX     -18.0907     XY      -0.7983     YY     -15.6833
        XZ      -0.0000     YZ       0.0000     ZZ     -19.3117
    Octopole Moments (Debye-Ang^2)
       XXX       3.8652    XXY      -0.3217    XYY       2.1507
       YYY       0.6034    XXZ       0.0000    XYZ       0.0000
       YYZ       0.0000    XZZ       4.6524    YZZ       0.6373
       ZZZ       0.0000
    Hexadecapole Moments (Debye-Ang^3)
      XXXX    -121.3024   XXXY       3.9891   XXYY     -26.6718
      XYYY      -0.3316   YYYY     -36.5369   XXXZ      -0.0000
      XXYZ       0.0000   XYYZ      -0.0000   YYYZ       0.0000
      XXZZ     -26.3886   XYZZ       0.5574   YYZZ     -10.9758
      XZZZ      -0.0000   YZZZ       0.0000   ZZZZ     -20.7327
 -----------------------------------------------------------------
Archival summary:
1\1\eduroam-1011.desy.de\SP\ProcedureUnspecified\BasisUnspecified\123\MonJan1405:25:492019MonJan1405:25:492019\0\\#,ProcedureUnspecified,BasisUnspecified,\\0,1\C\H,1,1.08083\C,1,1.32523,2,125.835\H,3,1.07898,1,118.942,2,0,0\H,3,1.08006,1,121.377,2,-180,0\F,1,1.34281,2,112.267,3,-180,0\\HF=-176.936663\\@

 Total job time:  28.08s(wall), 44.36s(cpu) 
 Mon Jan 14 05:25:49 2019

        *************************************************************
        *                                                           *
        *  Thank you very much for using Q-Chem.  Have a nice day.  *
        *                                                           *
        *************************************************************


