Q-Chem Developer Version!
                  Welcome to Q-Chem
     A Quantum Leap Into The Future Of Chemistry


 Q-Chem 5.1, Q-Chem, Inc., Pleasanton, CA (2018)

 Yihan Shao,  Zhengting Gan,  E. Epifanovsky,  A. T. B. Gilbert,  M. Wormit,  
 J. Kussmann,  A. W. Lange,  A. Behn,  Jia Deng,  Xintian Feng,  D. Ghosh,  
 M. Goldey,  P. R. Horn,  L. D. Jacobson,  I. Kaliman,  T. Kus,  A. Landau,  
 Jie Liu,  E. I. Proynov,  R. M. Richard,  R. P. Steele,  E. J. Sundstrom,  
 H. L. Woodcock III,  P. M. Zimmerman,  D. Zuev,  B. Albrecht,  E. Alguire,  
 S. A. Baeppler,  D. Barton,  Z. Benda,  Y. A. Bernard,  E. J. Berquist,  
 K. B. Bravaya,  H. Burton,  D. Casanova,  Chun-Min Chang,  Yunqing Chen,  
 A. Chien,  K. D. Closser,  M. P. Coons,  S. Coriani,  S. Dasgupta,  
 A. L. Dempwolff,  M. Diedenhofen,  Hainam Do,  R. G. Edgar,  Po-Tung Fang,  
 S. Faraji,  S. Fatehi,  Qingguo Feng,  K. D. Fenk,  J. Fosso-Tande,  
 Qinghui Ge,  A. Ghysels,  G. Gidofalvi,  J. Gomes,  J. Gonthier,  A. Gunina,  
 D. Hait,  M. W. D. Hanson-Heine,  P. H. P. Harbach,  A. W. Hauser,  
 J. E. Herr,  E. G. Hohenstein,  Z. C. Holden,  Kerwin Hui,  B. C. Huynh,  
 T.-C. Jagau,  Hyunjun Ji,  B. Kaduk,  K. Khistyaev,  Jaehoon Kim,  
 P. Klunzinger,  K. Koh,  D. Kosenkov,  L. Koulias,  T. Kowalczyk,  
 C. M. Krauter,  A. Kunitsa,  Ka Un Lao,  A. Laurent,  K. V. Lawler,  
 Joonho Lee,  D. Lefrancois,  S. Lehtola,  D. S. Levine,  Yi-Pei Li,  
 You-Sheng Lin,  Fenglai Liu,  E. Livshits,  A. Luenser,  P. Manohar,  
 E. Mansoor,  S. F. Manzer,  Shan-Ping Mao,  Yuezhi Mao,  N. Mardirossian,  
 A. V. Marenich,  T. Markovich,  L. A. Martinez-Martinez,  S. A. Maurer,  
 N. J. Mayhall,  S. C. McKenzie,  J.-M. Mewes,  A. F. Morrison,  
 J. W. Mullinax,  K. Nanda,  T. S. Nguyen-Beck,  R. Olivares-Amaya,  
 J. A. Parkhill,  T. M. Perrine,  F. Plasser,  P. Pokhilko,  S. Prager,  
 A. Prociuk,  E. Ramos,  D. R. Rehn,  F. Rob,  M. Schneider,  N. Sergueev,  
 S. M. Sharada,  S. Sharma,  D. W. Small,  T. Stauch,  T. Stein,  
 Yu-Chuan Su,  A. J. W. Thom,  A. Tkatchenko,  T. Tsuchimochi,  N. M. Tubman,  
 L. Vogt,  M. L. Vidal,  O. Vydrov,  M. A. Watson,  J. Wenzel,  
 M. de Wergifosse,  T. A. Wesolowski,  A. White,  J. Witte,  A. Yamada,  
 Jun Yang,  K. Yao,  S. Yeganeh,  S. R. Yost,  Zhi-Qiang You,  A. Zech,  
 Igor Ying Zhang,  Xing Zhang,  Yan Zhao,  Ying Zhu,  B. R. Brooks,  
 G. K. L. Chan,  C. J. Cramer,  M. S. Gordon,  W. J. Hehre,  A. Klamt,  
 M. W. Schmidt,  C. D. Sherrill,  D. G. Truhlar,  A. Aspuru-Guzik,  R. Baer,  
 A. T. Bell,  N. A. Besley,  Jeng-Da Chai,  A. E. DePrince, III,  
 R. A. DiStasio Jr.,  A. Dreuw,  B. D. Dunietz,  T. R. Furlani,  
 Chao-Ping Hsu,  Yousung Jung,  Jing Kong,  D. S. Lambrecht,  WanZhen Liang,  
 C. Ochsenfeld,  V. A. Rassolov,  L. V. Slipchenko,  J. E. Subotnik,  
 T. Van Voorhis,  J. M. Herbert,  A. I. Krylov,  P. M. W. Gill,  M. Head-Gordon

 Contributors to earlier versions of Q-Chem not listed above: 
 R. D. Adamson,  B. Austin,  J. Baker,  G. J. O. Beran,  K. Brandhorst,  
 S. T. Brown,  E. F. C. Byrd,  A. K. Chakraborty,  C.-L. Cheng,  
 Siu Hung Chien,  D. M. Chipman,  D. L. Crittenden,  H. Dachsel,  
 R. J. Doerksen,  A. D. Dutoi,  L. Fusti-Molnar,  W. A. Goddard III,  
 A. Golubeva-Zadorozhnaya,  S. R. Gwaltney,  G. Hawkins,  A. Heyden,  
 S. Hirata,  G. Kedziora,  F. J. Keil,  C. Kelley,  Jihan Kim,  R. A. King,  
 R. Z. Khaliullin,  P. P. Korambath,  W. Kurlancheek,  A. M. Lee,  M. S. Lee,  
 S. V. Levchenko,  Ching Yeh Lin,  D. Liotard,  R. C. Lochan,  I. Lotan,  
 P. E. Maslen,  N. Nair,  D. P. O'Neill,  D. Neuhauser,  E. Neuscamman,  
 C. M. Oana,  R. Olson,  B. Peters,  R. Peverati,  P. A. Pieniazek,  
 Y. M. Rhee,  J. Ritchie,  M. A. Rohrdanz,  E. Rosta,  N. J. Russ,  
 H. F. Schaefer III,  N. E. Schultz,  N. Shenvi,  A. C. Simmonett,  A. Sodt,  
 D. Stuck,  K. S. Thanthiriwatte,  V. Vanovschi,  Tao Wang,  A. Warshel,  
 C. F. Williams,  Q. Wu,  X. Xu,  W. Zhang

 Please cite Q-Chem as follows:
 Y. Shao et al., Mol. Phys. 113, 184-215 (2015)
 DOI: 10.1080/00268976.2014.952696

 Q-Chem 5.1.1 for Intel X86 EM64T Linux

 Parts of Q-Chem use Armadillo 8.300.2 (Tropical Shenanigans).
 http://arma.sourceforge.net/

 Q-Chem begins on Mon Jan 14 15:22:11 2019  


Host: 0

     Scratch files written to /work1/malop/qc_7613197.hnode2//
Input Ideriv = 1
Curr. Ideriv = -1
Max.  Ideriv = 1

Checking the input file for inconsistencies... 	...done.

--------------------------------------------------------------
User input:
--------------------------------------------------------------
$comment 
NEXAFS WATER / 6-311++G**+Rydberg
CFour optimized geometry
$end

$molecule
0 1
O       0.0000000000     0.0000000000     0.2225991021
H      -1.4275435469     0.0000000000    -0.8903964085
H       1.4275435469     0.0000000000    -0.8903964085
Gh      0.0000000000     0.0000000000     0.0000000000     
$end

$rem
    input_bohr = true
    jobtype = sp
    method = eom-ccsd
    basis = gen
    n_frozen_core = fc 
    cc_ref_prop = true
$end

$basis
O    0
S    6    1.000000
   8.58850000E+03    1.89515000E-03
   1.29723000E+03    1.43859000E-02
   2.99296000E+02    7.07320000E-02
   8.73771000E+01    2.40001000E-01
   2.56789000E+01    5.94797000E-01
   3.74004000E+00    2.80802000E-01
SP   3    1.000000
   4.21175000E+01    1.13889000E-01   3.65114000E-02
   9.62837000E+00    9.20811000E-01   2.37153000E-01
   2.85332000E+00   -3.27447000E-03   8.19702000E-01
SP   1    1.000000
   9.05661000E-01    1.00000000E+00   1.00000000E+00
SP   1    1.000000
   2.55611000E-01    1.00000000E+00   1.00000000E+00
SP   1    1.000000
   8.45000000E-02    1.00000000E+00   1.00000000E+00
D    1    1.000000
   1.29200000E+00    1.00000000E+00
****
H    0
S    3    1.000000
   3.38650000E+01    2.54938000E-02
   5.09479000E+00    1.90373000E-01
   1.15879000E+00    8.52161000E-01
S    1    1.000000
   3.25840000E-01    1.00000000E+00
S    1    1.000000
   1.02741000E-01    1.00000000E+00
S    1    1.000000
   3.60000000E-02    1.00000000E+00
P    1    1.000000
   7.50000000E-01    1.00000000E+00
****
H    0
S    3    1.000000
   3.38650000E+01    2.54938000E-02
   5.09479000E+00    1.90373000E-01
   1.15879000E+00    8.52161000E-01
S    1    1.000000
   3.25840000E-01    1.00000000E+00
S    1    1.000000
   1.02741000E-01    1.00000000E+00
S    1    1.000000
   3.60000000E-02    1.00000000E+00
P    1    1.000000
   7.50000000E-01    1.00000000E+00
****
Gh   0
S   1   1.00
        0.0112533427        1.0000000000
S   1   1.00
        0.0058583805        1.0000000000
S   1   1.00
        0.0033459739        1.0000000000
S   1   1.00
        0.0020484225        1.0000000000
S   1   1.00
        0.0013236424        1.0000000000
P   1   1.00
        0.0192542060        1.0000000000
P   1   1.00
        0.0099882106        1.0000000000
P   1   1.00
        0.0056893607        1.0000000000
P   1   1.00
        0.0034756797        1.0000000000
P   1   1.00
        0.0022420590        1.0000000000
D   1   1.00
        0.0274456919        1.0000000000
D   1   1.00
        0.0142043987        1.0000000000
D   1   1.00
        0.0080765930        1.0000000000
D   1   1.00
        0.0049271863        1.0000000000
D   1   1.00
        0.0031748110        1.0000000000
 ****
$end
--------------------------------------------------------------

 Q-Chem warning in module forms1/BasisType.C, line 1761:

 Setting pure/cartesian flag to 2111 for general basis


 Requested basis set is non-standard
 There are 31 shells and 81 basis functions
 Total memory of 2000MB is distributed as follows: 
   QALLOC including MEM_STATIC uses 192MB
   MEM_STATIC is set to 192MB
   CCMAN JOB total memory use is  1808MB
 Warning: actual memory use might exceed 2000MB

 Total QAlloc Memory Limit    192 MB
 Mega-Array Size       188 MB
 MEM_STATIC part       192 MB
 Smallest overlap matrix eigenvalue = 1.51E-04

 Scale SEOQF with 1.000000e-02/1.000000e-02/1.000000e-02

 Standard Electronic Orientation quadrupole field applied
 Guess MOs from core Hamiltonian diagonalization

 -----------------------------------------------------------------------
  General SCF calculation program by
  Eric Jon Sundstrom, Paul Horn, Yuezhi Mao, Dmitri Zuev, Alec White,
  David Stuck, Shaama M.S., Shane Yost, Joonho Lee, David Small,
  Daniel Levine, Susi Lehtola, Hugh Burton, Evgeny Epifanovsky
 -----------------------------------------------------------------------
 Hartree-Fock
 using 10 threads for integral computing
 -------------------------------------------------------
 OpenMP Integral computing Module                
 Release: version 1.0, May 2013, Q-Chem Inc. Pittsburgh 
 -------------------------------------------------------
 A restricted SCF calculation will be
 performed using DIIS
 SCF converges when DIIS error is below 1.0e-08
 ---------------------------------------
  Cycle       Energy         DIIS error
 ---------------------------------------
    1     -61.8379268371      2.04e-01  
    2     -59.8899138157      6.63e-02  
    3     -72.5104041185      8.44e-02  
    4     -74.9998121992      4.20e-02  
    5     -75.9934183664      8.60e-03  
    6     -76.0521117534      1.33e-03  
    7     -76.0530632916      2.21e-04  
    8     -76.0530914607      2.71e-05  
    9     -76.0530920336      4.18e-06  
   10     -76.0530920509      7.06e-07  
   11     -76.0530920517      2.29e-07  
   12     -76.0530920518      4.42e-08  
   13     -76.0530920518      8.00e-09  Convergence criterion met
 ---------------------------------------
 SCF time:   CPU 3.53s  wall 2.00s 
 SCF   energy in the final basis set =      -76.0530920518
 Total energy in the final basis set =      -76.0530920518


 ------------------------------------------------------------------------------

   CCMAN2: suite of methods based on coupled cluster
           and equation of motion theories.

   Components:
   * libvmm-1.3-trunk
     by Evgeny Epifanovsky, Ilya Kaliman.
   * libtensor-2.5-trunk
     by Evgeny Epifanovsky, Michael Wormit, Dmitry Zuev, Sam Manzer, 
        Ilya Kaliman.
   * libcc-2.5-trunk
     by Evgeny Epifanovsky, Arik Landau, Tomasz Kus, Kirill Khistyaev, 
        Dmitry Zuev, Prashant Manohar, Xintian Feng, Anna Krylov, 
        Matthew Goldey, Alec White, Thomas Jagau, Kaushik Nanda, 
        Anastasia Gunina, Alexander Kunitsa, Joonho Lee.

   CCMAN original authors:
   Anna I. Krylov, C. David Sherrill, Steven R. Gwaltney,
   Edward F. C. Byrd (2000)
   Sergey V. Levchenko, Lyudmila V. Slipchenko, Tao Wang,
   Ana-Maria C. Cristian (2003)
   Piotr A. Pieniazek, C. Melania Oana, Evgeny Epifanovsky (2007)
   Prashant Manohar (2009)

 ------------------------------------------------------------------------------


 Allocating and initializing 1808MB of RAM...
 Calculation will run on 10 cores.

 ----------------------------------------------------------------
             Standard Nuclear Orientation (Bohr)
    I     Atom           X                Y                Z
 ----------------------------------------------------------------
    1      O      -0.0000000000    -0.0000000000     0.2225991021
    2      H      -1.4275435469    -0.0000000000    -0.8903964085
    3      H       1.4275435469     0.0000000000    -0.8903964085
    4      GH     -0.0000000000    -0.0000000000     0.0000000000
 ----------------------------------------------------------------
 Molecular Point Group                 C2v   NOp =  4
 Largest Abelian Subgroup              C2v   NOp =  4
 Nuclear Repulsion Energy =     9.1893031368 hartrees
 There are        5 alpha and        5 beta electrons

                       Distance Matrix (Bohrs)
             O (  1)   H (  2)   H (  3)
   H (  2)  1.810149
   H (  3)  1.810149  2.855087
   GH(  4)  0.222599  1.682464  1.682464

 A cutoff of  1.0D-14 yielded    496 shell pairs
 There are      3426 function pairs (      3963 Cartesian)

 -------------------------------------------------------
 OpenMP Integral Computing Module                       
 Release: version 1.0, May 2013, Q-Chem Inc. Pittsburgh 
 -------------------------------------------------------
 Integral Job Info:
 Integral job number is                      11
 Integral operator is                         1
 short-range coefficients                     0
 long-range coefficients              100000000
 Omega coefficients                           0
 if combine SR and LR in K                    0
 Integral screening is                        0
 Integral computing path is                   2
 max size of driver memory is            800000
 size of driver memory is                593474
 size of scratch memory is              2361544
 max col of scratch BK array               1296
 max len of scratch array in speh3          155
 max len of scratch index in speh4           18
 max int batch size is                      520
 min int batch size is                       52
 fixed nKL is                                52
 max L of basis functions is                  2
 order of int derivative is                   0
 number of shells is                         31
 number of basis is                          87
 number of cartesian basis is                87
 number of contracted shell pairs           496
 number of primitive shell pairs            912
 maxK2 (contraction) of shell pair           36
 max number of K2 of shell pair               1
 max number of CS2 of shell pair             77
 max number of PS2 of shell pair             77
 mem total for path MDJ                  517512
 -------------------------------------------------------

 Alpha MOs, Restricted
 -- Occupied --                  
-20.567  -1.356  -0.719  -0.585  -0.510
  1 A1    2 A1    1 B1    3 A1    1 B2                                         
 -- Virtual --                   
  0.001   0.003   0.003   0.004   0.005   0.008   0.008   0.008
  4 A1    5 A1    2 B1    2 B2    6 A1    7 A1    3 B1    1 A2                 
  0.008   0.008   0.011   0.011   0.012   0.013   0.021   0.021
  8 A1    3 B2    9 A1    4 B1    4 B2   10 A1    5 B1   11 A1                 
  0.021   0.021   0.021   0.024   0.025   0.027   0.029   0.044
  2 A2   12 A1    5 B2   13 A1    6 B1    6 B2   14 A1    7 B1                 
  0.045   0.045   0.045   0.045   0.051   0.051   0.055   0.059
 15 A1    3 A2   16 A1    7 B2    8 B1   17 A1    8 B2   18 A1                 
  0.086   0.087   0.088   0.089   0.089   0.099   0.112   0.115
  9 B1   19 A1    4 A2   20 A1    9 B2   10 B1   21 A1   10 B2                 
  0.132   0.167   0.172   0.175   0.177   0.179   0.196   0.331
 22 A1   11 B1   23 A1    5 A2   24 A1   11 B2   12 B1   25 A1                 
  0.351   0.354   0.355   0.428   0.450   0.764   0.810   1.276
 13 B1   26 A1   12 B2   27 A1   14 B1   15 B1   28 A1   29 A1                 
  1.329   1.352   1.488   1.519   1.707   1.724   1.942   2.346
 13 B2   16 B1   30 A1    6 A2   31 A1   14 B2   17 B1   18 B1                 

 Occupation and symmetry of molecular orbitals

 Point group: C2v (4 irreducible representations).

                           A1   A2   B1   B2    All 
 ----------------------------------------------------
 All molecular orbitals:
  - Alpha                  37   7    21   16    81  
  - Beta                   37   7    21   16    81  
 ----------------------------------------------------
 Alpha orbitals:
  - Frozen occupied        1    0    0    0     1   
  - Active occupied        2    0    1    1     4   
  - Active virtual         34   7    20   15    76  
  - Frozen virtual         0    0    0    0     0   
 ----------------------------------------------------
 Beta orbitals:
  - Frozen occupied        1    0    0    0     1   
  - Active occupied        2    0    1    1     4   
  - Active virtual         34   7    20   15    76  
  - Frozen virtual         0    0    0    0     0   
 ----------------------------------------------------

 Import integrals:   CPU 0.00 s  wall 0.00 s

 Import integrals:   CPU 5.51 s  wall 1.29 s

 MP2 amplitudes:   CPU 0.59 s  wall 0.48 s

Running a double precision version
           CCSD T amplitudes will be solved using DIIS.

           Start     Size      MaxIter   EConv     TConv     
           3         7         100       1.00e-06  1.00e-04  
 ------------------------------------------------------------------------------
           Energy (a.u.)   Ediff      Tdiff       Comment
 ------------------------------------------------------------------------------
           -76.27570419                           
     1     -76.27616452   4.60e-04   4.00e-01     
     2     -76.28096743   4.80e-03   4.64e-02     
     3     -76.28140806   4.41e-04   1.58e-02     
     4     -76.28185519   4.47e-04   5.25e-03     Switched to DIIS steps.
     5     -76.28200749   1.52e-04   3.32e-03     
     6     -76.28201017   2.68e-06   4.50e-04     
     7     -76.28200903   1.13e-06   1.92e-04     
     8     -76.28200909   5.05e-08   3.87e-05     
 ------------------------------------------------------------------------------
           -76.28200909                           CCSD T converged.

End of double precision
 SCF energy                 = -76.05309205
 MP2 energy                 = -76.27570419
 CCSD correlation energy     =  -0.22891703
 CCSD total energy           = -76.28200909

 CCSD  T1^2 = 0.0018  T2^2 = 0.0605  Leading amplitudes:

 Amplitude    Orbitals with energies
  0.0159       1 (B2) A                  ->    12 (B2) A                  
              -0.5102                          0.3550                     
  0.0159       1 (B2) B                  ->    12 (B2) B                  
              -0.5102                          0.3550                     
  0.0121       1 (B2) A                  ->    10 (B2) A                  
              -0.5102                          0.1154                     
  0.0121       1 (B2) B                  ->    10 (B2) B                  
              -0.5102                          0.1154                     

 Amplitude    Orbitals with energies
 -0.0324       1 (B2) A      1 (B2) B    ->    13 (B2) A     13 (B2) B    
              -0.5102       -0.5102            1.3286        1.3286       
  0.0324       1 (B2) A      1 (B2) B    ->    13 (B2) B     13 (B2) A    
              -0.5102       -0.5102            1.3286        1.3286       
  0.0324       1 (B2) B      1 (B2) A    ->    13 (B2) A     13 (B2) B    
              -0.5102       -0.5102            1.3286        1.3286       
 -0.0324       1 (B2) B      1 (B2) A    ->    13 (B2) B     13 (B2) A    
              -0.5102       -0.5102            1.3286        1.3286       

 Computing CCSD intemediates for later calculations in double precision
 Finished.

Running a double precision version
           CCSD Lambda amplitudes will be solved using DIIS.
           Start     Size      MaxIter   EConv     LConv     
           3         7         100       1.00e-06  1.00e-04  
 ------------------------------------------------------------------------------
            Enorm      Ldiff       Comment
 ------------------------------------------------------------------------------
     1     1.42e-02   6.57e-03     
     2     4.96e-03   2.61e-03     
     3     1.61e-03   2.94e-04     
     4     8.19e-04   3.07e-04     Switched to DIIS steps.
     5     1.47e-04   1.43e-04     
     6     5.80e-05   1.29e-05     
     7     1.23e-05   1.21e-06     
     8     4.40e-06   5.61e-08     
     9     1.38e-06   2.06e-08     
    10     5.32e-07   8.48e-10     
 ------------------------------------------------------------------------------
                                   CCSD Lambda converged.

 Computing density matrices in double precision...
 Computing density matrices... Done.
 Reference state properties
 Dipole moment (a.u.): 0.823150 (X 0.000000, Y 0.000000, Z -0.823150)
 R-squared (a.u.): 20.080518 (XX 7.424595, YY 5.818344, ZZ 6.837579)
 Density matrix was written to a file for further analysis.

 CCSD calculation:   CPU 70.37 s  wall 13.35 s

 Total ccman2 time:   CPU 82.39 s  wall 16.50 s

  2.483   2.784   2.955   3.487   3.535   3.718   4.114   4.384
 32 A1   33 A1   19 B1   15 B2    7 A2   34 A1   35 A1   20 B1                 
  5.550   5.922   6.215  51.590
 16 B2   36 A1   21 B1   37 A1                                                 

 Beta MOs, Restricted
 -- Occupied --                  
-20.567  -1.356  -0.719  -0.585  -0.510
  1 A1    2 A1    1 B1    3 A1    1 B2                                         
 -- Virtual --                   
  0.001   0.003   0.003   0.004   0.005   0.008   0.008   0.008
  4 A1    5 A1    2 B1    2 B2    6 A1    7 A1    3 B1    1 A2                 
  0.008   0.008   0.011   0.011   0.012   0.013   0.021   0.021
  8 A1    3 B2    9 A1    4 B1    4 B2   10 A1    5 B1   11 A1                 
  0.021   0.021   0.021   0.024   0.025   0.027   0.029   0.044
  2 A2   12 A1    5 B2   13 A1    6 B1    6 B2   14 A1    7 B1                 
  0.045   0.045   0.045   0.045   0.051   0.051   0.055   0.059
 15 A1    3 A2   16 A1    7 B2    8 B1   17 A1    8 B2   18 A1                 
  0.086   0.087   0.088   0.089   0.089   0.099   0.112   0.115
  9 B1   19 A1    4 A2   20 A1    9 B2   10 B1   21 A1   10 B2                 
  0.132   0.167   0.172   0.175   0.177   0.179   0.196   0.331
 22 A1   11 B1   23 A1    5 A2   24 A1   11 B2   12 B1   25 A1                 
  0.351   0.354   0.355   0.428   0.450   0.764   0.810   1.276
 13 B1   26 A1   12 B2   27 A1   14 B1   15 B1   28 A1   29 A1                 
  1.329   1.352   1.488   1.519   1.707   1.724   1.942   2.346
 13 B2   16 B1   30 A1    6 A2   31 A1   14 B2   17 B1   18 B1                 
  2.483   2.784   2.955   3.487   3.535   3.718   4.114   4.384
 32 A1   33 A1   19 B1   15 B2    7 A2   34 A1   35 A1   20 B1                 
  5.550   5.922   6.215  51.590
 16 B2   36 A1   21 B1   37 A1                                                 

 --------------------------------------------------------------
             Orbital Energies (a.u.) and Symmetries
 --------------------------------------------------------------

 Alpha MOs, Restricted
 -- Occupied --                  
-20.567  -1.356  -0.719  -0.585  -0.510
  1 A1    2 A1    1 B1    3 A1    1 B2                                         
 -- Virtual --                   
  0.001   0.003   0.003   0.004   0.005   0.008   0.008   0.008
  4 A1    5 A1    2 B1    2 B2    6 A1    7 A1    3 B1    1 A2                 
  0.008   0.008   0.011   0.011   0.012   0.013   0.021   0.021
  8 A1    3 B2    9 A1    4 B1    4 B2   10 A1    5 B1   11 A1                 
  0.021   0.021   0.021   0.024   0.025   0.027   0.029   0.044
  2 A2   12 A1    5 B2   13 A1    6 B1    6 B2   14 A1    7 B1                 
  0.045   0.045   0.045   0.045   0.051   0.051   0.055   0.059
 15 A1    3 A2   16 A1    7 B2    8 B1   17 A1    8 B2   18 A1                 
  0.086   0.087   0.088   0.089   0.089   0.099   0.112   0.115
  9 B1   19 A1    4 A2   20 A1    9 B2   10 B1   21 A1   10 B2                 
  0.132   0.167   0.172   0.175   0.177   0.179   0.196   0.331
 22 A1   11 B1   23 A1    5 A2   24 A1   11 B2   12 B1   25 A1                 
  0.351   0.354   0.355   0.428   0.450   0.764   0.810   1.276
 13 B1   26 A1   12 B2   27 A1   14 B1   15 B1   28 A1   29 A1                 
  1.329   1.352   1.488   1.519   1.707   1.724   1.942   2.346
 13 B2   16 B1   30 A1    6 A2   31 A1   14 B2   17 B1   18 B1                 
  2.483   2.784   2.955   3.487   3.535   3.718   4.114   4.384
 32 A1   33 A1   19 B1   15 B2    7 A2   34 A1   35 A1   20 B1                 
  5.550   5.922   6.215  51.590
 16 B2   36 A1   21 B1   37 A1                                                 

 Beta MOs, Restricted
 -- Occupied --                  
-20.567  -1.356  -0.719  -0.585  -0.510
  1 A1    2 A1    1 B1    3 A1    1 B2                                         
 -- Virtual --                   
  0.001   0.003   0.003   0.004   0.005   0.008   0.008   0.008
  4 A1    5 A1    2 B1    2 B2    6 A1    7 A1    3 B1    1 A2                 
  0.008   0.008   0.011   0.011   0.012   0.013   0.021   0.021
  8 A1    3 B2    9 A1    4 B1    4 B2   10 A1    5 B1   11 A1                 
Archival summary:
1\1\n-62-23-22\SP\ProcedureUnspecified\BasisUnspecified\12h1\malop\MonJan1415:22:302019MonJan1415:22:302019\0\\#,ProcedureUnspecified,BasisUnspecified,\\0,1\O\Gh,1,0.222599\H,2,1.68246,1,121.953\H,2,1.68246,1,121.953,3,180,0\\HF=-76.0530921\\@

 Total job time:  19.13s(wall), 87.11s(cpu) 
 Mon Jan 14 15:22:30 2019

        *************************************************************
        *                                                           *
        *  Thank you very much for using Q-Chem.  Have a nice day.  *
        *                                                           *
        *************************************************************


  0.021   0.021   0.021   0.024   0.025   0.027   0.029   0.044
  2 A2   12 A1    5 B2   13 A1    6 B1    6 B2   14 A1    7 B1                 
  0.045   0.045   0.045   0.045   0.051   0.051   0.055   0.059
 15 A1    3 A2   16 A1    7 B2    8 B1   17 A1    8 B2   18 A1                 
  0.086   0.087   0.088   0.089   0.089   0.099   0.112   0.115
  9 B1   19 A1    4 A2   20 A1    9 B2   10 B1   21 A1   10 B2                 
  0.132   0.167   0.172   0.175   0.177   0.179   0.196   0.331
 22 A1   11 B1   23 A1    5 A2   24 A1   11 B2   12 B1   25 A1                 
  0.351   0.354   0.355   0.428   0.450   0.764   0.810   1.276
 13 B1   26 A1   12 B2   27 A1   14 B1   15 B1   28 A1   29 A1                 
  1.329   1.352   1.488   1.519   1.707   1.724   1.942   2.346
 13 B2   16 B1   30 A1    6 A2   31 A1   14 B2   17 B1   18 B1                 
  2.483   2.784   2.955   3.487   3.535   3.718   4.114   4.384
 32 A1   33 A1   19 B1   15 B2    7 A2   34 A1   35 A1   20 B1                 
  5.550   5.922   6.215  51.590
 16 B2   36 A1   21 B1   37 A1                                                 
 --------------------------------------------------------------

          Ground-State Mulliken Net Atomic Charges

     Atom                 Charge (a.u.)
  ----------------------------------------
      1 O                    -0.475817
      2 H                     0.229127
      3 H                     0.229127
      4 GH                    0.017564
  ----------------------------------------
  Sum of atomic charges =     0.000000

 -----------------------------------------------------------------
                    Cartesian Multipole Moments
 -----------------------------------------------------------------
    Charge (ESU x 10^10)
                 0.0000
    Dipole Moment (Debye)
         X       0.0000      Y      -0.0000      Z      -2.0922
       Tot       2.0922
    Quadrupole Moments (Debye-Ang)
        XX      -4.5043     XY      -0.0000     YY      -7.8259
        XZ       0.0000     YZ       0.0000     ZZ      -6.5309
    Octopole Moments (Debye-Ang^2)
       XXX       0.0000    XXY      -0.0000    XYY       0.0000
       YYY      -0.0000    XXZ      -1.2790    XYZ       0.0000
       YYZ      -0.3258    XZZ       0.0000    YZZ      -0.0000
       ZZZ      -1.2403
    Hexadecapole Moments (Debye-Ang^3)
      XXXX      -9.2107   XXXY      -0.0000   XXYY      -3.8727
      XYYY      -0.0000   YYYY     -12.0974   XXXZ       0.0000
      XXYZ      -0.0000   XYYZ       0.0000   YYYZ      -0.0000
      XXZZ      -3.2570   XYZZ      -0.0000   YYZZ      -4.6017
      XZZZ       0.0000   YZZZ       0.0000   ZZZZ     -13.6553
 -----------------------------------------------------------------
