Q-Chem Developer Version!
                  Welcome to Q-Chem
     A Quantum Leap Into The Future Of Chemistry


 Q-Chem 5.1, Q-Chem, Inc., Pleasanton, CA (2018)

 Yihan Shao,  Zhengting Gan,  E. Epifanovsky,  A. T. B. Gilbert,  M. Wormit,  
 J. Kussmann,  A. W. Lange,  A. Behn,  Jia Deng,  Xintian Feng,  D. Ghosh,  
 M. Goldey,  P. R. Horn,  L. D. Jacobson,  I. Kaliman,  T. Kus,  A. Landau,  
 Jie Liu,  E. I. Proynov,  R. M. Richard,  R. P. Steele,  E. J. Sundstrom,  
 H. L. Woodcock III,  P. M. Zimmerman,  D. Zuev,  B. Albrecht,  E. Alguire,  
 S. A. Baeppler,  D. Barton,  Z. Benda,  Y. A. Bernard,  E. J. Berquist,  
 K. B. Bravaya,  H. Burton,  D. Casanova,  Chun-Min Chang,  Yunqing Chen,  
 A. Chien,  K. D. Closser,  M. P. Coons,  S. Coriani,  S. Dasgupta,  
 A. L. Dempwolff,  M. Diedenhofen,  Hainam Do,  R. G. Edgar,  Po-Tung Fang,  
 S. Faraji,  S. Fatehi,  Qingguo Feng,  K. D. Fenk,  J. Fosso-Tande,  
 Qinghui Ge,  A. Ghysels,  G. Gidofalvi,  J. Gomes,  J. Gonthier,  A. Gunina,  
 D. Hait,  M. W. D. Hanson-Heine,  P. H. P. Harbach,  A. W. Hauser,  
 J. E. Herr,  E. G. Hohenstein,  Z. C. Holden,  Kerwin Hui,  B. C. Huynh,  
 T.-C. Jagau,  Hyunjun Ji,  B. Kaduk,  K. Khistyaev,  Jaehoon Kim,  
 P. Klunzinger,  K. Koh,  D. Kosenkov,  L. Koulias,  T. Kowalczyk,  
 C. M. Krauter,  A. Kunitsa,  Ka Un Lao,  A. Laurent,  K. V. Lawler,  
 Joonho Lee,  D. Lefrancois,  S. Lehtola,  D. S. Levine,  Yi-Pei Li,  
 You-Sheng Lin,  Fenglai Liu,  E. Livshits,  A. Luenser,  P. Manohar,  
 E. Mansoor,  S. F. Manzer,  Shan-Ping Mao,  Yuezhi Mao,  N. Mardirossian,  
 A. V. Marenich,  T. Markovich,  L. A. Martinez-Martinez,  S. A. Maurer,  
 N. J. Mayhall,  S. C. McKenzie,  J.-M. Mewes,  A. F. Morrison,  
 J. W. Mullinax,  K. Nanda,  T. S. Nguyen-Beck,  R. Olivares-Amaya,  
 J. A. Parkhill,  T. M. Perrine,  F. Plasser,  P. Pokhilko,  S. Prager,  
 A. Prociuk,  E. Ramos,  D. R. Rehn,  F. Rob,  M. Schneider,  N. Sergueev,  
 S. M. Sharada,  S. Sharma,  D. W. Small,  T. Stauch,  T. Stein,  
 Yu-Chuan Su,  A. J. W. Thom,  A. Tkatchenko,  T. Tsuchimochi,  N. M. Tubman,  
 L. Vogt,  M. L. Vidal,  O. Vydrov,  M. A. Watson,  J. Wenzel,  
 M. de Wergifosse,  T. A. Wesolowski,  A. White,  J. Witte,  A. Yamada,  
 Jun Yang,  K. Yao,  S. Yeganeh,  S. R. Yost,  Zhi-Qiang You,  A. Zech,  
 Igor Ying Zhang,  Xing Zhang,  Yan Zhao,  Ying Zhu,  B. R. Brooks,  
 G. K. L. Chan,  C. J. Cramer,  M. S. Gordon,  W. J. Hehre,  A. Klamt,  
 M. W. Schmidt,  C. D. Sherrill,  D. G. Truhlar,  A. Aspuru-Guzik,  R. Baer,  
 A. T. Bell,  N. A. Besley,  Jeng-Da Chai,  A. E. DePrince, III,  
 R. A. DiStasio Jr.,  A. Dreuw,  B. D. Dunietz,  T. R. Furlani,  
 Chao-Ping Hsu,  Yousung Jung,  Jing Kong,  D. S. Lambrecht,  WanZhen Liang,  
 C. Ochsenfeld,  V. A. Rassolov,  L. V. Slipchenko,  J. E. Subotnik,  
 T. Van Voorhis,  J. M. Herbert,  A. I. Krylov,  P. M. W. Gill,  M. Head-Gordon

 Contributors to earlier versions of Q-Chem not listed above: 
 R. D. Adamson,  B. Austin,  J. Baker,  G. J. O. Beran,  K. Brandhorst,  
 S. T. Brown,  E. F. C. Byrd,  A. K. Chakraborty,  C.-L. Cheng,  
 Siu Hung Chien,  D. M. Chipman,  D. L. Crittenden,  H. Dachsel,  
 R. J. Doerksen,  A. D. Dutoi,  L. Fusti-Molnar,  W. A. Goddard III,  
 A. Golubeva-Zadorozhnaya,  S. R. Gwaltney,  G. Hawkins,  A. Heyden,  
 S. Hirata,  G. Kedziora,  F. J. Keil,  C. Kelley,  Jihan Kim,  R. A. King,  
 R. Z. Khaliullin,  P. P. Korambath,  W. Kurlancheek,  A. M. Lee,  M. S. Lee,  
 S. V. Levchenko,  Ching Yeh Lin,  D. Liotard,  R. C. Lochan,  I. Lotan,  
 P. E. Maslen,  N. Nair,  D. P. O'Neill,  D. Neuhauser,  E. Neuscamman,  
 C. M. Oana,  R. Olson,  B. Peters,  R. Peverati,  P. A. Pieniazek,  
 Y. M. Rhee,  J. Ritchie,  M. A. Rohrdanz,  E. Rosta,  N. J. Russ,  
 H. F. Schaefer III,  N. E. Schultz,  N. Shenvi,  A. C. Simmonett,  A. Sodt,  
 D. Stuck,  K. S. Thanthiriwatte,  V. Vanovschi,  Tao Wang,  A. Warshel,  
 C. F. Williams,  Q. Wu,  X. Xu,  W. Zhang

 Please cite Q-Chem as follows:
 Y. Shao et al., Mol. Phys. 113, 184-215 (2015)
 DOI: 10.1080/00268976.2014.952696

 Q-Chem 5.1.1 for Intel X86 EM64T Linux

 Parts of Q-Chem use Armadillo 8.300.2 (Tropical Shenanigans).
 http://arma.sourceforge.net/

 Q-Chem begins on Thu Jan 10 16:11:21 2019  


Host: 0

     Scratch files written to /work1/malop/qc_7608329.hnode2//
Input Ideriv = 0
Curr. Ideriv = -1
Max.  Ideriv = 0

Checking the input file for inconsistencies... 	...done.

--------------------------------------------------------------
User input:
--------------------------------------------------------------
$comment 
NEXAFS WATER / 6-311++G**+Rydberg
CFour optimized geometry
$end

$molecule
0 1
O       0.0000000000     0.0000000000     0.2225991021
H      -1.4275435469     0.0000000000    -0.8903964085
H       1.4275435469     0.0000000000    -0.8903964085
Gh      0.0000000000     0.0000000000     0.0000000000     
$end

$rem
    input_bohr = true
    jobtype = sp
    method = eom-ccsd
    cvs_ee_singlets    [10,0,10,10]
    basis = gen
    n_frozen_core = fc 
    cc_trans_prop = true
    eom_shift = 19500
   eom_preconv_singles = true
   EOM_DAVIDSON_MAXVECTORS = 1000
   eom_davidson_convergence = 4
   use_libqints = 1
state_analysis = true
molden_format  = true
nto_pairs      = 4
pop_mulliken   = true
$end

$basis
O    0
S    6    1.000000
   8.58850000E+03    1.89515000E-03
   1.29723000E+03    1.43859000E-02
   2.99296000E+02    7.07320000E-02
   8.73771000E+01    2.40001000E-01
   2.56789000E+01    5.94797000E-01
   3.74004000E+00    2.80802000E-01
SP   3    1.000000
   4.21175000E+01    1.13889000E-01   3.65114000E-02
   9.62837000E+00    9.20811000E-01   2.37153000E-01
   2.85332000E+00   -3.27447000E-03   8.19702000E-01
SP   1    1.000000
   9.05661000E-01    1.00000000E+00   1.00000000E+00
SP   1    1.000000
   2.55611000E-01    1.00000000E+00   1.00000000E+00
SP   1    1.000000
   8.45000000E-02    1.00000000E+00   1.00000000E+00
D    1    1.000000
   1.29200000E+00    1.00000000E+00
****
H    0
S    3    1.000000
   3.38650000E+01    2.54938000E-02
   5.09479000E+00    1.90373000E-01
   1.15879000E+00    8.52161000E-01
S    1    1.000000
   3.25840000E-01    1.00000000E+00
S    1    1.000000
   1.02741000E-01    1.00000000E+00
S    1    1.000000
   3.60000000E-02    1.00000000E+00
P    1    1.000000
   7.50000000E-01    1.00000000E+00
****
H    0
S    3    1.000000
   3.38650000E+01    2.54938000E-02
   5.09479000E+00    1.90373000E-01
   1.15879000E+00    8.52161000E-01
S    1    1.000000
   3.25840000E-01    1.00000000E+00
S    1    1.000000
   1.02741000E-01    1.00000000E+00
S    1    1.000000
   3.60000000E-02    1.00000000E+00
P    1    1.000000
   7.50000000E-01    1.00000000E+00
****
Gh   0
S   1   1.00
        0.0112533427        1.0000000000
S   1   1.00
        0.0058583805        1.0000000000
S   1   1.00
        0.0033459739        1.0000000000
S   1   1.00
        0.0020484225        1.0000000000
S   1   1.00
        0.0013236424        1.0000000000
P   1   1.00
        0.0192542060        1.0000000000
P   1   1.00
        0.0099882106        1.0000000000
P   1   1.00
        0.0056893607        1.0000000000
P   1   1.00
        0.0034756797        1.0000000000
P   1   1.00
        0.0022420590        1.0000000000
D   1   1.00
        0.0274456919        1.0000000000
D   1   1.00
        0.0142043987        1.0000000000
D   1   1.00
        0.0080765930        1.0000000000
D   1   1.00
        0.0049271863        1.0000000000
D   1   1.00
        0.0031748110        1.0000000000
 ****
$end
--------------------------------------------------------------

 Q-Chem warning in module forms1/BasisType.C, line 1761:

 Setting pure/cartesian flag to 2111 for general basis


 Requested basis set is non-standard
 There are 31 shells and 81 basis functions
 Total memory of 2000MB is distributed as follows: 
   QALLOC including MEM_STATIC uses 192MB
   MEM_STATIC is set to 192MB
   CCMAN JOB total memory use is  1808MB
 Warning: actual memory use might exceed 2000MB

 Total QAlloc Memory Limit    192 MB
 Mega-Array Size       188 MB
 MEM_STATIC part       192 MB
 Smallest overlap matrix eigenvalue = 1.51E-04

 Scale SEOQF with 1.000000e-02/1.000000e-02/1.000000e-02

 Standard Electronic Orientation quadrupole field applied
 Guess MOs from core Hamiltonian diagonalization

 -----------------------------------------------------------------------
  General SCF calculation program by
  Eric Jon Sundstrom, Paul Horn, Yuezhi Mao, Dmitri Zuev, Alec White,
  David Stuck, Shaama M.S., Shane Yost, Joonho Lee, David Small,
  Daniel Levine, Susi Lehtola, Hugh Burton, Evgeny Epifanovsky
 -----------------------------------------------------------------------
 Hartree-Fock
 A restricted SCF calculation will be
 performed using DIIS
 SCF converges when DIIS error is below 1.0e-08
 ---------------------------------------
  Cycle       Energy         DIIS error
 ---------------------------------------
    1     -61.8379268371      2.04e-01  
    2     -59.8899137828      6.63e-02  
    3     -72.5104041172      8.44e-02  
    4     -74.9998121982      4.20e-02  
    5     -75.9934183662      8.60e-03  
    6     -76.0521117534      1.33e-03  
    7     -76.0530632916      2.21e-04  
    8     -76.0530914607      2.71e-05  
    9     -76.0530920336      4.18e-06  
   10     -76.0530920509      7.06e-07  
   11     -76.0530920517      2.29e-07  
   12     -76.0530920518      4.42e-08  
   13     -76.0530920518      8.00e-09  Convergence criterion met
 ---------------------------------------
 SCF time:   CPU 26.37s  wall 5.00s 
 SCF   energy in the final basis set =      -76.0530920518
 Total energy in the final basis set =      -76.0530920518


 ------------------------------------------------------------------------------

   CCMAN2: suite of methods based on coupled cluster
           and equation of motion theories.

   Components:
   * libvmm-1.3-trunk
     by Evgeny Epifanovsky, Ilya Kaliman.
   * libtensor-2.5-trunk
     by Evgeny Epifanovsky, Michael Wormit, Dmitry Zuev, Sam Manzer, 
        Ilya Kaliman.
   * libcc-2.5-trunk
     by Evgeny Epifanovsky, Arik Landau, Tomasz Kus, Kirill Khistyaev, 
        Dmitry Zuev, Prashant Manohar, Xintian Feng, Anna Krylov, 
        Matthew Goldey, Alec White, Thomas Jagau, Kaushik Nanda, 
        Anastasia Gunina, Alexander Kunitsa, Joonho Lee.

   CCMAN original authors:
   Anna I. Krylov, C. David Sherrill, Steven R. Gwaltney,
   Edward F. C. Byrd (2000)
   Sergey V. Levchenko, Lyudmila V. Slipchenko, Tao Wang,
   Ana-Maria C. Cristian (2003)
   Piotr A. Pieniazek, C. Melania Oana, Evgeny Epifanovsky (2007)
   Prashant Manohar (2009)

 ------------------------------------------------------------------------------


 Allocating and initializing 1808MB of RAM...
 Calculation will run on 10 cores.

 ----------------------------------------------------------------
             Standard Nuclear Orientation (Bohr)
    I     Atom           X                Y                Z
 ----------------------------------------------------------------
    1      O      -0.0000000000    -0.0000000000     0.2225991021
    2      H      -1.4275435469    -0.0000000000    -0.8903964085
    3      H       1.4275435469     0.0000000000    -0.8903964085
    4      GH     -0.0000000000    -0.0000000000     0.0000000000
 ----------------------------------------------------------------
 Molecular Point Group                 C2v   NOp =  4
 Largest Abelian Subgroup              C2v   NOp =  4
 Nuclear Repulsion Energy =     9.1893031368 hartrees
 There are        5 alpha and        5 beta electrons

                       Distance Matrix (Bohrs)
             O (  1)   H (  2)   H (  3)
   H (  2)  1.810149
   H (  3)  1.810149  2.855087
   GH(  4)  0.222599  1.682464  1.682464

 A cutoff of  1.0D-14 yielded    496 shell pairs
 There are      3426 function pairs (      3963 Cartesian)

 -------------------------------------------------------
 OpenMP Integral Computing Module                       
 Release: version 1.0, May 2013, Q-Chem Inc. Pittsburgh 
 -------------------------------------------------------
 Integral Job Info:
 Integral job number is                      11
 Integral operator is                         1
 short-range coefficients                     0
 long-range coefficients              100000000
 Omega coefficients                           0
 if combine SR and LR in K                    0
 Integral screening is                        0
 Integral computing path is                   2
 max size of driver memory is            800000
 size of driver memory is                593474
 size of scratch memory is              2361544
 max col of scratch BK array               1296
 max len of scratch array in speh3          155
 max len of scratch index in speh4           18
 max int batch size is                      520
 min int batch size is                       52
 fixed nKL is                                52
 max L of basis functions is                  2
 order of int derivative is                   0
 number of shells is                         31
 number of basis is                          87
 number of cartesian basis is                87
 number of contracted shell pairs           496
 number of primitive shell pairs            912
 maxK2 (contraction) of shell pair           36
 max number of K2 of shell pair               1
 max number of CS2 of shell pair             77
 max number of PS2 of shell pair             77
 mem total for path MDJ                  517512
 -------------------------------------------------------

 Alpha MOs, Restricted
 -- Occupied --                  
-20.567  -1.356  -0.719  -0.585  -0.510
  1 A1    2 A1    1 B1    3 A1    1 B2                                         
 -- Virtual --                   
  0.001   0.003   0.003   0.004   0.005   0.008   0.008   0.008
  4 A1    5 A1    2 B1    2 B2    6 A1    7 A1    3 B1    1 A2                 
  0.008   0.008   0.011   0.011   0.012   0.013   0.021   0.021
  8 A1    3 B2    9 A1    4 B1    4 B2   10 A1    5 B1   11 A1                 
  0.021   0.021   0.021   0.024   0.025   0.027   0.029   0.044
  2 A2   12 A1    5 B2   13 A1    6 B1    6 B2   14 A1    7 B1                 
  0.045   0.045   0.045   0.045   0.051   0.051   0.055   0.059
 15 A1    3 A2   16 A1    7 B2    8 B1   17 A1    8 B2   18 A1                 
  0.086   0.087   0.088   0.089   0.089   0.099   0.112   0.115
  9 B1   19 A1    4 A2   20 A1    9 B2   10 B1   21 A1   10 B2                 
  0.132   0.167   0.172   0.175   0.177   0.179   0.196   0.331
 22 A1   11 B1   23 A1    5 A2   24 A1   11 B2   12 B1   25 A1                 
  0.351   0.354   0.355   0.428   0.450   0.764   0.810   1.276
 13 B1   26 A1   12 B2   27 A1   14 B1   15 B1   28 A1   29 A1                 
  1.329   1.352   1.488   1.519   1.707   1.724   1.942   2.346
 13 B2   16 B1   30 A1    6 A2   31 A1   14 B2   17 B1   18 B1                 

 Occupation and symmetry of molecular orbitals

 Point group: C2v (4 irreducible representations).

                           A1   A2   B1   B2    All 
 ----------------------------------------------------
 All molecular orbitals:
  - Alpha                  37   7    21   16    81  
  - Beta                   37   7    21   16    81  
 ----------------------------------------------------
 Alpha orbitals:
  - Frozen occupied        1    0    0    0     1   
  - Active occupied        2    0    1    1     4   
  - Active virtual         34   7    20   15    76  
  - Frozen virtual         0    0    0    0     0   
 ----------------------------------------------------
 Beta orbitals:
  - Frozen occupied        1    0    0    0     1   
  - Active occupied        2    0    1    1     4   
  - Active virtual         34   7    20   15    76  
  - Frozen virtual         0    0    0    0     0   
 ----------------------------------------------------

 Import integrals:   CPU 0.00 s  wall 0.00 s

 Import integrals:   CPU 7.02 s  wall 4.32 s

 MP2 amplitudes:   CPU 0.70 s  wall 0.54 s

Running a double precision version
           CCSD T amplitudes will be solved using DIIS.

           Start     Size      MaxIter   EConv     TConv     
           3         7         100       1.00e-06  1.00e-04  
 ------------------------------------------------------------------------------
           Energy (a.u.)   Ediff      Tdiff       Comment
 ------------------------------------------------------------------------------
           -76.27570419                           
     1     -76.27616452   4.60e-04   4.00e-01     
     2     -76.28096743   4.80e-03   4.64e-02     
     3     -76.28140806   4.41e-04   1.58e-02     
     4     -76.28185519   4.47e-04   5.25e-03     Switched to DIIS steps.
     5     -76.28200749   1.52e-04   3.32e-03     
     6     -76.28201017   2.68e-06   4.50e-04     
     7     -76.28200903   1.13e-06   1.92e-04     
     8     -76.28200909   5.05e-08   3.87e-05     
 ------------------------------------------------------------------------------
           -76.28200909                           CCSD T converged.

End of double precision
 SCF energy                 = -76.05309205
 MP2 energy                 = -76.27570419
 CCSD correlation energy     =  -0.22891703
 CCSD total energy           = -76.28200909

 CCSD  T1^2 = 0.0018  T2^2 = 0.0605  Leading amplitudes:

 Amplitude    Orbitals with energies
  0.0159       1 (B2) A                  ->    12 (B2) A                  
              -0.5102                          0.3550                     
  0.0159       1 (B2) B                  ->    12 (B2) B                  
              -0.5102                          0.3550                     
 -0.0121       1 (B2) A                  ->    10 (B2) A                  
              -0.5102                          0.1154                     
 -0.0121       1 (B2) B                  ->    10 (B2) B                  
              -0.5102                          0.1154                     

 Amplitude    Orbitals with energies
 -0.0324       1 (B2) A      1 (B2) B    ->    13 (B2) A     13 (B2) B    
              -0.5102       -0.5102            1.3286        1.3286       
  0.0324       1 (B2) A      1 (B2) B    ->    13 (B2) B     13 (B2) A    
              -0.5102       -0.5102            1.3286        1.3286       
  0.0324       1 (B2) B      1 (B2) A    ->    13 (B2) A     13 (B2) B    
              -0.5102       -0.5102            1.3286        1.3286       
 -0.0324       1 (B2) B      1 (B2) A    ->    13 (B2) B     13 (B2) A    
              -0.5102       -0.5102            1.3286        1.3286       

 Computing CCSD intemediates for later calculations in double precision
 Finished.

Running a double precision version
           CCSD Lambda amplitudes will be solved using DIIS.
           Start     Size      MaxIter   EConv     LConv     
           3         7         100       1.00e-06  1.00e-04  
 ------------------------------------------------------------------------------
            Enorm      Ldiff       Comment
 ------------------------------------------------------------------------------
     1     1.42e-02   6.57e-03     
     2     4.96e-03   2.61e-03     
     3     1.61e-03   2.94e-04     
     4     8.19e-04   3.07e-04     Switched to DIIS steps.
     5     1.47e-04   1.43e-04     
     6     5.80e-05   1.29e-05     
     7     1.23e-05   1.21e-06     
     8     4.40e-06   5.61e-08     
     9     1.38e-06   2.06e-08     
    10     5.32e-07   8.48e-10     
 ------------------------------------------------------------------------------
                                   CCSD Lambda converged.

 CCSD calculation:   CPU 95.97 s  wall 18.95 s

        Solving for CVS-EOMEE-CCSD A1 singlet states.

       EOMEE-CCSD-SINGLES right amplitudes will be solved using Davidson.
        Amplitudes will be solved using shifted  algorithm.
     Hard-coded thresholds: 
     LinDepThresh=1.00e-15  NormThresh=1.00e-06  ReorthogonThresh=1.00e-02

      Roots     MaxVec    MaxIter   Precond   Conv      Shift    
      10        1000      60        1         1.00e-04  1.95e+01  
 ------------------------------------------------------------------------------
      Iter ConvRoots NVecs ResNorm Current eigenvalues (eV)
 ------------------------------------------------------------------------------
      0    2      10    8.02e-04   556.8426   558.3481   558.6551   558.7007   558.7206   559.0303   559.1450   559.1928*  559.2004*  559.3250   
Rerun orthogonalization...
      1    0      18    1.76e-02   554.0018   557.5523   557.9599   558.3071   558.3565   558.7303   558.8342   558.9477   558.9650   559.1366   
Rerun orthogonalization...
      2    0      28    2.87e-03   551.7780   556.2819   557.4170   558.1581   558.2538   558.2946   558.5835   558.8603   558.8964   558.9214   
Rerun orthogonalization...
      3    10     34    7.27e-24   551.7525*  556.2497*  557.3862*  558.1247*  558.2436*  558.2703*  558.5586*  558.8301*  558.8850*  558.9029*  

     Davidson procedure converged

        CVS-EOMEE-CCSD/MP2 right amplitudes will be solved using Davidson.
        Amplitudes will be solved using shifted  algorithm.
     Hard-coded thresholds: 
     LinDepThresh=1.00e-15  NormThresh=1.00e-06  ReorthogonThresh=1.00e-02

      Roots     MaxVec    MaxIter   Precond   Conv      Shift    
      10        1000      60        1         1.00e-04  1.95e+01  
 ------------------------------------------------------------------------------
      Iter ConvRoots NVecs ResNorm Current eigenvalues (eV)
 ------------------------------------------------------------------------------
      0    0      10    3.73e+00   551.7525   556.2497   557.3862   558.1247   558.2436   558.2703   558.5586   558.8301   558.8850   558.9029   
      1    0      20    2.73e+00   548.9873   553.2521   554.2651   554.9888   555.1079   555.1581   555.4253   555.6926   555.7477   555.7754   
      2    0      30    1.51e-01   536.0496   539.2044   539.7680   540.2572   540.3994   540.7155   540.8694   541.0495   541.1117   541.3521   
      3    0      40    1.15e-02   535.3421   538.4215   538.9078   539.4302   539.5580   539.8117   539.9445   540.1306   540.1885   540.4151   
      4    0      50    1.30e-03   535.2601   538.3771   538.8693   539.4162   539.5452   539.7816   539.9126   540.1137   540.1724   540.3559   
      5    2      60    1.05e-03   535.2328   538.3544   538.8571   539.4152   539.5442*  539.7687   539.9047   540.1128   540.1717*  540.3330   
      6    4      68    4.40e-04   535.2210   538.3337   538.8491   539.4137*  539.5441*  539.7533   539.8985   540.1114*  540.1715*  540.3078   
      7    4      74    3.23e-04   535.2136   538.3239   538.8421   539.4135*  539.5440*  539.7431   539.8927   540.1111*  540.1714*  540.2894   
      8    5      80    1.23e-04   535.2124*  538.3211   538.8399   539.4134*  539.5440*  539.7391   539.8902   540.1110*  540.1714*  540.2814   
      9    8      85    9.36e-05   535.2122*  538.3195*  538.8388*  539.4133*  539.5440*  539.7359   539.8889*  540.1108*  540.1713*  540.2749   
      10   9      87    6.52e-05   535.2122*  538.3197*  538.8387*  539.4132*  539.5440*  539.7347*  539.8884*  540.1107*  540.1712*  540.2709   
      11   9      88    5.41e-05   535.2122*  538.3198*  538.8387*  539.4132*  539.5439*  539.7343*  539.8884*  540.1106*  540.1712*  540.2684   
      12   10     89    4.24e-05   535.2122*  538.3197*  538.8387*  539.4132*  539.5439*  539.7339*  539.8884*  540.1106*  540.1712*  540.2665*  

     Davidson procedure converged

 EOMEE transition 1/A1
 Total energy = -56.61332232 a.u.  Excitation energy = 535.2122 eV.
 R0^2 = 0.0000  R1^2 = 0.8427  R2_CCVV^2 = 0.0005  R2_COVV^2 = 0.0784  Res^2 = 9.13e-06
 Conv-d = yes

 Amplitude    Transitions between orbitals
  0.2939       1 (A1) A                  ->    22 (A1) A                  
  0.2939       1 (A1) B                  ->    22 (A1) B                  
 -0.2518       1 (A1) A                  ->    17 (A1) A                  
 -0.2518       1 (A1) B                  ->    17 (A1) B                  
 -0.2326       1 (A1) A                  ->    25 (A1) A                  
 -0.2326       1 (A1) B                  ->    25 (A1) B                  
 -0.2095       1 (A1) A                  ->    13 (A1) A                  
 -0.2095       1 (A1) B                  ->    13 (A1) B                  
 -0.1937       1 (A1) A                  ->    21 (A1) A                  
 -0.1937       1 (A1) B                  ->    21 (A1) B                  
 -0.1937       1 (A1) A                  ->    18 (A1) A                  
 -0.1937       1 (A1) B                  ->    18 (A1) B                  
 -0.1432       1 (A1) A                  ->    9 (A1) A                   
 -0.1432       1 (A1) B                  ->    9 (A1) B                   
  0.1380       1 (A1) A                  ->    14 (A1) A                  
  0.1380       1 (A1) B                  ->    14 (A1) B                  
  0.1295       1 (A1) A                  ->    10 (A1) A                  
  0.1295       1 (A1) B                  ->    10 (A1) B                  
 -0.1209       1 (A1) A                  ->    6 (A1) A                   
 -0.1209       1 (A1) B                  ->    6 (A1) B                   

              Summary of significant orbitals:

               Number  Type             Irrep      Energy
               1       Occ  Alpha       1 (A1)    -20.5671
               1       Occ  Beta        1 (A1)    -20.5671
               10      Vir  Alpha       6 (A1)      0.0047
               16      Vir  Alpha       9 (A1)      0.0106
               19      Vir  Alpha      10 (A1)      0.0131
               25      Vir  Alpha      13 (A1)      0.0240
               28      Vir  Alpha      14 (A1)      0.0289
               35      Vir  Alpha      17 (A1)      0.0510
               37      Vir  Alpha      18 (A1)      0.0588
               44      Vir  Alpha      21 (A1)      0.1123
               46      Vir  Alpha      22 (A1)      0.1319
               53      Vir  Alpha      25 (A1)      0.3314
               10      Vir  Beta        6 (A1)      0.0047
               16      Vir  Beta        9 (A1)      0.0106
               19      Vir  Beta       10 (A1)      0.0131
               25      Vir  Beta       13 (A1)      0.0240
               28      Vir  Beta       14 (A1)      0.0289
               35      Vir  Beta       17 (A1)      0.0510
               37      Vir  Beta       18 (A1)      0.0588
               44      Vir  Beta       21 (A1)      0.1123
               46      Vir  Beta       22 (A1)      0.1319
               53      Vir  Beta       25 (A1)      0.3314


 EOMEE transition 2/A1
 Total energy = -56.49912459 a.u.  Excitation energy = 538.3197 eV.
 R0^2 = 0.0000  R1^2 = 0.8384  R2_CCVV^2 = 0.0005  R2_COVV^2 = 0.0806  Res^2 = 1.88e-05
 Conv-d = yes

 Amplitude    Transitions between orbitals
  0.3023       1 (A1) A                  ->    21 (A1) A                  
  0.3023       1 (A1) B                  ->    21 (A1) B                  
 -0.2977       1 (A1) A                  ->    18 (A1) A                  
 -0.2977       1 (A1) B                  ->    18 (A1) B                  
  0.2804       1 (A1) A                  ->    14 (A1) A                  
  0.2804       1 (A1) B                  ->    14 (A1) B                  
  0.1849       1 (A1) A                  ->    17 (A1) A                  
  0.1849       1 (A1) B                  ->    17 (A1) B                  
  0.1700       1 (A1) A                  ->    10 (A1) A                  
  0.1700       1 (A1) B                  ->    10 (A1) B                  
  0.1493       1 (A1) A                  ->    22 (A1) A                  
  0.1493       1 (A1) B                  ->    22 (A1) B                  
  0.1237       1 (A1) A                  ->    13 (A1) A                  
  0.1237       1 (A1) B                  ->    13 (A1) B                  
  0.1155       1 (A1) A                  ->    26 (A1) A                  
  0.1155       1 (A1) B                  ->    26 (A1) B                  

              Summary of significant orbitals:

               Number  Type             Irrep      Energy
               1       Occ  Alpha       1 (A1)    -20.5671
               1       Occ  Beta        1 (A1)    -20.5671
               19      Vir  Alpha      10 (A1)      0.0131
               25      Vir  Alpha      13 (A1)      0.0240
               28      Vir  Alpha      14 (A1)      0.0289
               35      Vir  Alpha      17 (A1)      0.0510
               37      Vir  Alpha      18 (A1)      0.0588
               44      Vir  Alpha      21 (A1)      0.1123
               46      Vir  Alpha      22 (A1)      0.1319
               55      Vir  Alpha      26 (A1)      0.3541
               19      Vir  Beta       10 (A1)      0.0131
               25      Vir  Beta       13 (A1)      0.0240
               28      Vir  Beta       14 (A1)      0.0289
               35      Vir  Beta       17 (A1)      0.0510
               37      Vir  Beta       18 (A1)      0.0588
               44      Vir  Beta       21 (A1)      0.1123
               46      Vir  Beta       22 (A1)      0.1319
               55      Vir  Beta       26 (A1)      0.3541


 EOMEE transition 3/A1
 Total energy = -56.48005236 a.u.  Excitation energy = 538.8386 eV.
 R0^2 = 0.0000  R1^2 = 0.8366  R2_CCVV^2 = 0.0005  R2_COVV^2 = 0.0814  Res^2 = 3.52e-05
 Conv-d = yes

 Amplitude    Transitions between orbitals
  0.2775       1 (A1) A                  ->    6 (A1) A                   
  0.2775       1 (A1) B                  ->    6 (A1) B                   
  0.2506       1 (A1) A                  ->    4 (A1) A                   
  0.2506       1 (A1) B                  ->    4 (A1) B                   
  0.2457       1 (A1) A                  ->    9 (A1) A                   
  0.2457       1 (A1) B                  ->    9 (A1) B                   
  0.2307       1 (A1) A                  ->    22 (A1) A                  
  0.2307       1 (A1) B                  ->    22 (A1) B                  
 -0.1794       1 (A1) A                  ->    25 (A1) A                  
 -0.1794       1 (A1) B                  ->    25 (A1) B                  
 -0.1754       1 (A1) A                  ->    5 (A1) A                   
 -0.1754       1 (A1) B                  ->    5 (A1) B                   
 -0.1672       1 (A1) A                  ->    10 (A1) A                  
 -0.1672       1 (A1) B                  ->    10 (A1) B                  
  0.1536       1 (A1) A                  ->    13 (A1) A                  
  0.1536       1 (A1) B                  ->    13 (A1) B                  
 -0.1146       1 (A1) A                  ->    21 (A1) A                  
 -0.1146       1 (A1) B                  ->    21 (A1) B                  

              Summary of significant orbitals:

               Number  Type             Irrep      Energy
               1       Occ  Alpha       1 (A1)    -20.5671
               1       Occ  Beta        1 (A1)    -20.5671
               6       Vir  Alpha       4 (A1)      0.0008
               7       Vir  Alpha       5 (A1)      0.0034
               10      Vir  Alpha       6 (A1)      0.0047
               16      Vir  Alpha       9 (A1)      0.0106
               19      Vir  Alpha      10 (A1)      0.0131
               25      Vir  Alpha      13 (A1)      0.0240
               44      Vir  Alpha      21 (A1)      0.1123
               46      Vir  Alpha      22 (A1)      0.1319
               53      Vir  Alpha      25 (A1)      0.3314
               6       Vir  Beta        4 (A1)      0.0008
               7       Vir  Beta        5 (A1)      0.0034
               10      Vir  Beta        6 (A1)      0.0047
               16      Vir  Beta        9 (A1)      0.0106
               19      Vir  Beta       10 (A1)      0.0131
               25      Vir  Beta       13 (A1)      0.0240
               44      Vir  Beta       21 (A1)      0.1123
               46      Vir  Beta       22 (A1)      0.1319
               53      Vir  Beta       25 (A1)      0.3314


 EOMEE transition 4/A1
 Total energy = -56.45893806 a.u.  Excitation energy = 539.4132 eV.
 R0^2 = 0.0000  R1^2 = 0.8356  R2_CCVV^2 = 0.0005  R2_COVV^2 = 0.0820  Res^2 = 6.67e-06
 Conv-d = yes

 Amplitude    Transitions between orbitals
  0.3603       1 (A1) A                  ->    15 (A1) A                  
  0.3603       1 (A1) B                  ->    15 (A1) B                  
 -0.3089       1 (A1) A                  ->    19 (A1) A                  
 -0.3089       1 (A1) B                  ->    19 (A1) B                  
  0.2893       1 (A1) A                  ->    11 (A1) A                  
  0.2893       1 (A1) B                  ->    11 (A1) B                  
 -0.1949       1 (A1) A                  ->    23 (A1) A                  
 -0.1949       1 (A1) B                  ->    23 (A1) B                  
 -0.1303       1 (A1) A                  ->    7 (A1) A                   
 -0.1303       1 (A1) B                  ->    7 (A1) B                   
 -0.1015       1 (A1) A                  ->    16 (A1) A                  
 -0.1015       1 (A1) B                  ->    16 (A1) B                  

              Summary of significant orbitals:

               Number  Type             Irrep      Energy
               1       Occ  Alpha       1 (A1)    -20.5671
               1       Occ  Beta        1 (A1)    -20.5671
               11      Vir  Alpha       7 (A1)      0.0078
               21      Vir  Alpha      11 (A1)      0.0212
               30      Vir  Alpha      15 (A1)      0.0446
               32      Vir  Alpha      16 (A1)      0.0451
               39      Vir  Alpha      19 (A1)      0.0867
               48      Vir  Alpha      23 (A1)      0.1716
               11      Vir  Beta        7 (A1)      0.0078
               21      Vir  Beta       11 (A1)      0.0212
               30      Vir  Beta       15 (A1)      0.0446
               32      Vir  Beta       16 (A1)      0.0451
               39      Vir  Beta       19 (A1)      0.0867
               48      Vir  Beta       23 (A1)      0.1716


 EOMEE transition 5/A1
 Total energy = -56.45413345 a.u.  Excitation energy = 539.5439 eV.
 R0^2 = 0.0000  R1^2 = 0.8361  R2_CCVV^2 = 0.0005  R2_COVV^2 = 0.0817  Res^2 = 7.25e-05
 Conv-d = yes

 Amplitude    Transitions between orbitals
 -0.3635       1 (A1) A                  ->    16 (A1) A                  
 -0.3635       1 (A1) B                  ->    16 (A1) B                  
 -0.3317       1 (A1) A                  ->    12 (A1) A                  
 -0.3317       1 (A1) B                  ->    12 (A1) B                  
  0.2809       1 (A1) A                  ->    20 (A1) A                  
  0.2809       1 (A1) B                  ->    20 (A1) B                  
  0.1723       1 (A1) A                  ->    8 (A1) A                   
  0.1723       1 (A1) B                  ->    8 (A1) B                   
  0.1463       1 (A1) A                  ->    24 (A1) A                  
  0.1463       1 (A1) B                  ->    24 (A1) B                  
 -0.1138       1 (A1) A                  ->    15 (A1) A                  
 -0.1138       1 (A1) B                  ->    15 (A1) B                  
 -0.1035       1 (A1) A                  ->    17 (A1) A                  
 -0.1035       1 (A1) B                  ->    17 (A1) B                  

              Summary of significant orbitals:

               Number  Type             Irrep      Energy
               1       Occ  Alpha       1 (A1)    -20.5671
               1       Occ  Beta        1 (A1)    -20.5671
               14      Vir  Alpha       8 (A1)      0.0079
               23      Vir  Alpha      12 (A1)      0.0214
               30      Vir  Alpha      15 (A1)      0.0446
               32      Vir  Alpha      16 (A1)      0.0451
               35      Vir  Alpha      17 (A1)      0.0510
               41      Vir  Alpha      20 (A1)      0.0886
               50      Vir  Alpha      24 (A1)      0.1773
               14      Vir  Beta        8 (A1)      0.0079
               23      Vir  Beta       12 (A1)      0.0214
               30      Vir  Beta       15 (A1)      0.0446
               32      Vir  Beta       16 (A1)      0.0451
               35      Vir  Beta       17 (A1)      0.0510
               41      Vir  Beta       20 (A1)      0.0886
               50      Vir  Beta       24 (A1)      0.1773


 EOMEE transition 6/A1
 Total energy = -56.44715238 a.u.  Excitation energy = 539.7339 eV.
 R0^2 = 0.0000  R1^2 = 0.8365  R2_CCVV^2 = 0.0005  R2_COVV^2 = 0.0815  Res^2 = 3.52e-05
 Conv-d = yes

 Amplitude    Transitions between orbitals
  0.3201       1 (A1) A                  ->    10 (A1) A                  
  0.3201       1 (A1) B                  ->    10 (A1) B                  
  0.2674       1 (A1) A                  ->    9 (A1) A                   
  0.2674       1 (A1) B                  ->    9 (A1) B                   
 -0.2474       1 (A1) A                  ->    5 (A1) A                   
 -0.2474       1 (A1) B                  ->    5 (A1) B                   
 -0.2171       1 (A1) A                  ->    6 (A1) A                   
 -0.2171       1 (A1) B                  ->    6 (A1) B                   
 -0.2158       1 (A1) A                  ->    21 (A1) A                  
 -0.2158       1 (A1) B                  ->    21 (A1) B                  
  0.1479       1 (A1) A                  ->    18 (A1) A                  
  0.1479       1 (A1) B                  ->    18 (A1) B                  
  0.1340       1 (A1) A                  ->    13 (A1) A                  
  0.1340       1 (A1) B                  ->    13 (A1) B                  
 -0.1145       1 (A1) A                  ->    22 (A1) A                  
 -0.1145       1 (A1) B                  ->    22 (A1) B                  
  0.1025       1 (A1) A                  ->    14 (A1) A                  
  0.1025       1 (A1) B                  ->    14 (A1) B                  

              Summary of significant orbitals:

               Number  Type             Irrep      Energy
               1       Occ  Alpha       1 (A1)    -20.5671
               1       Occ  Beta        1 (A1)    -20.5671
               7       Vir  Alpha       5 (A1)      0.0034
               10      Vir  Alpha       6 (A1)      0.0047
               16      Vir  Alpha       9 (A1)      0.0106
               19      Vir  Alpha      10 (A1)      0.0131
               25      Vir  Alpha      13 (A1)      0.0240
               28      Vir  Alpha      14 (A1)      0.0289
               37      Vir  Alpha      18 (A1)      0.0588
               44      Vir  Alpha      21 (A1)      0.1123
               46      Vir  Alpha      22 (A1)      0.1319
               7       Vir  Beta        5 (A1)      0.0034
               10      Vir  Beta        6 (A1)      0.0047
               16      Vir  Beta        9 (A1)      0.0106
               19      Vir  Beta       10 (A1)      0.0131
               25      Vir  Beta       13 (A1)      0.0240
               28      Vir  Beta       14 (A1)      0.0289
               37      Vir  Beta       18 (A1)      0.0588
               44      Vir  Beta       21 (A1)      0.1123
               46      Vir  Beta       22 (A1)      0.1319


 EOMEE transition 7/A1
 Total energy = -56.44147476 a.u.  Excitation energy = 539.8884 eV.
 R0^2 = 0.0000  R1^2 = 0.8360  R2_CCVV^2 = 0.0005  R2_COVV^2 = 0.0818  Res^2 = 5.71e-05
 Conv-d = yes

 Amplitude    Transitions between orbitals
  0.3655       1 (A1) A                  ->    4 (A1) A                   
  0.3655       1 (A1) B                  ->    4 (A1) B                   
 -0.2786       1 (A1) A                  ->    13 (A1) A                  
 -0.2786       1 (A1) B                  ->    13 (A1) B                  
 -0.1625       1 (A1) A                  ->    22 (A1) A                  
 -0.1625       1 (A1) B                  ->    22 (A1) B                  
  0.1577       1 (A1) A                  ->    14 (A1) A                  
  0.1577       1 (A1) B                  ->    14 (A1) B                  
  0.1574       1 (A1) A                  ->    10 (A1) A                  
  0.1574       1 (A1) B                  ->    10 (A1) B                  
  0.1460       1 (A1) A                  ->    6 (A1) A                   
  0.1460       1 (A1) B                  ->    6 (A1) B                   
 -0.1419       1 (A1) A                  ->    5 (A1) A                   
 -0.1419       1 (A1) B                  ->    5 (A1) B                   
 -0.1308       1 (A1) A                  ->    17 (A1) A                  
 -0.1308       1 (A1) B                  ->    17 (A1) B                  
  0.1289       1 (A1) A                  ->    25 (A1) A                  
  0.1289       1 (A1) B                  ->    25 (A1) B                  
 -0.1192       1 (A1) A                  ->    11 (A1) A                  
 -0.1192       1 (A1) B                  ->    11 (A1) B                  
  0.1092       1 (A1) A                  ->    7 (A1) A                   
  0.1092       1 (A1) B                  ->    7 (A1) B                   

              Summary of significant orbitals:

               Number  Type             Irrep      Energy
               1       Occ  Alpha       1 (A1)    -20.5671
               1       Occ  Beta        1 (A1)    -20.5671
               6       Vir  Alpha       4 (A1)      0.0008
               7       Vir  Alpha       5 (A1)      0.0034
               10      Vir  Alpha       6 (A1)      0.0047
               11      Vir  Alpha       7 (A1)      0.0078
               19      Vir  Alpha      10 (A1)      0.0131
               21      Vir  Alpha      11 (A1)      0.0212
               25      Vir  Alpha      13 (A1)      0.0240
               28      Vir  Alpha      14 (A1)      0.0289
               35      Vir  Alpha      17 (A1)      0.0510
               46      Vir  Alpha      22 (A1)      0.1319
               53      Vir  Alpha      25 (A1)      0.3314
               6       Vir  Beta        4 (A1)      0.0008
               7       Vir  Beta        5 (A1)      0.0034
               10      Vir  Beta        6 (A1)      0.0047
               11      Vir  Beta        7 (A1)      0.0078
               19      Vir  Beta       10 (A1)      0.0131
               21      Vir  Beta       11 (A1)      0.0212
               25      Vir  Beta       13 (A1)      0.0240
               28      Vir  Beta       14 (A1)      0.0289
               35      Vir  Beta       17 (A1)      0.0510
               46      Vir  Beta       22 (A1)      0.1319
               53      Vir  Beta       25 (A1)      0.3314


 EOMEE transition 8/A1
 Total energy = -56.43331018 a.u.  Excitation energy = 540.1106 eV.
 R0^2 = 0.0000  R1^2 = 0.8356  R2_CCVV^2 = 0.0005  R2_COVV^2 = 0.0820  Res^2 = 1.15e-05
 Conv-d = yes

 Amplitude    Transitions between orbitals
 -0.4600       1 (A1) A                  ->    7 (A1) A                   
 -0.4600       1 (A1) B                  ->    7 (A1) B                   
  0.2646       1 (A1) A                  ->    11 (A1) A                  
  0.2646       1 (A1) B                  ->    11 (A1) B                  
  0.2193       1 (A1) A                  ->    19 (A1) A                  
  0.2193       1 (A1) B                  ->    19 (A1) B                  
  0.1574       1 (A1) A                  ->    23 (A1) A                  
  0.1574       1 (A1) B                  ->    23 (A1) B                  
  0.1366       1 (A1) A                  ->    4 (A1) A                   
  0.1366       1 (A1) B                  ->    4 (A1) B                   
 -0.1099       1 (A1) A                  ->    15 (A1) A                  
 -0.1099       1 (A1) B                  ->    15 (A1) B                  

              Summary of significant orbitals:

               Number  Type             Irrep      Energy
               1       Occ  Alpha       1 (A1)    -20.5671
               1       Occ  Beta        1 (A1)    -20.5671
               6       Vir  Alpha       4 (A1)      0.0008
               11      Vir  Alpha       7 (A1)      0.0078
               21      Vir  Alpha      11 (A1)      0.0212
               30      Vir  Alpha      15 (A1)      0.0446
               39      Vir  Alpha      19 (A1)      0.0867
               48      Vir  Alpha      23 (A1)      0.1716
               6       Vir  Beta        4 (A1)      0.0008
               11      Vir  Beta        7 (A1)      0.0078
               21      Vir  Beta       11 (A1)      0.0212
               30      Vir  Beta       15 (A1)      0.0446
               39      Vir  Beta       19 (A1)      0.0867
               48      Vir  Beta       23 (A1)      0.1716


 EOMEE transition 9/A1
 Total energy = -56.43108253 a.u.  Excitation energy = 540.1712 eV.
 R0^2 = 0.0000  R1^2 = 0.8359  R2_CCVV^2 = 0.0005  R2_COVV^2 = 0.0818  Res^2 = 8.19e-05
 Conv-d = yes

 Amplitude    Transitions between orbitals
  0.5042       1 (A1) A                  ->    8 (A1) A                   
  0.5042       1 (A1) B                  ->    8 (A1) B                   
 -0.2289       1 (A1) A                  ->    20 (A1) A                  
 -0.2289       1 (A1) B                  ->    20 (A1) B                  
 -0.1975       1 (A1) A                  ->    12 (A1) A                  
 -0.1975       1 (A1) B                  ->    12 (A1) B                  
  0.1719       1 (A1) A                  ->    16 (A1) A                  
  0.1719       1 (A1) B                  ->    16 (A1) B                  
 -0.1280       1 (A1) A                  ->    24 (A1) A                  
 -0.1280       1 (A1) B                  ->    24 (A1) B                  

              Summary of significant orbitals:

               Number  Type             Irrep      Energy
               1       Occ  Alpha       1 (A1)    -20.5671
               1       Occ  Beta        1 (A1)    -20.5671
               14      Vir  Alpha       8 (A1)      0.0079
               23      Vir  Alpha      12 (A1)      0.0214
               32      Vir  Alpha      16 (A1)      0.0451
               41      Vir  Alpha      20 (A1)      0.0886
               50      Vir  Alpha      24 (A1)      0.1773
               14      Vir  Beta        8 (A1)      0.0079
               23      Vir  Beta       12 (A1)      0.0214
               32      Vir  Beta       16 (A1)      0.0451
               41      Vir  Beta       20 (A1)      0.0886
               50      Vir  Beta       24 (A1)      0.1773


 EOMEE transition 10/A1
 Total energy = -56.42757849 a.u.  Excitation energy = 540.2665 eV.
 R0^2 = 0.0000  R1^2 = 0.8362  R2_CCVV^2 = 0.0005  R2_COVV^2 = 0.0817  Res^2 = 9.58e-05
 Conv-d = yes

 Amplitude    Transitions between orbitals
 -0.4094       1 (A1) A                  ->    5 (A1) A                   
 -0.4094       1 (A1) B                  ->    5 (A1) B                   
 -0.2310       1 (A1) A                  ->    14 (A1) A                  
 -0.2310       1 (A1) B                  ->    14 (A1) B                  
 -0.2091       1 (A1) A                  ->    13 (A1) A                  
 -0.2091       1 (A1) B                  ->    13 (A1) B                  
 -0.1943       1 (A1) A                  ->    6 (A1) A                   
 -0.1943       1 (A1) B                  ->    6 (A1) B                   
  0.1763       1 (A1) A                  ->    21 (A1) A                  
  0.1763       1 (A1) B                  ->    21 (A1) B                  
 -0.1517       1 (A1) A                  ->    10 (A1) A                  
 -0.1517       1 (A1) B                  ->    10 (A1) B                  
 -0.1245       1 (A1) A                  ->    4 (A1) A                   
 -0.1245       1 (A1) B                  ->    4 (A1) B                   
 -0.1046       1 (A1) A                  ->    17 (A1) A                  
 -0.1046       1 (A1) B                  ->    17 (A1) B                  

              Summary of significant orbitals:

               Number  Type             Irrep      Energy
               1       Occ  Alpha       1 (A1)    -20.5671
               1       Occ  Beta        1 (A1)    -20.5671
               6       Vir  Alpha       4 (A1)      0.0008
               7       Vir  Alpha       5 (A1)      0.0034
               10      Vir  Alpha       6 (A1)      0.0047
               19      Vir  Alpha      10 (A1)      0.0131
               25      Vir  Alpha      13 (A1)      0.0240
               28      Vir  Alpha      14 (A1)      0.0289
               35      Vir  Alpha      17 (A1)      0.0510
               44      Vir  Alpha      21 (A1)      0.1123
               6       Vir  Beta        4 (A1)      0.0008
               7       Vir  Beta        5 (A1)      0.0034
               10      Vir  Beta        6 (A1)      0.0047
               19      Vir  Beta       10 (A1)      0.0131
               25      Vir  Beta       13 (A1)      0.0240
               28      Vir  Beta       14 (A1)      0.0289
               35      Vir  Beta       17 (A1)      0.0510
               44      Vir  Beta       21 (A1)      0.1123


      CVS-EOM-CCSD/MP2 left amplitudes will be solved using Davidson.
        Amplitudes will be solved using MOM  algorithm.
     Hard-coded thresholds: 
     LinDepThresh=1.00e-15  NormThresh=1.00e-06  ReorthogonThresh=1.00e-02

      Roots     MaxVec    MaxIter   Precond   Conv      Shift    
      10        1000      60        1         1.00e-04  1.95e+01  
 ------------------------------------------------------------------------------
      Iter ConvRoots NVecs ResNorm Current eigenvalues (eV)
 ------------------------------------------------------------------------------
      0    0      10    8.35e-02   535.2122   538.3197   538.8387   539.4132   539.5439   539.7339   539.8884   540.1106   540.1712   540.2665   
      1    0      20    4.24e-02   535.2122   538.3193   538.8384   539.4130   539.5437   539.7334   539.8880   540.1103   540.1710   540.2655   
      2    0      30    3.91e-04   535.2122   538.3195   538.8384   539.4132   539.5431   539.7334   539.8880   540.1105   540.1704   540.2655   
      3    10     40    2.99e-05   535.2122*  538.3195*  538.8384*  539.4132*  539.5428*  539.7333*  539.8879*  540.1105*  540.1701*  540.2653*  

     Davidson procedure converged

 Excited state properties for  CVS-EOMEE-CCSD transition 1/A1
 Dipole moment (a.u.): 0.624799 (X 0.000000, Y 0.000000, Z 0.624799)
 R-squared (a.u.): 32.965905 (XX 12.599232, YY 8.455451, ZZ 11.911221)

State OPDM analysis using libwa module will be excecuted
Created directory /work1/malop/qc_7608329.hnode2/plots
 NOs
   Occupation of frontier NOs:
      0.0030   0.0034   0.0046   0.9887   1.0071   1.9986   1.9988   2.0009
   Number of electrons: 10.000000
   Number of unpaired electrons: n_u =  1.98361, n_u,nl =  2.00036
   NO participation ratio (PR_NO):  2.003826
 
 Mulliken Population Analysis
 Atom      Charge (e)
 --------------------
 1  O        0.570468
 2  H       -0.291083
 3  H       -0.291083
 4 GH        0.011699
 --------------------
 Sum:        0.000000
 

 Excited state properties for  CVS-EOMEE-CCSD transition 2/A1
 Dipole moment (a.u.): 2.592741 (X 0.000000, Y 0.000000, Z -2.592741)
 R-squared (a.u.): 69.621409 (XX 20.011377, YY 17.791860, ZZ 31.818172)

State OPDM analysis using libwa module will be excecuted
 NOs
   Occupation of frontier NOs:
      0.0033   0.0037   0.0046   0.9979   1.0014   1.9987   2.0013   2.0031
   Number of electrons: 10.000000
   Number of unpaired electrons: n_u =  1.98451, n_u,nl =  2.00105
   NO participation ratio (PR_NO):  1.975783
 
 Mulliken Population Analysis
 Atom      Charge (e)
 --------------------
 1  O        0.074749
 2  H        0.385981
 3  H        0.385981
 4 GH       -0.846711
 --------------------
 Sum:        0.000000
 

 Excited state properties for  CVS-EOMEE-CCSD transition 3/A1
 Dipole moment (a.u.): 3.478520 (X 0.000000, Y 0.000000, Z 3.478520)
 R-squared (a.u.): 118.397695 (XX 30.649020, YY 38.401467, ZZ 49.347208)

State OPDM analysis using libwa module will be excecuted
 NOs
   Occupation of frontier NOs:
      0.0032   0.0038   0.0046   0.9955   1.0033   1.9989   2.0008   2.0032
   Number of electrons: 10.000000
   Number of unpaired electrons: n_u =  1.98110, n_u,nl =  2.00100
   NO participation ratio (PR_NO):  1.977517
 
 Mulliken Population Analysis
 Atom      Charge (e)
 --------------------
 1  O        0.255699
 2  H        0.374637
 3  H        0.374637
 4 GH       -1.004973
 --------------------
 Sum:        0.000000
 

 Excited state properties for  CVS-EOMEE-CCSD transition 4/A1
 Dipole moment (a.u.): 0.878504 (X 0.000000, Y 0.000000, Z -0.878504)
 R-squared (a.u.): 133.832315 (XX 78.391483, YY 29.164543, ZZ 26.276289)

State OPDM analysis using libwa module will be excecuted
 NOs
   Occupation of frontier NOs:
      0.0032   0.0039   0.0046   0.9994   1.0003   1.9989   2.0015   2.0034
   Number of electrons: 10.000000
   Number of unpaired electrons: n_u =  1.98464, n_u,nl =  2.00115
   NO participation ratio (PR_NO):  1.970975
 
 Mulliken Population Analysis
 Atom      Charge (e)
 --------------------
 1  O        0.117270
 2  H        0.410855
 3  H        0.410855
 4 GH       -0.938980
 --------------------
 Sum:        0.000000
 

 Excited state properties for  CVS-EOMEE-CCSD transition 5/A1
 Dipole moment (a.u.): 2.782626 (X 0.000000, Y 0.000000, Z -2.782626)
 R-squared (a.u.): 153.532505 (XX 26.351172, YY 51.846566, ZZ 75.334768)

State OPDM analysis using libwa module will be excecuted
 NOs
   Occupation of frontier NOs:
      0.0033   0.0038   0.0045   0.9996   1.0000   1.9989   2.0018   2.0034
   Number of electrons: 10.000000
   Number of unpaired electrons: n_u =  1.98446, n_u,nl =  2.00120
   NO participation ratio (PR_NO):  1.969524
 
 Mulliken Population Analysis
 Atom      Charge (e)
 --------------------
 1  O        0.189138
 2  H        0.397867
 3  H        0.397867
 4 GH       -0.984872
 --------------------
 Sum:        0.000000
 

 Excited state properties for  CVS-EOMEE-CCSD transition 6/A1
 Dipole moment (a.u.): 5.177952 (X 0.000000, Y 0.000000, Z -5.177952)
 R-squared (a.u.): 283.774355 (XX 75.196379, YY 70.782143, ZZ 137.795834)

State OPDM analysis using libwa module will be excecuted
 NOs
   Occupation of frontier NOs:
      0.0033   0.0039   0.0046   0.9991   1.0009   1.9988   2.0015   2.0034
   Number of electrons: 10.000000
   Number of unpaired electrons: n_u =  1.98362, n_u,nl =  2.00119
   NO participation ratio (PR_NO):  1.970672
 
 Mulliken Population Analysis
 Atom      Charge (e)
 --------------------
 1  O        0.156296
 2  H        0.394145
 3  H        0.394145
 4 GH       -0.944586
 --------------------
 Sum:       -0.000000
 

 Excited state properties for  CVS-EOMEE-CCSD transition 7/A1
 Dipole moment (a.u.): 6.922047 (X 0.000000, Y 0.000000, Z 6.922047)
 R-squared (a.u.): 368.488511 (XX 74.360463, YY 139.083100, ZZ 155.044949)

State OPDM analysis using libwa module will be excecuted
 NOs
   Occupation of frontier NOs:
      0.0032   0.0038   0.0046   0.9966   1.0016   1.9989   2.0013   2.0034
   Number of electrons: 10.000000
   Number of unpaired electrons: n_u =  1.98264, n_u,nl =  2.00112
   NO participation ratio (PR_NO):  1.975142
 
 Mulliken Population Analysis
 Atom      Charge (e)
 --------------------
 1  O        0.209428
 2  H        0.401397
 3  H        0.401397
 4 GH       -1.012221
 --------------------
 Sum:       -0.000000
 

 Excited state properties for  CVS-EOMEE-CCSD transition 8/A1
 Dipole moment (a.u.): 0.616322 (X 0.000000, Y 0.000000, Z -0.616322)
 R-squared (a.u.): 483.778183 (XX 298.965115, YY 101.792850, ZZ 83.020218)

State OPDM analysis using libwa module will be excecuted
 NOs
   Occupation of frontier NOs:
      0.0032   0.0039   0.0046   0.9994   1.0002   1.9989   2.0016   2.0034
   Number of electrons: 10.000000
   Number of unpaired electrons: n_u =  1.98447, n_u,nl =  2.00116
   NO participation ratio (PR_NO):  1.970432
 
 Mulliken Population Analysis
 Atom      Charge (e)
 --------------------
 1  O        0.149899
 2  H        0.406463
 3  H        0.406463
 4 GH       -0.962825
 --------------------
 Sum:        0.000000
 

 Excited state properties for  CVS-EOMEE-CCSD transition 9/A1
 Dipole moment (a.u.): 4.615495 (X 0.000000, Y 0.000000, Z -4.615495)
 R-squared (a.u.): 526.940683 (XX 84.502014, YY 169.187972, ZZ 273.250698)

State OPDM analysis using libwa module will be excecuted
 NOs
   Occupation of frontier NOs:
      0.0033   0.0038   0.0045   0.9992   0.9999   1.9989   2.0018   2.0034
   Number of electrons: 10.000000
   Number of unpaired electrons: n_u =  1.98439, n_u,nl =  2.00121
   NO participation ratio (PR_NO):  1.970293
 
 Mulliken Population Analysis
 Atom      Charge (e)
 --------------------
 1  O        0.191007
 2  H        0.398382
 3  H        0.398382
 4 GH       -0.987772
 --------------------
 Sum:       -0.000000
 

 Excited state properties for  CVS-EOMEE-CCSD transition 10/A1
 Dipole moment (a.u.): 12.131395 (X 0.000000, Y 0.000000, Z -12.131395)
 R-squared (a.u.): 722.045793 (XX 179.301584, YY 211.538944, ZZ 331.205266)

State OPDM analysis using libwa module will be excecuted
 NOs
   Occupation of frontier NOs:
      0.0035   0.0042   0.0046   0.9981   0.9999   1.9988   2.0016   2.0035
   Number of electrons: 10.000000
   Number of unpaired electrons: n_u =  1.98512, n_u,nl =  2.00127
   NO participation ratio (PR_NO):  1.973984
 
 Mulliken Population Analysis
 Atom      Charge (e)
 --------------------
 1  O        0.172068
 2  H        0.401084
 3  H        0.401084
 4 GH       -0.974236
 --------------------
 Sum:        0.000000
 

        Solving for CVS-EOMEE-CCSD B1 singlet states.

       EOMEE-CCSD-SINGLES right amplitudes will be solved using Davidson.
        Amplitudes will be solved using shifted  algorithm.
     Hard-coded thresholds: 
     LinDepThresh=1.00e-15  NormThresh=1.00e-06  ReorthogonThresh=1.00e-02

      Roots     MaxVec    MaxIter   Precond   Conv      Shift    
      10        1000      60        1         1.00e-04  1.95e+01  
 ------------------------------------------------------------------------------
      Iter ConvRoots NVecs ResNorm Current eigenvalues (eV)
 ------------------------------------------------------------------------------
      0    0      10    1.95e-03   557.0081   558.1549   558.5136   558.8502   559.0202   559.2086   559.3698   559.7302   560.1757   560.9699   
Rerun orthogonalization...
      1    10     20    2.31e-21   552.5718*  557.5761*  558.1799*  558.6274*  558.8588*  559.0609*  559.2193*  559.4057*  559.7597*  560.1521*  

     Davidson procedure converged

        CVS-EOMEE-CCSD/MP2 right amplitudes will be solved using Davidson.
        Amplitudes will be solved using shifted  algorithm.
     Hard-coded thresholds: 
     LinDepThresh=1.00e-15  NormThresh=1.00e-06  ReorthogonThresh=1.00e-02

      Roots     MaxVec    MaxIter   Precond   Conv      Shift    
      10        1000      60        1         1.00e-04  1.95e+01  
 ------------------------------------------------------------------------------
      Iter ConvRoots NVecs ResNorm Current eigenvalues (eV)
 ------------------------------------------------------------------------------
      0    0      10    3.73e+00   552.5718   557.5761   558.1799   558.6274   558.8588   559.0609   559.2193   559.4057   559.7597   560.1521   
      1    0      20    2.71e+00   549.9638   554.4594   555.0472   555.4952   555.7233   555.9253   556.0835   556.2715   556.6275   557.0226   
      2    0      30    1.57e-01   537.9658   539.9938   540.4253   540.9190   541.1265   541.3463   541.4952   541.7202   542.0544   542.5360   
      3    0      40    1.10e-02   537.1737   539.1876   539.5522   540.0175   540.1906   540.4015   540.5470   540.7822   541.1410   541.6310   
      4    0      50    1.09e-03   537.0655   539.1560   539.5317   539.9971   540.1723   540.3831   540.5287   540.7581   541.1138   541.5871   
      5    0      60    6.99e-04   537.0278   539.1464   539.5264   539.9928   540.1687   540.3799   540.5255   540.7528   541.1090   541.5771   
      6    4      70    2.00e-04   537.0123   539.1418   539.5232   539.9905*  540.1664*  540.3782*  540.5233*  540.7497   541.1040   541.5695   
      7    5      76    1.56e-04   537.0040   539.1388   539.5217*  539.9891*  540.1653*  540.3773*  540.5223*  540.7476   541.1007   541.5628   
      8    9      81    4.99e-05   537.0022*  539.1381*  539.5213*  539.9887*  540.1650*  540.3770*  540.5219*  540.7469*  541.0995*  541.5599   
      9    9      82    3.46e-05   537.0022*  539.1378*  539.5212*  539.9885*  540.1649*  540.3769*  540.5218*  540.7465*  541.0991*  541.5580   
      10   10     83    1.67e-05   537.0022*  539.1377*  539.5211*  539.9885*  540.1648*  540.3768*  540.5217*  540.7463*  541.0987*  541.5569*  

     Davidson procedure converged

 EOMEE transition 1/B1
 Total energy = -56.54754054 a.u.  Excitation energy = 537.0022 eV.
 R0^2 = 0.0000  R1^2 = 0.8459  R2_CCVV^2 = 0.0005  R2_COVV^2 = 0.0768  Res^2 = 9.12e-06
 Conv-d = yes

 Amplitude    Transitions between orbitals
  0.2899       1 (A1) A                  ->    10 (B1) A                  
  0.2899       1 (A1) B                  ->    10 (B1) B                  
  0.2703       1 (A1) A                  ->    12 (B1) A                  
  0.2703       1 (A1) B                  ->    12 (B1) B                  
 -0.2486       1 (A1) A                  ->    8 (B1) A                   
 -0.2486       1 (A1) B                  ->    8 (B1) B                   
 -0.2198       1 (A1) A                  ->    13 (B1) A                  
 -0.2198       1 (A1) B                  ->    13 (B1) B                  
  0.1946       1 (A1) A                  ->    11 (B1) A                  
  0.1946       1 (A1) B                  ->    11 (B1) B                  
 -0.1756       1 (A1) A                  ->    6 (B1) A                   
 -0.1756       1 (A1) B                  ->    6 (B1) B                   
 -0.1653       1 (A1) A                  ->    14 (B1) A                  
 -0.1653       1 (A1) B                  ->    14 (B1) B                  
 -0.1424       1 (A1) A                  ->    9 (B1) A                   
 -0.1424       1 (A1) B                  ->    9 (B1) B                   
 -0.1050       1 (A1) A                  ->    7 (B1) A                   
 -0.1050       1 (A1) B                  ->    7 (B1) B                   
  0.1013       1 (A1) A                  ->    15 (B1) A                  
  0.1013       1 (A1) B                  ->    15 (B1) B                  

              Summary of significant orbitals:

               Number  Type             Irrep      Energy
               1       Occ  Alpha       1 (A1)    -20.5671
               1       Occ  Beta        1 (A1)    -20.5671
               26      Vir  Alpha       6 (B1)      0.0253
               29      Vir  Alpha       7 (B1)      0.0443
               34      Vir  Alpha       8 (B1)      0.0505
               38      Vir  Alpha       9 (B1)      0.0860
               43      Vir  Alpha      10 (B1)      0.0987
               47      Vir  Alpha      11 (B1)      0.1668
               52      Vir  Alpha      12 (B1)      0.1963
               54      Vir  Alpha      13 (B1)      0.3513
               58      Vir  Alpha      14 (B1)      0.4498
               59      Vir  Alpha      15 (B1)      0.7640
               26      Vir  Beta        6 (B1)      0.0253
               29      Vir  Beta        7 (B1)      0.0443
               34      Vir  Beta        8 (B1)      0.0505
               38      Vir  Beta        9 (B1)      0.0860
               43      Vir  Beta       10 (B1)      0.0987
               47      Vir  Beta       11 (B1)      0.1668
               52      Vir  Beta       12 (B1)      0.1963
               54      Vir  Beta       13 (B1)      0.3513
               58      Vir  Beta       14 (B1)      0.4498
               59      Vir  Beta       15 (B1)      0.7640


 EOMEE transition 2/B1
 Total energy = -56.46906292 a.u.  Excitation energy = 539.1377 eV.
 R0^2 = 0.0000  R1^2 = 0.8374  R2_CCVV^2 = 0.0005  R2_COVV^2 = 0.0810  Res^2 = 3.67e-06
 Conv-d = yes

 Amplitude    Transitions between orbitals
  0.3270       1 (A1) A                  ->    6 (B1) A                   
  0.3270       1 (A1) B                  ->    6 (B1) B                   
 -0.2921       1 (A1) A                  ->    4 (B1) A                   
 -0.2921       1 (A1) B                  ->    4 (B1) B                   
  0.2288       1 (A1) A                  ->    11 (B1) A                  
  0.2288       1 (A1) B                  ->    11 (B1) B                  
  0.2180       1 (A1) A                  ->    8 (B1) A                   
  0.2180       1 (A1) B                  ->    8 (B1) B                   
 -0.1987       1 (A1) A                  ->    9 (B1) A                   
 -0.1987       1 (A1) B                  ->    9 (B1) B                   
 -0.1899       1 (A1) A                  ->    13 (B1) A                  
 -0.1899       1 (A1) B                  ->    13 (B1) B                  
 -0.1442       1 (A1) A                  ->    2 (B1) A                   
 -0.1442       1 (A1) B                  ->    2 (B1) B                   
 -0.1190       1 (A1) A                  ->    7 (B1) A                   
 -0.1190       1 (A1) B                  ->    7 (B1) B                   

              Summary of significant orbitals:

               Number  Type             Irrep      Energy
               1       Occ  Alpha       1 (A1)    -20.5671
               1       Occ  Beta        1 (A1)    -20.5671
               8       Vir  Alpha       2 (B1)      0.0035
               17      Vir  Alpha       4 (B1)      0.0111
               26      Vir  Alpha       6 (B1)      0.0253
               29      Vir  Alpha       7 (B1)      0.0443
               34      Vir  Alpha       8 (B1)      0.0505
               38      Vir  Alpha       9 (B1)      0.0860
               47      Vir  Alpha      11 (B1)      0.1668
               54      Vir  Alpha      13 (B1)      0.3513
               8       Vir  Beta        2 (B1)      0.0035
               17      Vir  Beta        4 (B1)      0.0111
               26      Vir  Beta        6 (B1)      0.0253
               29      Vir  Beta        7 (B1)      0.0443
               34      Vir  Beta        8 (B1)      0.0505
               38      Vir  Beta        9 (B1)      0.0860
               47      Vir  Beta       11 (B1)      0.1668
               54      Vir  Beta       13 (B1)      0.3513


 EOMEE transition 3/B1
 Total energy = -56.45497249 a.u.  Excitation energy = 539.5211 eV.
 R0^2 = 0.0000  R1^2 = 0.8362  R2_CCVV^2 = 0.0005  R2_COVV^2 = 0.0816  Res^2 = 9.18e-06
 Conv-d = yes

 Amplitude    Transitions between orbitals
  0.3245       1 (A1) A                  ->    5 (B1) A                   
  0.3245       1 (A1) B                  ->    5 (B1) B                   
  0.3106       1 (A1) A                  ->    7 (B1) A                   
  0.3106       1 (A1) B                  ->    7 (B1) B                   
 -0.2228       1 (A1) A                  ->    4 (B1) A                   
 -0.2228       1 (A1) B                  ->    4 (B1) B                   
  0.1885       1 (A1) A                  ->    9 (B1) A                   
  0.1885       1 (A1) B                  ->    9 (B1) B                   
  0.1708       1 (A1) A                  ->    10 (B1) A                  
  0.1708       1 (A1) B                  ->    10 (B1) B                  
  0.1681       1 (A1) A                  ->    3 (B1) A                   
  0.1681       1 (A1) B                  ->    3 (B1) B                   
 -0.1565       1 (A1) A                  ->    2 (B1) A                   
 -0.1565       1 (A1) B                  ->    2 (B1) B                   
  0.1422       1 (A1) A                  ->    12 (B1) A                  
  0.1422       1 (A1) B                  ->    12 (B1) B                  
 -0.1078       1 (A1) A                  ->    8 (B1) A                   
 -0.1078       1 (A1) B                  ->    8 (B1) B                   

              Summary of significant orbitals:

               Number  Type             Irrep      Energy
               1       Occ  Alpha       1 (A1)    -20.5671
               1       Occ  Beta        1 (A1)    -20.5671
               8       Vir  Alpha       2 (B1)      0.0035
               12      Vir  Alpha       3 (B1)      0.0078
               17      Vir  Alpha       4 (B1)      0.0111
               20      Vir  Alpha       5 (B1)      0.0211
               29      Vir  Alpha       7 (B1)      0.0443
               34      Vir  Alpha       8 (B1)      0.0505
               38      Vir  Alpha       9 (B1)      0.0860
               43      Vir  Alpha      10 (B1)      0.0987
               52      Vir  Alpha      12 (B1)      0.1963
               8       Vir  Beta        2 (B1)      0.0035
               12      Vir  Beta        3 (B1)      0.0078
               17      Vir  Beta        4 (B1)      0.0111
               20      Vir  Beta        5 (B1)      0.0211
               29      Vir  Beta        7 (B1)      0.0443
               34      Vir  Beta        8 (B1)      0.0505
               38      Vir  Beta        9 (B1)      0.0860
               43      Vir  Beta       10 (B1)      0.0987
               52      Vir  Beta       12 (B1)      0.1963


 EOMEE transition 4/B1
 Total energy = -56.43779794 a.u.  Excitation energy = 539.9884 eV.
 R0^2 = 0.0000  R1^2 = 0.8362  R2_CCVV^2 = 0.0005  R2_COVV^2 = 0.0817  Res^2 = 4.07e-06
 Conv-d = yes

 Amplitude    Transitions between orbitals
  0.3539       1 (A1) A                  ->    2 (B1) A                   
  0.3539       1 (A1) B                  ->    2 (B1) B                   
  0.2667       1 (A1) A                  ->    5 (B1) A                   
  0.2667       1 (A1) B                  ->    5 (B1) B                   
  0.2552       1 (A1) A                  ->    4 (B1) A                   
  0.2552       1 (A1) B                  ->    4 (B1) B                   
  0.2038       1 (A1) A                  ->    3 (B1) A                   
  0.2038       1 (A1) B                  ->    3 (B1) B                   
  0.1954       1 (A1) A                  ->    8 (B1) A                   
  0.1954       1 (A1) B                  ->    8 (B1) B                   
  0.1498       1 (A1) A                  ->    11 (B1) A                  
  0.1498       1 (A1) B                  ->    11 (B1) B                  
 -0.1302       1 (A1) A                  ->    13 (B1) A                  
 -0.1302       1 (A1) B                  ->    13 (B1) B                  
  0.1167       1 (A1) A                  ->    7 (B1) A                   
  0.1167       1 (A1) B                  ->    7 (B1) B                   

              Summary of significant orbitals:

               Number  Type             Irrep      Energy
               1       Occ  Alpha       1 (A1)    -20.5671
               1       Occ  Beta        1 (A1)    -20.5671
               8       Vir  Alpha       2 (B1)      0.0035
               12      Vir  Alpha       3 (B1)      0.0078
               17      Vir  Alpha       4 (B1)      0.0111
               20      Vir  Alpha       5 (B1)      0.0211
               29      Vir  Alpha       7 (B1)      0.0443
               34      Vir  Alpha       8 (B1)      0.0505
               47      Vir  Alpha      11 (B1)      0.1668
               54      Vir  Alpha      13 (B1)      0.3513
               8       Vir  Beta        2 (B1)      0.0035
               12      Vir  Beta        3 (B1)      0.0078
               17      Vir  Beta        4 (B1)      0.0111
               20      Vir  Beta        5 (B1)      0.0211
               29      Vir  Beta        7 (B1)      0.0443
               34      Vir  Beta        8 (B1)      0.0505
               47      Vir  Beta       11 (B1)      0.1668
               54      Vir  Beta       13 (B1)      0.3513


 EOMEE transition 5/B1
 Total energy = -56.43131683 a.u.  Excitation energy = 540.1648 eV.
 R0^2 = 0.0000  R1^2 = 0.8359  R2_CCVV^2 = 0.0005  R2_COVV^2 = 0.0818  Res^2 = 1.10e-05
 Conv-d = yes

 Amplitude    Transitions between orbitals
  0.4222       1 (A1) A                  ->    3 (B1) A                   
  0.4222       1 (A1) B                  ->    3 (B1) B                   
 -0.2998       1 (A1) A                  ->    2 (B1) A                   
 -0.2998       1 (A1) B                  ->    2 (B1) B                   
 -0.2242       1 (A1) A                  ->    6 (B1) A                   
 -0.2242       1 (A1) B                  ->    6 (B1) B                   
 -0.1737       1 (A1) A                  ->    7 (B1) A                   
 -0.1737       1 (A1) B                  ->    7 (B1) B                   
 -0.1527       1 (A1) A                  ->    9 (B1) A                   
 -0.1527       1 (A1) B                  ->    9 (B1) B                   
 -0.1148       1 (A1) A                  ->    10 (B1) A                  
 -0.1148       1 (A1) B                  ->    10 (B1) B                  
 -0.1103       1 (A1) A                  ->    12 (B1) A                  
 -0.1103       1 (A1) B                  ->    12 (B1) B                  
  0.1102       1 (A1) A                  ->    5 (B1) A                   
  0.1102       1 (A1) B                  ->    5 (B1) B                   

              Summary of significant orbitals:

               Number  Type             Irrep      Energy
               1       Occ  Alpha       1 (A1)    -20.5671
               1       Occ  Beta        1 (A1)    -20.5671
               8       Vir  Alpha       2 (B1)      0.0035
               12      Vir  Alpha       3 (B1)      0.0078
               20      Vir  Alpha       5 (B1)      0.0211
               26      Vir  Alpha       6 (B1)      0.0253
               29      Vir  Alpha       7 (B1)      0.0443
               38      Vir  Alpha       9 (B1)      0.0860
               43      Vir  Alpha      10 (B1)      0.0987
               52      Vir  Alpha      12 (B1)      0.1963
               8       Vir  Beta        2 (B1)      0.0035
               12      Vir  Beta        3 (B1)      0.0078
               20      Vir  Beta        5 (B1)      0.0211
               26      Vir  Beta        6 (B1)      0.0253
               29      Vir  Beta        7 (B1)      0.0443
               38      Vir  Beta        9 (B1)      0.0860
               43      Vir  Beta       10 (B1)      0.0987
               52      Vir  Beta       12 (B1)      0.1963


 EOMEE transition 6/B1
 Total energy = -56.42352605 a.u.  Excitation energy = 540.3768 eV.
 R0^2 = 0.0000  R1^2 = 0.8359  R2_CCVV^2 = 0.0005  R2_COVV^2 = 0.0818  Res^2 = 3.68e-06
 Conv-d = yes

 Amplitude    Transitions between orbitals
 -0.3545       1 (A1) A                  ->    2 (B1) A                   
 -0.3545       1 (A1) B                  ->    2 (B1) B                   
 -0.3168       1 (A1) A                  ->    3 (B1) A                   
 -0.3168       1 (A1) B                  ->    3 (B1) B                   
  0.2818       1 (A1) A                  ->    4 (B1) A                   
  0.2818       1 (A1) B                  ->    4 (B1) B                   
  0.1866       1 (A1) A                  ->    7 (B1) A                   
  0.1866       1 (A1) B                  ->    7 (B1) B                   
  0.1447       1 (A1) A                  ->    8 (B1) A                   
  0.1447       1 (A1) B                  ->    8 (B1) B                   
  0.1351       1 (A1) A                  ->    5 (B1) A                   
  0.1351       1 (A1) B                  ->    5 (B1) B                   
  0.1070       1 (A1) A                  ->    11 (B1) A                  
  0.1070       1 (A1) B                  ->    11 (B1) B                  
 -0.1008       1 (A1) A                  ->    13 (B1) A                  
 -0.1008       1 (A1) B                  ->    13 (B1) B                  

              Summary of significant orbitals:

               Number  Type             Irrep      Energy
               1       Occ  Alpha       1 (A1)    -20.5671
               1       Occ  Beta        1 (A1)    -20.5671
               8       Vir  Alpha       2 (B1)      0.0035
               12      Vir  Alpha       3 (B1)      0.0078
               17      Vir  Alpha       4 (B1)      0.0111
               20      Vir  Alpha       5 (B1)      0.0211
               29      Vir  Alpha       7 (B1)      0.0443
               34      Vir  Alpha       8 (B1)      0.0505
               47      Vir  Alpha      11 (B1)      0.1668
               54      Vir  Alpha      13 (B1)      0.3513
               8       Vir  Beta        2 (B1)      0.0035
               12      Vir  Beta        3 (B1)      0.0078
               17      Vir  Beta        4 (B1)      0.0111
               20      Vir  Beta        5 (B1)      0.0211
               29      Vir  Beta        7 (B1)      0.0443
               34      Vir  Beta        8 (B1)      0.0505
               47      Vir  Beta       11 (B1)      0.1668
               54      Vir  Beta       13 (B1)      0.3513


 EOMEE transition 7/B1
 Total energy = -56.41820088 a.u.  Excitation energy = 540.5217 eV.
 R0^2 = 0.0000  R1^2 = 0.8358  R2_CCVV^2 = 0.0005  R2_COVV^2 = 0.0818  Res^2 = 1.52e-05
 Conv-d = yes

 Amplitude    Transitions between orbitals
  0.3289       1 (A1) A                  ->    5 (B1) A                   
  0.3289       1 (A1) B                  ->    5 (B1) B                   
 -0.2932       1 (A1) A                  ->    4 (B1) A                   
 -0.2932       1 (A1) B                  ->    4 (B1) B                   
 -0.2581       1 (A1) A                  ->    6 (B1) A                   
 -0.2581       1 (A1) B                  ->    6 (B1) B                   
 -0.2464       1 (A1) A                  ->    3 (B1) A                   
 -0.2464       1 (A1) B                  ->    3 (B1) B                   
 -0.1589       1 (A1) A                  ->    9 (B1) A                   
 -0.1589       1 (A1) B                  ->    9 (B1) B                   
  0.1540       1 (A1) A                  ->    2 (B1) A                   
  0.1540       1 (A1) B                  ->    2 (B1) B                   
 -0.1187       1 (A1) A                  ->    10 (B1) A                  
 -0.1187       1 (A1) B                  ->    10 (B1) B                  
 -0.1151       1 (A1) A                  ->    12 (B1) A                  
 -0.1151       1 (A1) B                  ->    12 (B1) B                  

              Summary of significant orbitals:

               Number  Type             Irrep      Energy
               1       Occ  Alpha       1 (A1)    -20.5671
               1       Occ  Beta        1 (A1)    -20.5671
               8       Vir  Alpha       2 (B1)      0.0035
               12      Vir  Alpha       3 (B1)      0.0078
               17      Vir  Alpha       4 (B1)      0.0111
               20      Vir  Alpha       5 (B1)      0.0211
               26      Vir  Alpha       6 (B1)      0.0253
               38      Vir  Alpha       9 (B1)      0.0860
               43      Vir  Alpha      10 (B1)      0.0987
               52      Vir  Alpha      12 (B1)      0.1963
               8       Vir  Beta        2 (B1)      0.0035
               12      Vir  Beta        3 (B1)      0.0078
               17      Vir  Beta        4 (B1)      0.0111
[...]
   Correlation coefficient:              0.000000
   Center-of-mass size [Ang]:            6.016550
     Cartesian components [Ang]:       [  2.299248,   3.982098,   3.880107]

 ------------------------------------------------------------------------------
 State A: ccsd: 0/A1
 State B: cvs_eomee_ccsd/rhfref/singlets: 5/B2
 Transition dipole moment (a.u.):
   A->B: 0.007680 (X 0.000000, Y 0.007680, Z 0.000000)
   B->A: 0.007818 (X 0.000000, Y 0.007818, Z 0.000000)
 Oscillator strength (a.u.): 0.000795
 Norm of one-particle transition density matrix:
   A->B: 0.913402;   B->A: 0.877029
   ||gamma^AB||*||gamma^BA||: 0.801080

State analysis of transition OPDM (A->B) using libwa module will be excecuted
 NTOs
   Leading SVs and ENEs:
        0.8343   0.0000   0.0000   0.0000   0.0000   0.0000   0.0000   0.0000
 E(h) -20.5671  41.0900  -0.3476   1.6006   2.0056   0.8395   1.0779   0.6909
 E(e)   0.0246   0.0171   0.0266   0.1818   0.0652   0.1042   0.6572   0.9076
 
   Sum of SVs (Omega):               0.834304
   Participation ratio (PR_NTO):     1.000000
   Entanglement entropy (S_HE):      0.218050
   Nr of entangled states (Z_HE):    1.163160
   Renormalized S_HE/Z_HE:  0.000000 /  1.000000
 
 Atomic CT numbers
   omega =     0.8343
 
 Exciton analysis of the transition density matrix
   <r_h> [Ang]:                        [ -0.000000,   0.000000,   0.117610]
   <r_e> [Ang]:                        [  0.000000,   0.000000,  -1.868703]
   |<r_e - r_h>| [Ang]:                  1.986313
   Hole size [Ang]:                      0.122056
     Cartesian components [Ang]:       [  0.070466,   0.070473,   0.070469]
   Electron size [Ang]:                 14.521027
     Cartesian components [Ang]:       [  6.525474,  11.302427,   6.366598]
   RMS electron-hole separation [Ang]:  14.656758
     Cartesian components [Ang]:       [  6.525855,  11.302646,   6.669631]
   Covariance(r_h, r_e) [Ang^2]:        -0.000000
   Correlation coefficient:             -0.000000
   Center-of-mass size [Ang]:            7.260770
     Cartesian components [Ang]:       [  3.262927,   5.651323,   3.183494]

 ------------------------------------------------------------------------------
 State A: ccsd: 0/A1
 State B: cvs_eomee_ccsd/rhfref/singlets: 6/B2
 Transition dipole moment (a.u.):
   A->B: 0.000490 (X 0.000000, Y 0.000490, Z 0.000000)
   B->A: 0.000583 (X 0.000000, Y 0.000583, Z 0.000000)
 Oscillator strength (a.u.): 0.000004
 Norm of one-particle transition density matrix:
   A->B: 0.913498;   B->A: 0.876692
   ||gamma^AB||*||gamma^BA||: 0.800856

State analysis of transition OPDM (A->B) using libwa module will be excecuted
 NTOs
   Leading SVs and ENEs:
        0.8345   0.0000   0.0000   0.0000   0.0000   0.0000   0.0000   0.0000
 E(h) -20.5671  46.2108   1.1652   0.6699   0.8575   1.1462   1.0500   0.2952
 E(e)   0.0336   0.0267   0.0166   0.0288   0.0369   0.0255   0.0758   0.1631
 
   Sum of SVs (Omega):               0.834479
   Participation ratio (PR_NTO):     1.000000
   Entanglement entropy (S_HE):      0.217843
   Nr of entangled states (Z_HE):    1.162993
   Renormalized S_HE/Z_HE:  0.000000 /  1.000000
 
 Atomic CT numbers
   omega =     0.8345
 
 Exciton analysis of the transition density matrix
   <r_h> [Ang]:                        [ -0.000000,   0.000000,   0.117610]
   <r_e> [Ang]:                        [ -0.000000,  -0.000000,   3.907483]
   |<r_e - r_h>| [Ang]:                  3.789873
   Hole size [Ang]:                      0.122056
     Cartesian components [Ang]:       [  0.070466,   0.070473,   0.070469]
   Electron size [Ang]:                 14.973834
     Cartesian components [Ang]:       [  6.040074,  10.461696,   8.847945]
   RMS electron-hole separation [Ang]:  15.446480
     Cartesian components [Ang]:       [  6.040485,  10.461933,   9.625707]
   Covariance(r_h, r_e) [Ang^2]:         0.000000
   Correlation coefficient:              0.000000
   Center-of-mass size [Ang]:            7.487166
     Cartesian components [Ang]:       [  3.020243,   5.230967,   4.424113]

 ------------------------------------------------------------------------------
 State A: ccsd: 0/A1
 State B: cvs_eomee_ccsd/rhfref/singlets: 7/B2
 Transition dipole moment (a.u.):
   A->B: 0.007812 (X 0.000000, Y 0.007812, Z 0.000000)
   B->A: 0.007972 (X 0.000000, Y 0.007972, Z 0.000000)
 Oscillator strength (a.u.): 0.000825
 Norm of one-particle transition density matrix:
   A->B: 0.913432;   B->A: 0.877089
   ||gamma^AB||*||gamma^BA||: 0.801161

State analysis of transition OPDM (A->B) using libwa module will be excecuted
 NTOs
   Leading SVs and ENEs:
        0.8344   0.0000   0.0000   0.0000   0.0000   0.0000   0.0000   0.0000
 E(h) -20.5671  44.3588   1.5453  -0.5971   1.1182   0.8912   1.8573   1.4051
 E(e)   0.0346   0.0185   0.0139   0.0582   0.0764   0.1812   0.1532   0.1103
 
   Sum of SVs (Omega):               0.834358
   Participation ratio (PR_NTO):     1.000000
   Entanglement entropy (S_HE):      0.217986
   Nr of entangled states (Z_HE):    1.163109
   Renormalized S_HE/Z_HE:  0.000000 /  1.000000
 
 Atomic CT numbers
   omega =     0.8344
 
 Exciton analysis of the transition density matrix
   <r_h> [Ang]:                        [ -0.000000,   0.000000,   0.117610]
   <r_e> [Ang]:                        [  0.000000,   0.000000,  -3.460952]
   |<r_e - r_h>| [Ang]:                  3.578561
   Hole size [Ang]:                      0.122056
     Cartesian components [Ang]:       [  0.070466,   0.070473,   0.070469]
   Electron size [Ang]:                 16.375554
     Cartesian components [Ang]:       [  7.373195,  12.770734,   7.120611]
   RMS electron-hole separation [Ang]:  16.762451
     Cartesian components [Ang]:       [  7.373532,  12.770929,   7.969578]
   Covariance(r_h, r_e) [Ang^2]:        -0.000000
   Correlation coefficient:             -0.000000
   Center-of-mass size [Ang]:            8.188004
     Cartesian components [Ang]:       [  3.686766,   6.385464,   3.560480]

 ------------------------------------------------------------------------------
 State A: ccsd: 0/A1
 State B: cvs_eomee_ccsd/rhfref/singlets: 8/B2
 Transition dipole moment (a.u.):
   A->B: 0.008249 (X 0.000000, Y 0.008249, Z 0.000000)
   B->A: 0.008544 (X 0.000000, Y 0.008544, Z 0.000000)
 Oscillator strength (a.u.): 0.000934
 Norm of one-particle transition density matrix:
   A->B: 0.913415;   B->A: 0.877176
   ||gamma^AB||*||gamma^BA||: 0.801227

State analysis of transition OPDM (A->B) using libwa module will be excecuted
 NTOs
   Leading SVs and ENEs:
        0.8343   0.0000   0.0000   0.0000   0.0000   0.0000   0.0000   0.0000
 E(h) -20.5671  51.5803  -0.1161   1.9552   1.0717   1.8757   0.0863   0.8264
 E(e)   0.0748   0.0238   0.0195   0.0192   0.0490   0.0497   0.0708   0.0727
 
   Sum of SVs (Omega):               0.834328
   Participation ratio (PR_NTO):     1.000000
   Entanglement entropy (S_HE):      0.218021
   Nr of entangled states (Z_HE):    1.163137
   Renormalized S_HE/Z_HE:  0.000000 /  1.000000
 
 Atomic CT numbers
   omega =     0.8343
 
 Exciton analysis of the transition density matrix
   <r_h> [Ang]:                        [ -0.000000,   0.000000,   0.117610]
   <r_e> [Ang]:                        [ -0.000000,  -0.000000,   1.837670]
   |<r_e - r_h>| [Ang]:                  1.720061
   Hole size [Ang]:                      0.122056
     Cartesian components [Ang]:       [  0.070466,   0.070473,   0.070469]
   Electron size [Ang]:                 12.853881
     Cartesian components [Ang]:       [  5.575219,   9.656463,   6.394679]
   RMS electron-hole separation [Ang]:  12.969031
     Cartesian components [Ang]:       [  5.575664,   9.656720,   6.622348]
   Covariance(r_h, r_e) [Ang^2]:        -0.000000
   Correlation coefficient:             -0.000000
   Center-of-mass size [Ang]:            6.427230
     Cartesian components [Ang]:       [  2.787832,   4.828360,   3.197534]

 ------------------------------------------------------------------------------
 State A: ccsd: 0/A1
 State B: cvs_eomee_ccsd/rhfref/singlets: 9/B2
 Transition dipole moment (a.u.):
   A->B: 0.008981 (X 0.000000, Y 0.008981, Z 0.000000)
   B->A: 0.009287 (X 0.000000, Y 0.009287, Z 0.000000)
 Oscillator strength (a.u.): 0.001106
 Norm of one-particle transition density matrix:
   A->B: 0.913536;   B->A: 0.877396
   ||gamma^AB||*||gamma^BA||: 0.801533

State analysis of transition OPDM (A->B) using libwa module will be excecuted
 NTOs
   Leading SVs and ENEs:
        0.8345   0.0000   0.0000   0.0000   0.0000   0.0000   0.0000   0.0000
 E(h) -20.5671  51.5445   1.4078   0.4722   1.5926   1.5716   0.8868   1.4321
 E(e)   0.0818   0.0218   0.0136   0.0228   0.0379   0.1079   0.2714   0.0976
 
   Sum of SVs (Omega):               0.834548
   Participation ratio (PR_NTO):     1.000000
   Entanglement entropy (S_HE):      0.217761
   Nr of entangled states (Z_HE):    1.162928
   Renormalized S_HE/Z_HE:  0.000000 /  1.000000
 
 Atomic CT numbers
   omega =     0.8345
 
 Exciton analysis of the transition density matrix
   <r_h> [Ang]:                        [ -0.000000,   0.000000,   0.117610]
   <r_e> [Ang]:                        [  0.000000,   0.000000,  -1.792222]
   |<r_e - r_h>| [Ang]:                  1.909832
   Hole size [Ang]:                      0.122056
     Cartesian components [Ang]:       [  0.070466,   0.070473,   0.070469]
   Electron size [Ang]:                 12.141420
     Cartesian components [Ang]:       [  4.937280,   8.551628,   7.064489]
   RMS electron-hole separation [Ang]:  12.291316
     Cartesian components [Ang]:       [  4.937783,   8.551919,   7.318430]
   Covariance(r_h, r_e) [Ang^2]:        -0.000000
   Correlation coefficient:             -0.000000
   Center-of-mass size [Ang]:            6.071017
     Cartesian components [Ang]:       [  2.468891,   4.275959,   3.532420]

 ------------------------------------------------------------------------------
 State A: ccsd: 0/A1
 State B: cvs_eomee_ccsd/rhfref/singlets: 10/B2
 Transition dipole moment (a.u.):
   A->B: 0.000430 (X 0.000000, Y 0.000430, Z 0.000000)
   B->A: 0.000457 (X 0.000000, Y 0.000457, Z 0.000000)
 Oscillator strength (a.u.): 0.000003
 Norm of one-particle transition density matrix:
   A->B: 0.913508;   B->A: 0.876817
   ||gamma^AB||*||gamma^BA||: 0.800979

State analysis of transition OPDM (A->B) using libwa module will be excecuted
 NTOs
   Leading SVs and ENEs:
        0.8345   0.0000   0.0000   0.0000   0.0000   0.0000   0.0000   0.0000
 E(h) -20.5671  51.1815   1.9460   0.2244   1.1428   1.9653   0.9050   0.7479
 E(e)   0.1535   0.0152   0.0344   0.0408   0.0289   0.0543   0.0822   0.0990
 
   Sum of SVs (Omega):               0.834496
   Participation ratio (PR_NTO):     1.000000
   Entanglement entropy (S_HE):      0.217822
   Nr of entangled states (Z_HE):    1.162977
   Renormalized S_HE/Z_HE:  0.000000 /  1.000000
 
 Atomic CT numbers
   omega =     0.8345
 
 Exciton analysis of the transition density matrix
   <r_h> [Ang]:                        [ -0.000000,   0.000000,   0.117610]
   <r_e> [Ang]:                        [  0.000000,   0.000000,   0.881301]
   |<r_e - r_h>| [Ang]:                  0.763691
   Hole size [Ang]:                      0.122056
     Cartesian components [Ang]:       [  0.070466,   0.070473,   0.070469]
   Electron size [Ang]:                  8.797392
     Cartesian components [Ang]:       [  3.364917,   5.827946,   5.666258]
   RMS electron-hole separation [Ang]:   8.831321
     Cartesian components [Ang]:       [  3.365655,   5.828372,   5.717925]
   Covariance(r_h, r_e) [Ang^2]:         0.000000
   Correlation coefficient:              0.000000
   Center-of-mass size [Ang]:            4.399119
     Cartesian components [Ang]:       [  1.682828,   2.914186,   2.833348]


 All requested transition properties have been computed

 Transition Properties:   CPU 58.11 s  wall 15.58 s

 Total ccman2 time:   CPU 2210.67 s  wall 599.92 s

  2.483   2.784   2.955   3.487   3.535   3.718   4.114   4.384
 32 A1   33 A1   19 B1   15 B2    7 A2   34 A1   35 A1   20 B1                 
  5.550   5.922   6.215  51.590
 16 B2   36 A1   21 B1   37 A1                                                 

 Beta MOs, Restricted
 -- Occupied --                  
-20.567  -1.356  -0.719  -0.585  -0.510
  1 A1    2 A1    1 B1    3 A1    1 B2                                         
 -- Virtual --                   
  0.001   0.003   0.003   0.004   0.005   0.008   0.008   0.008
  4 A1    5 A1    2 B1    2 B2    6 A1    7 A1    3 B1    1 A2                 
  0.008   0.008   0.011   0.011   0.012   0.013   0.021   0.021
  8 A1    3 B2    9 A1    4 B1    4 B2   10 A1    5 B1   11 A1                 
  0.021   0.021   0.021   0.024   0.025   0.027   0.029   0.044
  2 A2   12 A1    5 B2   13 A1    6 B1    6 B2   14 A1    7 B1                 
  0.045   0.045   0.045   0.045   0.051   0.051   0.055   0.059
 15 A1    3 A2   16 A1    7 B2    8 B1   17 A1    8 B2   18 A1                 
  0.086   0.087   0.088   0.089   0.089   0.099   0.112   0.115
  9 B1   19 A1    4 A2   20 A1    9 B2   10 B1   21 A1   10 B2                 
  0.132   0.167   0.172   0.175   0.177   0.179   0.196   0.331
 22 A1   11 B1   23 A1    5 A2   24 A1   11 B2   12 B1   25 A1                 
  0.351   0.354   0.355   0.428   0.450   0.764   0.810   1.276
 13 B1   26 A1   12 B2   27 A1   14 B1   15 B1   28 A1   29 A1                 
  1.329   1.352   1.488   1.519   1.707   1.724   1.942   2.346
 13 B2   16 B1   30 A1    6 A2   31 A1   14 B2   17 B1   18 B1                 
  2.483   2.784   2.955   3.487   3.535   3.718   4.114   4.384
 32 A1   33 A1   19 B1   15 B2    7 A2   34 A1   35 A1   20 B1                 
  5.550   5.922   6.215  51.590
 16 B2   36 A1   21 B1   37 A1                                                 

 --------------------------------------------------------------
             Orbital Energies (a.u.) and Symmetries
 --------------------------------------------------------------

 Alpha MOs, Restricted
 -- Occupied --                  
-20.567  -1.356  -0.719  -0.585  -0.510
  1 A1    2 A1    1 B1    3 A1    1 B2                                         
 -- Virtual --                   
  0.001   0.003   0.003   0.004   0.005   0.008   0.008   0.008
  4 A1    5 A1    2 B1    2 B2    6 A1    7 A1    3 B1    1 A2                 
  0.008   0.008   0.011   0.011   0.012   0.013   0.021   0.021
  8 A1    3 B2    9 A1    4 B1    4 B2   10 A1    5 B1   11 A1                 
  0.021   0.021   0.021   0.024   0.025   0.027   0.029   0.044
  2 A2   12 A1    5 B2   13 A1    6 B1    6 B2   14 A1    7 B1                 
  0.045   0.045   0.045   0.045   0.051   0.051   0.055   0.059
 15 A1    3 A2   16 A1    7 B2    8 B1   17 A1    8 B2   18 A1                 
  0.086   0.087   0.088   0.089   0.089   0.099   0.112   0.115
  9 B1   19 A1    4 A2   20 A1    9 B2   10 B1   21 A1   10 B2                 
  0.132   0.167   0.172   0.175   0.177   0.179   0.196   0.331
 22 A1   11 B1   23 A1    5 A2   24 A1   11 B2   12 B1   25 A1                 
  0.351   0.354   0.355   0.428   0.450   0.764   0.810   1.276
 13 B1   26 A1   12 B2   27 A1   14 B1   15 B1   28 A1   29 A1                 
  1.329   1.352   1.488   1.519   1.707   1.724   1.942   2.346
 13 B2   16 B1   30 A1    6 A2   31 A1   14 B2   17 B1   18 B1                 
  2.483   2.784   2.955   3.487   3.535   3.718   4.114   4.384
 32 A1   33 A1   19 B1   15 B2    7 A2   34 A1   35 A1   20 B1                 
  5.550   5.922   6.215  51.590
 16 B2   36 A1   21 B1   37 A1                                                 

 Beta MOs, Restricted
 -- Occupied --                  
-20.567  -1.356  -0.719  -0.585  -0.510
  1 A1    2 A1    1 B1    3 A1    1 B2                                         
 -- Virtual --                   
  0.001   0.003   0.003   0.004   0.005   0.008   0.008   0.008
  4 A1    5 A1    2 B1    2 B2    6 A1    7 A1    3 B1    1 A2                 
  0.008   0.008   0.011   0.011   0.012   0.013   0.021   0.021
  8 A1    3 B2    9 A1    4 B1    4 B2   10 A1    5 B1   11 A1                 
Archival summary:
1\1\n-62-30-17\SP\ProcedureUnspecified\BasisUnspecified\12h1\malop\ThuJan1016:21:312019ThuJan1016:21:312019\0\\#,ProcedureUnspecified,BasisUnspecified,\\0,1\O\Gh,1,0.222599\H,2,1.68246,1,121.953\H,2,1.68246,1,121.953,3,180,0\\HF=-76.0530921\\@

 Total job time:  610.13s(wall), 2239.19s(cpu) 
 Thu Jan 10 16:21:31 2019

======= MOLDEN-FORMATTED INPUT FILE FOLLOWS =======
[Molden Format]
[Atoms] (AU)
  O      1    8     -0.00000000     -0.00000000      0.22259910
  H      2    1     -1.42754355     -0.00000000     -0.89039641
  H      3    1      1.42754355      0.00000000     -0.89039641
 GH      4    0     -0.00000000     -0.00000000      0.00000000

======= END OF MOLDEN-FORMATTED INPUT FILE =======


        *************************************************************
        *                                                           *
        *  Thank you very much for using Q-Chem.  Have a nice day.  *
        *                                                           *
        *************************************************************


  0.021   0.021   0.021   0.024   0.025   0.027   0.029   0.044
  2 A2   12 A1    5 B2   13 A1    6 B1    6 B2   14 A1    7 B1                 
  0.045   0.045   0.045   0.045   0.051   0.051   0.055   0.059
 15 A1    3 A2   16 A1    7 B2    8 B1   17 A1    8 B2   18 A1                 
  0.086   0.087   0.088   0.089   0.089   0.099   0.112   0.115
  9 B1   19 A1    4 A2   20 A1    9 B2   10 B1   21 A1   10 B2                 
  0.132   0.167   0.172   0.175   0.177   0.179   0.196   0.331
 22 A1   11 B1   23 A1    5 A2   24 A1   11 B2   12 B1   25 A1                 
  0.351   0.354   0.355   0.428   0.450   0.764   0.810   1.276
 13 B1   26 A1   12 B2   27 A1   14 B1   15 B1   28 A1   29 A1                 
  1.329   1.352   1.488   1.519   1.707   1.724   1.942   2.346
 13 B2   16 B1   30 A1    6 A2   31 A1   14 B2   17 B1   18 B1                 
  2.483   2.784   2.955   3.487   3.535   3.718   4.114   4.384
 32 A1   33 A1   19 B1   15 B2    7 A2   34 A1   35 A1   20 B1                 
  5.550   5.922   6.215  51.590
 16 B2   36 A1   21 B1   37 A1                                                 
 --------------------------------------------------------------

          Ground-State Mulliken Net Atomic Charges

     Atom                 Charge (a.u.)
  ----------------------------------------
      1 O                    -0.494844
      2 H                     0.237526
      3 H                     0.237526
      4 GH                    0.019791
  ----------------------------------------
  Sum of atomic charges =     0.000000

 -----------------------------------------------------------------
                    Cartesian Multipole Moments
 -----------------------------------------------------------------
    Charge (ESU x 10^10)
                -0.0000
    Dipole Moment (Debye)
         X       0.0000      Y       0.0000      Z      -2.2052
       Tot       2.2052
    Quadrupole Moments (Debye-Ang)
        XX      -4.2762     XY       0.0000     YY      -7.5903
        XZ      -0.0000     YZ      -0.0000     ZZ      -6.3077
    Octopole Moments (Debye-Ang^2)
       XXX       0.0000    XXY       0.0000    XYY       0.0000
       YYY       0.0000    XXZ      -1.3948    XYZ      -0.0000
       YYZ      -0.3444    XZZ      -0.0000    YZZ       0.0000
       ZZZ      -1.3412
    Hexadecapole Moments (Debye-Ang^3)
      XXXX      -7.8393   XXXY       0.0000   XXYY      -3.2230
      XYYY       0.0000   YYYY      -9.7185   XXXZ      -0.0000
      XXYZ      -0.0000   XYYZ      -0.0000   YYYZ      -0.0000
      XXZZ      -2.6390   XYZZ       0.0000   YYZZ      -3.5894
      XZZZ      -0.0000   YZZZ      -0.0000   ZZZZ     -10.9003
 -----------------------------------------------------------------
