Q-Chem Developer Version!
                  Welcome to Q-Chem
     A Quantum Leap Into The Future Of Chemistry


 Q-Chem 5.1, Q-Chem, Inc., Pleasanton, CA (2018)

 Yihan Shao,  Zhengting Gan,  E. Epifanovsky,  A. T. B. Gilbert,  M. Wormit,  
 J. Kussmann,  A. W. Lange,  A. Behn,  Jia Deng,  Xintian Feng,  D. Ghosh,  
 M. Goldey,  P. R. Horn,  L. D. Jacobson,  I. Kaliman,  T. Kus,  A. Landau,  
 Jie Liu,  E. I. Proynov,  R. M. Richard,  R. P. Steele,  E. J. Sundstrom,  
 H. L. Woodcock III,  P. M. Zimmerman,  D. Zuev,  B. Albrecht,  E. Alguire,  
 S. A. Baeppler,  D. Barton,  Z. Benda,  Y. A. Bernard,  E. J. Berquist,  
 K. B. Bravaya,  H. Burton,  D. Casanova,  Chun-Min Chang,  Yunqing Chen,  
 A. Chien,  K. D. Closser,  M. P. Coons,  S. Coriani,  S. Dasgupta,  
 A. L. Dempwolff,  M. Diedenhofen,  Hainam Do,  R. G. Edgar,  Po-Tung Fang,  
 S. Faraji,  S. Fatehi,  Qingguo Feng,  K. D. Fenk,  J. Fosso-Tande,  
 Qinghui Ge,  A. Ghysels,  G. Gidofalvi,  J. Gomes,  J. Gonthier,  A. Gunina,  
 D. Hait,  M. W. D. Hanson-Heine,  P. H. P. Harbach,  A. W. Hauser,  
 J. E. Herr,  E. G. Hohenstein,  Z. C. Holden,  Kerwin Hui,  B. C. Huynh,  
 T.-C. Jagau,  Hyunjun Ji,  B. Kaduk,  K. Khistyaev,  Jaehoon Kim,  
 P. Klunzinger,  K. Koh,  D. Kosenkov,  L. Koulias,  T. Kowalczyk,  
 C. M. Krauter,  A. Kunitsa,  Ka Un Lao,  A. Laurent,  K. V. Lawler,  
 Joonho Lee,  D. Lefrancois,  S. Lehtola,  D. S. Levine,  Yi-Pei Li,  
 You-Sheng Lin,  Fenglai Liu,  E. Livshits,  A. Luenser,  P. Manohar,  
 E. Mansoor,  S. F. Manzer,  Shan-Ping Mao,  Yuezhi Mao,  N. Mardirossian,  
 A. V. Marenich,  T. Markovich,  L. A. Martinez-Martinez,  S. A. Maurer,  
 N. J. Mayhall,  S. C. McKenzie,  J.-M. Mewes,  A. F. Morrison,  
 J. W. Mullinax,  K. Nanda,  T. S. Nguyen-Beck,  R. Olivares-Amaya,  
 J. A. Parkhill,  T. M. Perrine,  F. Plasser,  P. Pokhilko,  S. Prager,  
 A. Prociuk,  E. Ramos,  D. R. Rehn,  F. Rob,  M. Schneider,  N. Sergueev,  
 S. M. Sharada,  S. Sharma,  D. W. Small,  T. Stauch,  T. Stein,  
 Yu-Chuan Su,  A. J. W. Thom,  A. Tkatchenko,  T. Tsuchimochi,  N. M. Tubman,  
 L. Vogt,  M. L. Vidal,  O. Vydrov,  M. A. Watson,  J. Wenzel,  
 M. de Wergifosse,  T. A. Wesolowski,  A. White,  J. Witte,  A. Yamada,  
 Jun Yang,  K. Yao,  S. Yeganeh,  S. R. Yost,  Zhi-Qiang You,  A. Zech,  
 Igor Ying Zhang,  Xing Zhang,  Yan Zhao,  Ying Zhu,  B. R. Brooks,  
 G. K. L. Chan,  C. J. Cramer,  M. S. Gordon,  W. J. Hehre,  A. Klamt,  
 M. W. Schmidt,  C. D. Sherrill,  D. G. Truhlar,  A. Aspuru-Guzik,  R. Baer,  
 A. T. Bell,  N. A. Besley,  Jeng-Da Chai,  A. E. DePrince, III,  
 R. A. DiStasio Jr.,  A. Dreuw,  B. D. Dunietz,  T. R. Furlani,  
 Chao-Ping Hsu,  Yousung Jung,  Jing Kong,  D. S. Lambrecht,  WanZhen Liang,  
 C. Ochsenfeld,  V. A. Rassolov,  L. V. Slipchenko,  J. E. Subotnik,  
 T. Van Voorhis,  J. M. Herbert,  A. I. Krylov,  P. M. W. Gill,  M. Head-Gordon

 Contributors to earlier versions of Q-Chem not listed above: 
 R. D. Adamson,  B. Austin,  J. Baker,  G. J. O. Beran,  K. Brandhorst,  
 S. T. Brown,  E. F. C. Byrd,  A. K. Chakraborty,  C.-L. Cheng,  
 Siu Hung Chien,  D. M. Chipman,  D. L. Crittenden,  H. Dachsel,  
 R. J. Doerksen,  A. D. Dutoi,  L. Fusti-Molnar,  W. A. Goddard III,  
 A. Golubeva-Zadorozhnaya,  S. R. Gwaltney,  G. Hawkins,  A. Heyden,  
 S. Hirata,  G. Kedziora,  F. J. Keil,  C. Kelley,  Jihan Kim,  R. A. King,  
 R. Z. Khaliullin,  P. P. Korambath,  W. Kurlancheek,  A. M. Lee,  M. S. Lee,  
 S. V. Levchenko,  Ching Yeh Lin,  D. Liotard,  R. C. Lochan,  I. Lotan,  
 P. E. Maslen,  N. Nair,  D. P. O'Neill,  D. Neuhauser,  E. Neuscamman,  
 C. M. Oana,  R. Olson,  B. Peters,  R. Peverati,  P. A. Pieniazek,  
 Y. M. Rhee,  J. Ritchie,  M. A. Rohrdanz,  E. Rosta,  N. J. Russ,  
 H. F. Schaefer III,  N. E. Schultz,  N. Shenvi,  A. C. Simmonett,  A. Sodt,  
 D. Stuck,  K. S. Thanthiriwatte,  V. Vanovschi,  Tao Wang,  A. Warshel,  
 C. F. Williams,  Q. Wu,  X. Xu,  W. Zhang

 Please cite Q-Chem as follows:
 Y. Shao et al., Mol. Phys. 113, 184-215 (2015)
 DOI: 10.1080/00268976.2014.952696

 Q-Chem 5.1.1 for Intel X86 EM64T Linux

 Parts of Q-Chem use Armadillo 8.300.2 (Tropical Shenanigans).
 http://arma.sourceforge.net/

 Q-Chem begins on Mon Jan 14 15:22:45 2019  


Host: 0

     Scratch files written to /work1/malop/qc_7613198.hnode2//
Input Ideriv = 1
Curr. Ideriv = -1
Max.  Ideriv = 1

Checking the input file for inconsistencies... 	...done.

--------------------------------------------------------------
User input:
--------------------------------------------------------------
$comment 
NEXAFS AMMONIA / 6-311++G**+Rydberg
Optimized geometry: NH3_opt_coord.out
$end

$molecule
0 1
N      -0.0002568808    -0.2210075702    -0.0000000021
H       0.8838383819     0.5154343604     1.5287018716
H      -1.7658867303     0.5161842661     0.0000000000
H       0.8838383819     0.5154343604    -1.5287018716
Gh      0.0000000000     0.0000000000     0.0000000000
$end

$rem
    input_bohr = true
    jobtype = sp
    method = eom-ccsd
    basis = gen
    n_frozen_core = fc 
    cc_ref_prop = true
$end

$basis
N    0
S    6    1.000000
   6.29348000E+03    1.96979000E-03
   9.49044000E+02    1.49613000E-02
   2.18776000E+02    7.35006000E-02
   6.36916000E+01    2.48937000E-01
   1.88282000E+01    6.02460000E-01
   2.72023000E+00    2.56202000E-01
SP   3    1.000000
   3.06331000E+01    1.11906000E-01   3.83119000E-02
   7.02614000E+00    9.21666000E-01   2.37403000E-01
   2.11205000E+00   -2.56919000E-03   8.17592000E-01
SP   1    1.000000
   6.84009000E-01    1.00000000E+00   1.00000000E+00
SP   1    1.000000
   2.00878000E-01    1.00000000E+00   1.00000000E+00
SP   1    1.000000
   6.39000000E-02    1.00000000E+00   1.00000000E+00
D    1    1.000000
   9.13000000E-01    1.00000000E+00
****
H    0
S    3    1.000000
   3.38650000E+01    2.54938000E-02
   5.09479000E+00    1.90373000E-01
   1.15879000E+00    8.52161000E-01
S    1    1.000000
   3.25840000E-01    1.00000000E+00
S    1    1.000000
   1.02741000E-01    1.00000000E+00
S    1    1.000000
   3.60000000E-02    1.00000000E+00
P    1    1.000000
   7.50000000E-01    1.00000000E+00
****
H    0
S    3    1.000000
   3.38650000E+01    2.54938000E-02
   5.09479000E+00    1.90373000E-01
   1.15879000E+00    8.52161000E-01
S    1    1.000000
   3.25840000E-01    1.00000000E+00
S    1    1.000000
   1.02741000E-01    1.00000000E+00
S    1    1.000000
   3.60000000E-02    1.00000000E+00
P    1    1.000000
   7.50000000E-01    1.00000000E+00
****
H    0
S    3    1.000000
   3.38650000E+01    2.54938000E-02
   5.09479000E+00    1.90373000E-01
   1.15879000E+00    8.52161000E-01
S    1    1.000000
   3.25840000E-01    1.00000000E+00
S    1    1.000000
   1.02741000E-01    1.00000000E+00
S    1    1.000000
   3.60000000E-02    1.00000000E+00
P    1    1.000000
   7.50000000E-01    1.00000000E+00
****
Gh   0
S   1   1.00
        0.0112533427        1.0000000000
S   1   1.00
        0.0058583805        1.0000000000
S   1   1.00
        0.0033459739        1.0000000000
S   1   1.00
        0.0020484225        1.0000000000
S   1   1.00
        0.0013236424        1.0000000000
P   1   1.00
        0.0192542060        1.0000000000
P   1   1.00
        0.0099882106        1.0000000000
P   1   1.00
        0.0056893607        1.0000000000
P   1   1.00
        0.0034756797        1.0000000000
P   1   1.00
        0.0022420590        1.0000000000
D   1   1.00
        0.0274456919        1.0000000000
D   1   1.00
        0.0142043987        1.0000000000
D   1   1.00
        0.0080765930        1.0000000000
D   1   1.00
        0.0049271863        1.0000000000
D   1   1.00
        0.0031748110        1.0000000000
****
$end

--------------------------------------------------------------

 Q-Chem warning in module forms1/BasisType.C, line 1761:

 Setting pure/cartesian flag to 2111 for general basis


 Requested basis set is non-standard
 There are 36 shells and 88 basis functions
 Total memory of 2000MB is distributed as follows: 
   QALLOC including MEM_STATIC uses 192MB
   MEM_STATIC is set to 192MB
   CCMAN JOB total memory use is  1808MB
 Warning: actual memory use might exceed 2000MB

 Total QAlloc Memory Limit    192 MB
 Mega-Array Size       188 MB
 MEM_STATIC part       192 MB
 Smallest overlap matrix eigenvalue = 1.38E-04

 Scale SEOQF with 1.000000e-02/1.000000e-02/1.000000e-02

 Standard Electronic Orientation quadrupole field applied
 Guess MOs from core Hamiltonian diagonalization

 -----------------------------------------------------------------------
  General SCF calculation program by
  Eric Jon Sundstrom, Paul Horn, Yuezhi Mao, Dmitri Zuev, Alec White,
  David Stuck, Shaama M.S., Shane Yost, Joonho Lee, David Small,
  Daniel Levine, Susi Lehtola, Hugh Burton, Evgeny Epifanovsky
 -----------------------------------------------------------------------
 Hartree-Fock
 using 10 threads for integral computing
 -------------------------------------------------------
 OpenMP Integral computing Module                
 Release: version 1.0, May 2013, Q-Chem Inc. Pittsburgh 
 -------------------------------------------------------
 A restricted SCF calculation will be
 performed using DIIS
 SCF converges when DIIS error is below 1.0e-08
 ---------------------------------------
  Cycle       Energy         DIIS error
 ---------------------------------------
    1     -42.3180009343      1.65e-01  
    2     -41.8612877388      5.28e-02  
    3     -53.0502122157      6.59e-02  
    4     -55.3207496561      3.21e-02  
    5     -56.1834765750      4.78e-03  
    6     -56.2134498906      1.07e-03  
    7     -56.2143472032      1.18e-04  
    8     -56.2143653449      1.60e-05  
    9     -56.2143659050      3.80e-06  
   10     -56.2143659370      8.07e-07  
   11     -56.2143659393      3.80e-07  
   12     -56.2143659395      4.61e-08  
   13     -56.2143659396      5.27e-09  Convergence criterion met
 ---------------------------------------
 SCF time:   CPU 5.16s  wall 2.00s 
 SCF   energy in the final basis set =      -56.2143659396
 Total energy in the final basis set =      -56.2143659396


 ------------------------------------------------------------------------------

   CCMAN2: suite of methods based on coupled cluster
           and equation of motion theories.

   Components:
   * libvmm-1.3-trunk
     by Evgeny Epifanovsky, Ilya Kaliman.
   * libtensor-2.5-trunk
     by Evgeny Epifanovsky, Michael Wormit, Dmitry Zuev, Sam Manzer, 
        Ilya Kaliman.
   * libcc-2.5-trunk
     by Evgeny Epifanovsky, Arik Landau, Tomasz Kus, Kirill Khistyaev, 
        Dmitry Zuev, Prashant Manohar, Xintian Feng, Anna Krylov, 
        Matthew Goldey, Alec White, Thomas Jagau, Kaushik Nanda, 
        Anastasia Gunina, Alexander Kunitsa, Joonho Lee.

   CCMAN original authors:
   Anna I. Krylov, C. David Sherrill, Steven R. Gwaltney,
   Edward F. C. Byrd (2000)
   Sergey V. Levchenko, Lyudmila V. Slipchenko, Tao Wang,
   Ana-Maria C. Cristian (2003)
   Piotr A. Pieniazek, C. Melania Oana, Evgeny Epifanovsky (2007)
   Prashant Manohar (2009)

 ------------------------------------------------------------------------------


 Allocating and initializing 1808MB of RAM...
 Calculation will run on 10 cores.

 ----------------------------------------------------------------
             Standard Nuclear Orientation (Bohr)
    I     Atom           X                Y                Z
 ----------------------------------------------------------------
    1      N      -0.0002558797    -0.2210075701    -0.0000000010
    2      H       0.8838385113     0.5154354066     1.5287018729
    3      H      -1.7658866026     0.5161821742     0.0000000028
    4      H       0.8838385096     0.5154354094    -1.5287018703
    5      GH      0.0000007393     0.0000000004     0.0000000013
 ----------------------------------------------------------------
 Molecular Point Group                 Cs    NOp =  2
 Largest Abelian Subgroup              Cs    NOp =  2
 Nuclear Repulsion Energy =    11.9563917634 hartrees
 There are        5 alpha and        5 beta electrons

                       Distance Matrix (Bohrs)
             N (  1)   H (  2)   H (  3)   H (  4)
   H (  2)  1.913348
   H (  3)  1.913348  3.059080
   H (  4)  1.913348  3.057404  3.059080
   GH(  5)  0.221008  1.839503  1.839783  1.839503

 A cutoff of  1.0D-14 yielded    666 shell pairs
 There are      4024 function pairs (      4603 Cartesian)

 -------------------------------------------------------
 OpenMP Integral Computing Module                       
 Release: version 1.0, May 2013, Q-Chem Inc. Pittsburgh 
 -------------------------------------------------------
 Integral Job Info:
 Integral job number is                      11
 Integral operator is                         1
 short-range coefficients                     0
 long-range coefficients              100000000
 Omega coefficients                           0
 if combine SR and LR in K                    0
 Integral screening is                        0
 Integral computing path is                   2
 max size of driver memory is            800000
 size of driver memory is                593474
 size of scratch memory is              2361544
 max col of scratch BK array               1296
 max len of scratch array in speh3          155
 max len of scratch index in speh4           18
 max int batch size is                      520
 min int batch size is                       52
 fixed nKL is                                52
 max L of basis functions is                  2
 order of int derivative is                   0
 number of shells is                         36
 number of basis is                          94
 number of cartesian basis is                94
 number of contracted shell pairs           666
 number of primitive shell pairs           1225
 maxK2 (contraction) of shell pair           36
 max number of K2 of shell pair               1
 max number of CS2 of shell pair            112
 max number of PS2 of shell pair            126
 mem total for path MDJ                  517512
 -------------------------------------------------------

 Alpha MOs, Restricted
 -- Occupied --                  
-15.542  -1.145  -0.629  -0.629  -0.430
  1 A'    2 A'    3 A'    1 A"    4 A'                                         
 -- Virtual --                   
  0.001   0.004   0.004   0.004   0.005   0.008   0.008   0.008
  5 A'    2 A"    6 A'    7 A'    8 A'    3 A"    9 A'    4 A"                 
  0.008   0.008   0.011   0.011   0.011   0.013   0.021   0.021
 10 A'   11 A'   12 A'    5 A"   13 A'   14 A'    6 A"   15 A'                 
  0.021   0.021   0.021   0.025   0.026   0.026   0.029   0.044
  7 A"   16 A'   17 A'   18 A'   19 A'    8 A"   20 A'    9 A"                 
  0.044   0.045   0.045   0.045   0.051   0.051   0.053   0.059
 21 A'   22 A'   10 A"   23 A'   24 A'   11 A"   25 A'   26 A'                 
  0.086   0.086   0.088   0.088   0.088   0.100   0.100   0.114
 12 A"   27 A'   28 A'   13 A"   29 A'   30 A'   14 A"   31 A'                 
  0.131   0.165   0.165   0.174   0.174   0.176   0.196   0.196
 32 A'   15 A"   33 A'   34 A'   16 A"   35 A'   36 A'   17 A"                 
  0.291   0.333   0.333   0.351   0.394   0.415   0.416   0.748
 37 A'   18 A"   38 A'   39 A'   40 A'   41 A'   19 A"   20 A"                 

 Occupation and symmetry of molecular orbitals

 Point group: Cs (2 irreducible representations).

                           A'   A"    All 
 ------------------------------------------
 All molecular orbitals:
  - Alpha                  59   29    88  
  - Beta                   59   29    88  
 ------------------------------------------
 Alpha orbitals:
  - Frozen occupied        1    0     1   
  - Active occupied        3    1     4   
  - Active virtual         55   28    83  
  - Frozen virtual         0    0     0   
 ------------------------------------------
 Beta orbitals:
  - Frozen occupied        1    0     1   
  - Active occupied        3    1     4   
  - Active virtual         55   28    83  
  - Frozen virtual         0    0     0   
 ------------------------------------------

 Import integrals:   CPU 0.00 s  wall 0.00 s

 Import integrals:   CPU 6.24 s  wall 1.77 s

 MP2 amplitudes:   CPU 0.18 s  wall 0.13 s

Running a double precision version
           CCSD T amplitudes will be solved using DIIS.

           Start     Size      MaxIter   EConv     TConv     
           3         7         100       1.00e-06  1.00e-04  
 ------------------------------------------------------------------------------
           Energy (a.u.)   Ediff      Tdiff       Comment
 ------------------------------------------------------------------------------
           -56.41607197                           
     1     -56.42414363   8.07e-03   4.16e-01     
     2     -56.42844835   4.30e-03   4.62e-02     
     3     -56.42923733   7.89e-04   1.49e-02     
     4     -56.42976459   5.27e-04   6.55e-03     Switched to DIIS steps.
     5     -56.42985014   8.56e-05   2.24e-03     
     6     -56.42985172   1.57e-06   5.19e-04     
     7     -56.42985145   2.70e-07   1.74e-04     
     8     -56.42985161   1.61e-07   5.02e-05     
 ------------------------------------------------------------------------------
           -56.42985161                           CCSD T converged.

End of double precision
 SCF energy                 = -56.21436594
 MP2 energy                 = -56.41607197
 CCSD correlation energy     =  -0.21548567
 CCSD total energy           = -56.42985161

 CCSD  T1^2 = 0.0012  T2^2 = 0.0703  Leading amplitudes:

 Amplitude    Orbitals with energies
  0.0111       4 (A') A                  ->    37 (A') A                  
              -0.4299                          0.2905                     
  0.0111       4 (A') B                  ->    37 (A') B                  
              -0.4299                          0.2905                     
 -0.0104       4 (A') A                  ->    31 (A') A                  
              -0.4299                          0.1144                     
 -0.0104       4 (A') B                  ->    31 (A') B                  
              -0.4299                          0.1144                     

 Amplitude    Orbitals with energies
 -0.0267       4 (A') A      4 (A') B    ->    44 (A') A     44 (A') B    
              -0.4299       -0.4299            1.0652        1.0652       
  0.0267       4 (A') A      4 (A') B    ->    44 (A') B     44 (A') A    
              -0.4299       -0.4299            1.0652        1.0652       
  0.0267       4 (A') B      4 (A') A    ->    44 (A') A     44 (A') B    
              -0.4299       -0.4299            1.0652        1.0652       
 -0.0267       4 (A') B      4 (A') A    ->    44 (A') B     44 (A') A    
              -0.4299       -0.4299            1.0652        1.0652       

 Computing CCSD intemediates for later calculations in double precision
 Finished.

Running a double precision version
           CCSD Lambda amplitudes will be solved using DIIS.
           Start     Size      MaxIter   EConv     LConv     
           3         7         100       1.00e-06  1.00e-04  
 ------------------------------------------------------------------------------
            Enorm      Ldiff       Comment
 ------------------------------------------------------------------------------
     1     1.30e-02   9.58e-03     
     2     3.05e-03   1.73e-03     
     3     1.14e-03   3.99e-04     
     4     4.47e-04   2.44e-04     Switched to DIIS steps.
     5     1.29e-04   6.18e-05     
     6     4.08e-05   9.66e-06     
     7     1.33e-05   3.37e-07     
     8     5.48e-06   4.43e-08     
     9     2.61e-06   8.38e-08     
    10     1.12e-06   2.03e-08     
    11     4.12e-07   3.59e-08     
 ------------------------------------------------------------------------------
                                   CCSD Lambda converged.

 Computing density matrices in double precision...
 Computing density matrices... Done.
 Reference state properties
 Dipole moment (a.u.): 0.683819 (X 0.000506, Y 0.683819, Z 0.000000)
 R-squared (a.u.): 27.154501 (XX 9.436487, YY 8.284982, ZZ 9.433032)
 Density matrix was written to a file for further analysis.

 CCSD calculation:   CPU 72.25 s  wall 12.09 s

 Total ccman2 time:   CPU 83.52 s  wall 15.15 s

  0.748   0.883   1.065   1.132   1.132   1.339   1.366   1.367
 42 A'   43 A'   44 A'   45 A'   21 A"   46 A'   47 A'   22 A"                 
  1.798   1.824   1.967   1.968   2.253   2.254   2.664   2.873
 23 A"   48 A'   49 A'   24 A"   25 A"   50 A'   51 A'   52 A'                 
  2.874   3.005   3.005   3.011   3.216   3.545   3.545   4.600
 26 A"   27 A"   53 A'   54 A'   55 A'   56 A'   28 A"   57 A'                 
  5.230   5.231  37.069
 29 A"   58 A'   59 A'                                                         

 Beta MOs, Restricted
 -- Occupied --                  
-15.542  -1.145  -0.629  -0.629  -0.430
  1 A'    2 A'    3 A'    1 A"    4 A'                                         
 -- Virtual --                   
  0.001   0.004   0.004   0.004   0.005   0.008   0.008   0.008
  5 A'    2 A"    6 A'    7 A'    8 A'    3 A"    9 A'    4 A"                 
  0.008   0.008   0.011   0.011   0.011   0.013   0.021   0.021
 10 A'   11 A'   12 A'    5 A"   13 A'   14 A'    6 A"   15 A'                 
  0.021   0.021   0.021   0.025   0.026   0.026   0.029   0.044
  7 A"   16 A'   17 A'   18 A'   19 A'    8 A"   20 A'    9 A"                 
  0.044   0.045   0.045   0.045   0.051   0.051   0.053   0.059
 21 A'   22 A'   10 A"   23 A'   24 A'   11 A"   25 A'   26 A'                 
  0.086   0.086   0.088   0.088   0.088   0.100   0.100   0.114
 12 A"   27 A'   28 A'   13 A"   29 A'   30 A'   14 A"   31 A'                 
  0.131   0.165   0.165   0.174   0.174   0.176   0.196   0.196
 32 A'   15 A"   33 A'   34 A'   16 A"   35 A'   36 A'   17 A"                 
  0.291   0.333   0.333   0.351   0.394   0.415   0.416   0.748
 37 A'   18 A"   38 A'   39 A'   40 A'   41 A'   19 A"   20 A"                 
  0.748   0.883   1.065   1.132   1.132   1.339   1.366   1.367
 42 A'   43 A'   44 A'   45 A'   21 A"   46 A'   47 A'   22 A"                 
  1.798   1.824   1.967   1.968   2.253   2.254   2.664   2.873
 23 A"   48 A'   49 A'   24 A"   25 A"   50 A'   51 A'   52 A'                 
  2.874   3.005   3.005   3.011   3.216   3.545   3.545   4.600
 26 A"   27 A"   53 A'   54 A'   55 A'   56 A'   28 A"   57 A'                 
  5.230   5.231  37.069
 29 A"   58 A'   59 A'                                                         

 --------------------------------------------------------------
             Orbital Energies (a.u.) and Symmetries
 --------------------------------------------------------------

 Alpha MOs, Restricted
 -- Occupied --                  
-15.542  -1.145  -0.629  -0.629  -0.430
  1 A'    2 A'    3 A'    1 A"    4 A'                                         
 -- Virtual --                   
  0.001   0.004   0.004   0.004   0.005   0.008   0.008   0.008
  5 A'    2 A"    6 A'    7 A'    8 A'    3 A"    9 A'    4 A"                 
  0.008   0.008   0.011   0.011   0.011   0.013   0.021   0.021
 10 A'   11 A'   12 A'    5 A"   13 A'   14 A'    6 A"   15 A'                 
  0.021   0.021   0.021   0.025   0.026   0.026   0.029   0.044
  7 A"   16 A'   17 A'   18 A'   19 A'    8 A"   20 A'    9 A"                 
  0.044   0.045   0.045   0.045   0.051   0.051   0.053   0.059
 21 A'   22 A'   10 A"   23 A'   24 A'   11 A"   25 A'   26 A'                 
  0.086   0.086   0.088   0.088   0.088   0.100   0.100   0.114
 12 A"   27 A'   28 A'   13 A"   29 A'   30 A'   14 A"   31 A'                 
  0.131   0.165   0.165   0.174   0.174   0.176   0.196   0.196
 32 A'   15 A"   33 A'   34 A'   16 A"   35 A'   36 A'   17 A"                 
  0.291   0.333   0.333   0.351   0.394   0.415   0.416   0.748
 37 A'   18 A"   38 A'   39 A'   40 A'   41 A'   19 A"   20 A"                 
  0.748   0.883   1.065   1.132   1.132   1.339   1.366   1.367
 42 A'   43 A'   44 A'   45 A'   21 A"   46 A'   47 A'   22 A"                 
  1.798   1.824   1.967   1.968   2.253   2.254   2.664   2.873
 23 A"   48 A'   49 A'   24 A"   25 A"   50 A'   51 A'   52 A'                 
  2.874   3.005   3.005   3.011   3.216   3.545   3.545   4.600
 26 A"   27 A"   53 A'   54 A'   55 A'   56 A'   28 A"   57 A'                 
Archival summary:
1\1\n-62-23-22\SP\ProcedureUnspecified\BasisUnspecified\13h1\malop\MonJan1415:23:032019MonJan1415:23:032019\0\\#,ProcedureUnspecified,BasisUnspecified,\\0,1\N\Gh,1,0.221008\H,2,1.8395,1,106.306\H,2,1.8395,1,106.306,3,-119.964,0\H,2,1.83978,1,106.228,3,120.018,0\\HF=-56.2143659\\@

 Total job time:  17.90s(wall), 89.82s(cpu) 
 Mon Jan 14 15:23:03 2019

        *************************************************************
        *                                                           *
        *  Thank you very much for using Q-Chem.  Have a nice day.  *
        *                                                           *
        *************************************************************


  5.230   5.231  37.069
 29 A"   58 A'   59 A'                                                         

 Beta MOs, Restricted
 -- Occupied --                  
-15.542  -1.145  -0.629  -0.629  -0.430
  1 A'    2 A'    3 A'    1 A"    4 A'                                         
 -- Virtual --                   
  0.001   0.004   0.004   0.004   0.005   0.008   0.008   0.008
  5 A'    2 A"    6 A'    7 A'    8 A'    3 A"    9 A'    4 A"                 
  0.008   0.008   0.011   0.011   0.011   0.013   0.021   0.021
 10 A'   11 A'   12 A'    5 A"   13 A'   14 A'    6 A"   15 A'                 
  0.021   0.021   0.021   0.025   0.026   0.026   0.029   0.044
  7 A"   16 A'   17 A'   18 A'   19 A'    8 A"   20 A'    9 A"                 
  0.044   0.045   0.045   0.045   0.051   0.051   0.053   0.059
 21 A'   22 A'   10 A"   23 A'   24 A'   11 A"   25 A'   26 A'                 
  0.086   0.086   0.088   0.088   0.088   0.100   0.100   0.114
 12 A"   27 A'   28 A'   13 A"   29 A'   30 A'   14 A"   31 A'                 
  0.131   0.165   0.165   0.174   0.174   0.176   0.196   0.196
 32 A'   15 A"   33 A'   34 A'   16 A"   35 A'   36 A'   17 A"                 
  0.291   0.333   0.333   0.351   0.394   0.415   0.416   0.748
 37 A'   18 A"   38 A'   39 A'   40 A'   41 A'   19 A"   20 A"                 
  0.748   0.883   1.065   1.132   1.132   1.339   1.366   1.367
 42 A'   43 A'   44 A'   45 A'   21 A"   46 A'   47 A'   22 A"                 
  1.798   1.824   1.967   1.968   2.253   2.254   2.664   2.873
 23 A"   48 A'   49 A'   24 A"   25 A"   50 A'   51 A'   52 A'                 
  2.874   3.005   3.005   3.011   3.216   3.545   3.545   4.600
 26 A"   27 A"   53 A'   54 A'   55 A'   56 A'   28 A"   57 A'                 
  5.230   5.231  37.069
 29 A"   58 A'   59 A'                                                         
 --------------------------------------------------------------

          Ground-State Mulliken Net Atomic Charges

     Atom                 Charge (a.u.)
  ----------------------------------------
      1 N                    -0.661636
      2 H                     0.210023
      3 H                     0.210158
      4 H                     0.210023
      5 GH                    0.031433
  ----------------------------------------
  Sum of atomic charges =     0.000000

 -----------------------------------------------------------------
                    Cartesian Multipole Moments
 -----------------------------------------------------------------
    Charge (ESU x 10^10)
                 0.0000
    Dipole Moment (Debye)
         X       0.0013      Y       1.7381      Z       0.0000
       Tot       1.7381
    Quadrupole Moments (Debye-Ang)
        XX      -6.3967     XY      -0.0006     YY      -9.6106
        XZ       0.0000     YZ       0.0000     ZZ      -6.4013
    Octopole Moments (Debye-Ang^2)
       XXX      -0.8466    XXY       0.9068    XYY       0.0004
       YYY       1.6400    XXZ      -0.0000    XYZ      -0.0000
       YYZ       0.0000    XZZ       0.8483    YZZ       0.9053
       ZZZ       0.0000
    Hexadecapole Moments (Debye-Ang^3)
      XXXX     -14.1353   XXXY      -0.4525   XXYY      -5.3380
      XYYY      -0.0017   YYYY     -17.9134   XXXZ      -0.0000
      XXYZ       0.0000   XYYZ      -0.0000   YYYZ      -0.0000
      XXZZ      -4.7121   XYZZ       0.4524   YYZZ      -5.3390
      XZZZ      -0.0000   YZZZ      -0.0000   ZZZZ     -14.1438
 -----------------------------------------------------------------
