[Molden Format]
[Atoms] (Angs)
  F      1    9      1.15290231      0.22477664     -0.00000000
  C      2    6     -1.17935012      0.19972949     -0.00000000
  C      3    6     -0.01631886     -0.43556811      0.00000000
  H      4    1      0.11895302     -1.50789969      0.00000000
  H      5    1     -1.23082549      1.27856114     -0.00000000
  H      6    1     -2.09023450     -0.37861944      0.00000000
[GTO]
1    0
S    6    1.000000
   1.14271000E+04    1.80093000E-03 
   1.72235000E+03    1.37419000E-02 
   3.95746000E+02    6.81334000E-02 
   1.15139000E+02    2.33325000E-01 
   3.36026000E+01    5.89086000E-01 
   4.91901000E+00    2.99505000E-01 
SP   3    1.000000
   5.54441000E+01    1.14536000E-01   3.54609000E-02 
   1.26323000E+01    9.20512000E-01   2.37451000E-01 
   3.71756000E+00   -3.37804000E-03   8.20458000E-01 
SP   1    1.000000
   1.16545000E+00    1.00000000E+00   1.00000000E+00 
SP   1    1.000000
   3.21892000E-01    1.00000000E+00   1.00000000E+00 
SP   1    1.000000
   1.07600000E-01    1.00000000E+00   1.00000000E+00 
D    1    1.000000
   1.75000000E+00    1.00000000E+00 

2    0
S    6    1.000000
   4.56324000E+03    1.96665000E-03 
   6.82024000E+02    1.52306000E-02 
   1.54973000E+02    7.61269000E-02 
   4.44553000E+01    2.60801000E-01 
   1.30290000E+01    6.16462000E-01 
   1.82773000E+00    2.21006000E-01 
SP   3    1.000000
   2.09642000E+01    1.14660000E-01   4.02487000E-02 
   4.80331000E+00    9.19999000E-01   2.37594000E-01 
   1.45933000E+00   -3.03068000E-03   8.15854000E-01 
SP   1    1.000000
   4.83456000E-01    1.00000000E+00   1.00000000E+00 
SP   1    1.000000
   1.45585000E-01    1.00000000E+00   1.00000000E+00 
SP   1    1.000000
   4.38000000E-02    1.00000000E+00   1.00000000E+00 
D    1    1.000000
   6.26000000E-01    1.00000000E+00 

3    0
S    6    1.000000
   4.56324000E+03    1.96665000E-03 
   6.82024000E+02    1.52306000E-02 
   1.54973000E+02    7.61269000E-02 
   4.44553000E+01    2.60801000E-01 
   1.30290000E+01    6.16462000E-01 
   1.82773000E+00    2.21006000E-01 
SP   3    1.000000
   2.09642000E+01    1.14660000E-01   4.02487000E-02 
   4.80331000E+00    9.19999000E-01   2.37594000E-01 
   1.45933000E+00   -3.03068000E-03   8.15854000E-01 
SP   1    1.000000
   4.83456000E-01    1.00000000E+00   1.00000000E+00 
SP   1    1.000000
   1.45585000E-01    1.00000000E+00   1.00000000E+00 
SP   1    1.000000
   4.38000000E-02    1.00000000E+00   1.00000000E+00 
D    1    1.000000
   6.26000000E-01    1.00000000E+00 

4    0
S    3    1.000000
   3.38650000E+01    2.54938000E-02 
   5.09479000E+00    1.90373000E-01 
   1.15879000E+00    8.52161000E-01 
S    1    1.000000
   3.25840000E-01    1.00000000E+00 
S    1    1.000000
   1.02741000E-01    1.00000000E+00 
S    1    1.000000
   3.60000000E-02    1.00000000E+00 
P    1    1.000000
   7.50000000E-01    1.00000000E+00 

5    0
S    3    1.000000
   3.38650000E+01    2.54938000E-02 
   5.09479000E+00    1.90373000E-01 
   1.15879000E+00    8.52161000E-01 
S    1    1.000000
   3.25840000E-01    1.00000000E+00 
S    1    1.000000
   1.02741000E-01    1.00000000E+00 
S    1    1.000000
   3.60000000E-02    1.00000000E+00 
P    1    1.000000
   7.50000000E-01    1.00000000E+00 

6    0
S    3    1.000000
   3.38650000E+01    2.54938000E-02 
   5.09479000E+00    1.90373000E-01 
   1.15879000E+00    8.52161000E-01 
S    1    1.000000
   3.25840000E-01    1.00000000E+00 
S    1    1.000000
   1.02741000E-01    1.00000000E+00 
S    1    1.000000
   3.60000000E-02    1.00000000E+00 
P    1    1.000000
   7.50000000E-01    1.00000000E+00 

[MO]
Sym=X
Ene= 2.003681
Spin=Alpha
Occup=1
     1    2.073289115184e-02
     2    3.017194466126e-02
     3    2.561029076978e-01
     4    1.980837367866e-01
     5   -3.297184508468e-12
     6   -1.000808697065e-01
     7    3.025809777704e-01
     8    2.331849301614e-01
     9   -3.852556932995e-12
    10    4.528595603715e-03
    11    1.510466911389e-01
    12    1.272363134931e-01
    13   -2.471699988354e-12
    14    2.454453047269e-02
    15   -3.157152848154e-03
    16   -1.632414747615e-04
    17   -1.562100500981e-13
    18    7.643174043423e-03
    19    7.003867914715e-14
    20    3.903920421991e-14
    21   -6.226685491428e-03
    22   -1.143222257818e-02
    23   -1.534112253302e-02
    24   -2.483993785386e-02
    25   -2.523390906065e-02
    26   -7.930305959104e-02
    27    1.266086204846e-13
    28    5.888532895066e-02
    29   -5.516540004519e-02
    30   -1.126755681763e-01
    31    1.896775427321e-13
    32    4.120547761058e-02
    33   -2.761263619489e-02
    34   -8.135871135631e-02
    35    3.241074403286e-13
    36   -5.464262308755e-02
    37   -3.568230774628e-02
    38   -4.354617490872e-02
    39    5.273788776628e-14
    40   -2.320851422173e-03
    41   -4.553477326251e-15
    42    5.414666479126e-15
    43   -3.131348423257e-03
    44    4.605054816175e-03
    45    2.491614352101e-02
    46    3.644679614863e-02
    47   -8.544351585454e-02
    48   -4.821548947857e-02
    49   -1.114332443538e-13
    50   -7.515161612482e-02
    51   -1.611818114888e-01
    52   -8.836997179539e-02
    53   -2.192400631168e-13
    54   -2.703499363403e-02
    55   -2.101229823383e-02
    56   -1.261041441452e-02
    57    5.865566985236e-14
    58    4.846699349229e-03
    59    5.022461301431e-03
    60    6.156134527119e-02
    61   -4.396175089276e-14
    62    1.438494629452e-02
    63   -1.886710513167e-13
    64   -7.950860550648e-14
    65   -1.619375908615e-02
    66   -3.626861599599e-02
    67    1.474461343599e-02
    68    1.676487567206e-02
    69    2.902563643228e-02
    70    4.928160080540e-02
    71   -3.789459870799e-03
    72   -3.600355285371e-03
    73   -2.704295209490e-15
    74   -4.961861779476e-02
    75   -8.402592005132e-02
    76   -3.015371983403e-03
    77    2.836699259123e-02
    78   -1.623926656813e-03
    79    9.584835991654e-03
    80    5.856785762284e-15
    81    6.486007630381e-02
    82    9.230283497898e-02
    83    9.848407145073e-03
    84   -2.846224130766e-02
    85    7.995425303001e-03
    86    3.361716918126e-03
    87    1.064536948449e-14
Sym=X
Ene= 2.003459
Spin=Alpha
Occup=1
     1   -1.122923300967e-13
     2   -1.596614707559e-13
     3   -2.074242537867e-12
     4   -1.572119411886e-12
     5   -4.118399667507e-01
     6    5.141311143319e-13
     7   -2.451267981129e-12
     8   -1.859123191035e-12
     9   -4.807430066002e-01
    10   -1.905380411147e-13
    11   -1.208660055419e-12
    12   -9.737367329736e-13
    13   -3.102882717234e-01
    14   -4.385362049022e-13
    15    1.674395080276e-13
    16    1.196939654027e-14
    17   -1.648089416627e-02
    18   -6.199732753928e-14
    19    8.680413411319e-03
    20    4.878382523581e-03
    21    5.180134137280e-14
    22    9.092209183478e-14
    23    1.165491679229e-13
    24    1.910989802815e-13
    25    2.208468239296e-13
    26    6.345557828145e-13
    27    1.489339437764e-02
    28   -4.606339448051e-13
    29    4.634954967980e-13
    30    9.007686510317e-13
    31    2.318774244870e-02
    32   -2.635689850362e-13
    33    1.964013378447e-13
    34    6.058183259565e-13
    35    3.185962494099e-02
    36   -1.846399247280e-12
    37    4.852505248140e-13
    38    1.572351430850e-12
    39    1.128941970730e-02
    40    3.482097896346e-15
    41   -9.589363218640e-04
    42    7.242267603712e-04
    43    2.754714644208e-14
    44   -2.198942300185e-14
    45   -2.778762134487e-13
    46   -3.670777504420e-13
    47    6.730286063339e-13
    48    3.829451839741e-13
    49   -1.541693232809e-02
    50    6.540481578742e-13
    51    1.277909238323e-12
    52    7.087667400899e-13
    53   -2.854658277613e-02
    54    4.046557236828e-13
    55    2.871157028724e-13
    56    1.658145177409e-13
    57    5.605600731067e-03
    58    2.252706478063e-12
    59   -6.747152918033e-13
    60   -6.852114550730e-13
    61   -9.118318749087e-03
    62   -1.300220108931e-13
    63   -2.327974987357e-02
    64   -9.728200678522e-03
    65    1.139112961160e-13
    66    2.925127069147e-13
    67   -1.024002684054e-13
    68   -1.260295805749e-13
    69   -2.812628222879e-13
    70   -7.010765799918e-13
    71    2.432098303417e-14
    72    3.576774403675e-14
    73   -6.345460036796e-04
    74    4.026687201367e-13
    75    6.833247631095e-13
    76   -6.878340277671e-14
    77   -1.062581518246e-12
    78    2.681973426348e-14
    79   -7.356377988030e-14
    80    8.730156334721e-04
    81   -5.268346871362e-13
    82   -8.559866092246e-13
    83    2.016560857943e-13
    84    1.352655528712e-12
    85   -6.334438067934e-14
    86   -2.760573222300e-14
    87    1.751927235678e-03
Sym=X
Ene= 2.002166
Spin=Alpha
Occup=1
     1   -6.512165758520e-03
     2   -9.560709022684e-03
     3   -2.159348825992e-01
     4    3.463049282170e-01
     5    2.196440229282e-14
     6    3.175290085233e-02
     7   -2.518550557034e-01
     8    4.030228560737e-01
     9    2.111276093676e-14
    10    1.300596654342e-02
    11   -1.629526635244e-01
    12    2.655486187819e-01
    13    3.455233380257e-14
    14    7.774087084556e-03
    15   -3.589807151445e-03
    16    3.758626161331e-03
    17   -1.419915084387e-14
    18   -8.955821258717e-04
    19   -9.044590955577e-16
    20    3.851419229278e-16
    21    7.562818310725e-03
    22   -3.430492742867e-03
    23    1.933434897407e-02
    24    3.147075287588e-02
    25    1.048311328227e-03
    26    1.584136916271e-02
    27   -5.438349081354e-15
    28   -7.763977420921e-02
    29    9.260890311070e-03
    30    1.487762232158e-02
    31   -2.235708178202e-15
    32   -7.888209728938e-02
    33    5.563074401071e-03
    34    3.138374986717e-02
    35   -2.451559749399e-14
    36   -1.951087664255e-01
    37   -3.171772829573e-02
    38    2.940142371585e-02
    39    2.101356347464e-14
    40    1.100888376617e-03
    41    1.054292967991e-15
    42   -1.968761634078e-15
    43   -2.434849835177e-03
    44   -7.364009578475e-03
    45   -5.004669937936e-03
    46   -7.485443792126e-03
    47    1.523821561231e-02
    48   -1.109256000859e-02
    49    5.082609551537e-16
    50    1.671670311454e-02
    51    3.392537537768e-02
    52   -1.812677512051e-02
    53    3.183367141548e-15
    54    1.276307896396e-02
    55   -7.311491962896e-03
    56   -2.364527034889e-02
    57   -3.116623617085e-15
    58    1.419230884009e-01
    59   -6.936033503338e-02
    60    6.087153647695e-02
    61   -8.432172030161e-15
    62   -2.511413464298e-04
    63   -2.413108836926e-15
    64   -3.306488284115e-15
    65   -2.836073903046e-02
    66    1.773437064359e-02
    67    2.642580811042e-02
    68    4.650276696134e-02
    69    3.699795749686e-02
    70    5.093344270730e-02
    71    3.256907324907e-03
    72    1.505105122130e-03
    73    2.447828629354e-15
    74   -4.238615117993e-03
    75   -2.006354676947e-03
    76    3.247138047805e-04
    77   -1.289643600323e-02
    78    2.503649574381e-03
    79    9.446790452537e-04
    80   -1.319071802902e-15
    81   -2.320820094075e-02
    82   -2.589987136591e-02
    83    1.360850895602e-02
    84    8.400124376241e-04
    85   -2.513037216307e-03
    86   -1.230225867546e-04
    87    5.147006466592e-16
Sym=X
Ene= 1.999999
Spin=Alpha
Occup=1
     1    3.226168534795e-04
     2    4.761303978649e-04
     3    6.026206979092e-04
     4   -4.262698146953e-04
     5    4.688700307389e-15
     6   -1.635947825247e-03
     7    7.436314393962e-04
     8   -4.581490794091e-04
     9    4.030783730689e-15
    10   -6.792589789117e-04
    11    4.136647641160e-04
    12   -4.197597383645e-04
    13    1.822857756884e-15
    14   -6.640486283031e-05
    15    1.148910927360e-04
    16   -6.517302663745e-05
    17    3.617092085958e-15
    18    2.548057760568e-05
    19    5.882141120086e-16
    20    6.507340472312e-16
    21   -1.096027216431e-05
    22   -1.703772774490e-05
    23   -5.613254278938e-01
    24   -4.634347951440e-01
    25    1.622544131534e-03
    26   -1.343435206395e-03
    27   -7.542414467108e-15
    28   -1.207863251421e-02
    29    1.941748469107e-03
    30   -1.426042010448e-03
    31   -1.082067591353e-14
    32   -5.254179549319e-03
    33    1.221988605084e-03
    34   -1.178513955821e-03
    35   -1.450465964430e-14
    36    2.034705734639e-04
    37   -3.350152892621e-05
    38   -1.240101386279e-04
    39    3.262275631292e-15
    40    7.495885920981e-04
    41   -1.923739678160e-15
    42    2.213211837403e-15
    43    2.203372164948e-05
    44    7.655365317562e-05
    45   -1.357837990867e-03
    46   -8.417093456248e-04
    47    6.256469080193e-05
    48    1.657851177250e-04
    49   -7.813669112632e-15
    50   -1.348686209491e-03
    51   -4.793469709024e-04
    52    4.818840923533e-04
    53   -1.217700458193e-14
    54    4.531426879970e-04
    55   -3.967675597675e-04
    56    7.339338260949e-04
    57   -7.320402748145e-15
    58   -4.515281313788e-04
    59    1.293036142370e-04
    60    1.106814752631e-04
    61   -5.058871103505e-15
    62   -4.200937817824e-05
    63    1.892247109564e-16
    64   -1.009648721865e-15
    65    3.285687852114e-05
    66    6.525725361927e-05
    67   -5.401813127112e-04
    68   -8.392891972896e-04
    69   -1.552887846071e-04
    70    1.421226923340e-04
    71    2.923871337519e-05
    72   -7.901597132199e-05
    73   -4.512876141652e-16
    74   -3.119710516383e-03
    75   -3.875233901551e-03
    76   -6.417281406960e-04
    77   -3.474752508940e-05
    78    3.496642349998e-05
    79    5.191379344581e-04
    80   -4.329617680725e-16
    81   -2.614140071335e-03
    82   -3.034720513357e-03
    83   -6.218004344903e-04
    84   -7.069587133799e-05
    85   -2.970582637176e-04
    86   -3.104843755180e-04
    87    9.156455560303e-16
Sym=X
Ene= 1.999983
Spin=Alpha
Occup=1
     1   -1.809766533935e-03
     2   -2.687682900137e-03
     3   -6.594441008129e-05
     4   -5.251722921229e-04
     5   -4.688003058252e-14
     6    9.233209315494e-03
     7   -6.029227374386e-04
     8   -9.058765904303e-04
     9   -5.575136453985e-14
    10    4.022643153664e-03
    11    1.805433856868e-04
    12   -2.120807116826e-04
    13   -3.243190045808e-14
    14   -1.135462742153e-03
    15    3.202364892441e-04
    16    2.597380286470e-04
    17   -1.143980676209e-15
    18   -1.621568640879e-04
    19    1.081950427844e-15
    20    3.384061983994e-16
    21    1.414268903119e-04
    22    2.620067298750e-04
    23   -1.576558261780e-03
    24   -9.904839292250e-04
    25    1.140254557036e-03
    26    3.005795855123e-03
    27   -1.437846206130e-14
    28   -1.661443427559e-03
    29    8.037304616800e-04
    30    5.289991853466e-03
    31   -2.128271878587e-14
    32   -9.721910883031e-04
    33    1.234716153961e-03
    34    2.948821739692e-03
    35   -2.267360196381e-14
    36   -3.892339648113e-05
    37   -2.032212653029e-04
    38   -1.019052916941e-04
    39    2.227661308420e-15
    40    2.696775588299e-04
    41   -3.418431776614e-15
    42    2.694487700079e-15
    43   -4.539144273228e-04
    44    5.512095268158e-05
    45    5.631339203708e-01
    46    4.664204639343e-01
    47    3.872855118509e-03
    48    7.913965249162e-04
    49   -1.584697168377e-14
    50    4.588225449805e-03
    51   -1.995032018924e-04
    52   -5.748794730734e-04
    53   -3.271033458869e-14
    54    9.620260412092e-05
    55    1.360270499280e-03
    56   -2.432130804521e-04
    57   -1.897710426019e-14
    58    1.266354945858e-03
    59   -2.973701864241e-04
    60   -3.450906342914e-05
    61   -4.198678855156e-15
    62   -6.510328575651e-04
    63   -2.687649429175e-15
    64   -2.219044245986e-15
    65   -6.982060191908e-05
    66   -5.466857478348e-04
    67    8.758427548842e-04
    68    6.570588152005e-04
    69    9.600814954248e-04
    70   -5.238942566885e-04
    71    2.588814568380e-05
    72   -4.843308450914e-05
    73   -7.682148423974e-16
    74    2.351588795002e-03
    75    3.688919747574e-03
    76    1.373200322471e-03
    77    1.111931308215e-04
    78    9.847522294158e-05
    79   -2.281737192153e-04
    80   -1.436839068320e-15
    81   -2.451865637430e-03
    82   -3.673540424493e-03
    83   -9.571537039914e-04
    84   -6.652743578255e-04
    85   -3.089014059062e-04
    86   -1.614060692411e-04
    87   -9.807654652429e-17
Sym=X
Ene= 1.999949
Spin=Alpha
Occup=1
     1    1.871942961202e-02
     2    2.764282568917e-02
     3    2.344692188376e-02
     4   -3.515265706369e-02
     5    2.137849460154e-14
     6   -9.540158775903e-02
     7    2.873260998636e-02
     8   -4.008765251633e-02
     9    2.407282480006e-14
    10   -4.188015546392e-02
    11    1.726886527162e-02
    12   -2.700430543769e-02
    13    1.102990899810e-14
    14   -1.641606014930e-03
    15    2.075738259331e-03
    16   -5.200164399387e-03
    17    6.441172672178e-15
    18    8.833380140168e-04
    19   -2.491401781215e-16
    20    3.863491185992e-16
    21   -9.261285052065e-04
    22   -2.141100319188e-04
    23    1.003129233910e-01
    24    1.563121198142e-01
    25    6.769827380822e-02
    26   -6.807699904028e-02
    27   -1.035074070772e-14
    28   -3.663108600360e-01
    29    1.032894848841e-01
    30   -1.044884177685e-01
    31   -2.090785427217e-14
    32   -2.751363858945e-01
    33    5.243514198487e-02
    34   -6.563472717206e-02
    35   -1.081879321788e-14
    36    2.865325494108e-02
    37   -9.527100994369e-04
    38   -3.699166654097e-03
    39   -8.609787750758e-15
    40    1.407420694299e-02
    41   -2.878380412199e-15
    42    1.421239681485e-15
    43    1.051837548661e-02
    44   -7.598323912919e-03
    45    1.032813255023e-02
    46    1.475047690436e-02
    47   -3.511852045864e-03
    48    5.403274332961e-04
    49   -1.192919129474e-14
    50   -2.643889258061e-02
    51   -2.096422137052e-03
    52   -3.912483238838e-03
    53   -2.114205100175e-14
    54    1.888543765318e-02
    55   -1.613571566449e-02
    56    2.040017533558e-02
    57   -2.211504464322e-14
    58   -7.361319128175e-03
    59    3.498447897500e-03
    60    5.012732538270e-03
    61    2.386385293705e-15
    62    4.014029109006e-03
    63    2.058006133628e-15
    64   -1.278278714768e-15
    65    8.196249940062e-04
    66    4.330050628427e-03
    67   -1.037736350431e-02
    68   -1.893275766120e-02
    69   -7.769909651284e-03
    70    2.744380983505e-03
    71   -1.883727502470e-04
    72   -2.038801539075e-03
    73   -4.683449833388e-16
    74   -1.400058649465e-01
    75   -2.043883121140e-01
    76   -2.582592598132e-02
    77   -1.475828118873e-02
    78    2.060223004582e-03
    79    2.544911380328e-02
    80   -3.743607786970e-16
    81   -9.611231472727e-02
    82   -1.363856023269e-01
    83   -1.306107982649e-02
    84   -1.177124199284e-02
    85   -1.341398486331e-02
    86   -1.516318860330e-02
    87   -1.747624221081e-15
Sym=X
Ene= 1.999372
Spin=Alpha
Occup=1
     1   -9.978576479675e-02
     2   -1.477091765945e-01
     3    1.635782178500e-01
     4    5.504681533291e-02
     5   -7.315069705184e-14
     6    5.149226991934e-01
     7    1.848427556503e-01
     8    6.166642956516e-02
     9   -8.469362882542e-14
    10    2.374765389295e-01
    11    1.190757156510e-01
    12    3.499201921143e-02
    13   -5.061527198025e-14
    14   -1.619013360763e-02
    15    1.674008981821e-02
    16   -1.111711039918e-03
    17   -1.196829077993e-15
    18    8.672273439039e-04
    19    2.547885461031e-15
    20    1.273822213586e-15
    21   -1.224906931294e-04
    22   -2.818843489672e-03
    23   -4.755491441178e-04
    24   -1.143926969884e-03
    25    1.089514019909e-01
    26    5.330845079725e-02
    27   -1.153675569239e-14
    28    4.046808350762e-03
    29    1.622076965666e-01
    30    8.297444196335e-02
    31   -3.230101833934e-14
    32   -2.512399417375e-02
    33    8.981623836462e-02
    34    5.775499617575e-02
    35    7.349707497924e-15
    36   -1.650763648582e-02
    37   -1.006730150566e-02
    38   -6.638113550560e-03
    39   -2.911259755041e-15
    40    1.787605304539e-04
    41   -1.300557626769e-15
    42    2.131412842965e-15
    43   -6.037509682389e-03
    44   -1.667216047902e-02
    45   -2.759210334979e-02
    46   -3.867185909530e-02
    47   -4.855038495946e-02
    48    2.753272259834e-02
    49   -1.560916060382e-14
    50    7.983208746464e-02
    51   -7.522272646126e-02
    52    3.823863521934e-02
    53   -2.767534603959e-14
    54    6.363728683547e-02
    55   -2.688015639641e-02
    56    2.288635974454e-02
    57   -1.254125413280e-14
    58    1.234983392817e-02
    59    2.229295950745e-03
    60    1.287003204540e-02
    61   -6.634729630958e-15
    62   -2.099538166829e-03
    63   -3.065631960863e-15
    64   -5.299551823097e-15
    65   -1.108001289249e-02
    66   -1.721639119541e-02
    67   -1.378066867397e-03
    68   -4.168041328557e-03
    69    1.441181054802e-02
    70    6.511866481235e-03
    71   -2.975022493782e-03
    72   -3.537344147674e-03
    73    6.433967149840e-17
    74    4.271751882304e-02
    75    6.746431797553e-02
    76    2.613251664679e-02
    77    9.298586906969e-03
    78    6.583530489625e-03
    79   -5.080440004056e-03
    80   -2.291295315242e-15
    81   -1.030039953433e-01
    82   -1.638942573224e-01
    83   -4.892441206510e-02
    84   -1.425143595104e-02
    85   -1.109667517445e-02
    86   -7.597347002953e-03
    87   -3.115130041410e-15
Sym=X
Ene= 1.999284
Spin=Alpha
Occup=1
     1    2.672234063620e-02
     2    3.921803924595e-02
     3    8.078959693704e-02
     4    4.044899949990e-02
     5   -2.340563044031e-16
     6   -1.321480127624e-01
     7    9.801300280839e-02
     8    4.879308942725e-02
     9    8.437326036199e-16
    10   -3.079129896908e-02
    11    3.900716527031e-02
    12    1.867688027727e-02
    13    8.147276097730e-15
    14    3.399905176022e-02
    15   -1.486653970391e-02
    16   -2.940229184420e-03
    17   -3.425527019244e-15
    18    3.278190393089e-03
    19    3.727273962860e-16
    20   -2.381556051490e-16
    21   -3.957601119500e-03
    22   -4.776205308614e-03
    23    3.097855388042e-02
    24    4.981666588046e-02
    25   -4.783350193755e-02
    26    1.338136211268e-01
    27   -1.984761270945e-15
    28   -1.230286641912e-01
    29   -7.929015580071e-02
    30    2.076105562124e-01
    31   -7.588441379760e-15
    32   -1.090874306813e-02
    33   -5.135242967312e-03
    34    1.103057335037e-01
    35    1.061520691767e-14
    36   -9.310591161951e-03
    37   -1.314898276146e-02
    38   -2.769016499819e-02
    39   -1.909622124328e-14
    40    3.252402984720e-03
    41   -1.008488987103e-15
    42   -1.522460200667e-16
    43   -2.252107208863e-02
    44    1.411210172508e-02
    45    8.241686960710e-02
    46    1.402340917915e-01
    47    5.771199042940e-02
    48   -3.268821856847e-03
    49   -2.431303319121e-15
    50   -3.722718390610e-01
    51    6.379199688244e-02
    52   -1.395184599288e-02
    53   -6.875849097028e-15
    54   -2.273242225866e-01
    55    3.383370959044e-02
    56   -1.082308345641e-02
    57   -1.156560695376e-14
    58    1.163913330634e-04
    59    1.378284582513e-03
    60    1.573427444263e-02
    61    1.543119357445e-14
    62    1.442982473106e-02
    63    1.252145933996e-16
    64   -6.081337553004e-16
    65   -1.624621033101e-02
    66   -5.295769368401e-03
    67   -6.038021046640e-02
    68   -8.229858540997e-02
    69    1.907031319613e-02
    70    4.083067240253e-03
    71    4.410076967556e-03
    72   -1.790897877662e-02
    73    6.222923812992e-16
    74    8.902981283593e-02
    75    1.380257899480e-01
    76    5.189235669859e-02
    77    3.039014501591e-02
    78   -1.631257943218e-03
    79   -7.919980799717e-03
    80   -4.565272510056e-17
    81   -5.058725800253e-02
    82   -7.421072686560e-02
    83   -1.253981175117e-02
    84   -3.041343177716e-02
    85   -1.337437131292e-02
    86    3.990378449621e-04
    87   -2.638313723890e-15
Sym=X
Ene= 1.998691
Spin=Alpha
Occup=1
     1   -8.767004384836e-02
     2   -1.297730365121e-01
     3   -2.865768252456e-03
     4   -1.368667282990e-02
     5   -5.659558362567e-14
     6    4.565113709944e-01
     7   -5.728512496496e-03
     8   -1.909729131570e-02
     9   -7.646798877678e-14
    10    2.077686979551e-01
    11   -4.382052343996e-03
    12   -1.906745883578e-03
    13   -9.307874590147e-15
    14    3.903883130490e-02
    15   -2.915285823847e-02
    16    1.078794158439e-02
    17    9.880373214399e-14
    18   -5.454545239960e-04
    19    1.830662777323e-14
    20    9.137943314919e-15
    21   -4.873875577119e-03
    22    4.296360577995e-03
    23    3.614082610957e-02
    24    5.995232261965e-02
    25   -1.370645579826e-01
    26   -1.026662155836e-02
    27   -3.154595986513e-13
    28   -1.519310979286e-01
    29   -2.030308280486e-01
    30   -1.675617543960e-02
    31   -5.331594937355e-13
    32   -4.424003669490e-02
    33   -9.644850847735e-02
    34   -2.030057946003e-02
    35   -5.072047520772e-13
    36    5.719813081013e-02
    37    8.997312253638e-03
    38   -1.952207215330e-02
    39   -1.752777737643e-14
    40    5.170385852050e-03
    41   -5.527752639744e-14
    42    3.038223881718e-14
    43   -6.086286191696e-03
    44    1.886115535059e-02
    45    2.093602394509e-02
    46    3.703400351633e-02
    47    1.045657678801e-01
    48   -1.082347718649e-01
    49   -3.368658424694e-13
    50   -1.081916975936e-01
    51    1.574164974261e-01
    52   -1.653908599888e-01
    53   -5.797702219512e-13
    54   -8.784438649589e-02
    55    4.640033104625e-02
    56   -1.035086772650e-01
    57   -4.905556923364e-13
    58   -5.838025215496e-02
    59    1.416389406382e-02
    60   -1.301440609062e-02
    61   -8.061388758619e-14
    62   -2.468859360336e-03
    63    3.228854515082e-14
    64   -4.627017475564e-14
    65    6.730210204560e-03
    66    2.305555710382e-02
    67    6.670548481775e-02
    68    1.039771316823e-01
    69    1.756025801754e-02
    70   -4.959625658121e-03
    71    2.432657074447e-03
    72    1.116927356451e-02
    73   -2.457752463177e-14
    74   -3.131812844471e-02
    75   -4.286853630174e-02
    76    9.129964968174e-03
    77    7.726597999994e-03
    78   -7.849337172101e-03
    79    7.294954785558e-03
    80   -2.590241104303e-14
    81    6.802829504586e-02
    82    1.121816141117e-01
    83    3.412886276210e-02
    84   -5.509059361388e-03
    85    3.943214319323e-03
    86    6.280581430842e-03
    87   -2.603044492183e-14
Sym=X
Ene= 1.998336
Spin=Alpha
Occup=1
     1    5.366361247297e-02
     2    7.958191176314e-02
     3    6.261677610728e-02
     4    4.002089731039e-03
     5    9.247616513914e-14
     6   -2.852814800213e-01
     7    7.482646921396e-02
     8    3.578150709690e-03
     9    1.051095829487e-13
    10   -1.387166634475e-01
    11    4.125474415909e-02
    12    8.186539774872e-03
    13    8.174514828422e-14
    14   -2.824727918088e-02
    15    9.440529972070e-03
    16    3.025968242439e-02
    17    3.953399726906e-15
    18   -2.447829006514e-04
    19    1.385814336127e-15
    20    7.403166418208e-16
    21   -5.788387976658e-03
    22    2.925030388499e-03
    23    1.333590250752e-02
    24    2.344946293580e-02
    25    1.492686224583e-02
    26    7.876608310812e-02
    27   -5.472623767101e-14
    28   -6.734816501677e-02
    29    2.168316492862e-02
    30    1.214569938744e-01
    31   -9.963864976807e-14
    32   -2.333308980312e-02
    33    3.202554361535e-02
    34    9.602822646049e-02
    35   -6.372082293169e-14
    36    8.086783299479e-02
    37    2.462970272195e-02
    38    2.534820479778e-04
    39   -5.332214891060e-14
    40    8.951877569489e-04
    41   -1.012419262298e-14
    42    5.847264670763e-15
    43   -2.099374149237e-02
    44   -9.161248538349e-03
    45   -4.689690424261e-02
    46   -7.653453660978e-02
    47    3.531809791223e-02
    48   -1.438494389602e-01
    49   -5.885412785162e-14
    50    1.968753661033e-01
    51    5.549223358926e-02
    52   -2.209099845745e-01
    53   -9.950411700807e-14
    54    1.978381090202e-01
    55    5.334560365924e-02
    56   -1.308827809418e-01
    57   -1.033555204343e-13
    58   -6.121261734234e-02
    59    2.802948042391e-02
    60   -3.455639943882e-02
    61    3.550676250947e-14
    62   -4.185398688010e-03
    63    9.533598038927e-15
    64   -5.091519577305e-15
    65   -2.756179911484e-02
    66   -2.555082317419e-02
    67    1.636337679959e-01
    68    2.445470338609e-01
    69    3.945691128411e-02
    70   -1.196408703134e-02
    71   -2.260885422944e-03
    72    2.244390618711e-02
    73   -3.708764900678e-15
    74    6.058821824321e-02
    75    9.614866763064e-02
    76    3.886885894265e-02
    77    5.451437722388e-03
    78    1.467659265640e-03
    79   -3.698924012449e-03
    80   -3.839989820605e-15
    81   -6.652303838818e-02
    82   -1.049057921428e-01
    83   -2.334112767362e-02
    84    3.714918594427e-03
    85   -9.882067381196e-03
    86   -1.074350625188e-03
    87   -5.060981379407e-15
Sym=X
Ene= 1.997701
Spin=Alpha
Occup=1
     1    1.568390511189e-13
     2    2.343579296160e-13
     3   -6.960019097688e-15
     4    3.240389510495e-14
     5    3.045311414175e-02
     6   -8.202193068477e-13
     7   -2.823440066600e-15
     8    4.518773081296e-14
     9    3.226023912998e-02
    10   -3.582074698514e-13
    11   -5.141579976587e-15
    12    3.449200886476e-15
    13    3.877003464951e-02
    14   -6.375333506076e-14
    15    3.721768785955e-14
    16   -2.386442290343e-14
    17    4.882653079683e-02
    18    1.666662693000e-15
    19    8.327889945414e-03
    20    3.977438439674e-03
    21    1.073977878331e-14
    22   -9.982667801365e-15
    23   -5.945821485040e-14
    24   -1.166798859224e-13