[Molden Format]
[Atoms] (Angs)
  F      1    9      1.15290231      0.22477664     -0.00000000
  C      2    6     -1.17935012      0.19972949     -0.00000000
  C      3    6     -0.01631886     -0.43556811      0.00000000
  H      4    1      0.11895302     -1.50789969      0.00000000
  H      5    1     -1.23082549      1.27856114     -0.00000000
  H      6    1     -2.09023450     -0.37861944      0.00000000
[GTO]
1    0
S    6    1.000000
   1.14271000E+04    1.80093000E-03 
   1.72235000E+03    1.37419000E-02 
   3.95746000E+02    6.81334000E-02 
   1.15139000E+02    2.33325000E-01 
   3.36026000E+01    5.89086000E-01 
   4.91901000E+00    2.99505000E-01 
SP   3    1.000000
   5.54441000E+01    1.14536000E-01   3.54609000E-02 
   1.26323000E+01    9.20512000E-01   2.37451000E-01 
   3.71756000E+00   -3.37804000E-03   8.20458000E-01 
SP   1    1.000000
   1.16545000E+00    1.00000000E+00   1.00000000E+00 
SP   1    1.000000
   3.21892000E-01    1.00000000E+00   1.00000000E+00 
SP   1    1.000000
   1.07600000E-01    1.00000000E+00   1.00000000E+00 
D    1    1.000000
   1.75000000E+00    1.00000000E+00 

2    0
S    6    1.000000
   4.56324000E+03    1.96665000E-03 
   6.82024000E+02    1.52306000E-02 
   1.54973000E+02    7.61269000E-02 
   4.44553000E+01    2.60801000E-01 
   1.30290000E+01    6.16462000E-01 
   1.82773000E+00    2.21006000E-01 
SP   3    1.000000
   2.09642000E+01    1.14660000E-01   4.02487000E-02 
   4.80331000E+00    9.19999000E-01   2.37594000E-01 
   1.45933000E+00   -3.03068000E-03   8.15854000E-01 
SP   1    1.000000
   4.83456000E-01    1.00000000E+00   1.00000000E+00 
SP   1    1.000000
   1.45585000E-01    1.00000000E+00   1.00000000E+00 
SP   1    1.000000
   4.38000000E-02    1.00000000E+00   1.00000000E+00 
D    1    1.000000
   6.26000000E-01    1.00000000E+00 

3    0
S    6    1.000000
   4.56324000E+03    1.96665000E-03 
   6.82024000E+02    1.52306000E-02 
   1.54973000E+02    7.61269000E-02 
   4.44553000E+01    2.60801000E-01 
   1.30290000E+01    6.16462000E-01 
   1.82773000E+00    2.21006000E-01 
SP   3    1.000000
   2.09642000E+01    1.14660000E-01   4.02487000E-02 
   4.80331000E+00    9.19999000E-01   2.37594000E-01 
   1.45933000E+00   -3.03068000E-03   8.15854000E-01 
SP   1    1.000000
   4.83456000E-01    1.00000000E+00   1.00000000E+00 
SP   1    1.000000
   1.45585000E-01    1.00000000E+00   1.00000000E+00 
SP   1    1.000000
   4.38000000E-02    1.00000000E+00   1.00000000E+00 
D    1    1.000000
   6.26000000E-01    1.00000000E+00 

4    0
S    3    1.000000
   3.38650000E+01    2.54938000E-02 
   5.09479000E+00    1.90373000E-01 
   1.15879000E+00    8.52161000E-01 
S    1    1.000000
   3.25840000E-01    1.00000000E+00 
S    1    1.000000
   1.02741000E-01    1.00000000E+00 
S    1    1.000000
   3.60000000E-02    1.00000000E+00 
P    1    1.000000
   7.50000000E-01    1.00000000E+00 

5    0
S    3    1.000000
   3.38650000E+01    2.54938000E-02 
   5.09479000E+00    1.90373000E-01 
   1.15879000E+00    8.52161000E-01 
S    1    1.000000
   3.25840000E-01    1.00000000E+00 
S    1    1.000000
   1.02741000E-01    1.00000000E+00 
S    1    1.000000
   3.60000000E-02    1.00000000E+00 
P    1    1.000000
   7.50000000E-01    1.00000000E+00 

6    0
S    3    1.000000
   3.38650000E+01    2.54938000E-02 
   5.09479000E+00    1.90373000E-01 
   1.15879000E+00    8.52161000E-01 
S    1    1.000000
   3.25840000E-01    1.00000000E+00 
S    1    1.000000
   1.02741000E-01    1.00000000E+00 
S    1    1.000000
   3.60000000E-02    1.00000000E+00 
P    1    1.000000
   7.50000000E-01    1.00000000E+00 

[MO]
Sym=X
Ene= 2.004770
Spin=Alpha
Occup=1
     1    2.778674662284e-02
     2    4.074268932244e-02
     3    2.383909805248e-01
     4    2.050311014408e-01
     5   -5.797129305896e-13
     6   -1.364593247385e-01
     7    2.830100455871e-01
     8    2.419048255522e-01
     9   -6.814766225266e-13
    10   -1.148613882719e-02
    11    1.355456371911e-01
    12    1.312920428860e-01
    13   -4.199490838879e-13
    14    3.463689933925e-02
    15   -8.744157923694e-03
    16   -2.826574085045e-03
    17   -4.262524741504e-14
    18    8.580985172726e-03
    19    1.547073508871e-14
    20    8.739061067647e-15
    21   -6.364932554860e-03
    22   -1.322962103153e-02
    23   -1.557587634854e-02
    24   -2.528911042060e-02
    25   -2.207787530176e-02
    26   -8.594946407433e-02
    27    2.547780076133e-14
    28    6.061662650293e-02
    29   -5.094471650480e-02
    30   -1.237048306865e-01
    31    3.266668429287e-14
    32    4.000517458181e-02
    33   -2.733233739726e-02
    34   -8.608765479222e-02
    35    1.089581112708e-13
    36   -8.514355893350e-02
    37   -3.987708825236e-02
    38   -2.780465820569e-02
    39   -3.087728505505e-14
    40   -2.362206182750e-03
    41    1.644412347974e-15
    42    9.303229282183e-16
    43   -3.110094100718e-03
    44    2.895797955737e-03
    45    1.924232130293e-02
    46    2.798789898896e-02
    47   -8.934660547686e-02
    48   -4.975200393449e-02
    49   -1.332477330523e-14
    50   -5.432525627974e-02
    51   -1.689917210569e-01
    52   -9.170783842860e-02
    53   -3.648984965399e-14
    54   -1.919333959318e-02
    55   -2.436783503364e-02
    56   -1.735492379942e-02
    57    1.058913211211e-14
    58    1.479214270661e-02
    59   -2.443535987694e-02
    60    5.470250180286e-02
    61    2.476891348793e-14
    62    1.460381418060e-02
    63   -3.592083405064e-14
    64   -1.589929588423e-14
    65   -1.779723850474e-02
    66   -3.777049114644e-02
    67    1.937541647927e-02
    68    2.216195334533e-02
    69    2.783917333184e-02
    70    6.516085348333e-02
    71   -3.655179366202e-03
    72   -2.844449790760e-03
    73    1.354790885975e-15
    74   -5.416488899198e-02
    75   -8.964191865280e-02
    76   -5.395859280050e-03
    77    3.542042525209e-02
    78   -1.912225185048e-03
    79    1.051129936461e-02
    80   -1.313061367564e-16
    81    6.435379058938e-02
    82    8.906255944914e-02
    83    8.838480527771e-03
    84   -4.889680543372e-02
    85    8.679710065079e-03
    86    3.112673862626e-03
    87   -1.136054712385e-15
Sym=X
Ene= 2.003433
Spin=Alpha
Occup=1
     1   -1.122214593629e-14
     2   -1.970866539087e-14
     3    3.560407956462e-13
     4    2.915934456124e-13
     5    4.117770046342e-01
     6    7.779258375235e-14
     7    4.230276699300e-13
     8    3.523900785184e-13
     9    4.805436137147e-01
    10    1.306805414312e-13
    11    1.863931150968e-13
    12    1.514177508731e-13
    13    3.074783611765e-01
    14    2.918249732151e-13
    15   -1.546106179231e-13
    16   -1.510446542827e-14
    17    1.349349023106e-02
    18    1.295497388279e-14
    19   -1.082718375972e-02
    20   -6.305434783813e-03
    21   -1.068583318166e-14
    22   -1.831654960489e-14
    23   -1.408565365545e-14
    24   -2.668192938910e-14
    25   -4.817894267097e-14
    26   -1.220583576695e-13
    27   -1.040351931178e-02
    28    7.562038051688e-14
    29   -8.915269738123e-14
    30   -1.762251233948e-13
    31   -1.562384933560e-02
    32   -1.510003091621e-14
    33   -1.416231955575e-14
    34   -7.536319707781e-14
    35   -2.470866871870e-02
    36    2.151379993850e-12
    37   -2.471715672388e-13
    38   -1.245999210551e-12
    39   -1.010126768736e-02
    40    1.215556284953e-14
    41    1.611353254429e-03
    42   -1.203488499093e-03
    43   -6.583769096907e-15
    44   -1.211609819008e-14
    45    1.057117320552e-13
    46    1.144033818996e-13
    47   -1.175124344495e-13
    48   -6.660778710926e-14
    49    2.007042774293e-02
    50   -1.278007215942e-13
    51   -2.283287327471e-13
    52   -1.322042992740e-13
    53    3.703387918531e-02
    54   -2.099569637925e-13
    55   -1.582730577601e-13
    56   -8.819415341212e-14
    57    1.578939159828e-03
    58   -2.256725321752e-12
    59    5.984274663614e-13
    60    2.659185579074e-13
    61    9.421500661301e-03
    62    3.583817943327e-14
    63    2.345811816720e-02
    64    1.056432323081e-02
    65   -1.069947379458e-14
    66   -5.558383990200e-14
    67    1.229234025319e-14
    68    2.522367094627e-14
    69    8.860213725564e-14
    70    3.953466951039e-13
    71    1.118644101077e-15
    72   -1.169866823944e-14
    73    9.480218817941e-04
    74   -8.328557006229e-14
    75   -1.377536233764e-13
    76    8.041261888299e-14
    77    8.714480766022e-13
    78   -1.644460460173e-14
    79    1.168987045057e-14
    80   -4.511359385795e-04
    81    9.738525410067e-14
    82    2.415017312188e-13
    83   -2.664362247979e-13
    84   -1.173325433323e-12
    85    1.190045542820e-14
    86    4.821600554720e-15
    87   -1.374506430345e-03
Sym=X
Ene= 2.002063
Spin=Alpha
Occup=1
     1   -1.189400487939e-02
     2   -1.753490061365e-02
     3   -2.204035198138e-01
     4    3.405370167168e-01
     5    5.050833583183e-15
     6    5.911757852232e-02
     7   -2.575987805000e-01
     8    3.956305088553e-01
     9    1.545196801290e-15
    10    2.239982386936e-02
    11   -1.624149801460e-01
    12    2.600811713343e-01
    13    2.132881975225e-14
    14    1.608320485514e-03
    15   -6.789145540943e-04
    16    3.480615053802e-03
    17   -1.332423138252e-14
    18   -1.196143972941e-03
    19   -1.531784753747e-16
    20    4.961941545250e-16
    21    9.735583402961e-03
    22   -3.682936338724e-03
    23    2.026742483885e-02
    24    3.288990551079e-02
    25    5.595778565755e-03
    26    1.755832887237e-02
    27   -1.006273192375e-14
    28   -8.091618407108e-02
    29    1.674030369137e-02
    30    1.707945725656e-02
    31   -1.025803118849e-14
    32   -8.488972893924e-02
    33    8.274953848855e-03
    34    3.380752819123e-02
    35   -3.436862898899e-14
    36   -1.825335763603e-01
    37   -2.723186404482e-02
    38    2.981564331506e-02
    39    2.777620031846e-14
    40    1.334603305981e-03
    41    3.023027358410e-18
    42   -1.461340241226e-15
    43   -2.183806048400e-03
    44   -8.486238717449e-03
    45   -8.874034182016e-03
    46   -1.389028168407e-02
    47    1.735905897454e-02
    48   -1.245780438633e-02
    49   -5.256712454157e-15
    50    3.310549633661e-02
    51    3.944130300594e-02
    52   -1.897799458376e-02
    53   -6.736187261459e-15
    54    2.644060630880e-02
    55   -6.947857659555e-03
    56   -2.238326959079e-02
    57   -7.457219382211e-15
    58    1.383876020373e-01
    59   -6.251187275677e-02
    60    5.701372924263e-02
    61   -1.585722269028e-14
    62   -1.306409471932e-03
    63   -2.765821708815e-15
    64   -4.423800635609e-15
    65   -2.839265168203e-02
    66    1.905674586512e-02
    67    3.019739093816e-02
    68    5.262035388168e-02
    69    3.463358549454e-02
    70    4.272685029347e-02
    71    3.519366712497e-03
    72    2.867053963189e-03
    73    2.010703459770e-15
    74   -3.693066046935e-03
    75   -5.400650117663e-04
    76    5.484221337367e-04
    77   -1.850672650279e-02
    78    2.836760518378e-03
    79    7.522140601421e-04
    80   -1.667537654579e-15
    81   -2.747211663546e-02
    82   -3.180792032682e-02
    83    1.305103790162e-02
    84    9.416191816985e-03
    85   -3.023380845435e-03
    86   -4.344127537464e-04
    87    3.399434897790e-16
Sym=X
Ene= 2.000099
Spin=Alpha
Occup=1
     1    3.242119642792e-02
     2    4.799267337035e-02
     3    5.746937734412e-04
     4   -4.443458401970e-02
     5    3.237034230551e-14
     6   -1.663099194905e-01
     7    3.110770081456e-03
     8   -5.034583827079e-02
     9    3.583213613808e-14
    10   -7.478181605260e-02
    11    1.279683539194e-03
    12   -3.239990113682e-02
    13    1.930450362565e-14
    14   -1.414703012733e-03
    15    1.300285829855e-03
    16   -5.189955965871e-03
    17    6.939359473587e-15
    18    6.576629976707e-04
    19   -5.298007604179e-16
    20    1.984240482147e-16
    21   -9.825919313509e-04
    22    3.434928130523e-04
    23    7.551631717222e-02
    24    1.363746967120e-01
    25    5.631319308444e-02
    26   -6.843273829114e-02
    27   -1.301141898838e-14
    28   -3.703788629954e-01
    29    8.523730109657e-02
    30   -1.051691827466e-01
    31   -2.224315049599e-14
    32   -2.827911233034e-01
    33    3.484662020371e-02
    34   -6.523784080444e-02
    35   -2.418222450023e-14
    36    2.812838745789e-02
    37    1.206912645410e-03
    38   -1.167054596828e-04
    39   -1.373622722118e-15
    40    1.424981590701e-02
    41   -3.371336213782e-15
    42    1.570817879437e-15
    43    1.091799950436e-02
    44   -6.898835204953e-03
    45    1.550384599113e-02
    46    2.163258258393e-02
    47    3.931752119095e-03
    48   -1.939950290824e-03
    49   -1.419926597178e-14
    50   -3.951160357306e-02
    51    9.070407131673e-03
    52   -6.900564345986e-03
    53   -2.477132713655e-14
    54    1.957755927545e-02
    55   -1.485503518058e-02
    56    2.021541244525e-02
    57   -2.499231719932e-14
    58   -4.772066660647e-03
    59    1.193584124785e-03
    60    1.009159444391e-03
    61   -2.017259929970e-15
    62    4.345241082975e-03
    63    2.719753070550e-15
    64   -1.247756282463e-15
    65    1.868261470505e-03
    66    6.780103028457e-03
    67   -1.097406144539e-02
    68   -1.893368177093e-02
    69   -8.859489228415e-03
    70   -8.488239811415e-04
    71    1.326169840687e-04
    72   -1.886979006284e-03
    73   -6.951199799597e-16
    74   -1.393252863609e-01
    75   -2.015467922242e-01
    76   -2.273172368288e-02
    77   -1.762623212465e-02
    78    5.172028004218e-04
    79    2.566297073302e-02
    80   -2.956573944508e-16
    81   -8.703750039505e-02
    82   -1.220866884386e-01
    83   -7.350267163726e-03
    84   -8.281839042348e-03
    85   -1.312340432242e-02
    86   -1.427306453530e-02
    87   -1.745494426020e-15
Sym=X
Ene= 1.999999
Spin=Alpha
Occup=1
     1   -1.268514313836e-03
     2   -1.878162783850e-03
     3    7.759625681064e-04
     4    1.650595230617e-03
     5    5.375944736841e-15
     6    6.504774077540e-03
     7    8.177742860108e-04
     8    1.894257213643e-03
     9    4.710682960444e-15
    10    2.930356889133e-03
    11    5.287915445883e-04
    12    1.113927298037e-03
    13    2.994651649820e-15
    14   -1.651805689886e-04
    15    1.552929325650e-04
    16    1.476162586498e-04
    17    4.040931914937e-15
    18   -8.204407724372e-06
    19    7.832564928981e-16
    20    7.204918907320e-16
    21    4.690773194114e-05
    22   -3.544450734661e-05
    23   -5.653233824273e-01
    24   -4.701097829230e-01
    25   -7.157761937366e-04
    26    1.799076955179e-03
    27   -1.098068203792e-14
    28    4.811399134620e-03
    29   -7.340265481117e-04
    30    3.069383054547e-03
    31   -1.660861675162e-14
    32    7.097778815691e-03
    33   -2.282019680995e-04
    34    1.878452283311e-03
    35   -1.948979941155e-14
    36   -1.045280229573e-03
    37   -1.992776768129e-05
    38   -4.615145802037e-05
    39    2.904298990389e-15
    40    1.156054357289e-04
    41   -2.625717908480e-15
    42    2.579410597743e-15
    43   -3.844957292564e-04
    44    2.030453330559e-04
    45    5.975956883991e-03
    46    4.626014181741e-03
    47   -4.339072685095e-04
    48    4.677995975669e-04
    49   -1.174288527026e-14
    50    1.604371455703e-03
    51   -1.316750899147e-03
    52    1.032664086836e-03
    53   -1.903455326381e-14
    54    5.778987047986e-04
    55    1.382930268083e-05
    56    6.127700308873e-05
    57   -1.292872818127e-14
    58   -2.827369989588e-04
    59    4.337645397681e-05
    60    3.168171677537e-05
    61   -5.329643757063e-15
    62   -2.590768581676e-04
    63    7.322372461028e-16
    64   -1.444437502744e-15
    65   -9.915995611823e-05
    66   -2.638795865693e-04
    67    3.590278828351e-05
    68    9.908508309718e-05
    69    2.780046175906e-04
    70    1.907896184498e-04
    71    3.023447947654e-06
    72    9.815745582944e-06
    73   -7.251855828934e-16
    74    3.142102093340e-03
    75    5.243273093627e-03
    76    3.433854680548e-04
    77    7.475682052210e-04
    78    2.155781970781e-05
    79   -6.609522717601e-04
    80   -7.289036228207e-16
    81    1.018370727695e-03
    82    2.070984515141e-03
    83   -4.094631444182e-04
    84    3.415893435197e-04
    85    2.928430719618e-04
    86    3.272942570711e-04
    87    7.245938850447e-16
Sym=X
Ene= 1.999992
Spin=Alpha
Occup=1
     1    4.101261287356e-03
     2    6.082460877353e-03
     3   -1.761370756812e-03
     4    1.202884608751e-03
     5    4.448371218293e-14
     6   -2.084278105736e-02
     7   -1.170697590523e-03
     8    1.911952971556e-03
     9    5.336145533973e-14
    10   -8.559750319182e-03
    11   -1.881232174531e-03
    12    4.493277930667e-04
    13    2.961519906797e-14
    14    3.415504522013e-03
    15   -1.165035111709e-03
    16   -8.878336616702e-04
    17   -1.820963460923e-15
    18    2.654248195114e-04
    19   -1.857866026943e-15
    20   -8.663995914707e-16
    21   -1.499940583695e-04
    22   -4.589425703599e-04
    23   -6.214764169737e-03
    24   -5.064480242342e-03
    25   -3.332371089577e-03
    26   -1.765187750008e-04
    27    2.463395779327e-14
    28   -3.560000931777e-04
    29   -4.276009115194e-03
    30   -9.578588698330e-04
    31    3.895798256001e-14
    32    1.469807206041e-03
    33   -2.354592626322e-03
    34   -9.676028285048e-04
    35    3.728640296888e-14
    36   -1.756609563048e-03
    37   -4.815954761304e-04
    38   -3.222333928543e-04
    39   -9.021257703026e-16
    40   -2.108854942603e-04
    41    5.526450621410e-15
    42   -3.764450849006e-15
    43    2.664179153312e-05
    44    5.407406784468e-04
    45   -5.596120611226e-01
    46   -4.607724085847e-01
    47   -2.774733938667e-03
    48    7.541894280326e-04
    49    2.800359015483e-14
    50   -1.815104373777e-02
    51    2.204554991898e-03
    52    3.263126350574e-03
    53    5.385842407865e-14
    54   -9.911041893788e-03
    55   -1.475471509686e-03
    56    1.304421304971e-03
    57    3.597560657140e-14
    58   -2.372162442747e-04
    59   -5.840097731704e-04
    60    6.984724132848e-04
    61    5.281143341640e-15
    62    1.072266075424e-03
    63    1.572191185028e-15
    64    3.942235953907e-15
    65   -1.597047164424e-05
    66    9.817208245431e-04
    67   -4.719028823717e-03
    68   -6.068310556124e-03
    69   -8.011302239512e-04
    70    7.280539517389e-04
    71    1.326407478723e-04
    72   -7.740224927343e-04
    73    1.581067928757e-15
    74   -4.161465345262e-04
    75   -7.157153177911e-04
    76   -4.438572080786e-04
    77    5.145334055584e-04
    78   -1.981994483879e-04
    79    1.571907936319e-05
    80    2.274788175836e-15
    81    2.396801203903e-03
    82    3.696933340571e-03
    83    9.001512409113e-04
    84   -1.951642626741e-04
    85    1.244951986508e-04
    86    2.522834524249e-04
    87    8.446667079352e-16
Sym=X
Ene= 1.999889
Spin=Alpha
Occup=1
     1   -5.935488792189e-02
     2   -8.769813943350e-02
     3    3.342129710963e-02
     4   -2.421642452887e-02
     5   -1.705129912965e-14
     6    3.000013354955e-01
     7    3.181988207944e-02
     8   -3.167583356647e-02
     9   -2.049468765029e-14
    10    1.104054594567e-01
    11    4.111192681701e-02
    12   -1.059650528101e-02
    13   -1.702860751079e-14
    14   -5.517104380801e-02
    15    2.592014507303e-02
    16    6.893696074174e-03
    17   -9.070703848257e-16
    18   -2.437970671407e-03
    19    5.215304198499e-16
    20    7.850823292193e-16
    21    2.248872323916e-03
    22    3.424178125083e-03
    23   -1.618114281785e-02
    24   -2.732090215226e-02
    25    1.080030262079e-01
    26   -7.787689699325e-02
    27   -2.746058903483e-15
    28    7.038375085780e-02
    29    1.676911167456e-01
    30   -1.206268945357e-01
    31   -7.601263562286e-15
    32   -3.312367031820e-02
    33    5.741550974796e-02
    34   -5.157088871652e-02
    35   -3.852346961253e-15
    36    2.311643971593e-02
    37    1.226121398946e-02
    38    1.932904082296e-02
    39    8.758971052912e-15
    40   -1.792618196313e-03
    41    5.787820816757e-16
    42    1.448213660693e-15
    43    1.506759799442e-02
    44   -2.364269655823e-02
    45   -1.115816236484e-01
    46   -1.686073101255e-01
    47   -7.208019344334e-02
    48    1.347925767849e-03
    49   -4.823659880316e-15
    50    3.991285519644e-01
    51   -8.806513309335e-02
    52    8.305622492815e-03
    53   -5.670239290521e-15
    54    2.711619204329e-01
    55   -2.905795233560e-02
    56    1.175245493952e-02
    57    1.689514756089e-15
    58   -7.849244401841e-03
    59    1.029353289003e-02
    60   -1.414857757027e-02
    61   -8.557278098683e-15
    62   -1.324037343099e-02
    63   -9.231176410642e-16
    64   -1.076614810366e-15
    65    4.507958031748e-03
    66   -9.821434612730e-03
    67    6.970353583566e-02
    68    9.414220068650e-02
    69   -9.716631841940e-03
    70   -3.424152436035e-03
    71   -5.271537101465e-03
    72    1.644248051381e-02
    73   -5.552525538691e-16
    74   -5.337815368621e-02
    75   -8.042280058596e-02
    76   -2.607851996965e-02
    77   -2.027366253196e-02
    78    4.872467780678e-03
    79    5.203933976676e-03
    80   -6.366743117254e-16
    81   -2.933698998318e-02
    82   -5.027857726981e-02
    83   -1.678443131672e-02
    84    1.961558587512e-02
    85    2.623955226520e-03
    86   -5.709396840951e-03
    87    2.220842020909e-16
Sym=X
Ene= 1.999472
Spin=Alpha
Occup=1
     1    2.748049826090e-02
     2    4.088664619352e-02
     3   -7.276345637823e-02
     4   -4.652969557467e-02
     5    7.395397131750e-14
     6   -1.461385846372e-01
     7   -8.281661682280e-02
     8   -5.625780703153e-02
     9    7.819277310483e-14
    10   -8.197504333772e-02
    11   -4.981978722220e-02
    12   -2.051639940968e-02
    13    7.310554748874e-14
    14    3.440575274263e-04
    15   -1.397237936527e-02
    16    2.778035666869e-02
    17    5.184660974428e-14
    18   -2.161869298310e-03
    19    8.778642705090e-15
    20    4.253412480454e-15
    21   -5.267583186750e-03
    22    7.639582827385e-03
    23    1.459964599767e-02
    24    2.668236212397e-02
    25   -1.149048212029e-01
    26   -1.057445641609e-02
    27   -1.767020887189e-13
    28   -7.617786947938e-02
    29   -1.689687420976e-01
    30   -1.812824237603e-02
    31   -2.987776369643e-13
    32    8.438145543723e-03
    33   -7.608909102228e-02
    34   -8.462073625973e-03
    35   -2.760688220746e-13
    36    9.485583424488e-02
    37    3.021793999571e-02
    38    1.630857479953e-03
    39   -3.510717045359e-14
    40    2.242218831476e-03
    41   -3.467288516877e-14
    42    1.748698556079e-14
    43   -9.409629399718e-03
    44    1.091394459697e-02
    45   -2.821834206136e-02
    46   -4.467567292697e-02
    47    9.522403824768e-02
    48   -1.641296215837e-01
    49   -1.983501471905e-13
    50    1.093841247856e-01
    51    1.530340021989e-01
    52   -2.476911583533e-01
    53   -3.398954236002e-13
    54    8.709861982319e-02
    55    7.337693858291e-02
    56   -1.501213995491e-01
    57   -2.966630813508e-13
    58   -7.191923330047e-02
    59    2.482302709804e-02
    60   -4.297381535890e-02
    61   -1.131147929004e-14
    62   -6.965213316072e-03
    63    2.186608231189e-14
    64   -2.485804103317e-14
    65   -1.599829923637e-03
    66    6.768506564765e-03
    67    1.507538838470e-01
    68    2.232034633278e-01
    69    1.126166893531e-02
    70   -2.130295976747e-02
    71    1.014157337995e-03
    72    2.698300522235e-02
    73   -1.421172756908e-14
    74   -1.327987183729e-02
    75   -1.682919383798e-02
    76    6.390559085709e-03
    77   -8.922826019312e-03
    78   -6.642375544569e-03
    79    4.488478460253e-03
    80   -1.341234716873e-14
    81    6.507356815091e-02
    82    1.015076289251e-01
    83    2.709870510201e-02
    84    1.989626586382e-02
    85    5.833772316437e-03
    86    7.210506040469e-03
    87   -1.232565151334e-14
Sym=X
Ene= 1.999317
Spin=Alpha
Occup=1
     1   -9.420395662776e-02
     2   -1.397492283778e-01
     3    1.761257294984e-01
     4    4.934463174188e-02
     5   -3.567326672774e-14
     6    4.900047966975e-01
     7    2.015116383995e-01
     8    5.399499027876e-02
     9   -4.935375540958e-14
    10    2.383559646952e-01
    11    1.132215551719e-01
    12    3.120563697669e-02
    13    1.006655693572e-15
    14    2.244830519070e-02
    15   -1.260832754086e-02
    16    9.194763205960e-03
    17    6.187459071476e-14
    18    2.627492319104e-03
    19    1.448993555300e-14
    20    6.929723469773e-15
    21   -6.995234598558e-03
    22   -2.023147524345e-03
    23    4.220658549172e-02
    24    6.878227549133e-02
    25   -2.077767128899e-02
    26    8.805155566312e-02
    27   -2.202083184391e-13
    28   -1.724934832661e-01
    29   -3.506331452372e-02
    30    1.376312079985e-01
    31   -3.875189483950e-13
    32   -6.047412961957e-02
    33    1.533115177910e-02
    34    7.891835047074e-02
    35   -3.079714924692e-13
    36    2.130873764640e-02
    37   -7.766202642786e-03
    38   -2.668994478057e-02
    39   -3.649504016572e-14
    40    5.744959788056e-03
    41   -4.190975747158e-14
    42    2.248592704146e-14
    43   -1.957448334571e-02
    44    5.137557189116e-03
    45    1.978270191911e-02
    46    4.182710349176e-02
    47    5.590282903458e-02
    48   -7.656631965513e-02
    49   -2.485301125966e-13
    50   -1.370718554842e-01
    51    7.068186483134e-02
    52   -1.257677509090e-01
    53   -4.323216796228e-13
    54   -7.038343378269e-02
    55    3.601626308474e-02
    56   -7.339201908561e-02
    57   -3.551109937480e-13
    58   -3.335141008104e-02
    59    9.107947854239e-03
    60    7.399378269827e-03
    61   -3.218477045677e-14
    62    3.482149742766e-03
    63    2.064064011870e-14
    64   -3.690101173830e-14
    65   -1.530406737143e-02
    66   -7.712155903945e-03
    67    4.267927773708e-02
    68    6.628522273369e-02
    69    3.180920017498e-02
    70    1.663784926134e-02
    71    7.229290250345e-04
    72    7.424086050211e-04
    73   -1.587787291119e-14
    74    4.287939481929e-02
    75    6.990348143215e-02
    76    4.146190128762e-02
    77    3.133288746519e-02
    78   -2.695443360475e-04
    79   -4.830274756255e-04
    80   -1.878301800287e-14
    81   -6.321477209588e-02
    82   -9.347722748894e-02
    83   -1.380572433835e-02
    84   -3.889743590452e-02
    85   -1.317534288675e-02
    86   -2.327090604106e-03
    87   -2.019626301275e-14
Sym=X
Ene= 1.998382
Spin=Alpha
Occup=1
     1   -5.734777292832e-13
     2   -8.475822551186e-13
     3   -8.675852755098e-13
     4   -2.213908693589e-13
     5    4.400004277118e-02
     6    3.017022885657e-12
     7   -1.032609122470e-12
     8   -2.605267396858e-13
     9    4.697588143590e-02
    10    1.368268516107e-12
    11   -5.558862703676e-13
    12   -1.396217577333e-13
    13    4.680274261828e-02
    14    3.159704259133e-13
    15   -1.780427339700e-13
    16   -1.692372347678e-13
    17    4.830725169150e-02
    18   -9.519020033200e-15
    19    8.560144248188e-03
    20    4.078636363883e-03
    21    3.686453270594e-14
    22    1.095939543460e-14
    23   -2.871422415937e-14
    24   -7.875680636504e-14
    25   -6.422970746527e-13
    26   -1.018502992674e-12
    27   -1.629847393780e-01
    28    3.195461199197e-13
    29   -9.332225252332e-13
    30   -1.588151831621e-12
    31   -2.763296877987e-01
    32    1.261039566677e-13
    33   -7.232703363443e-13
    34   -1.175604967172e-12
    35   -2.469278750242e-01
    36    3.543478245422e-13
    37   -5.504342033911e-13
    38   -9.416759313695e-13
    39   -2.539721603961e-02
    40    1.685036281804e-15
    41   -3.086304476095e-02
    42    1.586540313262e-02
    43    1.821554286987e-13
    44    1.094793443072e-13
    45    1.704745088287e-13
    46    3.355546004610e-13
    47    1.126089723157e-14
    48    6.221101341831e-13
    49   -1.801096768469e-01
    50   -1.043112738834e-12
    51    5.863562808818e-14
    52    9.913716551073e-13
    53   -3.116817782374e-01
    54   -1.330328498412e-12
    55   -2.868294009313e-13
    56    5.557630055714e-13
    57   -2.633928231871e-01
    58   -3.898424906387e-13
    59    1.816876382995e-13
    60    5.498528884882e-13
    61   -1.998041331600e-02
    62   -7.276623815629e-16
    63    2.044778290188e-02
    64   -2.320566702691e-02
    65    2.809639744168e-13
    66    3.068146726863e-13
    67   -7.875197070301e-13
    68   -1.159585897346e-12
    69   -2.046810024587e-13
    70    2.576748754783e-13
    71    1.296785840272e-14
    72   -7.564185604014e-14
    73   -1.278442857415e-02
    74   -8.091350802603e-13
    75   -1.241684275957e-12
    76   -1.945004077514e-13
    77    5.467673430491e-13
    78   -5.308222313674e-14
    79    7.756983672653e-14
    80   -1.290975426212e-02
    81    9.996499269581e-13
    82    1.567922420556e-12
    83    6.522900909223e-14
    84   -7.935605935338e-13
    85    1.384276575551e-13
    86    4.062851573126e-14
    87   -1.265978180621e-02
Sym=X
Ene= 1.998265
Spin=Alpha
Occup=1
     1    8.205471200797e-02
     2    1.215866418478e-01
     3    9.046409099502e-02
     4    2.606893599019e-02
     5    4.698892672160e-13
     6   -4.310995540568e-01
     7    1.085390520946e-01
     8    3.170164828549e-02
     9    5.147088791697e-13
    10   -1.945254618921e-01
    11    5.781408252281e-02
    12    1.462665954450e-02
    13    4.694170868079e-13
    14   -3.693043814239e-02
    15    2.040595319386e-02
    16    1.613439081484e-02
    17    3.815534735577e-13
    18    1.134109329209e-03
    19    6.742693804211e-14
    20    3.185798710262e-14
    21   -2.775172846947e-03
    22   -2.195631229650e-03
    23   -2.221941803327e-03
    24   -3.470854490915e-03