[Molden Format]
[Atoms] (Angs)
  F      1    9      1.15290231      0.22477664     -0.00000000
  C      2    6     -1.17935012      0.19972949     -0.00000000
  C      3    6     -0.01631886     -0.43556811      0.00000000
  H      4    1      0.11895302     -1.50789969      0.00000000
  H      5    1     -1.23082549      1.27856114     -0.00000000
  H      6    1     -2.09023450     -0.37861944      0.00000000
[GTO]
1    0
S    6    1.000000
   1.14271000E+04    1.80093000E-03 
   1.72235000E+03    1.37419000E-02 
   3.95746000E+02    6.81334000E-02 
   1.15139000E+02    2.33325000E-01 
   3.36026000E+01    5.89086000E-01 
   4.91901000E+00    2.99505000E-01 
SP   3    1.000000
   5.54441000E+01    1.14536000E-01   3.54609000E-02 
   1.26323000E+01    9.20512000E-01   2.37451000E-01 
   3.71756000E+00   -3.37804000E-03   8.20458000E-01 
SP   1    1.000000
   1.16545000E+00    1.00000000E+00   1.00000000E+00 
SP   1    1.000000
   3.21892000E-01    1.00000000E+00   1.00000000E+00 
SP   1    1.000000
   1.07600000E-01    1.00000000E+00   1.00000000E+00 
D    1    1.000000
   1.75000000E+00    1.00000000E+00 

2    0
S    6    1.000000
   4.56324000E+03    1.96665000E-03 
   6.82024000E+02    1.52306000E-02 
   1.54973000E+02    7.61269000E-02 
   4.44553000E+01    2.60801000E-01 
   1.30290000E+01    6.16462000E-01 
   1.82773000E+00    2.21006000E-01 
SP   3    1.000000
   2.09642000E+01    1.14660000E-01   4.02487000E-02 
   4.80331000E+00    9.19999000E-01   2.37594000E-01 
   1.45933000E+00   -3.03068000E-03   8.15854000E-01 
SP   1    1.000000
   4.83456000E-01    1.00000000E+00   1.00000000E+00 
SP   1    1.000000
   1.45585000E-01    1.00000000E+00   1.00000000E+00 
SP   1    1.000000
   4.38000000E-02    1.00000000E+00   1.00000000E+00 
D    1    1.000000
   6.26000000E-01    1.00000000E+00 

3    0
S    6    1.000000
   4.56324000E+03    1.96665000E-03 
   6.82024000E+02    1.52306000E-02 
   1.54973000E+02    7.61269000E-02 
   4.44553000E+01    2.60801000E-01 
   1.30290000E+01    6.16462000E-01 
   1.82773000E+00    2.21006000E-01 
SP   3    1.000000
   2.09642000E+01    1.14660000E-01   4.02487000E-02 
   4.80331000E+00    9.19999000E-01   2.37594000E-01 
   1.45933000E+00   -3.03068000E-03   8.15854000E-01 
SP   1    1.000000
   4.83456000E-01    1.00000000E+00   1.00000000E+00 
SP   1    1.000000
   1.45585000E-01    1.00000000E+00   1.00000000E+00 
SP   1    1.000000
   4.38000000E-02    1.00000000E+00   1.00000000E+00 
D    1    1.000000
   6.26000000E-01    1.00000000E+00 

4    0
S    3    1.000000
   3.38650000E+01    2.54938000E-02 
   5.09479000E+00    1.90373000E-01 
   1.15879000E+00    8.52161000E-01 
S    1    1.000000
   3.25840000E-01    1.00000000E+00 
S    1    1.000000
   1.02741000E-01    1.00000000E+00 
S    1    1.000000
   3.60000000E-02    1.00000000E+00 
P    1    1.000000
   7.50000000E-01    1.00000000E+00 

5    0
S    3    1.000000
   3.38650000E+01    2.54938000E-02 
   5.09479000E+00    1.90373000E-01 
   1.15879000E+00    8.52161000E-01 
S    1    1.000000
   3.25840000E-01    1.00000000E+00 
S    1    1.000000
   1.02741000E-01    1.00000000E+00 
S    1    1.000000
   3.60000000E-02    1.00000000E+00 
P    1    1.000000
   7.50000000E-01    1.00000000E+00 

6    0
S    3    1.000000
   3.38650000E+01    2.54938000E-02 
   5.09479000E+00    1.90373000E-01 
   1.15879000E+00    8.52161000E-01 
S    1    1.000000
   3.25840000E-01    1.00000000E+00 
S    1    1.000000
   1.02741000E-01    1.00000000E+00 
S    1    1.000000
   3.60000000E-02    1.00000000E+00 
P    1    1.000000
   7.50000000E-01    1.00000000E+00 

[MO]
Sym=X
Ene= 2.000332
Spin=Alpha
Occup=1
     1    6.328944827739e-13
     2    1.064111853791e-12
     3    3.845767887109e-13
     4    5.594847509325e-13
     5   -3.045241797131e-01
     6   -3.125657596517e-12
     7    6.333394169646e-13
     8    8.757518247828e-13
     9   -4.639020422535e-01
    10   -2.348248118534e-12
    11    3.820235265940e-13
    12    6.919915296612e-13
    13   -4.070018810971e-01
    14    2.525743539824e-13
    15    6.711084394530e-15
    16    3.513500785822e-14
    17   -3.793490684956e-02
    18    3.416450348796e-14
    19    1.168042225935e-02
    20    6.877621544214e-03
    21   -2.447250488121e-14
    22   -5.448759787896e-14
    23   -2.489004716686e-13
    24   -1.886636271451e-13
    25    1.255072614327e-13
    26   -1.533859699961e-13
    27    1.594563901301e-02
    28   -1.070178470550e-13
    29    6.966653392734e-14
    30   -1.962562135154e-13
    31    2.401208007218e-02
    32   -1.840107295452e-13
    33    5.019922716689e-14
    34   -1.434412794687e-13
    35    4.094072242578e-02
    36   -8.699187793424e-13
    37   -1.812802378109e-13
    38    7.562200834528e-14
    39    1.253849738790e-02
    40   -1.931675418582e-15
    41   -2.330131737570e-03
    42    1.226713498024e-03
    43   -6.641551240558e-14
    44   -2.064019745357e-14
    45   -5.360821201988e-13
    46   -4.134040485586e-13
    47   -4.585798429448e-13
    48   -4.101751203912e-13
    49   -2.896185665286e-02
    50   -1.037203139889e-13
    51   -8.290021944078e-13
    52   -6.893661240168e-13
    53   -5.327941536217e-02
    54    3.300476829170e-13
    55   -9.052910818146e-14
    56   -1.154437309122e-13
    57   -5.193779338755e-03
    58    5.216029081281e-13
    59   -2.739843348168e-13
    60    1.933638107394e-13
    61   -6.842257043564e-03
    62    7.084609124543e-14
    63   -3.217668136227e-02
    64   -1.440755984028e-02
    65   -1.865614391375e-13
    66   -2.448527531836e-13
    67    2.939859882903e-13
    68    4.637834685644e-13
    69    2.365455815117e-13
    70    1.966996903271e-13
    71   -2.951108405752e-14
    72    1.018593675604e-15
    73   -1.161549741432e-03
    74   -1.275092453854e-13
    75   -2.010924814745e-13
    76    6.714816188961e-14
    77    1.273262085722e-14
    78    1.012887386187e-14
    79    4.727269596923e-14
    80    8.812480579102e-04
    81   -5.080816041323e-14
    82   -1.653253750462e-13
    83   -1.724956651281e-15
    84   -2.840105258652e-14
    85   -1.803528176993e-14
    86   -1.092255375035e-14
    87    1.889572695315e-03
Sym=X
Ene= 2.000000
Spin=Alpha
Occup=1
     1   -6.640466995452e-04
     2   -1.113604261884e-03
     3    1.404121976578e-03
     4   -2.563042496458e-03
     5    1.251943627834e-13
     6    3.270557659147e-03
     7    2.084154517772e-03
     8   -3.908056869739e-03
     9    1.890005251919e-13
    10    2.529943688845e-03
    11    1.959477182939e-03
    12   -3.516531843176e-03
    13    1.647553915108e-13
    14   -6.048440388933e-04
    15    3.368867301809e-04
    16   -6.022386341145e-05
    17    1.651711858983e-14
    18   -2.301375710188e-05
    19   -4.505226166819e-15
    20   -2.366717319727e-15
    21   -6.623910169208e-05
    22    8.316943375945e-05
    23   -5.648727155646e-01
    24   -4.693021608309e-01
    25   -3.019554054879e-04
    26    9.506745063936e-04
    27   -7.250899288808e-15
    28    2.791292772044e-03
    29   -1.329619096476e-03
    30    1.892841817708e-03
    31   -8.999206714271e-15
    32    6.026730253605e-03
    33   -3.816373320546e-04
    34    7.712630440289e-04
    35   -2.102669866613e-14
    36    1.194853649722e-03
    37    3.979409748082e-04
    38   -4.785978796374e-05
    39   -4.693419593298e-16
    40    2.214435062302e-04
    41    3.517280694850e-16
    42    7.500699903182e-16
    43   -2.236197890785e-04
    44    3.989898318957e-04
    45    7.667254900437e-03
    46    6.173186319559e-03
    47   -1.654291474384e-05
    48    5.531404057730e-04
    49    1.111556931094e-14
    50    8.823768701841e-04
    51   -8.102383248411e-04
    52    1.268943823035e-03
    53    2.192078252318e-14
    54    2.302481078890e-04
    55    3.307323800174e-04
    56    2.433451463904e-04
    57    5.395229578367e-15
    58   -1.162914350191e-03
    59    8.063822133241e-04
    60   -8.715344176888e-04
    61   -1.357307143876e-15
    62   -2.598581662305e-04
    63    1.270128943185e-14
    64    5.809915112441e-15
    65    5.399317199757e-04
    66   -2.799877728153e-04
    67   -4.532506806854e-04
    68   -7.995206002496e-04
    69   -6.541671183578e-04
    70   -7.126436206608e-04
    71   -8.582801510261e-06
    72    3.176233875363e-05
    73    5.463129394914e-16
    74    1.998591675285e-03
    75    3.529981995102e-03
    76    1.269102964456e-04
    77    4.219283039493e-04
    78   -6.257081194311e-05
    79   -4.478236410422e-04
    80   -2.154240412530e-17
    81    1.002034348700e-03
    82    1.897559747119e-03
    83   -3.184170013267e-04
    84    5.379658599730e-04
    85    1.957756100764e-04
    86    1.964248910240e-04
    87    6.995931803885e-16
Sym=X
Ene= 1.999999
Spin=Alpha
Occup=1
     1   -1.686513771855e-02
     2   -2.835000702990e-02
     3    1.329210402161e-02
     4    6.638447662507e-04
     5   -5.066172923350e-13
     6    8.395411739824e-02
     7    1.906409734423e-02
     8    3.527402945535e-04
     9   -7.724317430652e-13
    10    7.144527736893e-02
    11    1.507825327069e-02
    12   -6.113230666229e-04
    13   -6.755752817751e-13
    14   -2.174500699204e-03
    15    6.898856119147e-04
    16   -4.325402762922e-04
    17   -6.701688585779e-14
    18    9.989173131622e-06
    19    1.878199970059e-14
    20    1.086749416859e-14
    21   -1.775004936694e-04
    22    6.228711823550e-05
    23    7.222004192472e-03
    24    5.053656788013e-03
    25   -1.524878094418e-03
    26    3.175490662734e-03
    27    2.520576125759e-14
    28    4.731515102535e-03
    29   -2.640761136785e-03
    30    5.573717924206e-03
    31    4.086497861440e-14
    32    7.055497196508e-03
    33    1.238206879341e-03
    34    3.399174167590e-03
    35    6.475353075666e-14
    36   -1.136725371319e-02
    37   -3.819214532829e-03
    38   -7.076439680200e-04
    39    2.357773401803e-14
    40    6.490060767341e-05
    41   -4.614211903106e-15
    42    3.262140323513e-15
    43   -3.429556098004e-04
    44    5.393511785233e-04
    45    5.597763110858e-01
    46    4.654303072831e-01
    47    2.425440746065e-03
    48    2.053107501560e-03
    49   -4.667962881783e-14
    50   -7.204329766227e-03
    51   -2.174735101595e-03
    52    1.482293576365e-03
    53   -9.101829150490e-14
    54   -1.489962425441e-02
    55   -1.790892415202e-03
    56   -2.426864916047e-03
    57   -5.290607639979e-15
    58    1.507012209641e-02
    59    2.192018077148e-05
    60    3.635815139519e-03
    61   -1.162245426011e-14
    62   -2.766590972186e-04
    63   -5.534416064955e-14
    64   -2.306078727939e-14
    65    1.336670042706e-03
    66   -7.338368068020e-05
    67   -2.755512967436e-03
    68   -4.883279784839e-03
    69   -2.969716714730e-04
    70   -7.326226053354e-04
    71    1.379425906806e-04
    72   -4.109390406156e-04
    73   -1.554652552045e-15
    74    4.053104296892e-03
    75    5.349371578208e-03
    76    1.969645926717e-03
    77    7.748296230308e-04
    78   -9.893956674004e-05
    79   -6.076608829668e-04
    80    1.185441906938e-15
    81    5.249441991114e-04
    82    1.061165815134e-03
    83   -1.817767880935e-04
    84   -9.605542101432e-04
    85    1.444506660381e-04
    86    1.622326311016e-04
    87    4.058190162230e-15
Sym=X
Ene= 1.999996
Spin=Alpha
Occup=1
     1    1.207086110202e-01
     2    2.027536234434e-01
     3   -8.537467415179e-02
     4   -1.256563834882e-02
     5    1.294708590439e-12
     6   -6.001272186880e-01
     7   -1.243969909979e-01
     8   -1.579103284379e-02
     9    1.970117143498e-12
    10   -5.039375516012e-01
    11   -9.809800576272e-02
    12   -9.058030023339e-03
    13    1.728458046657e-12
    14    1.601951874126e-02
    15   -5.518408639055e-03
    16    2.031766700940e-04
    17    1.626000995671e-13
    18   -4.227222533091e-04
    19   -4.990843771179e-14
    20   -2.924029549036e-14
    21    1.705662653172e-03
    22    2.575881740316e-04
    23   -3.185001733489e-04
    24    1.686696593018e-03
    25   -2.571315724861e-03
    26   -2.657724964793e-03
    27   -6.793672800972e-14
    28   -1.028613840919e-02
    29   -8.434439463428e-03
    30   -4.637340589224e-03
    31   -9.923407299190e-14
    32   -2.110956738508e-02
    33   -1.735346713324e-02
    34   -1.216368114956e-02
    35   -1.740586875476e-13
    36    7.858390800864e-02
    37    2.293971393361e-02
    38   -1.285861796136e-03
    39   -5.119478195806e-14
    40   -1.228533043408e-04
    41    1.011608325450e-14
    42   -5.700844162850e-15
    43   -2.808573394942e-04
    44    1.109564608028e-03
    45    8.159817600378e-02
    46    6.917780354923e-02
    47    1.933164739162e-03
    48    4.360211831396e-03
    49    1.246781102207e-13
    50   -8.193919465581e-04
    51    8.451957549827e-03
    52    1.016444040815e-02
    53    2.259489413351e-13
    54    5.017267346945e-02
    55    2.274558040810e-02
    56    3.057332836593e-02
    57    2.304502973420e-14
    58   -1.012072092476e-01
    59   -6.305550949222e-04
    60   -2.204590219506e-02
    61    2.654314269726e-14
    62    1.765933593183e-03
    63    1.376345010727e-13
    64    6.145945493644e-14
    65   -6.693168406884e-03
    66   -4.519926329794e-03
    67   -4.818549448054e-03
    68   -5.613190502106e-03
    69    1.610830272288e-03
    70    3.039328275296e-03
    71   -3.148367588141e-04
    72   -1.981723778036e-03
    73    5.569957783736e-15
    74   -6.434809407107e-03
    75   -5.162737260662e-03
    76   -5.480225360717e-03
    77    1.186553874064e-05
    78    7.579064318802e-05
    79    1.163900478938e-03
    80   -4.327183195541e-15
    81    3.386256977490e-03
    82    2.397243179559e-03
    83    8.317606499521e-04
    84    3.148094190352e-04
    85   -8.361934151208e-04
    86   -4.911079919496e-05
    87   -8.396278992808e-15
Sym=X
Ene= 1.999991
Spin=Alpha
Occup=1
     1    1.244017883287e-02
     2    2.087482457735e-02
     3    1.420606352387e-01
     4   -2.724289767134e-01
     5   -1.870979409961e-13
     6   -6.143503634811e-02
     7    2.158704502322e-01
     8   -4.137779079682e-01
     9   -2.864942648472e-13
    10   -5.666884286290e-02
    11    1.945840213778e-01
    12   -3.633717414317e-01
    13   -2.511887591897e-13
    14   -1.782177935557e-02
    15    1.613050963698e-02
    16   -1.640908668865e-02
    17   -2.145512688956e-14
    18   -1.290442383630e-04
    19    7.018492249183e-15
    20    3.990262075490e-15
    21   -1.019779055596e-02
    22    6.392495789442e-03
    23   -3.020365197443e-03
    24   -9.110788619042e-03
    25    1.466052581062e-02
    26    1.378617172522e-02
    27    1.067862318519e-14
    28    3.320120417782e-02
    29    1.492701462378e-02
    30    3.152778845615e-02
    31    1.372330489875e-14
    32    8.306032763013e-02
    33    1.910939749342e-02
    34   -1.117504247707e-02
    35    2.573113904027e-14
    36    2.423744750576e-01
    37    4.394020814317e-02
    38   -2.560891500654e-02
    39    7.739806261791e-15
    40    1.306380980699e-03
    41   -1.616312640331e-15
    42    6.300122129117e-16
    43   -8.253566959004e-04
    44    6.560084353797e-03
    45   -9.617967445175e-04
    46    1.243175481160e-03
    47    4.597301604542e-03
    48    3.695941042568e-03
    49   -1.744310387171e-14
    50   -9.256560725121e-03
    51   -1.825081441801e-03
    52    7.207540794374e-03
    53   -3.268595443605e-14
    54   -4.386643518904e-03
    55    3.781767543530e-02
    56    6.603986219353e-03
    57   -3.713604364296e-15
    58   -1.711474713087e-01
    59    7.875422116696e-02
    60   -8.100837700654e-02
    61   -5.600250670895e-15
    62   -1.328621929459e-03
    63   -1.971618783447e-14
    64   -9.094547903342e-15
    65    3.542948185835e-02
    66   -2.240593075873e-02
    67   -2.122969284376e-02
    68   -4.654865528964e-02
    69   -5.294003207844e-02
    70   -6.348694344845e-02
    71   -3.663945204641e-03
    72   -3.624656981993e-04
    73   -4.871668992855e-16
    74    1.966449620827e-02
    75    2.839791239850e-02
    76    8.672075810509e-03
    77    8.897686897384e-03
    78   -2.256834149976e-03
    79   -2.059318945946e-03
    80    5.637530484723e-16
    81   -1.175686349833e-02
    82   -3.149447802685e-02
    83   -2.774897923079e-02
    84    7.869812367384e-04
    85   -3.033221168722e-03
    86   -2.383461759247e-03
    87    8.091737663407e-16
Sym=X
Ene= 1.999953
Spin=Alpha
Occup=1
     1   -1.013420454195e-02
     2   -1.681250473932e-02
     3   -1.121192041389e-01
     4   -3.893808179433e-02
     5   -8.239360317186e-13
     6    4.613740993412e-02
     7   -1.738775567119e-01
     8   -6.092701773796e-02
     9   -1.256687611924e-12
    10    6.962399422046e-03
    11   -1.245942526436e-01
    12   -4.333296275500e-02
    13   -1.098894240352e-12
    14   -3.285198371983e-02
    15    9.780552279801e-04
    16   -2.043805139683e-03
    17   -1.085966774304e-13
    18   -4.785733861310e-03
    19    3.199767230790e-14
    20    1.848976326884e-14
    21    5.800303957997e-03
    22    5.662905026920e-03
    23   -5.012457821959e-02
    24   -8.941372309673e-02
    25   -3.461215582080e-02
    26    1.185046671020e-01
    27    4.483696420204e-14
    28    2.424678091383e-01
    29   -4.345706316963e-02
    30    1.754007857993e-01
    31    7.008923638480e-14
    32    1.853998609815e-01
    33   -2.521511415212e-02
    34    1.077767066666e-01
    35    1.100035701847e-13
    36   -3.049420482011e-02
    37    9.011722647076e-03
    38    2.293600983626e-02
    39    3.153595697270e-14
    40   -9.293708612994e-03
    41   -5.404791346531e-15
    42    2.353057200050e-15
    43   -4.867896402429e-03
    44    5.124599728691e-03
    45   -7.164491945934e-03
    46   -3.330120848012e-03
    47    5.998526788174e-02
    48    7.436800455433e-02
    49   -7.682754941866e-14
    50   -1.982222127414e-02
    51    1.076412025611e-01
    52    1.264130461339e-01
    53   -1.401545350175e-13
    54   -4.520949552114e-02
    55    3.371870724828e-02
    56    3.473769938701e-02
    57   -1.093731522807e-14
    58    4.011361900016e-02
    59   -1.030916802878e-02
    60   -1.712890288126e-02
    61   -1.216943506870e-14
    62   -7.577920542370e-03
    63   -8.673762610276e-14
    64   -3.816838180131e-14
    65    1.075960522564e-02
    66    2.148331451037e-02
    67   -5.343089326159e-02
    68   -7.383506978917e-02
    69   -1.921222976522e-02
    70   -1.998385712039e-02
    71    4.442018547764e-03
    72   -4.795978180898e-03
    73   -3.072956926162e-15
    74    1.479555042289e-01
    75    2.222788440661e-01
    76    2.324371672575e-02
    77    6.968030467638e-04
    78   -9.589510940635e-04
    79   -2.738162696695e-02
    80    2.752240511073e-15
    81    2.692806706578e-02
    82    3.752090523159e-02
    83    2.843327214193e-03
    84    1.944605423686e-02
    85    3.586826614052e-03
    86    9.062879656724e-03
    87    5.746704563227e-15
Sym=X
Ene= 1.999901
Spin=Alpha
Occup=1
     1    2.277639738041e-02
     2    3.788807573607e-02
     3    1.812486803912e-01
     4    1.141631225669e-01
     5    9.385795051824e-13
     6   -1.066074917541e-01
     7    2.805209110568e-01
     8    1.762698957653e-01
     9    1.434290902838e-12
    10   -2.845651649699e-02
    11    1.982541756708e-01
    12    1.268791911711e-01
    13    1.253546349260e-12
    14    4.668927115239e-02
    15    6.043097477047e-03
    16    6.627854885356e-03
    17    1.197769521341e-13
    18    7.834309432163e-03
    19   -3.589662049392e-14
    20   -2.183757742374e-14
    21   -7.130414438759e-03
    22   -1.256373650205e-02
    23   -3.399356189453e-02
    24   -5.801026593741e-02
    25    2.249555500671e-02
    26    7.505874524847e-02
    27   -4.944781868939e-14
    28    1.473528231620e-01
    29    1.349691022606e-02
    30    1.247351425668e-01
    31   -7.571977577441e-14
    32    1.214169847556e-01
    33    2.975208592130e-02
    34    7.423888885719e-02
    35   -1.243942561741e-13
    36   -2.815988219211e-02
    37   -2.157366867210e-02
    38   -2.973910474194e-02
    39   -4.167016228800e-14
    40   -5.480253940510e-03
    41    7.171655753480e-15
    42   -3.603020919702e-15
    43   -2.611215023859e-02
    44   -3.269893395816e-03
    45    2.335226515441e-02
    46    4.478590765412e-02
    47   -9.169380037858e-02
    48   -5.289291760611e-02
    49    8.979241413107e-14
    50   -1.285858129971e-01
    51   -1.797411609452e-01
    52   -9.841678473843e-02
    53    1.646785399304e-13
    54   -5.464878191649e-02
    55   -2.570158114695e-02
    56   -3.968768288253e-02
    57    1.366946445407e-14
    58   -1.313213307386e-02
    59   -1.207806078965e-04
    60    2.983805638308e-02
    61    2.284187619200e-14
    62    1.565750167658e-02
    63    9.925105645990e-14
    64    4.490010623674e-14
    65   -3.573788372056e-02
    66   -5.573879979795e-02
    67    2.105711526106e-02
    68    3.206951225993e-02
    69    4.945151574471e-02
    70    2.612642690159e-02
    71   -4.614951947846e-03
    72   -8.850756025766e-03
    73    3.420346097832e-15
    74    1.006174167664e-01
    75    1.461095971639e-01
    76    4.971340937008e-02
    77    3.381312012398e-02
    78    2.221934654044e-03
    79   -1.051160705037e-02
    80   -3.166478022596e-15
    81   -2.245649927125e-02
    82   -5.071156066632e-02
    83   -3.657217260279e-02
    84   -2.925488749803e-02
    85   -3.875996257154e-03
    86    3.097663252182e-03
    87   -6.640773583658e-15
Sym=X
Ene= 1.999746
Spin=Alpha
Occup=1
     1    2.291126816511e-03
     2    3.927286366348e-03
     3   -4.658431961344e-03
     4   -7.338931047531e-03
     5    1.733014736495e-13
     6   -1.248685157656e-02
     7   -6.524805805262e-03
     8   -1.187174241793e-02
     9    2.600100982354e-13
    10   -1.344225304633e-02
    11   -1.198749210423e-02
    12    2.729805313668e-03
    13    2.313861260299e-13
    14    1.816473132360e-02
    15   -1.830596447225e-02
    16    1.983262701936e-02
    17    1.974647477880e-14
    18   -3.847365830222e-04
    19   -6.178737970461e-15
    20   -3.901475058272e-15
    21   -3.837235504470e-03
    22    3.107170499818e-03
    23   -2.613470164166e-02
    24   -4.551321371661e-02
    25   -1.378776369650e-01
    26   -2.784941407951e-02
    27   -1.030058579817e-14
    28    1.163787260074e-01
    29   -2.075671117406e-01
    30   -4.236788292624e-02
    31   -1.452288495660e-14
    32    1.047517807726e-01
    33   -1.120542783696e-01
    34   -1.875391512045e-02
    35   -2.674379022033e-14
    36    5.974572658795e-02
    37    1.810398716092e-02
    38   -1.095151415902e-02
    39   -3.674339411244e-15
    40   -5.855268402324e-03
    41    1.282826901770e-15
    42   -2.600637895282e-17
    43   -7.012898497210e-03
    44    1.431718986541e-02
    45   -1.973069707731e-02
    46   -3.546601217373e-02
    47    5.386737359611e-02
    48   -1.350200094877e-01
    49    1.576154018203e-14
    50    9.597857391360e-02
    51    7.935146140934e-02
    52   -2.013156351665e-01
    53    2.796679465141e-14
    54    6.343435160328e-02
    55    3.422404393814e-02
    56   -1.138646939104e-01
    57    6.534309818922e-15
    58   -6.970138640972e-02
    59    2.040696721385e-02
    60   -2.401198755418e-02
    61   -5.867314767387e-17
    62   -5.186951916636e-03
    63    1.769764664097e-14
    64    8.008812555352e-15
    65   -5.579949735906e-03
    66    3.766714970969e-03
    67    1.266960604800e-01
    68    1.935766094765e-01
    69    2.686365857923e-02
    70   -6.742757257061e-03
    71   -8.225751139114e-04
    72    2.159830882075e-02
    73   -2.464206709810e-16
    74    1.336105646477e-02
    75    1.602631170105e-02
    76    3.979177305701e-03
    77    9.229975907474e-03
    78   -7.446088060303e-03
    79   -2.362208175892e-03
    80   -6.070870856635e-16
    81    1.327666907843e-01
    82    2.034789219627e-01
    83    4.211876075711e-02
    84    1.228752744273e-02
    85    1.598421124302e-02
    86    1.384859057429e-02
    87   -4.117040240195e-16
Sym=X
Ene= 1.999437
Spin=Alpha
Occup=1
     1    3.124987574496e-03
     2    5.579144203652e-03
     3   -3.673313639115e-02
     4   -7.325742547373e-03
     5    1.272870097191e-14
     6   -2.076484779776e-02
     7   -5.766542992574e-02
     8   -1.329365505749e-02
     9    2.024983754266e-14
    10   -4.713175245226e-02
    11   -3.341556195887e-02
    12    8.045066241198e-03
    13    1.909036606709e-14
    14   -3.582178241021e-02
    15    9.350627517219e-03
    16    2.364241267652e-02
    17   -1.980108318084e-15
    18   -2.853755801994e-03
    19   -7.943337458352e-16
    20   -8.881767541413e-17
    21   -3.510261776597e-04
    22    5.133191441144e-03
    23    3.894053272872e-02
    24    6.678312866562e-02
    25    5.431210376226e-02
    26    1.148376459656e-01
    27    1.681196165602e-15
    28   -1.755352452855e-01
    29    9.049876491434e-02
    30    1.709814228792e-01
    31   -3.526317436200e-15
    32   -1.281883999036e-01
    33    5.883215002756e-02
    34    1.368893895133e-01
    35   -6.756342508116e-17
    36    5.382487221312e-02
    37    2.576861337947e-02
    38    1.970976826720e-02
    39   -3.417737230245e-15
    40    5.810452341829e-03
    41   -4.251650362452e-16
    42    3.879595099139e-16
    43   -1.738772521956e-02
    44   -1.608360239912e-02
    45   -3.400691630564e-02
    46   -6.306925958358e-02
    47    6.495897427231e-02
    48   -9.457718561582e-02
    49    3.775817971256e-17
    50    1.803303990366e-01
    51    1.121413854592e-01
    52   -1.408819531111e-01
    53    4.756317713532e-15
    54    1.788222593619e-01
    55    3.174543172783e-02
    56   -9.320675816778e-02
    57   -1.043790103921e-15
    58   -2.050862566520e-02
    59    8.506770164036e-03
    60   -3.586877417516e-02
    61    6.983082254838e-15
    62   -8.194850655253e-03
    63   -4.098569656314e-16
    64    7.786965680480e-16
    65   -2.864487313470e-02
    66   -7.033257095031e-04
    67    1.285131923475e-01
    68    1.986175339800e-01
    69    3.522895088065e-02
    70   -1.906269153094e-02
    71   -4.668459087995e-04
    72    1.777624480349e-02
    73    7.155280140930e-16
    74    6.232543968016e-02
    75    1.049524496252e-01
    76    3.594693949263e-02
    77   -8.583680177530e-03
    78    3.911826648496e-03
    79   -4.458405328363e-03
    80    7.462672039150e-16
    81   -1.327770804637e-01
    82   -1.994123961808e-01
    83   -3.637979255030e-02
    84    7.683700799998e-03
    85   -1.809114826112e-02
    86   -6.430060870913e-03
    87    2.745762615977e-16
Sym=X
Ene= 1.998847
Spin=Alpha
Occup=1
     1    4.469361847682e-03
     2    7.786082700064e-03
     3   -6.149124945742e-03
     4   -1.571479238694e-02
     5    1.277521790380e-13
     6   -2.580828124186e-02
     7   -1.210474081818e-02
     8   -2.455046728605e-02
     9    1.980449593875e-13
    10   -4.585859102807e-02
    11    1.321592017492e-02
    12   -1.711819287126e-02
    13    1.707496186634e-13
    14   -5.270029085675e-02
    15    3.076063334032e-02
    16   -8.634628073015e-04
    17    1.558101062870e-14
    18   -1.702186658823e-03
    19   -5.064346656027e-15
    20   -2.603019858501e-15
    21    3.597148253913e-03
    22    1.119660770674e-03
    23   -5.777066539452e-02
    24   -9.751723437413e-02
    25    1.252657211935e-01
    26   -6.906453592140e-02
    27   -7.678921034417e-15
    28    2.515999773751e-01
    29    1.899593371759e-01
    30   -1.055939991473e-01
    31   -9.846033843620e-15
    32    9.398726348063e-02
    33    7.222593962558e-02
    34   -4.571812426357e-02
    35   -1.861355123585e-14
    36   -7.500575247596e-03
    37    7.410470767260e-03
    38    3.041310137601e-02
    39   -5.026389769523e-15
    40   -7.336986505059e-03
    41    1.915939495237e-15
    42   -2.805188649253e-16
    43    1.482075709009e-02
    44   -2.420960431000e-02
    45   -7.955731162173e-02
    46   -1.397295629114e-01
    47   -1.134540769616e-01
    48    5.016471921441e-02
    49    1.094030525055e-14
    50    3.869062524466e-01
    51   -1.596488294517e-01
    52    7.853915543131e-02
    53    2.241091685462e-14
    54    2.375185524221e-01
    55   -4.568931637995e-02
    56    4.339276418537e-02
    57    2.540905658913e-15
    58    2.071363893010e-02
    59   -1.318849264375e-03
    60   -1.140553435169e-02
    61    4.003644217919e-15
    62   -1.083936710937e-02
    63    1.435520247765e-14
    64    6.581209135721e-15
    65    9.366162061007e-03
    66   -1.973596458168e-02
    67    2.848851927181e-02
    68    3.096652307354e-02
    69   -2.114972323743e-02
    70   -4.031207457356e-03
    71   -6.316045115598e-03
    72    9.504254024380e-03
    73    2.760898733273e-16
    74   -1.002240239167e-02
    75   -2.036243031145e-02
    76   -3.093734982099e-02
    77   -2.376528950378e-02
    78    6.752397737827e-03
    79   -4.073362091416e-03
    80   -8.914217355270e-16
    81   -6.311391269049e-03
    82   -2.220227995899e-02
    83   -2.191811114419e-02
    84    2.554664047072e-02
    85    7.691202938964e-03
    86   -2.575783639889e-03
    87    5.587335975222e-16
Sym=X
Ene= 1.116370
Spin=Alpha
Occup=1
     1    3.129954332766e-02
     2    4.352436219355e-02
     3    2.444063107781e-01
     4    1.244019209449e-01
     5   -7.564141135560e-15
     6   -2.063882552623e-01
     7    2.590779997932e-01
     8    1.292515731483e-01
     9   -2.813455137233e-14
    10   -1.716351836885e-01
    11    1.247787729953e-01
    12    6.881168914975e-02
    13    2.648509038866e-14
    14   -8.515324146078e-02
    15    4.993519652226e-02
    16   -1.732610991939e-02
    17   -1.504678773497e-13
    18   -5.633810428340e-03
    19   -1.483381414788e-15
    20   -7.849875961136e-16
    21    7.275852255932e-03
    22    8.211586004871e-03
    23    1.742408946939e-02
    24    3.104834204757e-02