[Molden Format]
[Atoms] (Angs)
  F      1    9      1.15290231      0.22477664     -0.00000000
  C      2    6     -1.17935012      0.19972949     -0.00000000
  C      3    6     -0.01631886     -0.43556811      0.00000000
  H      4    1      0.11895302     -1.50789969      0.00000000
  H      5    1     -1.23082549      1.27856114     -0.00000000
  H      6    1     -2.09023450     -0.37861944      0.00000000
[GTO]
1    0
S    6    1.000000
   1.14271000E+04    1.80093000E-03 
   1.72235000E+03    1.37419000E-02 
   3.95746000E+02    6.81334000E-02 
   1.15139000E+02    2.33325000E-01 
   3.36026000E+01    5.89086000E-01 
   4.91901000E+00    2.99505000E-01 
SP   3    1.000000
   5.54441000E+01    1.14536000E-01   3.54609000E-02 
   1.26323000E+01    9.20512000E-01   2.37451000E-01 
   3.71756000E+00   -3.37804000E-03   8.20458000E-01 
SP   1    1.000000
   1.16545000E+00    1.00000000E+00   1.00000000E+00 
SP   1    1.000000
   3.21892000E-01    1.00000000E+00   1.00000000E+00 
SP   1    1.000000
   1.07600000E-01    1.00000000E+00   1.00000000E+00 
D    1    1.000000
   1.75000000E+00    1.00000000E+00 

2    0
S    6    1.000000
   4.56324000E+03    1.96665000E-03 
   6.82024000E+02    1.52306000E-02 
   1.54973000E+02    7.61269000E-02 
   4.44553000E+01    2.60801000E-01 
   1.30290000E+01    6.16462000E-01 
   1.82773000E+00    2.21006000E-01 
SP   3    1.000000
   2.09642000E+01    1.14660000E-01   4.02487000E-02 
   4.80331000E+00    9.19999000E-01   2.37594000E-01 
   1.45933000E+00   -3.03068000E-03   8.15854000E-01 
SP   1    1.000000
   4.83456000E-01    1.00000000E+00   1.00000000E+00 
SP   1    1.000000
   1.45585000E-01    1.00000000E+00   1.00000000E+00 
SP   1    1.000000
   4.38000000E-02    1.00000000E+00   1.00000000E+00 
D    1    1.000000
   6.26000000E-01    1.00000000E+00 

3    0
S    6    1.000000
   4.56324000E+03    1.96665000E-03 
   6.82024000E+02    1.52306000E-02 
   1.54973000E+02    7.61269000E-02 
   4.44553000E+01    2.60801000E-01 
   1.30290000E+01    6.16462000E-01 
   1.82773000E+00    2.21006000E-01 
SP   3    1.000000
   2.09642000E+01    1.14660000E-01   4.02487000E-02 
   4.80331000E+00    9.19999000E-01   2.37594000E-01 
   1.45933000E+00   -3.03068000E-03   8.15854000E-01 
SP   1    1.000000
   4.83456000E-01    1.00000000E+00   1.00000000E+00 
SP   1    1.000000
   1.45585000E-01    1.00000000E+00   1.00000000E+00 
SP   1    1.000000
   4.38000000E-02    1.00000000E+00   1.00000000E+00 
D    1    1.000000
   6.26000000E-01    1.00000000E+00 

4    0
S    3    1.000000
   3.38650000E+01    2.54938000E-02 
   5.09479000E+00    1.90373000E-01 
   1.15879000E+00    8.52161000E-01 
S    1    1.000000
   3.25840000E-01    1.00000000E+00 
S    1    1.000000
   1.02741000E-01    1.00000000E+00 
S    1    1.000000
   3.60000000E-02    1.00000000E+00 
P    1    1.000000
   7.50000000E-01    1.00000000E+00 

5    0
S    3    1.000000
   3.38650000E+01    2.54938000E-02 
   5.09479000E+00    1.90373000E-01 
   1.15879000E+00    8.52161000E-01 
S    1    1.000000
   3.25840000E-01    1.00000000E+00 
S    1    1.000000
   1.02741000E-01    1.00000000E+00 
S    1    1.000000
   3.60000000E-02    1.00000000E+00 
P    1    1.000000
   7.50000000E-01    1.00000000E+00 

6    0
S    3    1.000000
   3.38650000E+01    2.54938000E-02 
   5.09479000E+00    1.90373000E-01 
   1.15879000E+00    8.52161000E-01 
S    1    1.000000
   3.25840000E-01    1.00000000E+00 
S    1    1.000000
   1.02741000E-01    1.00000000E+00 
S    1    1.000000
   3.60000000E-02    1.00000000E+00 
P    1    1.000000
   7.50000000E-01    1.00000000E+00 

[MO]
Sym=X
Ene= 2.005932
Spin=Alpha
Occup=1
     1    2.372666694615e-02
     2    3.472084708081e-02
     3    2.652004003610e-01
     4    1.908601331017e-01
     5   -3.231101329945e-13
     6   -1.161593768117e-01
     7    3.137507933780e-01
     8    2.248031270954e-01
     9   -3.809298120689e-13
    10    1.218636526876e-03
    11    1.517477864181e-01
    12    1.176025868256e-01
    13   -2.245160648810e-13
    14    2.751604424259e-02
    15   -4.277720202686e-03
    16   -2.594366511826e-04
    17   -3.261119049106e-14
    18    9.026785385313e-03
    19    8.974976062926e-15
    20    4.838223271562e-15
    21   -7.638886516554e-03
    22   -1.340414617809e-02
    23   -1.429558586750e-02
    24   -2.308643434234e-02
    25   -1.671670300213e-02
    26   -7.741507840955e-02
    27    1.347739918420e-14
    28    5.466048282937e-02
    29   -4.381841590414e-02
    30   -1.092931184831e-01
    31    1.276591601216e-14
    32    3.617239308503e-02
    33   -2.087593657291e-02
    34   -7.694953338268e-02
    35    8.359787620202e-14
    36   -4.972130335121e-02
    37   -2.918428108462e-02
    38   -3.137706155930e-02
    39   -3.096353856979e-14
    40   -2.171093379350e-03
    41    1.676727597726e-15
    42    7.745324871018e-16
    43   -5.024315023413e-03
    44    2.681597907077e-03
    45    1.822185507525e-02
    46    2.707495624502e-02
    47   -8.939830284800e-02
    48   -5.486472034774e-02
    49   -5.808398497751e-15
    50   -5.425511674125e-02
    51   -1.715120688987e-01
    52   -1.010007014151e-01
    53   -2.255744633592e-14
    54   -1.389954353965e-02
    55   -2.356491656046e-02
    56   -2.044350060609e-02
    57    6.791750808703e-15
    58    3.695365803355e-03
    59   -3.545152938414e-03
    60    4.541022903072e-02
    61    2.498688203822e-14
    62    1.482579394256e-02
    63   -2.067144227674e-14
    64   -1.019689543046e-14
    65   -1.831504816710e-02
    66   -4.144753764239e-02
    67    2.351507638016e-02
    68    2.854803811430e-02
    69    2.804616053003e-02
    70    3.713816287638e-02
    71   -4.170892726696e-03
    72   -2.607348541216e-03
    73    1.713978861203e-15
    74   -4.806079682133e-02
    75   -8.069722148489e-02
    76    5.933645893453e-04
    77    1.904700169600e-02
    78   -1.544801550512e-03
    79    1.013920726570e-02
    80   -8.355958548372e-16
    81    5.550384289429e-02
    82    7.637135944288e-02
    83    3.790390712435e-03
    84   -2.222241366470e-02
    85    7.265855802665e-03
    86    2.556188388095e-03
    87   -2.639991729628e-15
Sym=X
Ene= 2.003463
Spin=Alpha
Occup=1
     1   -3.370647869593e-14
     2   -5.279332676186e-14
     3    2.574439834902e-13
     4    1.082765535335e-13
     5    4.132380264824e-01
     6    1.898248102242e-13
     7    3.038072656847e-13
     8    1.365594250861e-13
     9    4.806854567784e-01
    10    1.526224449067e-13
    11    1.356152622479e-13
    12    2.481098564358e-14
    13    3.034498448986e-01
    14    2.658416160431e-13
    15   -1.463745787659e-13
    16   -1.286976146087e-14
    17    1.240327009101e-02
    18    7.983961375902e-15
    19   -1.098805201269e-02
    20   -6.305006742354e-03
    21   -8.870678605055e-15
    22   -9.725179172558e-15
    23   -5.412224560128e-16
    24   -8.277916784645e-15
    25   -2.918399977520e-14
    26   -6.064031816027e-14
    27   -7.692359750387e-03
    28    4.010489189940e-14
    29   -5.117087455023e-14
    30   -8.466361405313e-14
    31   -1.108931482794e-02
    32   -3.547220813633e-14
    33    1.040734331516e-14
    34   -1.336260657184e-14
    35   -2.007024890603e-02
    36    2.226487965783e-12
    37   -2.009517682091e-13
    38   -1.209379435643e-12
    39   -9.719493350768e-03
    40    1.399028484863e-14
    41    2.208841638950e-03
    42   -1.520749373757e-03
    43   -6.203032074474e-15
    44   -1.380920751670e-14
    45    1.045601092535e-13
    46    1.075941825645e-13
    47   -6.281015962814e-14
    48   -3.543253548655e-14
    49    2.340412143667e-02
    50   -1.035650971059e-13
    51   -1.273982691559e-13
    52   -7.611023847739e-14
    53    4.292106010394e-02
    54   -2.012362203396e-13
    55   -1.450177688850e-13
    56   -7.708967021476e-14
    57    6.062488241004e-03
    58   -2.262690122383e-12
    59    6.302631326889e-13
    60    2.080381398964e-13
    61    5.723292267732e-03
    62    2.782909888211e-14
    63    2.324600351027e-02
    64    1.114847542940e-02
    65    3.823204829620e-15
    66   -3.715881221384e-14
    67   -2.643377062579e-15
    68    6.693693302999e-15
    69    6.387882657691e-14
    70    3.192029809840e-13
    71    2.701271898070e-15
    72   -1.049661524376e-14
    73    1.199425818599e-03
    74   -4.175585104735e-14
    75   -7.306327817551e-14
    76    8.576061571928e-14
    77    8.206132591071e-13
    78   -1.552111391175e-14
    79    4.307876199817e-15
    80   -2.861535312824e-04
    81    5.059020822870e-14
    82    1.760526261835e-13
    83   -2.706011374845e-13
    84   -1.097602012844e-12
    85    5.129458916191e-15
    86    2.466366038068e-15
    87   -1.231755672429e-03
Sym=X
Ene= 2.002461
Spin=Alpha
Occup=1
     1   -5.919565944755e-03
     2   -8.691873046326e-03
     3   -2.144251013059e-01
     4    3.498747761669e-01
     5    6.204255336894e-14
     6    2.841018577216e-02
     7   -2.495057100952e-01
     8    4.054161408865e-01
     9    6.741300127705e-14
    10    1.008698291659e-02
    11   -1.583731151724e-01
    12    2.633090484079e-01
    13    6.378783504318e-14
    14    4.323689052153e-03
    15   -1.936506278619e-03
    16    4.093570410461e-03
    17   -1.378380915824e-14
    18   -9.503297719131e-04
    19   -1.457473529322e-15
    20   -1.265596243012e-16
    21    9.293265089582e-03
    22   -4.050990794641e-03
    23    1.809624799334e-02
    24    2.936863525741e-02
    25    4.784298750442e-04
    26    1.170573909978e-02
    27   -8.837923331119e-15
    28   -7.261681791023e-02
    29    8.370771452313e-03
    30    8.340624723522e-03
    31   -8.168748616985e-15
    32   -7.521689717621e-02
    33    4.578207505802e-03
    34    2.758789119668e-02
    35   -2.986813799067e-14
    36   -1.884524377709e-01
    37   -3.000819383579e-02
    38    2.889111483227e-02
    39    2.162692442915e-14
    40    1.035624712900e-03
    41    7.717700289653e-16
    42   -1.900336124996e-15
    43   -2.401652187057e-03
    44   -8.029960603875e-03
    45   -9.463055212574e-03
    46   -1.516152745663e-02
    47    1.462625300315e-02
    48   -1.918171517820e-02
    49    1.250814117381e-16
    50    3.799319755504e-02
    51    3.406644584518e-02
    52   -2.951120399796e-02
    53    2.680572553702e-15
    54    2.767991771291e-02
    55   -5.350860159471e-03
    56   -2.739578568524e-02
    57   -4.411221268959e-15
    58    1.373637164486e-01
    59   -6.638817641611e-02
    60    5.894989393242e-02
    61   -9.815867462706e-15
    62   -8.908653721011e-04
    63    1.709810585347e-16
    64   -2.632233577745e-15
    65   -2.928621477756e-02
    66    1.719185788943e-02
    67    3.566795320643e-02
    68    6.012820507632e-02
    69    3.591570422547e-02
    70    5.015539337080e-02
    71    3.275068133856e-03
    72    3.548384604356e-03
    73    2.369270718678e-15
    74   -6.229853717032e-03
    75   -5.104926543904e-03
    76   -4.356091281432e-04
    77   -1.303205008509e-02
    78    2.505720337247e-03
    79    1.191630876115e-03
    80   -1.559061634798e-15
    81   -1.980725693628e-02
    82   -2.118059380083e-02
    83    1.482557929039e-02
    84    1.918259656439e-03
    85   -1.972379126976e-03
    86    1.876997396524e-04
    87    2.425430957536e-16
Sym=X
Ene= 2.000218
Spin=Alpha
Occup=1
     1    3.225535364529e-03
     2    4.785725551612e-03
     3    1.812935882159e-02
     4   -2.344099270655e-02
     5   -2.736752634884e-16
     6   -1.713538646670e-02
     7    1.980866380632e-02
     8   -2.609068088904e-02
     9    1.634059754605e-15
    10   -1.186525747794e-02
    11    2.033462436293e-02
    12   -1.907051385994e-02
    13   -1.371384383088e-14
    14   -2.509547226619e-02
    15    1.929516309349e-02
    16   -1.410917020760e-02
    17   -1.500235094795e-14
    18    1.440022164192e-04
    19   -3.968559089948e-15
    20   -1.179768094677e-15
    21    3.727379732957e-03
    22   -1.666214361932e-03
    23    4.730435333618e-02
    24    8.061942778108e-02
    25    1.429447833015e-01
    26   -9.058307424184e-02
    27    5.796952300301e-14
    28   -2.062542269492e-01
    29    2.165258919115e-01
    30   -1.391909102782e-01
    31    9.926946615712e-14
    32   -2.170788293053e-01
    33    8.979900827818e-02
    34   -7.808492373889e-02
    35    8.683351215701e-14
    36   -9.620228509297e-03
    37   -6.374760603634e-03
    38    1.038876534886e-02
    39    1.450198077607e-14
    40    8.947989821966e-03
    41    1.119226399767e-14
    42   -5.335623072127e-15
    43    2.082168859739e-02
    44   -2.037313279483e-02
    45   -2.069662891827e-02
    46   -3.467905447699e-02
    47   -7.632229042830e-02
    48    8.301164374748e-02
    49    6.602945381670e-14
    50    9.899351373356e-02
    51   -1.059885938047e-01
    52    1.256196225095e-01
    53    1.133986093381e-13
    54    8.376722105778e-02
    55   -5.629227276345e-02
    56    9.098942903440e-02
    57    9.353479206153e-14
    58    2.617280716018e-02
    59   -7.356976166496e-03
    60    1.337155649012e-02
    61    1.700066105463e-15
    62    7.642558788373e-04
    63   -5.776381889450e-15
    64    9.211690117990e-15
    65    4.872823032350e-03
    66   -6.158396310488e-04
    67   -5.341831439722e-02
    68   -8.592703952759e-02
    69   -2.029320265900e-02
    70    6.069018298295e-03
    71   -2.431395340558e-03
    72   -7.224697468516e-03
    73    4.821148950712e-15
    74   -1.298974336829e-01
    75   -1.927052828659e-01
    76   -3.821388423966e-02
    77   -2.322275011332e-02
    78    5.863989490103e-03
    79    2.024738423337e-02
    80    5.043070003896e-15
    81   -1.029755081605e-01
    82   -1.528385799990e-01
    83   -2.484189485507e-02
    84   -3.190966574054e-03
    85   -1.005165059186e-02
    86   -1.668692563543e-02
    87    4.138798353564e-15
Sym=X
Ene= 2.000081
Spin=Alpha
Occup=1
     1   -6.678166983117e-02
     2   -9.875758355127e-02
     3    5.121363654338e-02
     4    2.081875294803e-02
     5   -4.722454786376e-14
     6    3.398082019831e-01
     7    5.203557644233e-02
     8    2.120240081923e-02
     9   -5.230432750082e-14
    10    1.369740132903e-01
    11    4.786849812602e-02
    12    1.678797912389e-02
    13   -3.880772127657e-14
    14   -4.421726491993e-02
    15    2.548152254213e-02
    16    2.821914081624e-03
    17   -1.695453527487e-14
    18   -1.919294769654e-03
    19   -1.272777403910e-15
    20   -5.621943187311e-16
    21    3.705391332192e-03
    22    4.790034851193e-04
    23   -6.672239539243e-02
    24   -1.096005705217e-01
    25    9.474986928604e-02
    26   -5.346989896207e-03
    27    4.256132170039e-14
    28    2.737949677980e-01
    29    1.452909651308e-01
    30   -8.507007528278e-03
    31    6.984171837190e-14
    32    1.257946656874e-01
    33    5.743635190079e-02
    34    1.334490427894e-02
    35    6.812047975394e-14
    36   -2.050485148621e-02
    37    1.840721089472e-03
    38    1.490282750306e-02
    39    1.549748541727e-14
    40   -1.009027347984e-02
    41    9.544804627337e-15
    42   -3.308124668971e-15
    43    6.013278446745e-03
    44   -1.921487849083e-02
    45   -5.196798914683e-02
    46   -1.040856144394e-01
    47   -8.374806264731e-02
    48    4.145069497219e-02
    49    4.646055327552e-14
    50    3.189966690070e-01
    51   -1.142016965326e-01
    52    6.965886747420e-02
    53    8.185927832074e-14
    54    1.849373087208e-01
    55   -3.096153473966e-02
    56    3.139820902106e-02
    57    7.551047964027e-14
    58    1.447795509771e-02
    59    2.404479581934e-03
    60   -2.423310744195e-03
    61   -1.598621204106e-15
    62   -1.142220457600e-02
    63   -7.003637643740e-15
    64    5.442953640600e-15
    65   -7.668825588884e-04
    66   -1.623381548055e-02
    67    2.763407088209e-02
    68    3.629758927504e-02
    69   -2.747536680422e-03
    70    1.154937362521e-03
    71   -4.594352500199e-03
    72    7.319205133049e-03
    73    3.176932778643e-15
    74    4.999652496761e-02
    75    7.108329732096e-02
    76   -3.171117304428e-03
    77   -3.390858233139e-03
    78    6.108634764251e-03
    79   -1.252051348512e-02
    80    2.615477383923e-15
    81   -8.272025353008e-03
    82   -2.346470536340e-02
    83   -2.227181805339e-02
    84    1.524035827743e-02
    85    5.619214401093e-03
    86    6.586026581347e-04
    87    3.839457811427e-15
Sym=X
Ene= 1.999999
Spin=Alpha
Occup=1
     1    2.708925545082e-04
     2    4.052144509538e-04
     3   -1.034194262247e-03
     4   -1.439779133141e-03
     5   -9.268010478547e-15
     6   -1.477545468048e-03
     7   -1.220910648123e-03
     8   -1.703043318002e-03
     9   -9.095714598833e-15
    10   -1.040788908503e-03
    11   -4.911756657771e-04
    12   -8.186650572024e-04
    13   -5.913062273742e-15
    14   -3.795245797720e-04
    15    6.476838255581e-05
    16    7.228007520634e-05
    17   -4.942559614519e-15
    18   -4.403983750424e-05
    19   -8.252589297584e-16
    20   -7.161947555960e-16
    21   -4.329875738490e-06
    22    9.705191898839e-05
    23    5.632138106814e-01
    24    4.666943343597e-01
    25    4.281857887259e-04
    26   -1.787380212762e-03
    27    1.378491901852e-14
    28    3.585698796919e-03
    29    6.574552079537e-04
    30   -3.157664742762e-03
    31    2.128515086472e-14
    32   -1.639058105157e-03
    33   -7.196037256869e-05
    34   -1.570596826642e-03
    35    2.376942710765e-14
    36    9.907905168997e-04
    37    2.532939752663e-04
    38    3.504564890665e-04
    39   -2.411650853441e-15
    40   -4.327711042908e-04
    41    3.140537978049e-15
    42   -2.852911785198e-15
    43    3.982474982564e-04
    44   -3.439144985321e-04
    45   -1.735021164514e-02
    46   -1.527826335461e-02
    47   -4.490043188791e-04
    48   -7.656602537763e-04
    49    1.460481372889e-14
    50    4.696150181778e-03
    51    4.061716200221e-04
    52   -1.261665202864e-03
    53    2.408287712399e-14
    54    2.559575551762e-03
    55    7.451449403130e-06
    56   -6.344916295650e-04
    57    1.653858307389e-14
    58   -1.272846401272e-05
    59    7.540489996099e-05
    60   -3.631316508595e-04
    61    5.268990879998e-15
    62   -4.205137239721e-06
    63   -1.206164574989e-15
    64    1.776864345755e-15
    65    1.669159836463e-04
    66    7.745299770736e-05
    67    1.375539699067e-03
    68    1.942648675150e-03
    69   -2.806170818934e-04
    70   -2.057054422115e-04
    71   -7.288938404677e-05
    72    3.140653074706e-04
    73    9.394057011409e-16
    74   -1.331900926891e-03
    75   -2.709614069830e-03
    76   -4.045548413891e-04
    77   -6.860809384849e-04
    78    1.818444347319e-07
    79    2.477621009986e-04
    80    9.641932996581e-16
    81    8.393610114381e-04
    82    5.176314766827e-04
    83    5.449439579881e-04
    84    1.492212603425e-04
    85    7.604782946309e-05
    86   -7.524858341494e-05
    87   -4.459881453062e-16
Sym=X
Ene= 1.999994
Spin=Alpha
Occup=1
     1   -1.007941392875e-04
     2   -1.794927079717e-04
     3    2.196730078136e-03
     4    6.285591482124e-04
     5   -4.922322825439e-14
     6    7.573553820677e-04
     7    2.161398557876e-03
     8    4.655392948798e-04
     9   -5.877014697996e-14
    10    1.701410385580e-03
    11    7.653773188855e-04
    12    1.805858684852e-04
    13   -3.221458028069e-14
    14    3.871860939545e-04
    15   -5.253245169093e-04
    16    1.894485172216e-04
    17    2.640670993556e-15
    18   -2.689520841344e-05
    19    2.244404538885e-15
    20    9.799317554710e-16
    21   -6.904123436449e-05
    22    1.374361538792e-04
    23    2.040972564127e-02
    24    2.030067604351e-02
    25   -1.852784216683e-03
    26    5.245820283332e-03
    27   -2.754568991979e-14
    28   -1.710578818227e-02
    29   -3.960135852748e-03
    30    8.854741495340e-03
    31   -4.410445494599e-14
    32   -8.288079393632e-03
    33    1.963103259714e-04
    34    3.964206416121e-03
    35   -4.093113709825e-14
    36    4.514858771209e-04
    37   -6.942882971700e-04
    38   -1.416865958270e-03
    39   -3.431140147903e-16
    40    8.167502720440e-04
    41   -6.177944529362e-15
    42    3.997384291126e-15
    43   -9.794543681129e-04
    44    8.758477851520e-04
    45    5.665994908349e-01
    46    4.727504080826e-01
    47    8.092725517275e-03
    48   -3.292147091400e-04
    49   -3.177355670722e-14
    50   -1.446661260254e-02
    51    3.735602044804e-03
    52   -3.795798758569e-03
    53   -6.065941581722e-14
    54   -9.978860757964e-03
    55    3.059102645241e-03
    56   -9.979659224387e-04
    57   -3.970644429428e-14
    58    1.029870782198e-03
    59   -2.028313224241e-04
    60    7.914824121432e-04
    61   -4.478744982981e-15
    62    1.901536249165e-04
    63   -1.484486647652e-15
    64   -4.635323122051e-15
    65   -5.315787664679e-04
    66   -3.430287129102e-04
    67   -1.275226740958e-03
    68   -2.194306342229e-03
    69    1.683201325163e-03
    70   -2.650661041136e-04
    71    2.544935552337e-04
    72   -6.930343197970e-04
    73   -1.857870249995e-15
    74    1.054479768169e-03
    75    1.987791491088e-03
    76    2.313296644119e-03
    77    8.372117100443e-04
    78   -7.074307701725e-05
    79    2.903566333083e-04
    80   -2.527223123327e-15
    81   -4.499683310973e-03
    82   -6.300057684437e-03
    83   -5.754472822794e-04
    84   -2.065307340242e-03
    85   -9.491898752464e-04
    86   -3.675836098247e-04
    87   -1.280798058186e-15
Sym=X
Ene= 1.999845
Spin=Alpha
Occup=1
     1    1.799671820127e-02
     2    2.693620255830e-02
     3   -7.088192645531e-02
     4   -7.892007013596e-02
     5    7.162528074211e-14
     6   -9.980130524513e-02
     7   -8.290251908272e-02
     8   -9.400763445193e-02
     9    7.740119875157e-14
    10   -7.105949456265e-02
    11   -3.854933721185e-02
    12   -4.277877540499e-02
    13    5.773603273274e-14
    14   -2.335315467988e-02
    15    4.963333650718e-04
    16    2.164101443277e-02
    17    3.228136229694e-14
    18   -3.212360705144e-03
    19    4.438693700228e-15
    20    2.463154342234e-15
    21   -2.671018146761e-03
    22    8.667405417841e-03
    23    1.122295083871e-02
    24    2.507102032452e-02
    25   -3.461286342590e-02
    26   -8.015445032819e-02
    27   -1.073818777548e-13
    28   -8.111341207743e-02
    29   -4.596702083184e-02
    30   -1.249283951167e-01
    31   -1.798821955970e-13
    32   -5.607182505440e-02
    33   -3.420482637584e-02
    34   -6.370404406122e-02
    35   -1.731790228591e-13
    36    8.711773585824e-02
    37    2.978306398118e-02
    38    1.445555467729e-02
    39   -1.904288079326e-14
    40    3.292677875962e-03
    41   -2.062803030343e-14
    42    1.121251393453e-14
    43    5.398211282793e-03
    44   -2.976074783072e-03
    45   -5.292562003871e-02
    46   -9.821317303812e-02
    47    3.827547039598e-02
    48   -1.233196132848e-01
    49   -1.203620221905e-13
    50    2.871808721518e-01
    51    7.722835772897e-02
    52   -1.817492520828e-01
    53   -2.052248259389e-13
    54    1.986388949546e-01
    55    3.557868896758e-02
    56   -9.964205903298e-02
    57   -1.721984851164e-13
    58   -5.895752524283e-02
    59    2.091197736483e-02
    60   -4.145727834160e-02
    61   -7.625244442114e-15
    62   -1.160113214718e-02
    63    1.451393130021e-14
    64   -1.420397132225e-14
    65    6.079101449656e-03
    66    4.171725385197e-03
    67    1.457874361100e-01
    68    2.121811960814e-01
    69   -2.209414278007e-03
    70   -1.652143943777e-02
    71   -1.969367483751e-03
    72    2.963753561200e-02
    73   -9.391076486551e-15
    74   -7.774458267803e-02
    75   -1.149238170872e-01
    76   -2.223386862547e-02
    77   -2.217509667173e-02
    78   -3.494057118840e-03
    79    1.246066708081e-02
    80   -7.991544926865e-15
    81    3.882860625138e-02
    82    6.104115680626e-02
    83    1.954154744941e-02
    84    2.414993626713e-02
    85    6.194125621038e-03
    86    9.506017235764e-04
    87   -6.964499988624e-15
Sym=X
Ene= 1.999679
Spin=Alpha
Occup=1
     1   -6.422814229120e-02
     2   -9.522716978553e-02
     3    1.599899617251e-01
     4    3.147448756416e-02
     5   -7.297428443007e-15
     6    3.319643974824e-01
     7    1.830835793683e-01
     8    3.320826329907e-02
     9   -1.440450795958e-14
    10    1.568172837114e-01
    11    1.048051030879e-01
    12    2.060489842004e-02
    13    1.482805081344e-14
    14   -6.733099953330e-04
    15   -2.291433510521e-03
    16    1.643251784300e-02
    17    4.306760941582e-14
    18    1.649112083157e-03
    19    1.044500392089e-14
    20    5.018612021112e-15
    21   -7.186172831076e-03
    22   -3.489867600453e-04
    23    5.587991523010e-02
    24    9.177769421872e-02
    25    1.642371277803e-02
    26    9.892831025146e-02
    27   -1.659364912470e-13
    28   -2.326285270474e-01
    29    2.233318334502e-02
    30    1.536623425358e-01
    31   -2.967744658722e-13
    32   -1.116888793108e-01
    33    4.384088412256e-02
    34    9.322289003621e-02
    35   -2.258927714866e-13
    36    5.522814840228e-02
    37    5.583790502931e-03
    38   -1.970980687838e-02
    39   -3.191429551602e-14
    40    7.856135773611e-03
    41   -3.139670826521e-14
    42    1.724183198496e-14
    43   -2.072963944873e-02
    44   -2.398666884826e-03
    45   -8.190875301278e-03
    46    8.659784821655e-04
    47    5.626395116310e-02
    48   -9.896305785298e-02
    49   -1.872607211879e-13
    50   -4.219033277743e-02
    51    7.742209441017e-02
    52   -1.587572436771e-01
    53   -3.256446066073e-13
    54    1.678926732243e-02
    55    4.209861259525e-02
    56   -8.603315672286e-02
    57   -2.559201027425e-13
    58   -4.147947189161e-02
    59    2.090370324248e-02
    60   -9.182335339760e-03
    61   -2.090095577423e-14
    62    1.143012268160e-03
    63    1.600779298542e-14
    64   -2.792902091793e-14
    65   -2.127357072569e-02
    66   -1.329742079690e-02
    67    7.981395267663e-02
    68    1.218898130360e-01
    69    3.416002072149e-02
    70   -4.087338658420e-03
    71   -2.328070204262e-04
    72    7.029229527780e-03
    73   -1.193865985038e-14
    74    3.938865282517e-02
    75    6.833317565214e-02
    76    4.779343248529e-02
    77    1.612889233036e-02
    78    1.621760010883e-03
    79    1.319669682627e-03
    80   -1.426842310967e-14
    81   -1.086343440964e-01
    82   -1.645294214279e-01
    83   -2.983963449816e-02
    84   -2.110460824526e-02
    85   -1.877892077237e-02
    86   -6.245932266898e-03
    87   -1.625349564527e-14
Sym=X
Ene= 1.998764
Spin=Alpha
Occup=1
     1    1.113900275507e-01
     2    1.650634365462e-01
     3    3.049844671356e-02
     4    2.709025185991e-03
     5   -1.674257102010e-13
     6   -5.838951266244e-01
     7    4.050068951312e-02
     8    5.732731247009e-03
     9   -1.664165852948e-13
    10   -2.624279892585e-01
    11    1.624192009384e-02
    12   -1.931725991752e-03
    13   -1.983197730320e-13
    14   -3.637819112579e-02
    15    2.089911194049e-02
    16    1.300314539006e-02
    17   -3.055834519795e-13
    18    6.796063220279e-04
    19   -5.610440199643e-14
    20   -2.691782635259e-14
    21   -1.291798291541e-03
    22   -1.428801545094e-03
    23   -1.131962245840e-02
    24   -1.842327408112e-02
    25    8.430256099787e-02
    26    8.995175044872e-02
    27    9.963908547095e-13
    28    4.198603785467e-02
    29    1.236438730364e-01
    30    1.397709692148e-01
    31    1.691075026158e-12
    32    2.487356220496e-02
    33    8.107227596948e-02
    34    1.013565047673e-01
    35    1.517884666058e-12
    36    1.948340104345e-02
    37    1.524781955728e-02
    38    1.784442000013e-02
    39    1.177806031692e-13
    40   -3.039291608234e-03
    41    1.861938696376e-13
    42   -9.762365465206e-14
    43   -1.324145779658e-02
    44   -1.379170509657e-02
    45   -2.762069010098e-02
    46   -4.661926407526e-02
    47   -2.859025146205e-02
    48   -2.300741405164e-02
    49    1.107111574409e-12
    50    1.309861130465e-01
    51   -4.562287790522e-02
    52   -3.689914178198e-02
    53    1.918400577919e-12
    54    1.322325040685e-01
    55    1.566765812166e-02
    56   -2.065463325766e-02
    57    1.530248712481e-12
    58   -6.750687636350e-03
    59    3.131985364972e-03
    60   -2.566988171237e-02
    61    1.715656941168e-13
    62    1.026029756099e-03
    63   -1.193557664309e-13
    64    1.487450658152e-13
    65   -2.550252507941e-02
    66   -3.249234062342e-02
    67    5.035388047559e-02
    68    7.543010313612e-02
    69    1.336688548441e-02
    70   -1.442582038371e-02
    71   -1.841062720280e-03
    72    4.392537720036e-03
    73    8.147468611480e-14
    74    8.394813727052e-02
    75    1.276486385848e-01
    76    2.707336865197e-02
    77   -1.730535555737e-03
    78    5.972070063618e-03
    79   -1.031244026449e-02
    80    8.193535155634e-14
    81   -9.263840314758e-02
    82   -1.474411061332e-01
    83   -3.150140266683e-02
    84    7.250199271223e-03
    85   -1.162010995542e-02
    86   -3.947012959886e-03
    87    8.057937617596e-14
Sym=X
Ene= 1.998558
Spin=Alpha
Occup=1
     1    7.129669089587e-13
     2    1.058565559372e-12
     3    1.164853838403e-13
     4    3.716453052323e-14
     5    5.028959433748e-02
     6   -3.736418796364e-12
     7    1.676285659395e-13
     8    6.488450386090e-14
     9    5.424478490970e-02
    10   -1.665544521418e-12
    11    5.079162657760e-14
    12   -1.024179315531e-14
    13    4.961197625938e-02
    14   -1.811055070903e-13
    15    9.979857345482e-14
    16    5.188189017707e-14
    17    4.842521299518e-02
    18    5.033511638693e-15
    19    8.657153502163e-03
    20    4.101971292822e-03
    21    2.469982725318e-15
    22   -1.565093235522e-14
    23   -9.385859048287e-14
    24   -1.893517474245e-13