[Molden Format]
[Atoms] (Angs)
  F      1    9      1.15290231      0.22477664     -0.00000000
  C      2    6     -1.17935012      0.19972949     -0.00000000
  C      3    6     -0.01631886     -0.43556811      0.00000000
  H      4    1      0.11895302     -1.50789969      0.00000000
  H      5    1     -1.23082549      1.27856114     -0.00000000
  H      6    1     -2.09023450     -0.37861944      0.00000000
[GTO]
1    0
S    6    1.000000
   1.14271000E+04    1.80093000E-03 
   1.72235000E+03    1.37419000E-02 
   3.95746000E+02    6.81334000E-02 
   1.15139000E+02    2.33325000E-01 
   3.36026000E+01    5.89086000E-01 
   4.91901000E+00    2.99505000E-01 
SP   3    1.000000
   5.54441000E+01    1.14536000E-01   3.54609000E-02 
   1.26323000E+01    9.20512000E-01   2.37451000E-01 
   3.71756000E+00   -3.37804000E-03   8.20458000E-01 
SP   1    1.000000
   1.16545000E+00    1.00000000E+00   1.00000000E+00 
SP   1    1.000000
   3.21892000E-01    1.00000000E+00   1.00000000E+00 
SP   1    1.000000
   1.07600000E-01    1.00000000E+00   1.00000000E+00 
D    1    1.000000
   1.75000000E+00    1.00000000E+00 

2    0
S    6    1.000000
   4.56324000E+03    1.96665000E-03 
   6.82024000E+02    1.52306000E-02 
   1.54973000E+02    7.61269000E-02 
   4.44553000E+01    2.60801000E-01 
   1.30290000E+01    6.16462000E-01 
   1.82773000E+00    2.21006000E-01 
SP   3    1.000000
   2.09642000E+01    1.14660000E-01   4.02487000E-02 
   4.80331000E+00    9.19999000E-01   2.37594000E-01 
   1.45933000E+00   -3.03068000E-03   8.15854000E-01 
SP   1    1.000000
   4.83456000E-01    1.00000000E+00   1.00000000E+00 
SP   1    1.000000
   1.45585000E-01    1.00000000E+00   1.00000000E+00 
SP   1    1.000000
   4.38000000E-02    1.00000000E+00   1.00000000E+00 
D    1    1.000000
   6.26000000E-01    1.00000000E+00 

3    0
S    6    1.000000
   4.56324000E+03    1.96665000E-03 
   6.82024000E+02    1.52306000E-02 
   1.54973000E+02    7.61269000E-02 
   4.44553000E+01    2.60801000E-01 
   1.30290000E+01    6.16462000E-01 
   1.82773000E+00    2.21006000E-01 
SP   3    1.000000
   2.09642000E+01    1.14660000E-01   4.02487000E-02 
   4.80331000E+00    9.19999000E-01   2.37594000E-01 
   1.45933000E+00   -3.03068000E-03   8.15854000E-01 
SP   1    1.000000
   4.83456000E-01    1.00000000E+00   1.00000000E+00 
SP   1    1.000000
   1.45585000E-01    1.00000000E+00   1.00000000E+00 
SP   1    1.000000
   4.38000000E-02    1.00000000E+00   1.00000000E+00 
D    1    1.000000
   6.26000000E-01    1.00000000E+00 

4    0
S    3    1.000000
   3.38650000E+01    2.54938000E-02 
   5.09479000E+00    1.90373000E-01 
   1.15879000E+00    8.52161000E-01 
S    1    1.000000
   3.25840000E-01    1.00000000E+00 
S    1    1.000000
   1.02741000E-01    1.00000000E+00 
S    1    1.000000
   3.60000000E-02    1.00000000E+00 
P    1    1.000000
   7.50000000E-01    1.00000000E+00 

5    0
S    3    1.000000
   3.38650000E+01    2.54938000E-02 
   5.09479000E+00    1.90373000E-01 
   1.15879000E+00    8.52161000E-01 
S    1    1.000000
   3.25840000E-01    1.00000000E+00 
S    1    1.000000
   1.02741000E-01    1.00000000E+00 
S    1    1.000000
   3.60000000E-02    1.00000000E+00 
P    1    1.000000
   7.50000000E-01    1.00000000E+00 

6    0
S    3    1.000000
   3.38650000E+01    2.54938000E-02 
   5.09479000E+00    1.90373000E-01 
   1.15879000E+00    8.52161000E-01 
S    1    1.000000
   3.25840000E-01    1.00000000E+00 
S    1    1.000000
   1.02741000E-01    1.00000000E+00 
S    1    1.000000
   3.60000000E-02    1.00000000E+00 
P    1    1.000000
   7.50000000E-01    1.00000000E+00 

[MO]
Sym=X
Ene= 2.000279
Spin=Alpha
Occup=1
     1   -7.308375176258e-13
     2   -1.228304079638e-12
     3   -3.498398396946e-13
     4   -5.003259974705e-13
     5    3.045794030618e-01
     6    3.609218512574e-12
     7   -5.857234032775e-13
     8   -7.891719529988e-13
     9    4.639370476373e-01
    10    2.733526735092e-12
    11   -3.348762469715e-13
    12   -6.112264572485e-13
    13    4.070107782850e-01
    14   -3.001630574187e-13
    15    1.526698945043e-14
    16   -2.313542566788e-14
    17    3.795724993694e-02
    18   -3.524511777114e-14
    19   -1.167627970348e-02
    20   -6.875687057410e-03
    21    2.607558486570e-14
    22    5.497077027643e-14
    23   -1.058587747386e-12
    24   -8.670499376248e-13
    25   -3.756359278853e-15
    26    1.738766064984e-13
    27   -1.603911407460e-02
    28   -3.968354542728e-14
    29    1.217833404159e-13
    30    2.243967995028e-13
    31   -2.416837964152e-02
    32    4.597887791585e-14
    33    5.757089516058e-14
    34    1.986499325393e-13
    35   -4.108912550725e-02
    36    7.751868412856e-13
    37    1.690086712578e-13
    38   -4.440781129675e-14
    39   -1.254881847808e-02
    40    8.758554956679e-15
    41    2.313108895390e-03
    42   -1.216467616240e-03
    43    6.541553457907e-14
    44   -3.645294600703e-15
    45    2.118840900883e-13
    46    1.009966566190e-13
    47    4.347138443665e-13
    48    3.858730011161e-13
    49    2.885907876702e-02
    50    3.268117977076e-13
    51    8.013366696160e-13
    52    6.493177472000e-13
    53    5.310313925543e-02
    54   -1.846612265599e-13
    55    5.097188898016e-14
    56    7.187689016282e-14
    57    5.049321210752e-03
    58   -4.006254351825e-13
    59    2.583512543148e-13
    60   -1.779660442682e-13
    61    6.825493609648e-03
    62   -7.857956952059e-14
    63    3.219253928317e-02
    64    1.439713194030e-02
    65    1.715585978623e-13
    66    2.436682117408e-13
    67   -2.212004167534e-13
    68   -3.546101143940e-13
    69   -2.190866651593e-13
    70   -1.934236879400e-13
    71    2.781058793040e-14
    72    1.036549513503e-14
    73    1.153890661512e-03
    74    1.133307607977e-13
    75    1.852487153571e-13
    76   -6.404110537151e-14
    77   -3.446384947776e-14
    78   -3.061982661564e-15
    79   -4.311181208698e-14
    80   -8.883124001322e-04
    81   -7.989247351530e-14
    82   -2.849537653600e-14
    83   -3.317372252367e-14
    84    4.387376156545e-14
    85    4.882126288042e-15
    86   -1.232704351542e-16
    87   -1.896774318492e-03
Sym=X
Ene= 2.000000
Spin=Alpha
Occup=1
     1    3.866689403722e-04
     2    6.477339920709e-04
     3   -1.390586598999e-05
     4    1.259461912946e-03
     5    5.883853303039e-13
     6   -1.895045245886e-03
     7    6.424396104865e-06
     8    1.914820628348e-03
     9    8.979266419421e-13
    10   -1.362976105605e-03
    11   -1.367489976038e-04
    12    1.678362268239e-03
    13    7.888585938997e-13
    14    2.842220679363e-04
    15   -7.284165770740e-05
    16    2.508612852910e-06
    17    7.237769315710e-14
    18    2.705586894041e-05
    19   -2.282689684297e-14
    20   -1.374170969846e-14
    21    4.216696324559e-06
    22   -6.978664322499e-05
    23    5.644710096573e-01
    24    4.686010016691e-01
    25    9.554875007362e-04
    26    1.187807264871e-03
    27   -3.028072258355e-14
    28   -9.369357943536e-04
    29    2.253662779190e-03
    30    1.447011587004e-03
    31   -4.761201633276e-14
    32   -4.112969239891e-03
    33    1.186625404123e-03
    34    1.192474872286e-03
    35   -7.526361834944e-14
    36   -3.070879029404e-04
    37   -2.252380941837e-04
    38   -1.919694756679e-05
    39   -2.900555633449e-14
    40   -2.722198384527e-04
    41    5.016246350980e-15
    42   -3.676611005924e-15
    43   -4.181795975562e-05
    44   -4.481315220321e-04
    45   -7.662729494090e-03
    46   -6.011664095538e-03
    47    4.328391624865e-05
    48   -2.076221578066e-04
    49    5.664101588784e-14
    50   -1.738145319495e-03
    51    6.984520573082e-04
    52   -7.611992512755e-04
    53    1.026784728709e-13
    54   -7.689450929487e-04
    55   -3.749515251041e-05
    56   -2.707975217083e-04
    57    6.594522554007e-15
    58    7.997491636923e-04
    59   -4.110604111028e-04
    60    4.240407344964e-04
    61    1.739749280099e-14
    62    2.772079202748e-04
    63    6.274517143012e-14
    64    2.802814945733e-14
    65   -5.323537714459e-04
    66   -4.979507017191e-05
    67    8.613162273957e-05
    68    2.163938432894e-04
    69    5.254875674833e-04
    70    2.448626571452e-04
    71   -4.777184444656e-06
    72   -1.347984199650e-04
    73    2.223453350086e-15
    74    1.925195580217e-04
    75   -2.302123193330e-04
    76    6.051888144677e-04
    77   -1.973450061588e-04
    78    9.491819090878e-05
    79    1.371674722898e-04
    80   -2.007240261886e-15
    81   -2.062693645603e-03
    82   -3.714180127583e-03
    83   -3.777060246896e-04
    84   -5.968155019318e-04
    85   -3.474071954788e-04
    86   -1.968079720064e-04
    87   -5.204444258273e-15
Sym=X
Ene= 1.999999
Spin=Alpha
Occup=1
     1    4.874779109391e-03
     2    8.208551581735e-03
     3   -5.550647598433e-03
     4   -3.211695190228e-03
     5    2.211141331153e-13
     6   -2.433092221790e-02
     7   -7.855024833892e-03
     8   -4.540219244895e-03
     9    3.375540180927e-13
    10   -2.167562533709e-02
    11   -5.981492374965e-03
    12   -3.473057369615e-03
    13    2.941018709582e-13
    14    6.541648586981e-04
    15   -3.926726069834e-04
    16   -1.916505743760e-04
    17    3.132632280775e-14
    18   -2.165985263685e-05
    19   -7.768374818537e-15
    20   -4.383879559477e-15
    21    1.695542714553e-05
    22    5.106790499730e-05
    23   -8.417478660165e-03
    24   -7.523977378761e-03
    25   -9.076672677032e-04
    26   -7.521575969128e-03
    27   -1.011659689301e-14
    28    2.813394617498e-03
    29   -5.785126751235e-04
    30   -1.209212755700e-02
    31   -1.897134414516e-14
    32   -2.498981848231e-04
    33   -2.407571135519e-03
    34   -7.348688248497e-03
    35   -2.649273769734e-14
    36    5.266005341949e-03
    37    1.832686488287e-03
    38    5.758589746642e-04
    39   -1.190192075589e-14
    40   -2.631895323932e-04
    41    2.456380208360e-15
    42   -2.093462066278e-15
    43    1.175415310158e-03
    44   -8.100645997426e-05
    45   -5.649117818403e-01
    46   -4.699499785680e-01
    47   -3.029824547529e-03
    48   -5.249430578818e-04
    49    1.962055144205e-14
    50    7.834078202884e-03
    51    8.797412662771e-04
    52    7.522850655386e-04
    53    4.050903188711e-14
    54    8.204358078109e-03
    55   -4.257132933650e-04
    56    1.383892592873e-03
    57    5.146343627103e-16
    58   -6.587081048943e-03
    59    6.844535819985e-04
    60   -1.979674133082e-03
    61    5.157116810687e-15
    62   -4.617702754986e-05
    63    2.514871031590e-14
    64    9.546860146892e-15
    65    8.495467334064e-04
    66    1.046510683364e-03
    67    1.083222839506e-03
    68    1.912400869101e-03
    69   -1.702006285539e-03
    70   -4.175345763811e-05
    71   -1.077634836464e-04
    72    5.782242290832e-04
    73    4.074389279693e-16
    74   -5.946653724476e-03
    75   -8.965723168656e-03
    76   -3.104846225577e-03
    77   -9.437111162893e-04
    78   -1.160532613819e-04
    79    6.384904869279e-04
    80   -2.883969903180e-16
    81    4.652820195543e-03
    82    7.058574947791e-03
    83    1.754268807899e-03
    84    1.476649772488e-03
    85    7.147804121824e-04
    86    1.327794724298e-04
    87   -2.207148869075e-15
Sym=X
Ene= 1.999989
Spin=Alpha
Occup=1
     1   -1.236744418300e-01
     2   -2.077050311477e-01
     3    5.955949908119e-02
     4    3.302339357103e-02
     5   -1.636923761600e-12
     6    6.144426234367e-01
     7    8.478013476030e-02
     8    4.665229453901e-02
     9   -2.491416757952e-12
    10    5.127415434870e-01
    11    6.581595326806e-02
    12    3.766493420233e-02
    13   -2.185169697818e-12
    14   -1.725954583587e-02
    15    3.571654586108e-03
    16    8.481641053524e-04
    17   -2.061292621453e-13
    18   -7.289698315366e-05
    19    6.299742305694e-14
    20    3.699141814083e-14
    21   -1.723440786474e-04
    22   -1.363598049631e-04
    23    1.029783079718e-03
    24    5.153929378893e-04
    25   -6.585263424101e-04
    26    1.600643292574e-03
    27    8.620594347293e-14
    28    2.366642039398e-03
    29    5.450111581837e-03
    30    1.383211034346e-03
    31    1.274502724963e-13
    32    9.686216183744e-03
    33    1.381149383491e-02
    34    1.303519361852e-02
    35    2.203634013367e-13
    36   -1.026704795078e-01
    37   -2.629570359211e-02
    38    5.714335941607e-03
    39    6.568295710655e-14
    40    1.734416603064e-04
    41   -1.267911850704e-14
    42    7.106650570767e-15
    43    1.468896040403e-03
    44   -1.371294109668e-03
    45   -2.757809590792e-02
    46   -2.495719304312e-02
    47    4.492537104372e-03
    48    8.326221155844e-04
    49   -1.565093811055e-13
    50    3.348891108939e-03
    51    4.102269614806e-03
    52   -1.347560107090e-03
    53   -2.849678197095e-13
    54   -5.118098793287e-02
    55   -2.420808619930e-02
    56   -2.759344004098e-02
    57   -2.756275788263e-14
    58    1.206521389039e-01
    59   -7.639630770253e-03
    60    2.854940277124e-02
    61   -3.396376812710e-14
    62   -2.502055655143e-03
    63   -1.740032518591e-13
    64   -7.746843704483e-14
    65    5.249803851998e-03
    66    1.019142961583e-02
    67    2.938906948865e-03
    68    4.402717945502e-03
    69    6.109470993119e-04
    70    1.508985971677e-03
    71    1.091814200596e-03
    72    2.028617129764e-03
    73   -6.790553023248e-15
    74    3.311863909337e-03
    75    9.234542700094e-04
    76    3.030151267220e-03
    77   -2.430126040889e-03
    78    2.660673014636e-05
    79   -1.089412707771e-03
    80    5.359105154953e-15
    81   -1.723893735286e-03
    82    2.332462982282e-03
    83    3.579501112486e-03
    84    1.175368135946e-03
    85    1.189358887946e-03
    86    2.439362135215e-04
    87    1.071793356180e-14
Sym=X
Ene= 1.999975
Spin=Alpha
Occup=1
     1    7.621636043639e-04
     2    1.285427827242e-03
     3   -1.417602806081e-01
     4    2.754021292500e-01
     5    2.927819677568e-13
     6   -3.978149575801e-03
     7   -2.146803376045e-01
     8    4.186677113377e-01
     9    4.476304381473e-13
    10    4.395310939652e-03
    11   -1.943374057448e-01
    12    3.665091407778e-01
    13    3.923544373885e-13
    14    2.030248134883e-02
    15   -1.563939977000e-02
    16    1.680703707922e-02
    17    3.466677280962e-14
    18    3.875703471777e-04
    19   -1.109779411072e-14
    20   -6.508797435948e-15
    21    1.005417063621e-02
    22   -6.940085515125e-03
    23    3.399252659720e-03
    24    7.151005830576e-03
    25   -1.119821584099e-02
    26    8.072608828445e-03
    27   -1.633064845925e-14
    28   -2.190153133008e-02
    29   -1.110775913384e-02
    30    2.239674250175e-03
    31   -2.164407353878e-14
    32   -7.200075118848e-02
    33   -1.516299921803e-02
    34    3.083541741995e-02
    35   -3.987567774650e-14
    36   -2.361840036921e-01
    37   -4.227622876735e-02
    38    2.457046934118e-02
    39   -1.259890431575e-14
    40   -1.790311587611e-03
    41    2.438146974765e-15
    42   -1.172495896407e-15
    43   -2.593319913379e-03
    44   -6.810080988506e-03
    45    6.660212705110e-04
    46    2.446246386839e-03
    47   -4.771737044675e-03
    48   -2.422031716646e-03
    49    2.748289687017e-14
    50   -1.061859317491e-02
    51   -1.044440885771e-05
    52   -5.619083882758e-03
    53    5.155008429750e-14
    54   -5.527242395107e-04
    55   -3.388627861153e-02
    56   -4.890464100684e-03
    57    5.043073757197e-15
    58    1.620382363611e-01
    59   -7.897246186794e-02
    60    7.904433942041e-02
    61    8.672005115626e-15
    62    2.500971715837e-03
    63    3.099058702111e-14
    64    1.414488656011e-14
    65   -3.910702082031e-02
    66    1.869815013552e-02
    67    1.787619766861e-02
    68    4.237779718651e-02
    69    5.622908501707e-02
    70    6.347497437826e-02
    71    3.675568974940e-03
    72   -1.339284458681e-03
    73    9.718621691119e-16
    74    1.039674004596e-03
    75    3.415316369636e-03
    76   -1.166404506127e-03
    77   -5.904723384489e-03
    78    2.613433840466e-03
    79   -6.327130257782e-04
    80   -9.277249348014e-16
    81    1.964724285864e-03
    82    1.484892597505e-02
    83    2.211795047839e-02
    84   -2.744341036015e-03
    85    1.329459337122e-03
    86    2.544418131107e-03
    87   -1.641296909744e-15
Sym=X
Ene= 1.999943
Spin=Alpha
Occup=1
     1   -4.731207242272e-03
     2   -7.986484040098e-03
     3   -2.460448062428e-02
     4   -2.682921735839e-03
     5    1.831647504713e-13
     6    2.448677796782e-02
     7   -3.725871947429e-02
     8   -3.553826080966e-03
     9    2.766913131519e-13
    10    2.063713398354e-02
    11   -3.230603004284e-02
    12   -1.869229100099e-03
    13    2.428962606923e-13
    14    1.294558388545e-02
    15   -9.893232872651e-03
    16   -7.445560329153e-03
    17    2.544668168896e-14
    18    1.874479717281e-05
    19   -7.018934232137e-15
    20   -3.900719105791e-15
    21    1.287410564788e-03
    22    3.604934217611e-04
    23   -5.119111886066e-03
    24   -1.254212469037e-02
    25   -5.029565822199e-02
    26   -1.869231534346e-01
    27   -1.270735362817e-14
    28    4.251705715399e-02
    29   -7.529225080203e-02
    30   -2.856735666254e-01
    31   -1.467206845698e-14
    32   -8.872124333216e-04
    33   -6.485482967009e-02
    34   -1.833911300925e-01
    35   -2.805954636933e-14
    36   -1.330954843734e-02
    37   -6.800244135145e-03
    38   -3.496993510013e-03
    39   -1.917794320242e-15
    40   -1.370593203784e-03
    41    1.526453645191e-15
    42   -2.826762192102e-16
    43    2.537730898724e-02
    44    7.685714833242e-03
    45    2.612815803941e-03
    46   -1.444706407617e-02
    47   -3.730498833941e-02
    48    9.031586205552e-03
    49    1.646080368103e-14
    50    8.781809142987e-02
    51   -5.199401610839e-02
    52    1.551749011255e-02
    53    2.741867606625e-14
    54    1.815721248976e-02
    55   -2.656977282929e-02
    56    2.677754320875e-02
    57    4.868623468903e-15
    58   -3.026019448979e-03
    59   -2.104209166117e-03
    60    1.417787970532e-02
    61   -4.762843455571e-15
    62   -2.730584124329e-03
    63    2.020393783046e-14
    64    8.063904588434e-15
    65    2.442698530331e-02
    66    1.339224838224e-02
    67   -7.143556731551e-03
    68   -1.739774684894e-02
    69   -2.354071908780e-02
    70    1.339643283711e-02
    71   -1.257522808269e-03
    72    5.525393992576e-03
    73   -1.083351528475e-16
    74   -1.481800897754e-01
    75   -2.302455063250e-01
    76   -6.154658502316e-02
    77   -1.291405767867e-02
    78   -3.820714358365e-03
    79    1.789678226951e-02
    80   -1.209823239878e-15
    81    1.308571949042e-01
    82    2.049191962321e-01
    83    5.068426638148e-02
    84    1.002767506580e-02
    85    1.973886164277e-02
    86    3.515821090190e-03
    87   -6.676293311343e-16
Sym=X
Ene= 1.999866
Spin=Alpha
Occup=1
     1    1.677960887795e-02
     2    2.772013016235e-02
     3    2.192221438754e-01
     4    1.101090526828e-01
     5    1.144639005928e-12
     6   -7.503483019118e-02
     7    3.393419912452e-01
     8    1.704968280919e-01
     9    1.747081821111e-12
    10    8.517199740442e-03
    11    2.381813869725e-01
    12    1.208982257383e-01
    13    1.527445082292e-12
    14    6.587249153512e-02
    15   -1.729443670409e-03
    16    6.852753192646e-03
    17    1.483069833545e-13
    18    9.366387921061e-03
    19   -4.389220235509e-14
    20   -2.603966237546e-14
    21   -1.013048668971e-02
    22   -1.329150464709e-02
    23   -2.671978774173e-03
    24   -2.778795040524e-03
    25   -1.189662594416e-03
    26   -1.390489480548e-02
    27   -6.183428385591e-14
    28   -7.915737844831e-04
    29   -2.387774420566e-02
    30   -9.293601685960e-03
    31   -9.520236783341e-14
    32    1.943169817284e-02
    33    8.965864527255e-03
    34   -1.167503747582e-02
    35   -1.531636701586e-13
    36   -1.350780853302e-03
    37   -2.342095933807e-02
    38   -4.359977149371e-02
    39   -4.766524996535e-14
    40   -9.370513647983e-05
    41    8.144249119854e-15
    42   -3.847805292116e-15
    43   -1.905767491442e-02
    44    7.740247110202e-04
    45    2.504298550715e-02
    46    4.738035700069e-02
    47   -9.461110344715e-02
    48   -9.955997145690e-02
    49    1.080249201675e-13
    50   -1.331671999031e-01
    51   -1.888735928446e-01
    52   -1.732908263252e-01
    53    1.970061310808e-13
    54   -5.319580387878e-02
    55   -3.347809586922e-02
    56   -6.479701788632e-02
    57    1.586695003745e-14
    58   -4.062440062148e-02
    59    9.556767850374e-03
    60    3.424091702860e-02
    61    2.232057689493e-14
    62    1.773257172280e-02
    63    1.209017121951e-13
    64    5.392632898950e-14
    65   -3.244650802672e-02
    66   -5.440872949421e-02
    67    4.985681163534e-02
    68    7.237830893083e-02
    69    5.182010482942e-02
    70    3.188517107776e-02
    71   -5.697507446778e-03
    72   -3.781969909302e-03
    73    3.931970454876e-15
    74   -2.910991128108e-03
    75   -1.003133966871e-02
    76    2.758991312609e-02
    77    3.155427330618e-02
    78    7.573691296558e-05
    79    6.951628109432e-03
    80   -3.916401344001e-15
    81    1.570378801898e-03
    82   -8.007794263312e-03
    83   -1.926553623146e-02
    84   -3.566176829425e-02
    85   -1.484160703995e-03
    86    5.256737416317e-04
    87   -8.190695619123e-15
Sym=X
Ene= 1.999765
Spin=Alpha
Occup=1
     1    2.302614674468e-04
     2    1.764041176850e-04
     3    4.528683414368e-02
     4    1.526352356364e-02
     5   -1.453950581740e-14
     6    2.354550224620e-03
     7    6.924342153957e-02
     8    2.504187781213e-02
     9   -1.795223618320e-14
    10    2.091863779095e-02
    11    5.711922449378e-02
    12   -1.035376059026e-03
    13   -2.040217674143e-14
    14   -3.958664601516e-03
    15    1.855821996113e-02
    16   -2.784970881878e-02
    17    1.823531969132e-15
    18    2.294860876773e-03
    19    4.725688219660e-16
    20    2.158781916677e-17
    21    3.127139556724e-03
    22   -6.272138855796e-03
    23   -1.542128449071e-02
    24   -2.466229085906e-02
    25    1.192176248133e-01
    26   -4.100147147849e-02
    27    3.523747453045e-16
    28    6.381779096197e-02
    29    1.729031984351e-01
    30   -5.919992571601e-02
    31    2.709652846555e-15
    32    1.236803247619e-02
    33    8.438745073710e-02
    34   -5.456460107583e-02
    35    3.784441284087e-15
    36   -7.733201790756e-02
    37   -2.794555101017e-02
    38    2.355245856354e-03
    39   -1.058160393595e-15
    40   -2.453610848910e-04
    41    3.636020087885e-16
    42   -6.304984636412e-16
    43    1.473110648212e-02
    44   -9.744671551532e-03
    45    1.920671584386e-02
    46    3.528134576822e-02
    47   -1.137375924046e-01
    48    1.636670441463e-01
    49   -4.413785854090e-16
    50   -9.612253916115e-02
    51   -1.795369860556e-01
    52    2.424364454992e-01
    53   -1.914036773459e-15
    54   -9.347475622778e-02
    55   -5.718925197818e-02
    56    1.456755575687e-01
    57   -2.828007484684e-15
    58    6.843435655318e-02
    59   -2.016499327205e-02
    60    3.730799104396e-02
    61   -5.454249666946e-17
    62    7.760413413364e-03
    63    4.664431697730e-17
    64   -4.090787777868e-16
    65    1.726224276431e-02
    66   -1.432905964747e-02
    67   -1.598335670971e-01
    68   -2.484800017289e-01
    69   -3.950547364236e-02
    70    1.618999287331e-02
    71   -1.154255570025e-03
    72   -2.558291140867e-02
    73    3.191484309506e-16
    74   -3.289516350253e-02
    75   -5.348764377939e-02
    76   -2.227185170720e-02
    77   -4.870198098191e-03
    78    6.012589472891e-03
    79    2.131162409148e-03
    80   -4.271269955949e-16
    81   -4.903254498974e-02
    82   -8.212902730907e-02
    83   -2.674309671789e-02
    84   -1.147924533142e-02
    85   -3.105926808454e-03
    86   -8.635782529283e-03
    87   -4.335345110547e-16
Sym=X
Ene= 1.999536
Spin=Alpha
Occup=1
     1   -9.963260186906e-04
     2   -1.638373393593e-03
     3   -9.570706046147e-03
     4   -5.168136236067e-04
     5   -3.464588493818e-15
     6    4.439354267343e-03
     7   -1.427873034400e-02
     8   -1.079300582534e-03
     9   -4.860683021392e-15
    10   -2.466725755595e-03
    11   -1.033917997573e-02
    12    4.923063329816e-03
    13   -4.923441200642e-15
    14   -2.856136495558e-03
    15   -4.496038640900e-04
    16    2.657774784921e-03
    17    1.793810693960e-15
    18   -2.667442133798e-04
    19   -2.984588897441e-16
    20    3.822439196879e-16
    21   -5.124560634826e-04
    22    1.257679304940e-03
    23    9.073484510795e-02
    24    1.556027182211e-01
    25    5.851310773965e-02
    26   -3.348289131247e-02
    27    8.149838105084e-16
    28   -4.045269689276e-01
    29    9.334954103263e-02
    30   -5.342182601005e-02
    31   -3.244022960561e-15
    32   -2.941568844796e-01
    33    5.439265399936e-02
    34   -2.451454135668e-02
    35    2.821808022503e-15
    36    2.506826248536e-02
    37    2.719322511511e-03
    38    1.400967537328e-03
    39    2.445044369617e-16
    40    1.487588462711e-02
    41   -1.044373408913e-15
    42    4.494898901226e-16
    43    4.561258190244e-03
    44   -8.839723551283e-03
    45    9.063378894733e-04
    46   -1.895954362009e-04
    47    2.839698660988e-02
    48   -3.462225439062e-02
    49   -1.455726889999e-15
    50    7.891517649579e-03
    51    5.085259835480e-02
    52   -5.595180008354e-02
    53   -1.538865796688e-15
    54    4.701308337068e-02
    55   -2.758024685301e-03
    56   -1.751260931896e-02
    57   -3.244974207133e-15
    58   -4.714145210173e-03
    59    1.961885916824e-04
    60    1.613270249800e-04
    61   -9.331455383979e-16
    62    5.954495455096e-04
    63   -1.290680518014e-15
    64   -8.757637753329e-16
    65   -8.316560435550e-03
    66    9.945437591882e-03
    67    3.095492389581e-02
    68    4.666294226187e-02
    69    7.529039474656e-03
    70    2.005488579789e-03
    71    4.692811925750e-04
    72    3.841647596509e-03
    73    6.775626418247e-16
    74   -1.161082962288e-01
    75   -1.647756006241e-01
    76   -1.335830411442e-02
    77   -1.482220424711e-02
    78    2.714046906355e-03
    79    2.287293702021e-02
    80    4.284700551498e-16
    81   -1.145804845314e-01
    82   -1.615828441799e-01
    83   -1.304387428520e-02
    84   -1.019272983147e-02
    85   -1.654163380244e-02
    86   -1.457929280114e-02
    87   -5.584223321164e-16
Sym=X
Ene= 1.998033
Spin=Alpha
Occup=1
     1   -6.643531489698e-03
     2   -1.148779437755e-02
     3   -5.585463706566e-03
     4    5.369836556050e-04
     5   -1.039244009628e-13
     6    3.748060066561e-02
     7   -5.888703512186e-03
     8    2.001214140715e-03
     9   -1.622190842851e-13
    10    5.713138498409e-02
    11   -2.648290186647e-02
    12   -7.116111090992e-03
    13   -1.394549078676e-13
    14    5.482547488802e-02
    15   -3.159040698579e-02
    16   -1.016346914132e-02
    17   -1.193781664665e-14
    18    1.560773494845e-03
    19    4.220790863769e-15
    20    2.000302985270e-15
    21   -1.939334238719e-03
    22   -1.477517759962e-03
    23    3.364635544052e-02
    24    5.545970993161e-02
    25   -1.388349660886e-01
    26    2.352239144314e-02
    27    5.684740178428e-15
    28   -1.391810168258e-01
    29   -2.114289420518e-01
    30    3.654528644383e-02
    31    9.967367785641e-15
    32   -2.067326207239e-02
    33   -9.282740926237e-02
    34   -8.315716853906e-03
    35    1.439471526283e-14
    36   -1.415128878591e-02
    37   -1.408641479626e-02
    38   -3.146488893473e-02
    39    5.268320583200e-15
    40    3.666645174220e-03
    41   -1.311080237029e-15
    42   -1.136591253857e-16
    43   -4.730836923934e-03
    44    2.914617298679e-02
    45    8.715670408197e-02
    46    1.517572702976e-01
    47    8.870248389371e-02
    48    8.119238959357e-03
    49   -8.052613100115e-15
    50   -4.167954356149e-01
    51    1.226932185548e-01
    52    1.198307847340e-02
    53   -1.871060695025e-14
    54   -2.894151181104e-01
    55    3.392226787138e-02
    56    8.031243403192e-03
    57   -1.023771643858e-15
    58   -7.785593005582e-03
    59   -2.779797315429e-03
    60    2.044840582340e-02
    61   -5.532212803007e-15
    62    1.113801104144e-02
    63   -1.101724989135e-14
    64   -5.407159286696e-15
    65    7.711546093660e-03
    66    2.441912108036e-02
    67   -8.823559219062e-02
    68   -1.236701387076e-01
    69   -2.195802059813e-03
    70    7.388486238012e-03
    71    6.700770732578e-03
    72   -1.607329123325e-02
    73   -4.320026239322e-16
    74   -7.155762313413e-03
    75   -1.011984396751e-02
    76    1.220395835475e-02
    77    2.353193734138e-02
    78   -7.891457980593e-03
    79    3.170000203533e-03
    80    5.218488428665e-16
    81    6.309822243395e-02
    82    1.069245167749e-01
    83    3.675556002045e-02
    84   -2.216075830978e-02
    85    9.460572871192e-04
    86    5.549373750998e-03
    87   -5.837057315974e-16
Sym=X
Ene= 1.406414
Spin=Alpha
Occup=1
     1   -3.314367063366e-02
     2   -4.702765352971e-02
     3   -2.313737633246e-01
     4   -1.554978496180e-01
     5   -2.999628229007e-15
     6    2.139702901799e-01
     7   -2.452877564618e-01
     8   -1.671803727489e-01
     9    9.402194479438e-15
    10    2.223935831248e-01
    11   -1.596031583696e-01
    12   -1.001316318778e-01
    13   -6.431454202926e-14
    14    3.094985787062e-01
    15   -8.458767023428e-02
    16   -4.669925577440e-02
    17    1.526701163290e-13
    18    7.252928267689e-03
    19    8.163496302698e-17
    20   -6.393805907466e-16
    21   -6.466610665780e-03
    22   -1.184661819439e-02
    23    3.947485344056e-03
    24    7.000821193306e-03