[Molden Format]
[Atoms] (Angs)
  F      1    9      1.15290231      0.22477664     -0.00000000
  C      2    6     -1.17935012      0.19972949     -0.00000000
  C      3    6     -0.01631886     -0.43556811      0.00000000
  H      4    1      0.11895302     -1.50789969      0.00000000
  H      5    1     -1.23082549      1.27856114     -0.00000000
  H      6    1     -2.09023450     -0.37861944      0.00000000
[GTO]
1    0
S    6    1.000000
   1.14271000E+04    1.80093000E-03 
   1.72235000E+03    1.37419000E-02 
   3.95746000E+02    6.81334000E-02 
   1.15139000E+02    2.33325000E-01 
   3.36026000E+01    5.89086000E-01 
   4.91901000E+00    2.99505000E-01 
SP   3    1.000000
   5.54441000E+01    1.14536000E-01   3.54609000E-02 
   1.26323000E+01    9.20512000E-01   2.37451000E-01 
   3.71756000E+00   -3.37804000E-03   8.20458000E-01 
SP   1    1.000000
   1.16545000E+00    1.00000000E+00   1.00000000E+00 
SP   1    1.000000
   3.21892000E-01    1.00000000E+00   1.00000000E+00 
SP   1    1.000000
   1.07600000E-01    1.00000000E+00   1.00000000E+00 
D    1    1.000000
   1.75000000E+00    1.00000000E+00 

2    0
S    6    1.000000
   4.56324000E+03    1.96665000E-03 
   6.82024000E+02    1.52306000E-02 
   1.54973000E+02    7.61269000E-02 
   4.44553000E+01    2.60801000E-01 
   1.30290000E+01    6.16462000E-01 
   1.82773000E+00    2.21006000E-01 
SP   3    1.000000
   2.09642000E+01    1.14660000E-01   4.02487000E-02 
   4.80331000E+00    9.19999000E-01   2.37594000E-01 
   1.45933000E+00   -3.03068000E-03   8.15854000E-01 
SP   1    1.000000
   4.83456000E-01    1.00000000E+00   1.00000000E+00 
SP   1    1.000000
   1.45585000E-01    1.00000000E+00   1.00000000E+00 
SP   1    1.000000
   4.38000000E-02    1.00000000E+00   1.00000000E+00 
D    1    1.000000
   6.26000000E-01    1.00000000E+00 

3    0
S    6    1.000000
   4.56324000E+03    1.96665000E-03 
   6.82024000E+02    1.52306000E-02 
   1.54973000E+02    7.61269000E-02 
   4.44553000E+01    2.60801000E-01 
   1.30290000E+01    6.16462000E-01 
   1.82773000E+00    2.21006000E-01 
SP   3    1.000000
   2.09642000E+01    1.14660000E-01   4.02487000E-02 
   4.80331000E+00    9.19999000E-01   2.37594000E-01 
   1.45933000E+00   -3.03068000E-03   8.15854000E-01 
SP   1    1.000000
   4.83456000E-01    1.00000000E+00   1.00000000E+00 
SP   1    1.000000
   1.45585000E-01    1.00000000E+00   1.00000000E+00 
SP   1    1.000000
   4.38000000E-02    1.00000000E+00   1.00000000E+00 
D    1    1.000000
   6.26000000E-01    1.00000000E+00 

4    0
S    3    1.000000
   3.38650000E+01    2.54938000E-02 
   5.09479000E+00    1.90373000E-01 
   1.15879000E+00    8.52161000E-01 
S    1    1.000000
   3.25840000E-01    1.00000000E+00 
S    1    1.000000
   1.02741000E-01    1.00000000E+00 
S    1    1.000000
   3.60000000E-02    1.00000000E+00 
P    1    1.000000
   7.50000000E-01    1.00000000E+00 

5    0
S    3    1.000000
   3.38650000E+01    2.54938000E-02 
   5.09479000E+00    1.90373000E-01 
   1.15879000E+00    8.52161000E-01 
S    1    1.000000
   3.25840000E-01    1.00000000E+00 
S    1    1.000000
   1.02741000E-01    1.00000000E+00 
S    1    1.000000
   3.60000000E-02    1.00000000E+00 
P    1    1.000000
   7.50000000E-01    1.00000000E+00 

6    0
S    3    1.000000
   3.38650000E+01    2.54938000E-02 
   5.09479000E+00    1.90373000E-01 
   1.15879000E+00    8.52161000E-01 
S    1    1.000000
   3.25840000E-01    1.00000000E+00 
S    1    1.000000
   1.02741000E-01    1.00000000E+00 
S    1    1.000000
   3.60000000E-02    1.00000000E+00 
P    1    1.000000
   7.50000000E-01    1.00000000E+00 

[MO]
Sym=X
Ene= 2.005310
Spin=Alpha
Occup=1
     1   -2.594473688841e-02
     2   -3.800960250879e-02
     3   -2.642892336936e-01
     4   -1.667636205893e-01
     5    3.894230924745e-13
     6    1.269607382323e-01
     7   -3.132635589878e-01
     8   -1.970700267025e-01
     9    4.585661500540e-13
    10    4.151117929737e-03
    11   -1.539652665789e-01
    12   -1.007412909739e-01
    13    2.786510518534e-13
    14   -2.919652167292e-02
    15    5.881024524280e-03
    16    3.380680025526e-03
    17    3.483043027659e-14
    18   -8.897702354184e-03
    19   -1.040107330232e-14
    20   -5.877228485835e-15
    21    7.798203720378e-03
    22    1.299661256344e-02
    23    1.645633824646e-02
    24    2.670446085746e-02
    25    2.419944304713e-02
    26    8.612397886702e-02
    27   -1.761297162788e-14
    28   -6.423215761919e-02
    29    5.548910770895e-02
    30    1.223572529124e-01
    31   -2.026766293448e-14
    32   -4.361138855821e-02
    33    3.125057426243e-02
    34    8.789027015123e-02
    35   -8.709829352048e-14
    36   -7.487280602908e-02
    37    3.730944363872e-03
    38    6.128401262140e-02
    39    1.953456620294e-14
    40    2.153935101875e-03
    41   -2.107143284387e-15
    42   -5.956770766539e-16
    43    3.584562396065e-03
    44   -4.310706828849e-03
    45   -2.112627155675e-02
    46   -3.154316981875e-02
    47    8.892202294065e-02
    48    4.966306427896e-02
    49    4.468178078098e-15
    50    6.500800290367e-02
    51    1.707983775648e-01
    52    9.242908144550e-02
    53    2.075061691265e-14
    54    1.851462193870e-02
    55    2.523532938029e-02
    56    1.590371570322e-02
    57   -1.727767556849e-14
    58    1.254247296369e-01
    59   -2.783010535009e-02
    60   -3.168963791786e-02
    61   -1.234307892724e-14
    62   -1.491128730905e-02
    63    2.416456184475e-14
    64    1.111723603438e-14
    65    1.379440139106e-02
    66    4.025199714279e-02
    67   -1.497664220497e-02
    68   -1.483123012729e-02
    69   -1.954291491747e-02
    70   -3.804624857197e-02
    71    3.978054226235e-03
    72    3.258208059854e-03
    73   -1.580892223867e-15
    74    5.320335701829e-02
    75    8.858527024306e-02
    76    1.981122449536e-03
    77   -3.416836244268e-02
    78    2.336185596456e-03
    79   -1.045677135916e-02
    80    5.237785989092e-16
    81   -6.626953105916e-02
    82   -9.172448277761e-02
    83    1.691419608517e-03
    84    2.987839271809e-02
    85   -8.709522220627e-03
    86   -2.966662606453e-03
    87    2.207883393687e-15
Sym=X
Ene= 2.003517
Spin=Alpha
Occup=1
     1    2.796931581849e-14
     2    4.437163069742e-14
     3   -2.756517321171e-13
     4   -1.562831568241e-13
     5   -4.121407776440e-01
     6   -1.612831933069e-13
     7   -3.265990831869e-13
     8   -1.927561515358e-13
     9   -4.803443179297e-01
    10   -1.475077161882e-13
    11   -1.460999938032e-13
    12   -5.986321509044e-14
    13   -3.062292967459e-01
    14   -2.759636757565e-13
    15    1.515766905779e-13
    16    1.818961359366e-14
    17   -1.352035358403e-02
    18   -9.181281156868e-15
    19    1.078390565295e-02
    20    6.502125324373e-03
    21    9.353320563354e-15
    22    1.175912344174e-14
    23    7.618930614697e-15
    24    1.568762951841e-14
    25    4.044045739197e-14
    26    7.744100016108e-14
    27    9.295404747118e-03
    28   -4.807779313334e-14
    29    6.965282865508e-14
    30    1.095569240677e-13
    31    1.379831776856e-02
    32    3.094322708915e-14
    33    6.496130214427e-15
    34    3.036193020923e-14
    35    2.287002117568e-02
    36   -2.699415997360e-12
    37    1.186896425692e-13
    38    1.353804048743e-12
    39    9.995859857309e-03
    40   -1.359108743475e-14
    41   -1.791376156558e-03
    42    1.302338307237e-03
    43    6.814114898076e-15
    44    1.312303012036e-14
    45   -9.669882110742e-14
    46   -1.027155589545e-13
    47    7.225086661701e-14
    48    4.813866501570e-14
    49   -2.125746051073e-02
    50    1.107210492773e-13
    51    1.450349278200e-13
    52    9.742758631751e-14
    53   -3.905589918737e-02
    54    1.862959238118e-13
    55    1.477212767498e-13
    56    8.827934035906e-14
    57   -3.070348149702e-03
    58    2.778515615820e-12
    59   -7.472575089733e-13
    60   -1.833803422785e-13
    61   -9.492176821402e-03
    62   -2.982300613937e-14
    63   -2.317686491996e-02
    64   -1.084648032907e-02
    65   -9.563612340019e-16
    66    4.076254523991e-14
    67   -3.137978275369e-15
    68   -1.145378734990e-14
    69   -5.572469078507e-14
    70   -3.513488533132e-13
    71   -2.278904246306e-15
    72    9.842249871717e-15
    73   -1.038980334467e-03
    74    5.256533772290e-14
    75    8.988157699154e-14
    76   -8.974339509278e-14
    77   -9.033694644630e-13
    78    1.587138369590e-14
    79   -6.057203282220e-15
    80    3.768182704877e-04
    81   -6.591553437427e-14
    82   -2.005569180769e-13
    83    3.002269352600e-13
    84    1.160403243736e-12
    85   -7.644680665882e-15
    86   -3.429470784429e-15
    87    1.296536063842e-03
Sym=X
Ene= 2.001923
Spin=Alpha
Occup=1
     1    1.595004644189e-03
     2    2.419752892753e-03
     3   -2.069323212160e-01
     4    3.532749647040e-01
     5    1.875926181328e-14
     6   -9.713091674958e-03
     7   -2.407656926130e-01
     8    4.102858561740e-01
     9    1.755611841223e-14
    10   -6.091556884969e-03
    11   -1.544598442289e-01
    12    2.660732367639e-01
    13    3.058956004482e-14
    14    4.863446536057e-03
    15   -1.900526899857e-03
    16    8.474551999989e-04
    17   -1.848878574987e-14
    18   -3.875919329397e-04
    19   -1.054894202748e-15
    20   -1.298398444664e-16
    21    9.534577490641e-03
    22   -4.548684462112e-03
    23    2.013422157376e-02
    24    3.271071377640e-02
    25    7.329204666720e-03
    26   -5.930871221693e-03
    27   -6.276351158990e-16
    28   -8.062228613824e-02
    29    1.782705923784e-02
    30   -1.813545639792e-02
    31    6.238414971123e-15
    32   -9.034005997761e-02
    33    3.443058842465e-03
    34    1.125807032601e-02
    35   -1.876981239568e-14
    36   -4.752498141873e-02
    37   -2.494387065023e-05
    38   -5.235745136577e-03
    39    3.281601356416e-14
    40    1.536024647215e-03
    41    2.257628251208e-15
    42   -2.604566884917e-15
    43    3.952431425678e-05
    44   -8.924108127394e-03
    45   -9.889171104101e-03
    46   -1.581488907371e-02
    47    3.098758188901e-03
    48   -1.261837708284e-02
    49    8.340616372014e-15
    50    4.063539589432e-02
    51    1.623401697370e-02
    52   -1.987517949924e-02
    53    1.556850897976e-14
    54    3.976945076831e-02
    55   -1.259677034563e-02
    56   -1.902486416896e-02
    57    1.346056961813e-14
    58   -1.274111616792e-02
    59   -3.221639207343e-02
    60    4.693478910099e-02
    61   -1.790517993444e-14
    62    1.456282663923e-04
    63   -3.041339933649e-15
    64   -2.551395248827e-15
    65   -2.784484489916e-02
    66    1.597704979906e-02
    67    2.798082615946e-02
    68    4.678317770020e-02
    69    2.868243233703e-02
    70    5.543630273115e-02
    71    2.932952455259e-03
    72    2.664854900931e-03
    73    3.032995987063e-15
    74   -2.334058540308e-02
    75   -3.099815237095e-02
    76   -6.112784366508e-03
    77    2.817831423204e-03
    78    2.568134896835e-03
    79    3.675859342665e-03
    80   -9.673201358850e-16
    81   -1.843143355687e-02
    82   -1.841637828450e-02
    83    7.578713543212e-03
    84   -7.138754213602e-03
    85   -1.381136860380e-03
    86   -6.964924435269e-04
    87    7.914378952844e-16
Sym=X
Ene= 2.000143
Spin=Alpha
Occup=1
     1   -2.469072466666e-02
     2   -3.646782028507e-02
     3    3.857726197825e-02
     4   -5.289546931835e-02
     5   -3.174681891646e-15
     6    1.236750869371e-01
     7    4.033596052746e-02
     8   -6.262722715774e-02
     9   -2.944835809104e-15
    10    3.826202309457e-02
    11    4.232390101609e-02
    12   -3.625668779425e-02
    13   -1.399875406656e-14
    14   -4.612620767795e-02
    15    2.598183909286e-02
    16   -4.476331539240e-03
    17   -8.020332258430e-15
    18   -1.298453878311e-03
    19   -2.165074295457e-15
    20   -4.254782208920e-16
    21    2.841476990720e-03
    22    1.410408906298e-03
    23    1.897545687753e-02
    24    3.814166035311e-02
    25    1.472974490258e-01
    26   -1.043590804567e-01
    27    3.112166662860e-14
    28   -1.113951457300e-01
    29    2.248766864210e-01
    30   -1.602590467835e-01
    31    5.063541199053e-14
    32   -1.729834990222e-01
    33    8.125321530867e-02
    34   -8.150375137129e-02
    35    4.537976809135e-14
    36    4.588780124697e-03
    37    8.345627839866e-04
    38    1.782592896421e-02
    39    1.182948416244e-14
    40    5.207903945090e-03
    41    6.327280789414e-15
    42   -1.801177238721e-15
    43    2.204564883676e-02
    44   -2.533371607966e-02
    45   -4.120939115921e-02
    46   -8.683401665031e-02
    47   -8.394220836887e-02
    48    4.678902749102e-02
    49    3.346922106468e-14
    50    2.815125129057e-01
    51   -1.103255384325e-01
    52    7.467964454570e-02
    53    5.957088135132e-14
    54    2.094925392628e-01
    55   -5.144248432104e-02
    56    6.453311159211e-02
    57    5.347606885892e-14
    58    2.071151601396e-02
    59    1.967668652545e-03
    60   -1.640439261878e-03
    61   -2.794841404426e-15
    62   -6.837154044799e-03
    63   -3.436484604906e-15
    64    5.183621327286e-15
    65    6.989036021720e-03
    66   -6.800267020370e-03
    67    8.281348108901e-03
    68    3.384262361673e-03
    69   -1.807607675464e-02
    70   -2.239372618441e-03
    71   -4.403342878605e-03
    72    5.244284133356e-03
    73    1.999327663028e-15
    74   -1.187817933435e-01
    75   -1.762967571609e-01
    76   -3.866234644076e-02
    77   -2.735012012236e-02
    78    5.861787456555e-03
    79    1.697923786072e-02
    80    2.596227089388e-15
    81   -8.147297415680e-02
    82   -1.241928095100e-01
    83   -2.511614111273e-02
    84    8.886582098938e-03
    85   -5.333152183290e-03
    86   -1.398819774674e-02
    87    2.330302790228e-15
Sym=X
Ene= 2.000103
Spin=Alpha
Occup=1
     1    5.350328784307e-02
     2    7.914361489909e-02
     3   -3.433006856009e-03
     4   -4.126512614196e-02
     5    4.136477489868e-14
     6   -2.722543784006e-01
     7    1.954971642067e-03
     8   -4.535425530027e-02
     9    4.605886957673e-14
    10   -1.093986200122e-01
    11   -1.163011953886e-02
    12   -3.275727881362e-02
    13    3.166043549022e-14
    14    3.013421363687e-02
    15   -1.587493383343e-02
    16   -3.587603817937e-03
    17    1.531119193145e-14
    18    1.836958070548e-03
    19    9.648452122530e-16
    20    4.964985768912e-16
    21   -3.895466789399e-03
    22   -5.833699321044e-04
    23    8.312940992417e-02
    24    1.420640107866e-01
    25   -2.709986112592e-02
    26   -7.485200462018e-03
    27   -3.684428570347e-14
    28   -3.684596775922e-01
    29   -4.308489811364e-02
    30   -1.080084043525e-02
    31   -6.251605981836e-14
    32   -2.168973705092e-01
    33   -9.599093264852e-03
    34   -2.012328943687e-02
    35   -5.634176925840e-14
    36   -3.323028666540e-03
    37   -8.544073216100e-03
    38   -5.047152061664e-03
    39   -1.500888242934e-14
    40    1.363046646385e-02
    41   -8.574490171642e-15
    42    3.333269995821e-15
    43   -1.927610388637e-03
    44    9.040467030006e-03
    45    5.131382225668e-02
    46    9.051991948513e-02
    47    5.916361224339e-02
    48   -2.910187076864e-02
    49   -4.072901147914e-14
    50   -2.475034193637e-01
    51    8.055502535126e-02
    52   -5.213856934386e-02
    53   -7.208926083640e-14
    54   -1.266146889247e-01
    55    1.570343539722e-02
    56   -1.411465599775e-02
    57   -6.819624177943e-14
    58    2.007991811442e-02
    59   -6.411162520292e-03
    60    4.376870266484e-03
    61    2.897455562190e-15
    62    1.020585022087e-02
    63    5.933579804044e-15
    64   -4.944116261942e-15
    65   -1.126276219411e-03
    66    1.088100698803e-02
    67   -2.422366237968e-02
    68   -3.293025815760e-02
    69    1.480261553411e-03
    70   -3.432168664959e-03
    71    2.963256255513e-03
    72   -6.885047591253e-03
    73   -2.311882203165e-15
    74   -8.369223091674e-02
    75   -1.187165829269e-01
    76   -7.506386132416e-04
    77   -5.800823705054e-03
    78   -3.077859365504e-03
    79    1.875211016102e-02
    80   -2.103402398185e-15
    81   -5.424278693419e-02
    82   -7.122297659014e-02
    83    5.905648182825e-03
    84   -1.559869356923e-02
    85   -1.280403330136e-02
    86   -8.101821065199e-03
    87   -3.870563807128e-15
Sym=X
Ene= 1.999999
Spin=Alpha
Occup=1
     1   -3.498848599605e-04
     2   -5.189902184944e-04
     3   -6.936236951464e-05
     4    1.823140272841e-03
     5    6.192304263398e-15
     6    1.815542849698e-03
     7   -7.029024732008e-05
     8    2.129376607513e-03
     9    5.590719266656e-15
    10    9.823368554066e-04
    11   -2.193873394219e-04
    12    1.227270903055e-03
    13    3.642131081307e-15
    14    3.223865641240e-04
    15   -1.088498992836e-04
    16    1.243168999842e-04
    17    4.310741891320e-15
    18    1.279647457118e-05
    19    8.290210491545e-16
    20    7.274280504159e-16
    21    1.518157762524e-05
    22   -4.617623113344e-05
    23   -5.644695444474e-01
    24   -4.686004937513e-01
    25   -1.588795893297e-03
    26    1.827405037033e-03
    27   -1.188771913876e-14
    28    7.891685256499e-04
    29   -2.087769429001e-03
    30    3.125023731131e-03
    31   -1.825614805175e-14
    32    4.891650940114e-03
    33   -7.143700983120e-04
    34    1.725083737171e-03
    35   -2.099877672021e-14
    36    1.005823996016e-05
    37    1.587961997291e-04
    38   -3.930892571416e-04
    39    2.665845127640e-15
    40    2.600376285019e-04
    41   -2.836392881304e-15
    42    2.650211755909e-15
    43   -4.551801634873e-04
    44    3.872295343048e-04
    45    3.398270465894e-03
    46    3.163193235776e-03
    47    5.244946492939e-04
    48   -1.188601669301e-04
    49   -1.280501442938e-14
    50   -1.897930289125e-03
    51    5.741856556527e-05
    52    6.707114272023e-05
    53   -2.078239116540e-14
    54   -1.282765840253e-03
    55    3.471533220291e-04
    56   -3.894013606844e-04
    57   -1.439514426585e-14
    58   -1.294757758486e-03
    59    2.040037408121e-04
    60   -4.828314966249e-06
    61   -5.356197373445e-15
    62   -1.232501530552e-04
    63    8.546471678158e-16
    64   -1.650544339653e-15
    65   -1.564723926564e-04
    66   -6.478313950380e-05
    67   -1.548872560373e-04
    68   -1.166260974915e-04
    69    3.086474643513e-04
    70    1.965433695881e-04
    71    5.854142476254e-05
    72   -5.714331262508e-05
    73   -7.440305841128e-16
    74    2.358003335750e-03
    75    4.154930255900e-03
    76    4.221980235231e-04
    77    8.161176511232e-04
    78   -3.752098899415e-05
    79   -4.673224858030e-04
    80   -7.987879449898e-16
    81    7.828289661332e-04
    82    1.873345216907e-03
    83   -2.429632747306e-04
    84    1.544997342002e-04
    85    1.810759480379e-04
    86    2.855257695264e-04
    87    6.453856088197e-16
Sym=X
Ene= 1.999992
Spin=Alpha
Occup=1
     1    8.651109352720e-06
     2    4.009829723502e-05
     3    8.239562762524e-04
     4   -2.540326275720e-03
     5    4.208964123891e-14
     6   -2.488926692605e-04
     7    1.362249708453e-03
     8   -2.705283522663e-03
     9    5.049086644310e-14
    10   -1.411600559744e-03
    11    1.353100309796e-03
    12   -1.613327046698e-03
    13    2.734233813880e-14
    14   -7.040820870980e-04
    15    5.873586373766e-04
    16   -1.187796981546e-05
    17   -1.916356120084e-15
    18    7.076177496627e-05
    19   -1.891288363868e-15
    20   -7.891639924069e-16
    21   -1.062407578189e-04
    22   -1.053389184830e-04
    23   -3.632490578144e-03
    24   -3.443606997390e-03
    25    3.804270829648e-03
    26   -6.257789486635e-03
    27    2.514909258812e-14
    28    2.273625037044e-03
    29    6.729138840342e-03
    30   -1.032131056387e-02
    31    3.949204119530e-14
    32   -1.939013419912e-03
    33    1.381768403936e-03
    34   -5.030010743500e-03
    35    3.804291269466e-14
    36    1.534615374249e-03
    37    8.145508026340e-04
    38    1.210734191186e-03
    39   -1.707824644805e-16
    40   -2.356774856983e-04
    41    5.676784309207e-15
    42   -3.682604756934e-15
    43    1.032560127936e-03
    44   -1.090248309672e-03
    45   -5.666948783176e-01
    46   -4.725890885425e-01
    47   -6.975297631514e-03
    48   -1.723483934668e-03
    49    2.823123072441e-14
    50    1.322147968244e-02
    51   -2.591552581417e-03
    52    1.292046265173e-03
    53    5.453651487555e-14
    54    1.149693663878e-02
    55   -2.665737229032e-03
    56    2.265450079913e-04
    57    3.648663854287e-14
    58   -1.597760546696e-03
    59    6.466959895900e-04
    60   -1.093368578153e-03
    61    4.745371536665e-15
    62   -2.228529466724e-06
    63    1.351017540401e-15
    64    4.128102006881e-15
    65    4.758982271558e-04
    66    2.873143834626e-04
    67    2.323061999970e-03
    68    3.717771241371e-03
    69   -1.618856198838e-03
    70   -3.666426723629e-05
    71   -2.710929334452e-04
    72    8.619505317731e-04
    73    1.464813571112e-15
    74   -5.055199198303e-03
    75   -7.649770347933e-03
    76   -2.410230897263e-03
    77   -1.307833820018e-03
    78    1.010968882864e-04
    79    5.621711718953e-04
    80    2.311716352121e-15
    81    3.789046584593e-04
    82    2.187890937174e-04
    83   -1.509580430269e-04
    84    1.534952832377e-03
    85    2.838829076952e-04
    86   -1.807476611114e-04
    87    9.181875016365e-16
Sym=X
Ene= 1.999370
Spin=Alpha
Occup=1
     1   -7.456056248425e-02
     2   -1.107543464608e-01
     3    1.570993439827e-01
     4    9.634505833866e-02
     5   -8.164297110153e-14
     6    3.906606646755e-01
     7    1.798989259508e-01
     8    1.113354335212e-01
     9   -9.374597182530e-14
    10    2.009483886757e-01
    11    9.985295933450e-02
    12    5.711309784236e-02
    13   -5.620687752290e-14
    14    1.827217958579e-02
    15    4.036801994044e-04
    16   -1.241144070486e-02
    17   -5.965576557372e-15
    18    3.549026480935e-03
    19    1.883918426570e-15
    20    7.673654214875e-16
    21   -5.548279967263e-04
    22   -7.615326089020e-03
    23    1.820207427282e-02
    24    2.815244876097e-02
    25    6.190947954938e-02
    26    8.935362010801e-02
    27    6.205102435828e-15
    28   -6.600670985766e-02
    29    8.783995282792e-02
    30    1.399523756062e-01
    31    7.322325490764e-16
    32   -4.255728597164e-02
    33    6.369564863352e-02
    34    7.976493686644e-02
    35    2.840607251474e-14
    36    3.604389224140e-02
    37   -4.562804007826e-03
    38   -4.213299365761e-02
    39    1.474404794006e-14
    40    2.050331115730e-03
    41    2.061869000761e-15
    42   -5.469784805875e-16
    43   -1.033693047910e-02
    44   -3.498834728834e-03
    45    3.295719775491e-02
    46    6.516797515836e-02
    47   -2.194478595038e-02
    48    5.956978209201e-02
    49    7.792728271629e-15
    50   -2.009072853969e-01
    51   -4.998958907511e-02
    52    8.194410905330e-02
    53    9.590699282313e-15
    54   -1.212518209384e-01
    55   -2.435090902972e-02
    56    4.875715295590e-02
    57    2.465301389588e-14
    58   -6.120253691858e-02
    59    1.386874939613e-02
    60    2.559209802731e-02
    61   -1.829332952631e-14
    62    7.958142475349e-03
    63   -5.231273611610e-15
    64   -2.991297263422e-15
    65   -1.487742339713e-02
    66   -1.044850703085e-02
    67   -7.561800343963e-02
    68   -1.066569610043e-01
    69    1.348410801755e-02
    70    1.874606875083e-02
    71    5.567128998308e-04
    72   -1.920611649783e-02
    73    2.011619234380e-15
    74    5.695470069599e-02
    75    8.769769849024e-02
    76    3.409073163874e-02
    77    3.460685676533e-02
    78    4.851170824496e-03
    79   -5.713166054554e-03
    80   -8.368030502223e-16
    81   -9.558640504720e-02
    82   -1.442832712415e-01
    83   -3.629205701862e-02
    84   -3.589541769335e-02
    85   -1.440258911306e-02
    86   -6.002451785594e-03
    87   -2.572040790132e-15
Sym=X
Ene= 1.999280
Spin=Alpha
Occup=1
     1    7.813963380369e-02
     2    1.157426906255e-01
     3   -5.821632106254e-02
     4   -1.283018490106e-02
     5   -2.151330142023e-14
     6   -4.024945698341e-01
     7   -6.395961410417e-02
     8   -9.808423790903e-03
     9   -1.091574580839e-14
    10   -1.751943198849e-01
    11   -4.104297047711e-02
    12   -1.760791214136e-02
    13   -5.362160744325e-14
    14   -1.873327682369e-03
    15    1.181679530323e-02
    16   -2.302177042848e-02
    17   -1.038223439654e-13
    18    5.351904705357e-04
    19   -2.196696253902e-14
    20   -1.070209159760e-14
    21    6.578687796265e-03
    22   -4.745710981922e-03
    23   -3.646452881605e-02
    24   -6.114551771552e-02
    25    7.075324899191e-02
    26   -1.836093704541e-02
    27    3.676638027699e-13
    28    1.584449035355e-01
    29    1.039177289212e-01
    30   -2.745776548709e-02
    31    6.317002425671e-13
    32    5.488423622933e-02
    33    3.684564823411e-02
    34   -1.769434534873e-02
    35    5.490299744773e-13
    36   -1.219648230907e-01
    37   -2.680695976954e-02
    38    2.450056722583e-02
    39    5.061892403624e-14
    40   -5.611173389204e-03
    41    7.016557465706e-14
    42   -3.652818279702e-14
    43    1.303967025338e-02
    44   -5.648232704445e-03
    45    1.520831508560e-02
    46    2.686956921236e-02
    47   -8.602379447175e-02
    48    1.532154211527e-01
    49    4.113247123228e-13
    50   -7.135043664275e-02
    51   -1.335484362888e-01
    52    2.354984908829e-01
    53    7.124472808860e-13
    54   -6.663291044498e-02
    55   -6.034827288337e-02
    56    1.376340436690e-01
    57    5.870997329757e-13
    58    1.139916150571e-01
    59   -3.554390262693e-02
    60    2.412977233751e-02
    61    5.377154871708e-14
    62    5.337318148375e-03
    63   -3.884792466255e-14
    64    5.980896387804e-14
    65    5.785777793872e-03
    66   -3.925082734512e-03
    67   -1.347126697521e-01
    68   -1.974902660274e-01
    69   -2.812413266316e-02
    70    3.656205445787e-03
    71    2.098406678432e-04
    72   -2.157358249216e-02
    73    2.629974612354e-14
    74    7.610751446627e-03
    75    4.814762296383e-03
    76   -2.186698780419e-02
    77   -1.083802000107e-02
    78    3.953015578902e-03
    79   -5.568341117553e-03
    80    3.024546940644e-14
    81   -3.217183814237e-03
    82   -7.659445942472e-03
    83   -4.054279761871e-03
    84    5.034402875988e-03
    85    2.885716541688e-03
    86   -1.909456713326e-03
    87    2.946009317127e-14
Sym=X
Ene= 1.998481
Spin=Alpha
Occup=1
     1   -2.553061281297e-15
     2   -5.781003438449e-15
     3    2.725121328593e-13
     4    5.392243519843e-14
     5   -4.688232233354e-02
     6   -2.933892383981e-18
     7    3.159713959386e-13
     8    5.199242571593e-14
     9   -5.020548850803e-02
    10   -2.071485122033e-14
    11    1.803904211624e-13
    12    5.711844888750e-14
    13   -4.833049244885e-02
    14   -1.029418725602e-13
    15    4.808857616093e-14
    16    8.708546843557e-14
    17   -4.766981360635e-02
    18    2.491346340272e-16
    19   -8.695465344920e-03
    20   -4.079523706084e-03
    21   -2.369115148186e-14
    22    9.819477861630e-15
    23    6.208458513849e-14
    24    1.357292670913e-13
    25   -4.213838070600e-14
    26    2.735041870414e-13
    27    1.633785380402e-01
    28   -4.417759077033e-13
    29   -6.577602715983e-14
    30    4.288094252248e-13
    31    2.769404435208e-01
    32   -1.870115177466e-13
    33    2.251590788134e-14
    34    3.127291688200e-13
    35    2.472901333588e-01
    36   -3.605274838473e-14
    37    5.640327952237e-13
    38    7.389092345252e-13
    39    2.642253770559e-02
    40    1.404065257265e-14
    41    3.100291750974e-02
    42   -1.574638425435e-02
    43   -7.283621929087e-14
    44   -5.188042725045e-15
    45    1.117092378105e-15
    46   -7.142557157981e-14
    47    2.153040469578e-13
    48   -5.017945350372e-13
    49    1.801510162779e-01
    50    3.713517572617e-13
    51    3.217695629906e-13
    52   -7.802906005671e-13
    53    3.123471544970e-01
    54    5.224058268428e-13
    55    1.898476584037e-13
    56   -4.283920605321e-13
    57    2.608581481766e-01
    58    8.522003983985e-14
    59   -5.480610952422e-14
    60   -4.583907321504e-13
    61    1.922961761405e-02
    62   -1.406907378957e-14
    63   -2.049897561728e-02
    64    2.434539176101e-02
    65   -7.563633934000e-14
    66   -5.923984534955e-14
    67    4.863227478884e-13
    68    7.049585544231e-13
    69    8.212013153581e-14
    70   -2.958702206821e-13
    71   -1.524402468090e-15
    72    6.525227418753e-14
    73    1.205941324050e-02
    74    1.671604732711e-13
    75    2.763360383534e-13
    76    9.934382330717e-15
    77   -5.878894516086e-13
    78    4.290935183230e-15
    79   -3.363186157643e-15
    80    1.306102409195e-02
    81   -2.045476080263e-13
    82   -3.329665971988e-13
    83    1.174275778406e-13
    84    8.733578636241e-13
    85   -3.375856447120e-14
    86   -3.282983313488e-15
    87    1.267643728893e-02
Sym=X
Ene= 1.998121
Spin=Alpha
Occup=1
     1   -7.793171185201e-02
     2   -1.155262210271e-01
     3   -8.946033485965e-02
     4   -2.596816613230e-02
     5   -1.916741440551e-13
     6    4.111318149148e-01
     7   -1.071910976167e-01
     8   -3.089871069040e-02
     9   -2.156172910727e-13
    10    1.853293968647e-01
    11   -5.612046259355e-02
    12   -1.586441861320e-02
    13   -1.745711191844e-13
    14    4.071772496095e-02
    15   -2.082637322844e-02
    16   -2.134126090400e-02
    17   -7.861080405250e-14
    18   -9.586495653964e-04
    19   -1.481306403798e-14
    20   -6.631653179399e-15
    21    4.081421335100e-03
    22    1.185652837033e-03
    23   -1.191202212498e-03
    24   -2.419556071959e-03