[Molden Format]
[Atoms] (Angs)
  F      1    9      1.15290231      0.22477664     -0.00000000
  C      2    6     -1.17935012      0.19972949     -0.00000000
  C      3    6     -0.01631886     -0.43556811      0.00000000
  H      4    1      0.11895302     -1.50789969      0.00000000
  H      5    1     -1.23082549      1.27856114     -0.00000000
  H      6    1     -2.09023450     -0.37861944      0.00000000
[GTO]
1    0
S    6    1.000000
   1.14271000E+04    1.80093000E-03 
   1.72235000E+03    1.37419000E-02 
   3.95746000E+02    6.81334000E-02 
   1.15139000E+02    2.33325000E-01 
   3.36026000E+01    5.89086000E-01 
   4.91901000E+00    2.99505000E-01 
SP   3    1.000000
   5.54441000E+01    1.14536000E-01   3.54609000E-02 
   1.26323000E+01    9.20512000E-01   2.37451000E-01 
   3.71756000E+00   -3.37804000E-03   8.20458000E-01 
SP   1    1.000000
   1.16545000E+00    1.00000000E+00   1.00000000E+00 
SP   1    1.000000
   3.21892000E-01    1.00000000E+00   1.00000000E+00 
SP   1    1.000000
   1.07600000E-01    1.00000000E+00   1.00000000E+00 
D    1    1.000000
   1.75000000E+00    1.00000000E+00 

2    0
S    6    1.000000
   4.56324000E+03    1.96665000E-03 
   6.82024000E+02    1.52306000E-02 
   1.54973000E+02    7.61269000E-02 
   4.44553000E+01    2.60801000E-01 
   1.30290000E+01    6.16462000E-01 
   1.82773000E+00    2.21006000E-01 
SP   3    1.000000
   2.09642000E+01    1.14660000E-01   4.02487000E-02 
   4.80331000E+00    9.19999000E-01   2.37594000E-01 
   1.45933000E+00   -3.03068000E-03   8.15854000E-01 
SP   1    1.000000
   4.83456000E-01    1.00000000E+00   1.00000000E+00 
SP   1    1.000000
   1.45585000E-01    1.00000000E+00   1.00000000E+00 
SP   1    1.000000
   4.38000000E-02    1.00000000E+00   1.00000000E+00 
D    1    1.000000
   6.26000000E-01    1.00000000E+00 

3    0
S    6    1.000000
   4.56324000E+03    1.96665000E-03 
   6.82024000E+02    1.52306000E-02 
   1.54973000E+02    7.61269000E-02 
   4.44553000E+01    2.60801000E-01 
   1.30290000E+01    6.16462000E-01 
   1.82773000E+00    2.21006000E-01 
SP   3    1.000000
   2.09642000E+01    1.14660000E-01   4.02487000E-02 
   4.80331000E+00    9.19999000E-01   2.37594000E-01 
   1.45933000E+00   -3.03068000E-03   8.15854000E-01 
SP   1    1.000000
   4.83456000E-01    1.00000000E+00   1.00000000E+00 
SP   1    1.000000
   1.45585000E-01    1.00000000E+00   1.00000000E+00 
SP   1    1.000000
   4.38000000E-02    1.00000000E+00   1.00000000E+00 
D    1    1.000000
   6.26000000E-01    1.00000000E+00 

4    0
S    3    1.000000
   3.38650000E+01    2.54938000E-02 
   5.09479000E+00    1.90373000E-01 
   1.15879000E+00    8.52161000E-01 
S    1    1.000000
   3.25840000E-01    1.00000000E+00 
S    1    1.000000
   1.02741000E-01    1.00000000E+00 
S    1    1.000000
   3.60000000E-02    1.00000000E+00 
P    1    1.000000
   7.50000000E-01    1.00000000E+00 

5    0
S    3    1.000000
   3.38650000E+01    2.54938000E-02 
   5.09479000E+00    1.90373000E-01 
   1.15879000E+00    8.52161000E-01 
S    1    1.000000
   3.25840000E-01    1.00000000E+00 
S    1    1.000000
   1.02741000E-01    1.00000000E+00 
S    1    1.000000
   3.60000000E-02    1.00000000E+00 
P    1    1.000000
   7.50000000E-01    1.00000000E+00 

6    0
S    3    1.000000
   3.38650000E+01    2.54938000E-02 
   5.09479000E+00    1.90373000E-01 
   1.15879000E+00    8.52161000E-01 
S    1    1.000000
   3.25840000E-01    1.00000000E+00 
S    1    1.000000
   1.02741000E-01    1.00000000E+00 
S    1    1.000000
   3.60000000E-02    1.00000000E+00 
P    1    1.000000
   7.50000000E-01    1.00000000E+00 

[MO]
Sym=X
Ene= 2.005542
Spin=Alpha
Occup=1
     1    2.575757273340e-02
     2    3.774372411931e-02
     3    2.554789606312e-01
     4    1.827430329738e-01
     5   -3.873069046118e-13
     6   -1.259108635340e-01
     7    3.029716221699e-01
     8    2.158043640508e-01
     9   -4.559012398579e-13
    10   -2.405338818976e-03
    11    1.458164662586e-01
    12    1.120950498592e-01
    13   -2.750164059978e-13
    14    2.979760230620e-02
    15   -5.496613107413e-03
    16   -1.506015474131e-03
    17   -3.502314430920e-14
    18    8.983970607840e-03
    19    1.021399554298e-14
    20    5.741598706331e-15
    21   -7.385398098673e-03
    22   -1.342263256920e-02
    23   -1.609614690792e-02
    24   -2.607951669544e-02
    25   -2.654044528511e-02
    26   -8.343390733427e-02
    27    1.941939293599e-14
    28    6.241548244771e-02
    29   -5.899846272390e-02
    30   -1.188608741026e-01
    31    2.358681016364e-14
    32    4.419770529851e-02
    33   -3.013035004845e-02
    34   -8.806458269310e-02
    35    9.074196601579e-14
    36   -3.509907507467e-02
    37   -2.405005622890e-02
    38   -3.516955512157e-02
    39   -2.494270474957e-14
    40   -2.246770454434e-03
    41    2.459687780199e-15
    42    3.410623067138e-16
    43   -4.250181423053e-03
    44    4.513624529069e-03
    45    2.303548964480e-02
    46    3.508778743487e-02
    47   -8.796609876421e-02
    48   -4.911203990587e-02
    49   -3.042373877978e-15
    50   -7.536246603097e-02
    51   -1.700403950526e-01
    52   -9.175171289421e-02
    53   -1.810312069062e-14
    54   -3.278635567560e-02
    55   -2.379105153993e-02
    56   -1.546331281173e-02
    57    1.627701375919e-14
    58   -1.075307609470e-02
    59    8.262914296359e-04
    60    4.139706114695e-02
    61    1.824475507792e-14
    62    1.534705144717e-02
    63   -2.455187276647e-14
    64   -1.086692252064e-14
    65   -1.576816589713e-02
    66   -3.938215043048e-02
    67    1.371606351307e-02
    68    1.385731056328e-02
    69    2.540867418430e-02
    70    3.155297098255e-02
    71   -3.809009768265e-03
    72   -3.890637801314e-03
    73    1.770189319157e-15
    74   -5.097904192744e-02
    75   -8.358612443449e-02
    76    1.516452893447e-04
    77    2.057607417204e-02
    78   -2.446998337713e-03
    79    1.007167449415e-02
    80   -4.397675724880e-16
    81    6.666363372529e-02
    82    9.176202854656e-02
    83    6.684044834778e-03
    84   -1.949413581652e-02
    85    8.567823792816e-03
    86    2.931456212734e-03
    87   -2.077845700394e-15
Sym=X
Ene= 2.003567
Spin=Alpha
Occup=1
     1   -2.357364711987e-14
     2   -3.780166386390e-14
     3    2.842999490961e-13
     4    1.299379643253e-13
     5    4.133133687204e-01
     6    1.388976602489e-13
     7    3.371433218050e-13
     8    1.627222433588e-13
     9    4.812220220094e-01
    10    1.381301528621e-13
    11    1.497974615204e-13
    12    3.734582034168e-14
    13    3.062732133175e-01
    14    2.810837406149e-13
    15   -1.517653670963e-13
    16   -1.150752103852e-14
    17    1.402157758078e-02
    18    9.405464042089e-15
    19   -1.060270027156e-02
    20   -6.318835944766e-03
    21   -9.848957766461e-15
    22   -1.178044082386e-14
    23    3.745804457976e-15
    24   -7.915514523355e-15
    25   -4.427510967929e-14
    26   -7.488732845880e-14
    27   -1.175915999942e-02
    28    5.647437203370e-14
    29   -7.715091545551e-14
    30   -1.057852242683e-13
    31   -1.791682158939e-02
    32   -1.752506172605e-14
    33    5.912230049199e-16
    34   -3.412162418647e-14
    35   -2.659043417217e-02
    36    2.442803003653e-12
    37   -1.486065493691e-13
    38   -1.270693342981e-12
    39   -1.034405110288e-02
    40    1.325004876365e-14
    41    1.302904903063e-03
    42   -1.054205272597e-03
    43   -7.046735192167e-15
    44   -1.055407471541e-14
    45    7.469471459460e-14
    46    8.961280500921e-14
    47   -7.223410489247e-14
    48   -4.118439571240e-14
    49    1.849100650476e-02
    50   -1.374755098108e-13
    51   -1.485289353099e-13
    52   -8.666789588177e-14
    53    3.434244731866e-02
    54   -2.348968539510e-13
    55   -1.437682173224e-13
    56   -7.871956364081e-14
    57   -1.027926498853e-03
    58   -2.489410450809e-12
    59    6.927237727620e-13
    60    1.703736530479e-13
    61    9.224176879937e-03
    62    3.036322977958e-14
    63    2.364170124351e-02
    64    1.038584537948e-02
    65    2.620839192622e-15
    66   -4.126828163172e-14
    67   -6.331258122275e-15
    68    1.191727414471e-15
    69    7.194580845412e-14
    70    2.862524430611e-13
    71    2.628037021627e-15
    72   -1.186130833397e-14
    73    8.409924367232e-04
    74   -4.895705862881e-14
    75   -8.298022081515e-14
    76    9.197316504549e-14
    77    8.610905303994e-13
    78   -1.660810481774e-14
    79    5.469631181735e-15
    80   -5.406778381917e-04
    81    7.077887995524e-14
    82    2.043146185853e-13
    83   -2.674195518771e-13
    84   -1.105908380471e-12
    85    7.433729421870e-15
    86    3.328116438844e-15
    87   -1.480506254343e-03
Sym=X
Ene= 2.002231
Spin=Alpha
Occup=1
     1   -5.615872834978e-03
     2   -8.251873205308e-03
     3   -2.109244563256e-01
     4    3.495812086962e-01
     5    6.180189940329e-14
     6    2.708150810625e-02
     7   -2.456234184125e-01
     8    4.052585187523e-01
     9    6.676322191067e-14
    10    8.781869564807e-03
    11   -1.558026922650e-01
    12    2.638118897452e-01
    13    6.435682359289e-14
    14    1.289373767495e-03
    15   -1.316779766638e-03
    16    4.616338891045e-03
    17   -1.291364014860e-14
    18   -7.385570298644e-04
    19   -1.409240697121e-15
    20   -2.734019164023e-16
    21    9.134890560047e-03
    22   -3.840858484518e-03
    23    2.086258255410e-02
    24    3.389236664216e-02
    25    1.737883765729e-03
    26    4.655827253622e-03
    27   -1.276236239235e-14
    28   -8.366460382765e-02
    29    1.012401427150e-02
    30   -2.256377696046e-03
    31   -1.471383071364e-14
    32   -8.637096163134e-02
    33    2.720900192990e-03
    34    2.175691934034e-02
    35   -3.610052650645e-14
    36   -2.098208301303e-01
    37   -3.995718997782e-02
    38    3.006149924395e-02
    39    2.197260497169e-14
    40    1.468338690103e-03
    41    8.777752392638e-18
    42   -1.421346416559e-15
    43   -1.613737981643e-03
    44   -8.432990496301e-03
    45   -1.118986824661e-02
    46   -1.790346479805e-02
    47    1.329895953317e-02
    48   -2.233260243650e-02
    49   -4.328523816027e-15
    50    4.520656702648e-02
    51    3.257577524211e-02
    52   -3.434815614454e-02
    53   -5.352638568717e-15
    54    3.896170563354e-02
    55   -5.703888906909e-03
    56   -2.844558684450e-02
    57   -1.098316870882e-14
    58    1.607641790366e-01
    59   -7.216306502932e-02
    60    6.702854137763e-02
    61   -1.082832213997e-14
    62   -8.081020462655e-04
    63    3.742533115173e-16
    64   -3.403587189495e-15
    65   -2.878266902839e-02
    66    1.703169209963e-02
    67    3.838499122188e-02
    68    6.317045925036e-02
    69    3.512410406884e-02
    70    5.689578022599e-02
    71    3.072698595879e-03
    72    4.206230965053e-03
    73    2.137557975160e-15
    74   -1.442010385882e-02
    75   -1.701013390774e-02
    76   -2.691095348386e-03
    77   -1.469316986894e-02
    78    2.442270934101e-03
    79    2.522437786184e-03
    80   -1.874486225615e-15
    81   -1.997687135647e-02
    82   -2.091576449114e-02
    83    1.326241966276e-02
    84   -3.412703778505e-03
    85   -1.942002773856e-03
    86   -1.115445332350e-04
    87   -7.954681816921e-17
Sym=X
Ene= 2.000199
Spin=Alpha
Occup=1
     1    5.157759492429e-02
     2    7.622204075627e-02
     3   -2.460342560192e-02
     4    1.181107712948e-02
     5    1.230608188094e-14
     6   -2.598554384823e-01
     7   -2.129729963416e-02
     8    1.687277824154e-02
     9    1.283026582691e-14
    10   -9.299429344124e-02
    11   -3.428512506856e-02
    12    2.819289883265e-03
    13    1.599061545002e-14
    14    5.566898517425e-02
    15   -2.789594861766e-02
    16   -5.010005656477e-03
    17    1.539353417271e-14
    18    2.517428989628e-03
    19    2.246432418286e-15
    20    7.666025977479e-16
    21   -3.570644837343e-03
    22   -2.682194627803e-03
    23    4.853320252195e-02
    24    7.890783387493e-02
    25   -9.956921037785e-02
    26    6.656233208951e-02
    27   -4.107491255219e-14
    28   -1.949961537917e-01
    29   -1.539372346162e-01
    30    1.031257057521e-01
    31   -6.859004290509e-14
    32   -4.922782276655e-02
    33   -4.752467369790e-02
    34    4.030388260899e-02
    35   -6.091322064033e-14
    36   -4.743661000961e-04
    37   -8.026840164611e-03
    38   -2.132269763727e-02
    39   -1.412236841039e-14
    40    6.591289576421e-03
    41   -9.498252698913e-15
    42    3.126182140483e-15
    43   -1.425875631506e-02
    44    2.255606605006e-02
    45    9.424441848812e-02
    46    1.555108134224e-01
    47    8.729070097247e-02
    48   -2.076243705087e-02
    49   -4.623948829244e-14
    50   -4.073464367456e-01
    51    1.119311680556e-01
    52   -3.977254550645e-02
    53   -8.248730927128e-14
    54   -2.620160828749e-01
    55    3.463198258030e-02
    56   -2.562563880912e-02
    57   -7.473713519648e-14
    58   -8.240715000024e-03
    59   -5.150776551920e-03
    60    9.508219036747e-03
    61    5.677466809741e-16
    62    1.315541858514e-02
    63    4.972310970203e-15
    64   -6.502698445094e-15
    65   -4.813258050234e-03
    66    1.286449346220e-02
    67   -5.489164620512e-02
    68   -7.210952842303e-02
    69    1.051873233044e-02
    70    1.757689333876e-03
    71    5.467517960478e-03
    72   -1.411907776071e-02
    73   -2.635686074892e-15
    74    1.758416420505e-02
    75    2.929912726524e-02
    76    2.392198910340e-02
    77    1.771127783715e-02
    78   -5.095955306225e-03
    79    2.135463388699e-03
    80   -2.763856434500e-15
    81    1.542797025841e-03
    82    1.126038393708e-02
    83    1.578828756582e-02
    84   -2.228337319845e-02
    85   -7.167342452115e-03
    86    1.797359323629e-03
    87   -3.857335416462e-15
Sym=X
Ene= 1.999999
Spin=Alpha
Occup=1
     1   -1.150058142992e-03
     2   -1.703074227790e-03
     3   -1.663692035653e-03
     4    3.114962185378e-03
     5   -1.911331594079e-14
     6    5.972454725680e-03
     7   -1.951502060393e-03
     8    3.552127546382e-03
     9   -2.015342792513e-14
    10    2.911658131026e-03
    11   -1.466659129105e-03
    12    2.320843768512e-03
    13   -1.329768962390e-14
    14    1.233083666866e-03
    15   -8.113400358459e-04
    16    3.761987630183e-04
    17   -7.311396552258e-15
    18   -2.193081234307e-05
    19   -9.801218984563e-16
    20   -7.944496883788e-16
    21   -1.985183452965e-05
    22   -1.845698587540e-05
    23    5.555296117472e-01
    24    4.555610541391e-01
    25   -6.518777622366e-03
    26    5.651222751363e-03
    27    2.093872792345e-14
    28    2.742166912782e-02
    29   -1.035306270938e-02
    30    8.517419231643e-03
    31    3.325515473548e-14
    32    1.940170013500e-02
    33   -3.800206445306e-03
    34    4.856744999281e-03
    35    3.504262583092e-14
    36   -2.226851862925e-03
    37   -5.233563217688e-04
    38   -1.210720049408e-04
    39   -1.371155899582e-15
    40   -1.367161425563e-03
    41    4.579792302215e-15
    42   -3.659344918012e-15
    43   -9.280489595106e-04
    44    8.556209563372e-04
    45   -3.068240030609e-02
    46   -2.486889908401e-02
    47    1.604700744649e-03
    48   -1.281869755782e-03
    49    2.238735485250e-14
    50   -3.576074780871e-03
    51    2.868421709246e-03
    52   -1.815065397887e-03
    53    3.756011356040e-14
    54   -6.417231835752e-03
    55    2.279897362712e-03
    56   -3.053082452124e-03
    57    2.910383874222e-14
    58    1.255756036291e-03
    59   -3.799391501695e-04
    60    8.760228149601e-05
    61    6.395820519016e-15
    62    9.349783609983e-06
    63   -2.386837661091e-15
    64    2.615344561268e-15
    65   -1.852337664094e-04
    66   -1.179809419272e-04
    67    7.629842177996e-04
    68    1.520974806725e-03
    69    8.401082054494e-04
    70    3.637587371025e-05
    71    6.804702865426e-05
    72    6.541244322731e-05
    73    1.401162740965e-15
    74    1.036386497563e-02
    75    1.427315863817e-02
    76    2.341912552153e-03
    77    1.178254950616e-03
    78   -1.672066017563e-04
    79   -1.727190790299e-03
    80    1.428010025625e-15
    81    7.543723974296e-03
    82    1.012223105482e-02
    83    1.654457194267e-03
    84   -3.323211449263e-05
    85    8.677942277751e-04
    86    1.061793784707e-03
    87    8.116172494512e-17
Sym=X
Ene= 1.999995
Spin=Alpha
Occup=1
     1    9.352063656690e-04
     2    1.404957923375e-03
     3   -1.932811816403e-03
     4    2.708516034562e-03
     5    1.856419527234e-14
     6   -4.755906318742e-03
     7   -1.565470543553e-03
     8    3.467324540324e-03
     9    2.347228935412e-14
    10   -2.189316311635e-03
    11   -1.668842775767e-03
    12    1.973868607241e-03
    13    9.521773000647e-15
    14    2.890937379013e-03
    15   -1.325540540127e-03
    16    2.206065905424e-04
    17   -6.534482827374e-15
    18    1.592957564274e-04
    19   -2.059360496377e-15
    20   -8.459988967745e-16
    21   -2.292401652464e-04
    22   -2.752217635567e-04
    23   -3.854412262041e-02
    24   -3.613435730810e-02
    25   -7.468223770723e-03
    26    3.573152436994e-03
    27    3.797580931369e-14
    28    2.091562990698e-02
    29   -1.034645550113e-02
    30    4.731679722894e-03
    31    6.145188154512e-14
    32    1.858328579195e-02
    33   -4.547521620941e-03
    34    2.915243155130e-03
    35    5.761554457285e-14
    36   -7.805933682212e-04
    37    2.041109247176e-04
    38   -6.921912888215e-05
    39    2.097906556196e-15
    40   -9.986868412241e-04
    41    8.013357136195e-15
    42   -4.987393584744e-15
    43   -8.128032115777e-04
    44    8.560340949428e-04
    45   -5.607647475717e-01
    46   -4.638771928010e-01
    47   -1.893718022563e-03
    48   -3.536835789681e-03
    49    4.190449426860e-14
    50   -7.001780350064e-03
    51    4.464097181020e-03
    52   -2.004931184943e-03
    53    7.786911490577e-14
    54   -5.536083361560e-03
    55    9.287440998340e-04
    56   -3.846795220324e-03
    57    5.779316115702e-14
    58   -1.816797485061e-03
    59    2.359660057563e-04
    60   -6.190676236736e-04
    61    6.046857604285e-15
    62    3.789820791438e-04
    63   -1.248092066763e-15
    64    5.397394614680e-15
    65   -1.555553469285e-04
    66    5.550302060467e-04
    67    8.092144066195e-04
    68    2.189090999410e-03
    69   -2.754765752821e-05
    70    1.972558072232e-04
    71    4.974905020662e-05
    72    2.622946536163e-04
    73    2.471956244022e-15
    74    7.661174720659e-03
    75    1.102949049315e-02
    76    1.135665639405e-03
    77    1.258338999485e-03
    78   -2.781038818950e-04
    79   -1.442625561420e-03
    80    3.218845636496e-15
    81    7.945852351862e-03
    82    1.149303716598e-02
    83    1.694249366235e-03
    84    8.616916403047e-04
    85    9.625933903041e-04
    86    1.143130309955e-03
    87    2.033935295655e-15
Sym=X
Ene= 1.999973
Spin=Alpha
Occup=1
     1   -1.931103404348e-02
     2   -2.862549213026e-02
     3   -2.006291727729e-02
     4    5.583169662271e-02
     5   -3.288288488573e-14
     6    1.004271570573e-01
     7   -2.390672119818e-02
     8    6.414722275181e-02
     9   -3.678368948740e-14
    10    5.021517462363e-02
    11   -1.925433885877e-02
    12    3.953505556662e-02
    13   -1.768574452024e-14
    14    1.712101979077e-02
    15   -9.628814702788e-03
    16    4.125042077539e-03
    17   -4.425398432705e-15
    18   -1.922927953546e-04
    19    9.549603758355e-16
    20   -9.205468701443e-17
    21    5.044510722968e-04
    22   -8.680069113766e-04
    23   -1.163002085252e-01
    24   -1.618568228520e-01
    25   -8.802867076173e-02
    26    8.676286349675e-02
    27    5.525546517106e-15
    28    3.285982025516e-01
    29   -1.332235222660e-01
    30    1.329926435797e-01
    31    1.022671428830e-14
    32    2.793117318593e-01
    33   -4.772092215635e-02
    34    7.520565393623e-02
    35    1.269914564350e-14
    36   -4.392914430766e-02
    37   -9.350190617357e-03
    38   -2.995517338866e-03
    39    2.967867867836e-16
    40   -1.268382608644e-02
    41    1.473430097915e-15
    42   -1.027276790899e-15
    43   -1.481815013916e-02
    44    1.382454391028e-02
    45    4.862130157256e-02
    46    5.197999091293e-02
    47    2.192781639681e-02
    48   -3.538032751008e-03
    49    6.525706481345e-15
    50   -6.831624752314e-02
    51    2.503483389779e-02
    52   -3.138542801654e-03
    53    1.052127899916e-14
    54   -9.651877192435e-02
    55    2.673540908447e-02
    56   -2.908941152439e-02
    57    1.316368837897e-14
    58    1.884049338576e-02
    59   -6.973003350030e-03
    60    5.093022555654e-03
    61    7.435420381384e-16
    62   -1.305082707179e-03
    63   -2.125625610764e-15
    64    6.219231328686e-17
    65   -3.300065202587e-03
    66   -2.029418116493e-03
    67   -3.235014222508e-03
    68    7.631401554416e-04
    69    1.255381954061e-02
    70    3.512757926802e-03
    71    1.494714146048e-03
    72   -1.692415135573e-03
    73    3.179035189854e-16
    74    1.460344251355e-01
    75    2.109727856605e-01
    76    3.059666941061e-02
    77    2.156591734939e-02
    78   -1.966084582111e-03
    79   -2.554049016882e-02
    80   -2.173195328573e-16
    81    9.276223641782e-02
    82    1.335011542374e-01
    83    1.557277513098e-02
    84    5.206047250199e-04
    85    1.192989918190e-02
    86    1.506812951090e-02
    87    1.390774849776e-15
Sym=X
Ene= 1.999774
Spin=Alpha
Occup=1
     1    2.368369927439e-03
     2    3.655095570660e-03
     3   -2.144528092782e-02
     4   -5.301695572999e-02
     5    8.390059821354e-14
     6   -1.616873455757e-02
     7   -2.446627332348e-02
     8   -6.479798950052e-02
     9    8.447271388086e-14
    10   -2.143228390395e-02
    11   -1.354629175537e-02
    12   -2.646431502350e-02
    13    9.193616762148e-14
    14   -8.989826099005e-04
    15   -1.397532882280e-02
    16    2.899956367922e-02
    17    9.547273216508e-14
    18   -1.761965327459e-03
    19    1.815075458669e-14
    20    8.835090415658e-15
    21   -6.957681060512e-03
    22    7.684977081816e-03
    23    1.941057173865e-02
    24    3.535241822390e-02
    25   -1.055118668147e-01
    26   -2.505369167757e-03
    27   -3.246025430234e-13
    28   -9.983026580049e-02
    29   -1.555303249333e-01
    30   -4.624882553018e-03
    31   -5.530914371276e-13
    32   -3.351319649722e-03
    33   -6.527739582642e-02
    34   -1.714397075284e-03
    35   -4.902745722709e-13
    36    1.153140571001e-01
    37    3.015870515445e-02
    38   -5.697740085230e-03
    39   -5.731838115866e-14
    40    3.444409952351e-03
    41   -6.368736606249e-14
    42    3.343853635551e-14
    43   -1.158147366078e-02
    44    1.006400022811e-02
    45   -2.045716160716e-02
    46   -3.974178709691e-02
    47    9.685286811550e-02
    48   -1.759422049602e-01
    49   -3.700485398539e-13
    50    1.180555159521e-01
    51    1.535886432782e-01
    52   -2.664111196055e-01
    53   -6.373349079458e-13
    54    9.215016315056e-02
    55    7.650500622371e-02
    56   -1.579458051268e-01
    57   -5.395686410545e-13
    58   -8.782246185055e-02
    59    3.275824849022e-02
    60   -4.529446100201e-02
    61   -3.332105654041e-14
    62   -6.905627737123e-03
    63    3.727160837207e-14
    64   -4.928859919716e-14
    65   -1.471937574342e-03
    66    3.067623715605e-03
    67    1.594939056533e-01
    68    2.339123164889e-01
    69    1.737192252619e-02
    70   -2.326752062404e-02
    71   -5.713702645869e-05
    72    2.774320380305e-02
    73   -2.508985937531e-14
    74   -1.094332383381e-02
    75   -1.222623334984e-02
    76    1.124290832822e-02
    77   -1.961564851637e-03
    78   -6.385091676820e-03
    79    4.943650656551e-03
    80   -2.496729351116e-14
    81    4.895839517386e-02
    82    7.584427638199e-02
    83    2.120542689846e-02
    84    1.115359464388e-02
    85    3.362081692946e-03
    86    5.624399823562e-03
    87   -2.423051180981e-14
Sym=X
Ene= 1.999235
Spin=Alpha
Occup=1
     1   -1.124002115401e-01
     2   -1.667388150670e-01
     3    1.667595182209e-01
     4    6.233007704066e-02
     5    1.500669492159e-13
     6    5.848471390411e-01
     7    1.888194247129e-01
     8    6.883655062777e-02
     9    1.442239908105e-13
    10    2.781312791241e-01
    11    1.097624519976e-01
    12    3.970186895568e-02
    13    2.004179535555e-13
    14    1.467686860254e-02
    15   -6.009832595010e-03
    16    3.171027245922e-03
    17    3.005257160778e-13
    18    2.368255480457e-03
    19    5.969533103567e-14
    20    2.845053400661e-14
    21   -4.462671995469e-03
    22   -2.766208253588e-03
    23    3.451276291959e-02
    24    5.632206473057e-02
    25    8.828646582046e-03
    26    7.257622872664e-02
    27   -1.018399864722e-12
    28   -1.408206459448e-01
    29    1.059005195736e-02
    30    1.136409336282e-01
    31   -1.738514479177e-12
    32   -6.449575714622e-02
    33    2.766781500887e-02
    34    6.597212575533e-02
    35   -1.510343960206e-12
    36   -3.395773267294e-03
    37   -1.562564432307e-02
    38   -2.439097920511e-02
    39   -1.518190142892e-13
    40    4.841297803503e-03
    41   -1.958348607638e-13
    42    1.036076262102e-13
    43   -1.365951060529e-02
    44    8.840851438937e-04
    45    1.658111807882e-02
    46    3.513436575436e-02
    47    3.037274472937e-02
    48   -3.552960940722e-02
    49   -1.151839725365e-12
    50   -1.168603389876e-01
    51    3.479925517468e-02
    52   -6.180485617073e-02
    53   -1.994903952457e-12
    54   -6.151979192314e-02
    55    1.298541337693e-02
    56   -3.405929467718e-02
    57   -1.657246967358e-12
    58   -2.556334983216e-03
    59    7.349281108116e-03
    60    1.933543173515e-02
    61   -1.414124859329e-13
    62    2.514580441495e-03
    63    1.157447087916e-13
    64   -1.575092018931e-13
    65   -1.189907099503e-02
    66   -5.180209847603e-03
    67    1.302690795763e-02
    68    2.207859597957e-02
    69    2.646752073418e-02
    70    1.291338646900e-02
    71    2.006258350821e-04
    72   -3.124222048347e-03
    73   -7.708481859376e-14
    74    3.325081149707e-02
    75    5.362883630853e-02
    76    3.503581756535e-02
    77    2.059718806627e-02
    78    1.431969184423e-03
    79   -4.455451229489e-04
    80   -8.074078640231e-14
    81   -6.954114046635e-02
    82   -1.034673281997e-01
    83   -2.261016867977e-02
    84   -2.868735824528e-02
    85   -1.236508135813e-02
    86   -3.528058173573e-03
    87   -8.126419740756e-14
Sym=X
Ene= 1.999064
Spin=Alpha
Occup=1
     1   -6.336762162402e-13
     2   -9.420806413419e-13
     3    1.050266845771e-12
     4    3.155261239993e-13
     5   -4.133063640837e-02
     6    3.292421143607e-12
     7    1.193696391583e-12
     8    3.377696372325e-13
     9   -4.347115905565e-02
    10    1.545331702347e-12
    11    6.875447285219e-13
    12    2.175231771013e-13
    13   -4.365374452437e-02
    14    2.874871934731e-14
    15   -8.349210892288e-15
    16    8.558428724805e-14
    17   -4.818048202035e-02
    18    1.224106348068e-14
    19   -8.983080035149e-03
    20   -4.270742664456e-03
    21   -4.450195436883e-14
    22   -3.580909258317e-15
    23    2.156891771137e-13
    24    4.067887368482e-13
    25   -1.107687420780e-13
    26    5.547488561320e-13
    27    1.618278646855e-01
    28   -1.166147516177e-12
    29   -1.818013072426e-13
    30    8.704871554941e-13
    31    2.741370366188e-01
    32   -4.945525524512e-13
    33    5.976980461872e-14
    34    5.427874356747e-13
    35    2.435368537793e-01
    36   -4.393835030279e-13
    37    4.779020750337e-13
    38    8.037186922454e-13
    39    2.543227470019e-02
    40    4.050749786887e-14
    41    3.115181665114e-02
    42   -1.631457145913e-02
    43   -1.269919616283e-13
    44    2.300011082908e-14
    45    1.992542978558e-13
    46    2.552036577626e-13
    47    4.033639663904e-13
    48   -6.156472095692e-13
    49    1.823379880245e-01
    50   -5.115731378730e-13
    51    5.437879192912e-13
    52   -9.908242850686e-13
    53    3.154060545994e-01
    54   -5.507755859257e-14
    55    2.319653989894e-13
    56   -5.438860669683e-13
    57    2.644016384760e-01
    58    4.950820331796e-13
    59   -1.151392180161e-13
    60   -3.843576436393e-13
    61    2.006490849675e-02
    62    1.368464060652e-15
    63   -1.957794639024e-02
    64    2.408685617336e-02
    65   -1.056513107812e-13
    66   -5.068376874334e-14
    67    4.433174732689e-13
    68    6.632452153162e-13
    69    1.782486833883e-13
    70   -3.025288032012e-13
    71    3.679842691907e-15
    72    3.452184334683e-14
    73    1.247402364000e-02
    74    2.581419346648e-13
    75    4.263266414943e-13
    76    1.305158317423e-13
    77   -6.222602500984e-13
    78    3.712130458761e-15
    79    2.692775352789e-15
    80    1.257863088594e-02
    81   -4.367432240690e-13
    82   -6.721259878536e-13
    83    8.605061659897e-14
    84    8.937727899583e-13
    85   -8.266453274786e-14
    86   -1.480966806688e-14
    87    1.245123590801e-02
Sym=X
Ene= 1.997944
Spin=Alpha
Occup=1
     1    7.436701781404e-02
     2    1.101924875547e-01
     3    1.078893691712e-01
     4    3.628981256793e-02
     5    1.265977109132e-13
     6   -3.919474252749e-01
     7    1.284056254825e-01
     8    4.333195486439e-02
     9    1.457732289200e-13
    10   -1.715791645555e-01
    11    6.632952334311e-02
    12    2.009971184592e-02
    13    1.093683528489e-13
    14   -3.273995788110e-02
    15    1.973443646559e-02
    16    1.711254762396e-02
    17    2.120161109791e-14
    18    1.535204577209e-03
    19    4.628682572970e-15
    20    1.853761004867e-15
    21   -3.532292738680e-03
    22   -2.862384629568e-03
    23   -5.546025366865e-04
    24   -4.721329798933e-04