[Molden Format]
[Atoms] (Angs)
  F      1    9      1.15290231      0.22477664     -0.00000000
  C      2    6     -1.17935012      0.19972949     -0.00000000
  C      3    6     -0.01631886     -0.43556811      0.00000000
  H      4    1      0.11895302     -1.50789969      0.00000000
  H      5    1     -1.23082549      1.27856114     -0.00000000
  H      6    1     -2.09023450     -0.37861944      0.00000000
[GTO]
1    0
S    6    1.000000
   1.14271000E+04    1.80093000E-03 
   1.72235000E+03    1.37419000E-02 
   3.95746000E+02    6.81334000E-02 
   1.15139000E+02    2.33325000E-01 
   3.36026000E+01    5.89086000E-01 
   4.91901000E+00    2.99505000E-01 
SP   3    1.000000
   5.54441000E+01    1.14536000E-01   3.54609000E-02 
   1.26323000E+01    9.20512000E-01   2.37451000E-01 
   3.71756000E+00   -3.37804000E-03   8.20458000E-01 
SP   1    1.000000
   1.16545000E+00    1.00000000E+00   1.00000000E+00 
SP   1    1.000000
   3.21892000E-01    1.00000000E+00   1.00000000E+00 
SP   1    1.000000
   1.07600000E-01    1.00000000E+00   1.00000000E+00 
D    1    1.000000
   1.75000000E+00    1.00000000E+00 

2    0
S    6    1.000000
   4.56324000E+03    1.96665000E-03 
   6.82024000E+02    1.52306000E-02 
   1.54973000E+02    7.61269000E-02 
   4.44553000E+01    2.60801000E-01 
   1.30290000E+01    6.16462000E-01 
   1.82773000E+00    2.21006000E-01 
SP   3    1.000000
   2.09642000E+01    1.14660000E-01   4.02487000E-02 
   4.80331000E+00    9.19999000E-01   2.37594000E-01 
   1.45933000E+00   -3.03068000E-03   8.15854000E-01 
SP   1    1.000000
   4.83456000E-01    1.00000000E+00   1.00000000E+00 
SP   1    1.000000
   1.45585000E-01    1.00000000E+00   1.00000000E+00 
SP   1    1.000000
   4.38000000E-02    1.00000000E+00   1.00000000E+00 
D    1    1.000000
   6.26000000E-01    1.00000000E+00 

3    0
S    6    1.000000
   4.56324000E+03    1.96665000E-03 
   6.82024000E+02    1.52306000E-02 
   1.54973000E+02    7.61269000E-02 
   4.44553000E+01    2.60801000E-01 
   1.30290000E+01    6.16462000E-01 
   1.82773000E+00    2.21006000E-01 
SP   3    1.000000
   2.09642000E+01    1.14660000E-01   4.02487000E-02 
   4.80331000E+00    9.19999000E-01   2.37594000E-01 
   1.45933000E+00   -3.03068000E-03   8.15854000E-01 
SP   1    1.000000
   4.83456000E-01    1.00000000E+00   1.00000000E+00 
SP   1    1.000000
   1.45585000E-01    1.00000000E+00   1.00000000E+00 
SP   1    1.000000
   4.38000000E-02    1.00000000E+00   1.00000000E+00 
D    1    1.000000
   6.26000000E-01    1.00000000E+00 

4    0
S    3    1.000000
   3.38650000E+01    2.54938000E-02 
   5.09479000E+00    1.90373000E-01 
   1.15879000E+00    8.52161000E-01 
S    1    1.000000
   3.25840000E-01    1.00000000E+00 
S    1    1.000000
   1.02741000E-01    1.00000000E+00 
S    1    1.000000
   3.60000000E-02    1.00000000E+00 
P    1    1.000000
   7.50000000E-01    1.00000000E+00 

5    0
S    3    1.000000
   3.38650000E+01    2.54938000E-02 
   5.09479000E+00    1.90373000E-01 
   1.15879000E+00    8.52161000E-01 
S    1    1.000000
   3.25840000E-01    1.00000000E+00 
S    1    1.000000
   1.02741000E-01    1.00000000E+00 
S    1    1.000000
   3.60000000E-02    1.00000000E+00 
P    1    1.000000
   7.50000000E-01    1.00000000E+00 

6    0
S    3    1.000000
   3.38650000E+01    2.54938000E-02 
   5.09479000E+00    1.90373000E-01 
   1.15879000E+00    8.52161000E-01 
S    1    1.000000
   3.25840000E-01    1.00000000E+00 
S    1    1.000000
   1.02741000E-01    1.00000000E+00 
S    1    1.000000
   3.60000000E-02    1.00000000E+00 
P    1    1.000000
   7.50000000E-01    1.00000000E+00 

[MO]
Sym=X
Ene= 2.005457
Spin=Alpha
Occup=1
     1    2.554083831425e-02
     2    3.742659776612e-02
     3    2.603160487459e-01
     4    1.850995976381e-01
     5   -4.191841103121e-13
     6   -1.250172435683e-01
     7    3.083367649045e-01
     8    2.184769566076e-01
     9   -4.927983546083e-13
    10   -2.694891423876e-03
    11    1.489576353205e-01
    12    1.135392477373e-01
    13   -2.981154665933e-13
    14    2.764358783650e-02
    15   -4.241933668379e-03
    16   -1.433776645476e-03
    17   -3.665562613804e-14
    18    9.080345537247e-03
    19    1.096827011260e-14
    20    6.565074379360e-15
    21   -7.239248268345e-03
    22   -1.365526034182e-02
    23   -1.642316688097e-02
    24   -2.661586283971e-02
    25   -2.146188189966e-02
    26   -8.080295419014e-02
    27    2.137573695080e-14
    28    6.343426787352e-02
    29   -5.150322616683e-02
    30   -1.149796373918e-01
    31    2.635938790466e-14
    32    4.272707333877e-02
    33   -2.557298934189e-02
    34   -8.137546784473e-02
    35    9.616308127017e-14
    36   -5.229591662559e-02
    37   -3.064291946669e-02
    38   -3.266951488782e-02
    39   -2.703037953068e-14
    40   -2.375967785203e-03
    41    2.395027679125e-15
    42    4.527205159195e-16
    43   -4.631853990859e-03
    44    3.550950603039e-03
    45    2.084264416640e-02
    46    3.123512388122e-02
    47   -9.004675757209e-02
    48   -5.049276734673e-02
    49   -3.799689007600e-15
    50   -6.445027439662e-02
    51   -1.732792180671e-01
    52   -9.401428940838e-02
    53   -1.949907134577e-14
    54   -2.300670869214e-02
    55   -2.438175801362e-02
    56   -1.527211012657e-02
    57    1.613550482993e-14
    58    6.662448305366e-03
    59   -4.110503202711e-03
    60    4.636847669153e-02
    61    2.041736756792e-14
    62    1.521787678015e-02
    63   -2.658360738651e-14
    64   -1.144207793835e-14
    65   -1.694100549012e-02
    66   -4.058119149732e-02
    67    1.703470936117e-02
    68    1.898586570708e-02
    69    2.659007829524e-02
    70    3.631910083172e-02
    71   -3.807186969493e-03
    72   -3.414189569155e-03
    73    1.837081384736e-15
    74   -4.850091051010e-02
    75   -8.109230923185e-02
    76   -5.728829162764e-05
    77    2.031856655190e-02
    78   -1.676927859462e-03
    79    9.972510466584e-03
    80   -3.602776777708e-16
    81    6.226015291374e-02
    82    8.603188239195e-02
    83    5.009287208288e-03
    84   -2.321377312352e-02
    85    8.001803943815e-03
    86    3.216929061861e-03
    87   -1.879989142621e-15
Sym=X
Ene= 2.003567
Spin=Alpha
Occup=1
     1   -2.349699834456e-14
     2   -3.773385279357e-14
     3    3.093620255676e-13
     4    1.486216683473e-13
     5    4.134283500105e-01
     6    1.387501903080e-13
     7    3.662018884695e-13
     8    1.844282983979e-13
     9    4.812906795261e-01
    10    1.425354355538e-13
    11    1.646341624781e-13
    12    4.930175923702e-14
    13    3.059603838210e-01
    14    2.762234150387e-13
    15   -1.495918553298e-13
    16   -1.359365036226e-14
    17    1.391938110664e-02
    18    1.012788135645e-14
    19   -1.058330487370e-02
    20   -6.673839029230e-03
    21   -1.020905079377e-14
    22   -1.304648852562e-14
    23    1.172071654947e-14
    24   -2.161687597263e-15
    25   -3.903138794378e-14
    26   -8.099788132937e-14
    27   -1.173021499437e-02
    28    6.026452554814e-14
    29   -7.066731646558e-14
    30   -1.143294127316e-13
    31   -1.781727112687e-02
    32   -1.961996790453e-14
    33    8.986016169017e-16
    34   -3.569108075237e-14
    35   -2.665840191626e-02
    36    2.285412900295e-12
    37   -2.131084326096e-13
    38   -1.248223871290e-12
    39   -1.037901622437e-02
    40    1.314175637655e-14
    41    1.368819933334e-03
    42   -1.091472862937e-03
    43   -7.293055232337e-15
    44   -1.197263577554e-14
    45    1.357121027279e-13
    46    1.382499750650e-13
    47   -8.255969352348e-14
    48   -4.602110291838e-14
    49    1.854433664556e-02
    50   -1.262546047378e-13
    51   -1.674623035708e-13
    52   -9.572710601313e-14
    53    3.445196149320e-02
    54   -2.165561284375e-13
    55   -1.492517724883e-13
    56   -8.001207919971e-14
    57   -7.727992394916e-04
    58   -2.333492908312e-12
    59    6.458250771950e-13
    60    2.280320676027e-13
    61    9.291148778586e-03
    62    3.142374626922e-14
    63    2.378277777667e-02
    64    1.032290554302e-02
    65    4.803828920025e-16
    66   -4.554592259254e-14
    67   -1.991527867783e-15
    68    6.815433001980e-15
    69    7.216933248783e-14
    70    3.431407698897e-13
    71    2.036696498443e-15
    72   -1.146411116014e-14
    73    8.127639569314e-04
    74   -5.269319451286e-14
    75   -9.012239991055e-14
    76    8.819994410034e-14
    77    8.398274337320e-13
    78   -1.602151405344e-14
    79    6.462067371901e-15
    80   -5.264243541533e-04
    81    7.009968240405e-14
    82    2.043670728258e-13
    83   -2.764617683418e-13
    84   -1.131808322111e-12
    85    7.521746589553e-15
    86    3.947283323954e-15
    87   -1.494802010763e-03
Sym=X
Ene= 2.002229
Spin=Alpha
Occup=1
     1   -4.338003392078e-03
     2   -6.355977421556e-03
     3   -2.120713376360e-01
     4    3.497166962515e-01
     5    6.054316547499e-14
     6    2.082404021655e-02
     7   -2.469479813440e-01
     8    4.054598434499e-01
     9    6.555510824264e-14
    10    4.367725953038e-03
    11   -1.560166986018e-01
    12    2.638402733627e-01
    13    6.310125976935e-14
    14    2.884835970713e-04
    15   -8.390499480975e-04
    16    4.792028205896e-03
    17   -1.353023306434e-14
    18   -5.805251526681e-04
    19   -1.570764265306e-15
    20   -1.981050039783e-16
    21    9.527426026901e-03
    22   -3.731689617448e-03
    23    1.987979849718e-02
    24    3.208142474264e-02
    25    2.878513940760e-03
    26    6.233017311378e-03
    27   -1.185154933797e-14
    28   -7.846048828720e-02
    29    1.212783689074e-02
    30   -4.504235035295e-05
    31   -1.306207916743e-14
    32   -8.333486240868e-02
    33    4.597911814079e-03
    34    2.259651258941e-02
    35   -3.544249600846e-14
    36   -2.013424751693e-01
    37   -3.537788145952e-02
    38    2.403322066749e-02
    39    2.430103347465e-14
    40    1.295349995937e-03
    41    2.833579383652e-16
    42   -1.585897971395e-15
    43   -1.705323049356e-03
    44   -8.621771559385e-03
    45   -1.095508264385e-02
    46   -1.789950499207e-02
    47    1.249194886461e-02
    48   -2.073235100712e-02
    49   -2.847203226434e-15
    50    4.627845391178e-02
    51    3.192384252158e-02
    52   -3.162038353593e-02
    53   -2.948429092899e-15
    54    3.737680238230e-02
    55   -4.952657447502e-03
    56   -2.617433919565e-02
    57   -7.731000752731e-15
    58    1.526637935424e-01
    59   -6.812672859248e-02
    60    6.128803051391e-02
    61   -1.263189401619e-14
    62   -8.461102123459e-04
    63    2.781987546012e-16
    64   -3.267901172503e-15
    65   -2.900799068662e-02
    66    1.691995385631e-02
    67    3.778648794155e-02
    68    6.295190423160e-02
    69    3.571910711670e-02
    70    4.754236165066e-02
    71    3.368236018186e-03
    72    4.165710123795e-03
    73    2.200589979712e-15
    74   -1.220273446335e-02
    75   -1.366846667958e-02
    76   -4.335351347030e-04
    77   -6.304378325153e-03
    78    2.602819415833e-03
    79    2.071549766556e-03
    80   -1.804146444148e-15
    81   -2.038509336506e-02
    82   -2.168916274341e-02
    83    1.389268920564e-02
    84   -4.068031059996e-03
    85   -1.847119263611e-03
    86   -2.119575718348e-04
    87    4.282326526046e-18
Sym=X
Ene= 2.000136
Spin=Alpha
Occup=1
     1    5.814506852100e-02
     2    8.595612677116e-02
     3   -2.473332916194e-02
     4    6.836351432656e-03
     5    2.037659446255e-14
     6   -2.935514078928e-01
     7   -2.125399749572e-02
     8    1.184277329179e-02
     9    2.323870453429e-14
    10   -1.075658716029e-01
    11   -3.316435803212e-02
    12   -1.587489525306e-03
    13    1.732297008385e-14
    14    5.386362366870e-02
    15   -2.490685125931e-02
    16   -1.011321514639e-02
    17    8.204540632615e-15
    18    2.726833561434e-03
    19    2.296028853798e-16
    20   -2.174646785429e-16
    21   -2.581248306522e-03
    22   -3.326381517251e-03
    23    5.232709878756e-02
    24    8.952526925415e-02
    25   -7.196848287463e-02
    26    3.986284744184e-02
    27   -1.365849410849e-14
    28   -2.319218237922e-01
    29   -1.125267943759e-01
    30    6.224576296727e-02
    31   -2.154916046114e-14
    32   -9.891039679780e-02
    33   -3.541609613832e-02
    34    1.724446821626e-02
    35   -2.149536971356e-14
    36   -1.176898217614e-02
    37   -1.227750423940e-02
    38   -1.975928493174e-02
    39   -7.172637084503e-15
    40    8.121921475673e-03
    41   -3.975797737324e-15
    42    3.079565236348e-16
    43   -8.403073873825e-03
    44    1.853391946237e-02
    45    8.253851500737e-02
    46    1.439114910217e-01
    47    6.714074972786e-02
    48    2.176078050751e-03
    49   -1.392266761570e-14
    50   -3.957921684403e-01
    51    8.284917220807e-02
    52   -5.050909761279e-03
    53   -2.673129949210e-14
    54   -2.469298242326e-01
    55    1.451044966401e-02
    56    5.566912057918e-04
    57   -2.772883471055e-14
    58    3.430328724408e-03
    59   -9.138258767520e-03
    60    1.601219636086e-02
    61    1.507999172273e-15
    62    1.405163573597e-02
    63    2.682725173798e-15
    64   -1.802622275018e-15
    65   -2.616946809011e-03
    66    1.342494769835e-02
    67   -7.328335261014e-02
    68   -1.009625818342e-01
    69    4.691771612925e-03
    70    5.718994559210e-03
    71    4.588029672497e-03
    72   -1.674575798228e-02
    73   -5.340391660808e-16
    74   -1.479789103925e-02
    75   -1.851732348448e-02
    76    1.322086408970e-02
    77    1.348611749557e-02
    78   -4.076117229450e-03
    79    6.857505896010e-03
    80   -5.221142129577e-16
    81   -1.321295376515e-02
    82   -1.021224792682e-02
    83    1.243290752077e-02
    84   -2.408328165446e-02
    85   -8.395750735068e-03
    86   -1.383274026857e-03
    87   -1.876313587797e-15
Sym=X
Ene= 2.000016
Spin=Alpha
Occup=1
     1   -2.196243631830e-03
     2   -3.256796480701e-03
     3   -4.189186490517e-02
     4    2.914611820288e-02
     5   -3.383666697408e-16
     6    1.226323282341e-02
     7   -4.738088104569e-02
     8    3.308297039601e-02
     9   -2.292111538269e-15
    10    8.955487896937e-03
    11   -3.606832507615e-02
    12    2.324657981836e-02
    13    1.407936829151e-14
    14    2.675998872472e-02
    15   -1.892562192976e-02
    16    1.063509853759e-02
    17    2.074511309712e-14
    18   -3.313082286081e-04
    19    5.064559294676e-15
    20    1.790612671181e-15
    21   -2.140309327647e-03
    22    1.345468838972e-03
    23    9.416338346761e-02
    24    3.204659670241e-02
    25   -1.366496762352e-01
    26    7.799624546814e-02
    27   -7.460307145417e-14
    28    2.308691895702e-01
    29   -2.064260627235e-01
    30    1.193634676814e-01
    31   -1.265410091401e-13
    32    2.331881780355e-01
    33   -8.600915627649e-02
    34    6.578016452217e-02
    35   -1.116907759326e-13
    36    1.367940027659e-03
    37    4.790137644424e-03
    38   -8.738168413784e-03
    39   -1.643956680743e-14
    40   -9.536593981958e-03
    41   -1.417712511246e-14
    42    6.352272823635e-15
    43   -1.720657642271e-02
    44    2.025000492452e-02
    45   -1.241319946348e-02
    46    8.359168787520e-03
    47    6.574058283354e-02
    48   -5.898313526018e-02
    49   -8.568454514614e-14
    50   -1.053205396187e-01
    51    9.191582926462e-02
    52   -8.805965826061e-02
    53   -1.479815239986e-13
    54   -1.022454741140e-01
    55    4.954076246901e-02
    56   -7.387491506712e-02
    57   -1.251253269016e-13
    58   -2.041226982642e-02
    59    3.230933915726e-03
    60   -9.524832697674e-03
    61   -4.736839380728e-15
    62   -8.610905405846e-04
    63    7.754762241865e-15
    64   -1.196965630372e-14
    65   -1.898473716440e-03
    66    3.630311384587e-03
    67    3.223135520622e-02
    68    5.362169800396e-02
    69    1.543616604182e-02
    70   -4.468390149851e-03
    71    2.736959694470e-03
    72    4.415389557053e-03
    73   -6.128608506120e-15
    74    1.217779483912e-01
    75    1.765780323812e-01
    76    3.036873599080e-02
    77    2.104898016061e-02
    78   -5.705842074180e-03
    79   -2.009043623949e-02
    80   -6.211320329072e-15
    81    1.099130567366e-01
    82    1.625932849474e-01
    83    2.733557544831e-02
    84    3.824662716886e-03
    85    1.156039043473e-02
    86    1.677832829498e-02
    87   -5.435803455878e-15
Sym=X
Ene= 1.999996
Spin=Alpha
Occup=1
     1    2.188812177800e-04
     2    3.418825037734e-04
     3   -3.248093174079e-03
     4    3.739505496999e-03
     5    6.629821486998e-14
     6   -1.040391337984e-03
     7   -3.219707635546e-03
     8    4.629876099296e-03
     9    7.820734594517e-14
    10   -5.457217539114e-04
    11   -2.535161963590e-03
    12    2.689944611466e-03
    13    4.484996366259e-14
    14    2.738389339250e-03
    15   -1.201758722789e-03
    16    8.014657580574e-05
    17   -2.595807495352e-15
    18    1.196429921280e-04
    19   -2.687767872680e-15
    20   -1.240448553614e-15
    21   -9.117733964350e-05
    22   -2.649077196706e-04
    23   -2.664170357434e-01
    24   -2.263587371376e-01
    25   -8.271896050798e-03
    26    3.705161247651e-03
    27    2.852450632458e-14
    28    2.646334800676e-02
    29   -1.154234249588e-02
    30    5.027088357481e-03
    31    4.713006672344e-14
    32    2.294261858692e-02
    33   -5.886920429801e-03
    34    3.286450304945e-03
    35    4.074788981555e-14
    36   -2.202452491546e-03
    37    1.911074364889e-04
    38   -4.159096748789e-05
    39    2.305751032143e-15
    40   -1.063896355238e-03
    41    6.237917497237e-15
    42   -3.545506537018e-15
    43   -7.418568936396e-04
    44    1.019812953589e-03
    45   -4.975341276616e-01
    46   -4.115761957966e-01
    47   -2.162113734363e-03
    48   -1.777881156236e-03
    49    3.532347838778e-14
    50   -6.342995304792e-03
    51    2.995173210767e-03
    52    2.965638188588e-04
    53    6.679313092799e-14
    54   -5.516347823814e-03
    55    2.954740377157e-04
    56   -2.449341348053e-03
    57    4.687244131021e-14
    58   -1.317063021518e-03
    59   -8.083874604144e-05
    60   -2.996098176933e-04
    61    4.067680448818e-15
    62    1.976435469443e-04
    63    1.970735629029e-15
    64    5.468389024580e-15
    65    4.304513382764e-05
    66    6.037439067632e-04
    67   -2.812167139215e-04
    68    5.292078512792e-04
    69   -4.417795577337e-05
    70    3.580844103784e-04
    71    7.234760988550e-05
    72    1.158014043828e-04
    73    2.100895102183e-15
    74    9.138130926668e-03
    75    1.332840082834e-02
    76    8.809685553825e-04
    77    1.573991689061e-03
    78   -3.215179700870e-04
    79   -1.856575543519e-03
    80    2.568513207302e-15
    81    9.900197846324e-03
    82    1.467707532564e-02
    83    1.840511991987e-03
    84    1.233500707269e-03
    85    1.311140509161e-03
    86    1.459738518856e-03
    87    2.069015141525e-15
Sym=X
Ene= 1.999995
Spin=Alpha
Occup=1
     1   -1.636208179739e-03
     2   -2.433249829111e-03
     3   -1.081231610984e-02
     4    8.102518570363e-03
     5   -6.356971622454e-15
     6    8.631509903203e-03
     7   -1.252343259616e-02
     8    9.004882178947e-03
     9   -1.080751299147e-14
    10    4.861285613044e-03
    11   -9.461923373257e-03
    12    6.485815839592e-03
    13    1.607798295750e-15
    14    6.439480913446e-03
    15   -4.938772594263e-03
    16    3.377591112459e-03
    17    1.711657581000e-14
    18   -1.783099298466e-04
    19    4.208676191189e-15
    20    2.081865215707e-15
    21   -5.608761788977e-04
    22    5.484151172308e-04
    23   -4.912919832232e-01
    24   -4.188269994381e-01
    25   -3.747089827570e-02
    26    2.261626398775e-02
    27   -6.496497600972e-14
    28    5.535943430683e-02
    29   -5.674387753348e-02
    30    3.504943050336e-02
    31   -1.070297716863e-13
    32    6.232865440206e-02
    33   -2.307406149410e-02
    34    1.922758941095e-02
    35   -1.003537706520e-13
    36    1.068819039606e-03
    37    1.475233332947e-03
    38   -2.623864887764e-03
    39   -5.393981678413e-15
    40   -1.929484614971e-03
    41   -1.323361604214e-14
    42    8.178869881478e-15
    43   -5.076118217951e-03
    44    5.772530581291e-03
    45    2.665570568015e-01
    46    2.258049847223e-01
    47    2.101286849041e-02
    48   -1.700706054033e-02
    49   -7.350696737932e-14
    50   -2.673344740651e-02
    51    2.551788261442e-02
    52   -2.659823331890e-02
    53   -1.285183227959e-13
    54   -2.666688073741e-02
    55    1.486894622365e-02
    56   -2.123371220872e-02
    57   -1.006250379977e-13
    58   -6.002077535887e-03
    59    1.139549078142e-03
    60   -2.834813214396e-03
    61   -1.115665118583e-14
    62   -6.413925952331e-04
    63    4.796691972774e-15
    64   -9.869004522639e-15
    65   -6.724517153192e-04
    66    6.514315593363e-04
    67    1.035761863493e-02
    68    1.664352931510e-02
    69    4.916575483480e-03
    70   -1.473100927345e-03
    71    8.058175384626e-04
    72    1.375932371788e-03
    73   -4.877642454597e-15
    74    3.337794689450e-02
    75    4.921371219930e-02
    76    8.718560067666e-03
    77    6.029280524754e-03
    78   -1.555827508881e-03
    79   -5.481807166642e-03
    80   -5.176561398024e-15
    81    2.827103536691e-02
    82    4.262229706298e-02
    83    6.888168807561e-03
    84    9.326927560447e-04
    85    2.993604183946e-03
    86    4.508197087034e-03
    87   -3.086776700802e-15
Sym=X
Ene= 1.999871
Spin=Alpha
Occup=1
     1    1.242049294574e-02
     2    1.853937859162e-02
     3   -5.608567965599e-03
     4   -6.089511692828e-02
     5    9.913466863671e-14
     6   -6.828155904198e-02
     7   -5.407937306383e-03
     8   -7.338818951482e-02
     9    1.023217120848e-13
    10   -4.432659382117e-02
    11   -2.745659062571e-03
    12   -3.324741739651e-02
    13    1.006687974318e-13
    14   -5.814615321881e-03
    15   -1.012311109290e-02
    16    2.709129654599e-02
    17    9.341820548736e-14
    18   -1.365315428212e-03
    19    1.754374295199e-14
    20    8.449494821840e-15
    21   -7.154502334479e-03
    22    7.081460201618e-03
    23    4.932974753322e-02
    24    8.409372462573e-02
    25   -6.712859515315e-02
    26   -2.014619508600e-02
    27   -3.197330341500e-13
    28   -2.203898688013e-01
    29   -9.805369693313e-02
    30   -3.175867366182e-02
    31   -5.464992542732e-13
    32   -9.761936657711e-02
    33   -3.483010984137e-02
    34   -1.563202686362e-02
    35   -4.805708258464e-13
    36    1.107091069425e-01
    37    2.829721840687e-02
    38   -4.230925730461e-03
    39   -6.307833487171e-14
    40    7.766008165564e-03
    41   -6.177751714518e-14
    42    3.259536130506e-14
    43   -7.939161682199e-03
    44    4.750282374524e-03
    45   -3.922737978393e-02
    46   -5.503929089648e-02
    47    8.699026823322e-02
    48   -1.683957193233e-01
    49   -3.655766684669e-13
    50    1.189067262456e-01
    51    1.398557780790e-01
    52   -2.573403971237e-01
    53   -6.304553325493e-13
    54    1.089150839926e-01
    55    7.083044023071e-02
    56   -1.443656630893e-01
    57   -5.335871732614e-13
    58   -8.001508350065e-02
    59    2.889691137695e-02
    60   -4.164240566807e-02
    61   -2.651528818531e-14
    62   -5.652966243950e-03
    63    3.665633923805e-14
    64   -4.809898391683e-14
    65   -3.191983115571e-03
    66    1.250635924563e-03
    67    1.530320894474e-01
    68    2.231423396796e-01
    69    1.275637379716e-02
    70   -1.905543164261e-02
    71    6.156628207130e-04
    72    2.632795961057e-02
    73   -2.521726985575e-14
    74   -5.295662416475e-02
    75   -7.350706503357e-02
    76    5.646810069196e-03
    77   -6.579280818965e-03
    78   -4.661599954268e-03
    79    1.306422353655e-02
    80   -2.454925125975e-14
    81    4.736079781956e-03
    82    1.244689436171e-02
    83    1.487429238303e-02
    84    6.055962568857e-03
    85   -2.622500768187e-03
    86   -4.426354677566e-05
    87   -2.513607753778e-14
Sym=X
Ene= 1.999330
Spin=Alpha
Occup=1
     1   -1.011746203656e-01
     2   -1.501321817703e-01
     3    1.693883775898e-01
     4    7.110076867087e-02
     5    1.862294377433e-13
     6    5.265583073937e-01
     7    1.926911736210e-01
     8    7.915562147141e-02
     9    1.838809712509e-13
    10    2.537931787168e-01
    11    1.091770316081e-01
    12    4.452195507299e-02
    13    2.348784917760e-13
    14    1.628131760313e-02
    15   -6.012550062848e-03
    16    4.406243917680e-03
    17    3.252988469868e-13
    18    2.597794525013e-03
    19    6.504719703359e-14
    20    3.097801632720e-14
    21   -4.722216408352e-03
    22   -3.420689031177e-03
    23    3.271303238506e-02
    24    5.285182488345e-02
    25    8.287765058231e-03
    26    9.638295465254e-02
    27   -1.117157544856e-12
    28   -1.311219084627e-01
    29    9.187236181880e-03
    30    1.504839950162e-01
    31   -1.911643161883e-12
    32   -4.979674748580e-02
    33    3.329932658013e-02
    34    8.642913345825e-02
    35   -1.656214574252e-12
    36    1.067379377203e-02
    37   -7.600125356731e-03
    38   -2.408773030884e-02
    39   -1.740757200668e-13
    40    4.217062062310e-03
    41   -2.109694207343e-13
    42    1.119675877369e-13
    43   -1.739405172575e-02
    44    1.300273691555e-03
    45    1.981405242124e-02
    46    4.156728077876e-02
    47    3.485226006397e-02
    48   -3.883541478184e-02
    49   -1.266159404432e-12
    50   -1.367275201810e-01
    51    3.951998477934e-02
    52   -6.754603359186e-02
    53   -2.194879556104e-12
    54   -7.295250644385e-02
    55    1.837862998085e-02
    56   -3.970760300276e-02
    57   -1.813342445752e-12
    58   -1.847675275534e-02
    59    1.051976021046e-02
    60    1.309825333299e-02
    61   -1.468736861134e-13
    62    3.438868498988e-03
    63    1.250720456860e-13
    64   -1.715261141398e-13
    65   -1.612697443394e-02
    66   -8.232148965472e-03
    67    1.403718738905e-02
    68    2.468712695007e-02
    69    3.024125495042e-02
    70    8.306563578204e-03
    71    6.468696854684e-04
    72   -4.044156263950e-03
    73   -8.690689510549e-14
    74    5.541717162536e-02
    75    8.765765899146e-02
    76    4.396388375272e-02
    77    2.124456490853e-02
    78    1.425145049421e-03
    79   -3.492307275957e-03
    80   -8.884098963827e-14
    81   -7.800151019624e-02
    82   -1.174156213971e-01
    83   -2.413356309257e-02
    84   -2.438852044318e-02
    85   -1.379759727316e-02
    86   -3.630030732852e-03
    87   -9.154670705998e-14
Sym=X
Ene= 1.999189
Spin=Alpha
Occup=1
     1   -5.815694033187e-13
     2   -8.651255928459e-13
     3    1.187799045112e-12
     4    4.128876798181e-13
     5   -4.155461657461e-02
     6    3.020412119414e-12
     7    1.358074545219e-12
     8    4.510900510373e-13
     9   -4.374745557116e-02
    10    1.444896795306e-12
    11    7.597887218479e-13
    12    2.730166685723e-13
    13   -4.356070528031e-02
    14    3.080277078553e-14
    15   -2.445165994849e-15
    16    1.010437970511e-13
    17   -4.767124392645e-02
    18    1.551440422102e-14
    19   -8.989433736505e-03
    20   -4.255784669865e-03
    21   -4.992522608478e-14
    22   -1.043446144278e-14
    23    2.193970201135e-13
    24    4.182929297655e-13
    25   -7.135488701577e-14
    26    8.003323387207e-13
    27    1.616389100799e-01
    28   -1.213146507082e-12
    29   -1.295224557498e-13
    30    1.251475555189e-12
    31    2.745656878484e-01
    32   -4.415293387234e-13
    33    1.585854925928e-13
    34    7.628094227619e-13
    35    2.432666524757e-01
    36   -4.143673849333e-13
    37    5.101511180284e-13
    38    8.116430638181e-13
    39    2.576994249708e-02
    40    3.911691851534e-14
    41    3.054692827074e-02
    42   -1.608733464850e-02
    43   -1.662351511548e-13
    44    2.026318583734e-14
    45    2.317520004077e-13
    46    3.151580480957e-13
    47    4.468717999344e-13
    48   -6.709578012108e-13
    49    1.826500441666e-01
    50   -6.869044398994e-13
    51    5.883082807934e-13
    52   -1.087091732590e-12
    53    3.162368800335e-01
    54   -1.292296687558e-13
    55    2.945803674409e-13
    56   -6.137117351893e-13
    57    2.632451068310e-01
    58    4.519199791682e-13
    59   -1.123210240732e-13
    60   -4.055632060644e-13
    61    1.963426014067e-02
    62    9.667436652562e-15
    63   -1.911150815917e-02
    64    2.400560531938e-02
    65   -1.533554226618e-13
    66   -8.863446733955e-14
    67    4.770676091191e-13
    68    7.224852778488e-13
    69    2.205979975772e-13
    70   -3.105345934045e-13
    71    8.886838315253e-15
    72    2.778174662614e-14
    73    1.280155905534e-02
    74    4.562988024246e-13
    75    7.309489317490e-13
    76    2.283261525341e-13
    77   -6.172673690719e-13
    78    6.570537976206e-15
    79   -2.075798467577e-14
    80    1.263917168069e-02
    81   -5.869616122493e-13
    82   -9.070591603378e-13
    83    5.117777731400e-14
    84    9.045638379412e-13
    85   -1.068335867594e-13
    86   -2.058956285071e-14
    87    1.281217324267e-02
Sym=X
Ene= 1.998246
Spin=Alpha
Occup=1
     1    8.630469578733e-02
     2    1.279215829917e-01
     3    8.201565528693e-02
     4    2.546283054541e-02
     5    1.514147844316e-13
     6   -4.537828798345e-01
     7    9.892325737303e-02
     8    3.142578018912e-02
     9    1.737359671689e-13
    10   -2.008954907579e-01
    11    4.939142927516e-02
    12    1.321330527061e-02
    13    1.303219950648e-13
    14   -3.621481655716e-02
    15    2.119115720299e-02
    16    1.540941187860e-02
    17    3.578705123294e-14
    18    1.180189570821e-03
    19    6.933579858381e-15
    20    2.805721181751e-15
    21   -2.622889874030e-03
    22   -2.561530620114e-03
    23   -8.271521930180e-03
    24   -1.345606347170e-02