[Molden Format]
[Atoms] (Angs)
  F      1    9      1.15290231      0.22477664     -0.00000000
  C      2    6     -1.17935012      0.19972949     -0.00000000
  C      3    6     -0.01631886     -0.43556811      0.00000000
  H      4    1      0.11895302     -1.50789969      0.00000000
  H      5    1     -1.23082549      1.27856114     -0.00000000
  H      6    1     -2.09023450     -0.37861944      0.00000000
[GTO]
1    0
S    6    1.000000
   1.14271000E+04    1.80093000E-03 
   1.72235000E+03    1.37419000E-02 
   3.95746000E+02    6.81334000E-02 
   1.15139000E+02    2.33325000E-01 
   3.36026000E+01    5.89086000E-01 
   4.91901000E+00    2.99505000E-01 
SP   3    1.000000
   5.54441000E+01    1.14536000E-01   3.54609000E-02 
   1.26323000E+01    9.20512000E-01   2.37451000E-01 
   3.71756000E+00   -3.37804000E-03   8.20458000E-01 
SP   1    1.000000
   1.16545000E+00    1.00000000E+00   1.00000000E+00 
SP   1    1.000000
   3.21892000E-01    1.00000000E+00   1.00000000E+00 
SP   1    1.000000
   1.07600000E-01    1.00000000E+00   1.00000000E+00 
D    1    1.000000
   1.75000000E+00    1.00000000E+00 

2    0
S    6    1.000000
   4.56324000E+03    1.96665000E-03 
   6.82024000E+02    1.52306000E-02 
   1.54973000E+02    7.61269000E-02 
   4.44553000E+01    2.60801000E-01 
   1.30290000E+01    6.16462000E-01 
   1.82773000E+00    2.21006000E-01 
SP   3    1.000000
   2.09642000E+01    1.14660000E-01   4.02487000E-02 
   4.80331000E+00    9.19999000E-01   2.37594000E-01 
   1.45933000E+00   -3.03068000E-03   8.15854000E-01 
SP   1    1.000000
   4.83456000E-01    1.00000000E+00   1.00000000E+00 
SP   1    1.000000
   1.45585000E-01    1.00000000E+00   1.00000000E+00 
SP   1    1.000000
   4.38000000E-02    1.00000000E+00   1.00000000E+00 
D    1    1.000000
   6.26000000E-01    1.00000000E+00 

3    0
S    6    1.000000
   4.56324000E+03    1.96665000E-03 
   6.82024000E+02    1.52306000E-02 
   1.54973000E+02    7.61269000E-02 
   4.44553000E+01    2.60801000E-01 
   1.30290000E+01    6.16462000E-01 
   1.82773000E+00    2.21006000E-01 
SP   3    1.000000
   2.09642000E+01    1.14660000E-01   4.02487000E-02 
   4.80331000E+00    9.19999000E-01   2.37594000E-01 
   1.45933000E+00   -3.03068000E-03   8.15854000E-01 
SP   1    1.000000
   4.83456000E-01    1.00000000E+00   1.00000000E+00 
SP   1    1.000000
   1.45585000E-01    1.00000000E+00   1.00000000E+00 
SP   1    1.000000
   4.38000000E-02    1.00000000E+00   1.00000000E+00 
D    1    1.000000
   6.26000000E-01    1.00000000E+00 

4    0
S    3    1.000000
   3.38650000E+01    2.54938000E-02 
   5.09479000E+00    1.90373000E-01 
   1.15879000E+00    8.52161000E-01 
S    1    1.000000
   3.25840000E-01    1.00000000E+00 
S    1    1.000000
   1.02741000E-01    1.00000000E+00 
S    1    1.000000
   3.60000000E-02    1.00000000E+00 
P    1    1.000000
   7.50000000E-01    1.00000000E+00 

5    0
S    3    1.000000
   3.38650000E+01    2.54938000E-02 
   5.09479000E+00    1.90373000E-01 
   1.15879000E+00    8.52161000E-01 
S    1    1.000000
   3.25840000E-01    1.00000000E+00 
S    1    1.000000
   1.02741000E-01    1.00000000E+00 
S    1    1.000000
   3.60000000E-02    1.00000000E+00 
P    1    1.000000
   7.50000000E-01    1.00000000E+00 

6    0
S    3    1.000000
   3.38650000E+01    2.54938000E-02 
   5.09479000E+00    1.90373000E-01 
   1.15879000E+00    8.52161000E-01 
S    1    1.000000
   3.25840000E-01    1.00000000E+00 
S    1    1.000000
   1.02741000E-01    1.00000000E+00 
S    1    1.000000
   3.60000000E-02    1.00000000E+00 
P    1    1.000000
   7.50000000E-01    1.00000000E+00 

[MO]
Sym=X
Ene= 2.000224
Spin=Alpha
Occup=1
     1    9.137726692691e-13
     2    1.535341243769e-12
     3    3.091747097378e-13
     4    7.904756994433e-13
     5   -3.045847828863e-01
     6   -4.512845044381e-12
     7    5.375519964584e-13
     8    1.237776842047e-12
     9   -4.639861979963e-01
    10   -3.434106440989e-12
    11    2.594766772707e-13
    12    9.868689391557e-13
    13   -4.071204960494e-01
    14    3.747302588738e-13
    15   -2.336861690692e-14
    16    4.306181135660e-14
    17   -3.804101928778e-02
    18    4.252660176597e-14
    19    1.167051269680e-02
    20    6.873147107142e-03
    21   -2.371879712938e-14
    22   -7.125905107211e-14
    23   -1.534575082140e-12
    24   -1.245005225454e-12
    25    8.437440868065e-14
    26   -1.480592040280e-13
    27    1.625288833165e-02
    28   -1.636619638822e-13
    29   -2.208021520480e-14
    30   -1.833914476935e-13
    31    2.452941583707e-02
    32   -2.382109632823e-13
    33   -6.476735401898e-15
    34   -1.592072227437e-13
    35    4.142568144685e-02
    36   -8.466476681554e-13
    37   -1.857546189095e-13
    38    3.271188405580e-14
    39    1.258653529204e-02
    40   -2.139287975484e-15
    41   -2.279017005368e-03
    42    1.195293784847e-03
    43   -8.658040532657e-14
    44   -1.218737472807e-14
    45   -5.140847330843e-13
    46   -3.338120504678e-13
    47   -5.269135830039e-13
    48   -4.520935822482e-13
    49   -2.865271970371e-02
    50   -4.039848182671e-13
    51   -9.610169745707e-13
    52   -7.650154182945e-13
    53   -5.275599617652e-02
    54    2.695943113503e-13
    55   -8.502928050005e-14
    56   -7.634752952394e-14
    57   -4.731368695972e-03
    58    3.579837239913e-13
    59   -3.141682870733e-13
    60    2.347449833416e-13
    61   -6.792512054305e-03
    62    9.690974547027e-14
    63   -3.223438731563e-02
    64   -1.437964607735e-02
    65   -2.472713503364e-13
    66   -2.859421458496e-13
    67    2.724997681549e-13
    68    4.443224355917e-13
    69    3.115480569301e-13
    70    2.712564582072e-13
    71   -3.057192488235e-14
    72   -1.866765649815e-14
    73   -1.137894354715e-03
    74   -1.323059843308e-13
    75   -2.011090122576e-13
    76    8.469349729024e-14
    77    5.441934283000e-14
    78    1.019760021126e-14
    79    5.384576117636e-14
    80    9.052278509874e-04
    81   -2.999301395534e-14
    82   -1.390918425778e-13
    83    5.687862346322e-16
    84   -7.837256943611e-14
    85   -2.097588913454e-14
    86   -7.854481798524e-15
    87    1.914669798061e-03
Sym=X
Ene= 2.000000
Spin=Alpha
Occup=1
     1   -2.007353043661e-04
     2   -3.362656094038e-04
     3    7.880044939222e-04
     4   -1.534736562559e-03
     5    8.352318180341e-13
     6    9.879081913462e-04
     7    1.189241378896e-03
     8   -2.321041401847e-03
     9    1.270614917137e-12
    10    7.484509860976e-04
    11    1.088843488987e-03
    12   -2.124715389910e-03
    13    1.113846489258e-12
    14   -2.385009521415e-04
    15    1.664515132764e-04
    16   -3.066410986091e-05
    17    1.052782595361e-13
    18   -5.826962137593e-06
    19   -3.170963280326e-14
    20   -1.832388805151e-14
    21   -4.108525302835e-05
    22    4.430064131347e-05
    23   -5.646680659491e-01
    24   -4.688865139502e-01
    25   -6.188391700889e-04
    26   -6.868636046694e-04
    27   -4.526373485140e-14
    28    1.548169397928e-03
    29   -1.817330838546e-03
    30   -6.355154812539e-04
    31   -6.649304275662e-14
    32    4.691038466672e-03
    33   -8.616201519138e-04
    34   -7.589751594617e-04
    35   -1.178191690966e-13
    36    7.551879169903e-04
    37    2.742932491870e-04
    38   -8.434869204186e-05
    39   -2.977962894285e-14
    40    2.555674991958e-04
    41    5.335651348777e-15
    42   -1.618739832087e-15
    43   -5.400240484368e-05
    44    4.192718575958e-04
    45    3.148714972027e-03
    46    2.351015104582e-03
    47   -3.720627848320e-04
    48    2.315985413301e-04
    49    7.778225504350e-14
    50    1.325937313399e-03
    51   -1.286873339210e-03
    52    7.597585199786e-04
    53    1.447511354581e-13
    54    6.667423494083e-04
    55    3.939999530588e-05
    56    3.009762617225e-04
    57    1.628584757304e-14
    58   -1.200690882267e-03
    59    5.623204597607e-04
    60   -5.373885335591e-04
    61    1.435095862845e-14
    62   -2.303339466738e-04
    63    8.752088478033e-14
    64    3.946112297897e-14
    65    4.844984875785e-04
    66   -1.857785957618e-04
    67   -1.927565942576e-04
    68   -4.005093907675e-04
    69   -5.134003884632e-04
    70   -3.203223678607e-04
    71   -1.671603136813e-05
    72    8.279845819728e-05
    73    3.244483845075e-15
    74    3.613788204225e-04
    75    1.057092401681e-03
    76   -3.847228675641e-04
    77    3.103158090478e-04
    78   -7.874145082553e-05
    79   -2.049947720322e-04
    80   -2.419652832147e-15
    81    1.712907442652e-03
    82    3.083158965608e-03
    83    1.011868506749e-04
    84    5.140723359865e-04
    85    2.976148721452e-04
    86    1.871860817693e-04
    87   -3.770284896109e-15
Sym=X
Ene= 1.999999
Spin=Alpha
Occup=1
     1   -1.759702262750e-02
     2   -2.958027887308e-02
     3    1.287405357710e-02
     4    7.045139434685e-03
     5   -6.174626918906e-13
     6    8.762311459236e-02
     7    1.844586880009e-02
     8    1.004278641029e-02
     9   -9.411665517786e-13
    10    7.501690345059e-02
    11    1.398504715817e-02
    12    7.772927221353e-03
    13   -8.237846761784e-13
    14   -1.682164936798e-03
    15    5.567744506482e-04
    16    9.694869620459e-05
    17   -8.098468161621e-14
    18    8.508177380178e-05
    19    2.297146232525e-14
    20    1.333553980323e-14
    21   -8.371524348147e-05
    22   -1.514393147914e-04
    23    3.723218553287e-03
    24    3.379001768930e-03
    25   -1.743208669314e-04
    26    2.548937520206e-03
    27    3.161209387931e-14
    28   -1.491130957847e-03
    29   -5.502271434825e-04
    30    4.485173207999e-03
    31    5.050040455685e-14
    32    1.314176091337e-03
    33    2.422676449952e-03
    34    3.661576790395e-03
    35    8.061207249242e-14
    36   -1.598425430291e-02
    37   -4.853183512626e-03
    38   -4.041418516368e-04
    39    2.823651900528e-14
    40    2.537419119436e-04
    41   -5.376012400659e-15
    42    3.687710991035e-15
    43   -4.706959013227e-04
    44    1.113701697999e-04
    45    5.590801067884e-01
    46    4.645943751133e-01
    47    1.602561802472e-03
    48    2.478004138794e-04
    49   -5.662330072967e-14
    50   -5.819660385811e-03
    51   -3.517003238224e-03
    52   -1.555389660927e-03
    53   -1.094181245334e-13
    54   -1.314783133301e-02
    55   -3.081445888019e-03
    56   -3.863705965351e-03
    57   -6.302857249900e-15
    58    1.849654014740e-02
    59   -1.379011159307e-03
    60    5.475559665083e-03
    61   -1.401731682157e-14
    62   -1.572100972086e-04
    63   -6.720393645895e-14
    64   -2.825974870700e-14
    65    1.455699656209e-04
    66   -1.019112023716e-04
    67   -6.750664285485e-04
    68   -1.528116437855e-03
    69    1.426749148895e-03
    70    7.301353430199e-04
    71    1.324148938937e-04
    72   -2.568957808940e-04
    73   -1.930435250921e-15
    74    2.251925743578e-03
    75    2.759077964220e-03
    76    1.953531293951e-03
    77    5.784801271536e-04
    78    3.146394767431e-05
    79   -2.130117068688e-04
    80    1.556281446716e-15
    81   -1.557007453919e-03
    82   -1.782376803127e-03
    83   -2.941710826793e-04
    84   -1.343175667285e-03
    85   -9.834216889451e-05
    86   -3.753740262855e-05
    87    4.812482452192e-15
Sym=X
Ene= 1.999996
Spin=Alpha
Occup=1
     1    1.219239232970e-01
     2    2.047822391430e-01
     3   -6.382786680316e-02
     4   -3.765855607354e-02
     5    1.946468718632e-12
     6   -6.059354178859e-01
     7   -9.154006779660e-02
     8   -5.383939080091e-02
     9    2.962881087472e-12
    10   -5.075659295619e-01
    11   -7.020786795788e-02
    12   -4.329223271572e-02
    13    2.599643150530e-12
    14    1.522098719563e-02
    15   -3.401304039524e-03
    16   -1.271135197763e-03
    17    2.446947464569e-13
    18   -1.860208120969e-04
    19   -7.489163633038e-14
    20   -4.399586200083e-14
    21    3.893997395662e-04
    22    5.441912959253e-04
    23    3.576075319738e-04
    24    1.149899996441e-03
    25    1.077725938623e-03
    26   -8.020789256057e-04
    27   -1.039445068204e-13
    28   -4.843916191255e-03
    29   -4.273823238260e-03
    30   -3.747305376157e-04
    31   -1.541072952012e-13
    32   -1.121798548174e-02
    33   -1.340910632186e-02
    34   -1.253819472120e-02
    35   -2.646122344905e-13
    36    1.031192889601e-01
    37    2.680682098862e-02
    38   -4.771905568245e-03
    39   -7.837689093181e-14
    40   -3.910177269359e-05
    41    1.474686381549e-14
    42   -8.108553173776e-15
    43   -9.415176830493e-04
    44    1.426603751384e-03
    45    8.544509870136e-02
    46    7.264475342771e-02
    47   -1.345765894473e-03
    48    2.548965992776e-03
    49    1.846992066028e-13
    50   -1.969682961554e-03
    51    1.321459629801e-03
    52    6.920004644878e-03
    53    3.365214788676e-13
    54    5.046918736388e-02
    55    2.522093737389e-02
    56    2.966847507933e-02
    57    3.107312757708e-14
    58   -1.191300093425e-01
    59    7.751823314679e-03
    60   -2.953783588589e-02
    61    4.073776721697e-14
    62    2.030997564242e-03
    63    2.068003248527e-13
    64    9.207806454718e-14
    65   -4.024731894153e-03
    66   -8.714568780092e-03
    67   -5.329293975983e-03
    68   -8.065899629330e-03
    69   -2.459958017715e-03
    70   -2.785399239389e-03
    71   -9.160146040712e-04
    72   -2.083658226560e-03
    73    7.923279362760e-15
    74   -3.429040658228e-03
    75   -9.334269667329e-04
    76   -3.611747670165e-03
    77    1.647092021312e-03
    78   -3.027433711107e-05
    79    9.696630489923e-04
    80   -6.379949733673e-15
    81    6.836315156367e-04
    82   -3.591354940889e-03
    83   -3.358589925430e-03
    84   -4.414964570406e-04
    85   -1.308924286456e-03
    86   -3.763889696778e-04
    87   -1.264813183652e-14
Sym=X
Ene= 1.999988
Spin=Alpha
Occup=1
     1   -1.724513704731e-03
     2   -2.914528996110e-03
     3    1.429019078705e-01
     4   -2.735302011821e-01
     5   -5.729497385283e-13
     6    8.964442786483e-03
     7    2.165460494546e-01
     8   -4.158230084133e-01
     9   -8.746608148005e-13
    10    1.070949052634e-03
    11    1.946397620264e-01
    12   -3.642017893519e-01
    13   -7.670069260873e-13
    14   -1.744828696665e-02
    15    1.404130345102e-02
    16   -1.674702034875e-02
    17   -6.957070971699e-14
    18   -2.586069060593e-04
    19    2.182136911097e-14
    20    1.273687612519e-14
    21   -1.023113254534e-02
    22    6.838358709453e-03
    23   -1.608454196357e-03
    24   -5.103416865796e-03
    25    3.236772184517e-03
    26   -1.546289576692e-02
    27    3.108326332381e-14
    28    1.897291619596e-02
    29   -1.049034002094e-03
    30   -1.344177881324e-02
    31    4.464185082866e-14
    32    7.129119018354e-02
    33    8.555124695546e-03
    34   -3.844497860639e-02
    35    7.797194554559e-14
    36    2.356279676396e-01
    37    4.157212784393e-02
    38   -2.604752269043e-02
    39    2.453019888029e-14
    40    1.826699499040e-03
    41   -4.537005194901e-15
    42    2.297399766988e-15
    43    3.100196978872e-03
    44    8.047248796270e-03
    45   -3.507222754320e-04
    46   -9.865831035355e-04
    47    6.080060010632e-03
    48   -1.467535114123e-03
    49   -5.380433040314e-14
    50    4.307026721005e-03
    51    1.417050029203e-03
    52   -4.306383102505e-04
    53   -9.999066571282e-14
    54   -5.024115494419e-03
    55    3.390862719235e-02
    56    2.460404415662e-03
    57   -9.106633969332e-15
    58   -1.631150867528e-01
    59    7.913860771862e-02
    60   -7.782250258639e-02
    61   -1.541035920907e-14
    62   -2.256913085575e-03
    63   -6.066454027050e-14
    64   -2.743549150028e-14
    65    3.959790687676e-02
    66   -1.788306691310e-02
    67   -1.660150208867e-02
    68   -4.040321681306e-02
    69   -5.579869541609e-02
    70   -6.246466473980e-02
    71   -3.613573905325e-03
    72    1.637137151270e-03
    73   -2.074697406762e-15
    74   -7.457456624348e-03
    75   -1.341378845183e-02
    76   -5.370496421922e-04
    77    6.337196835718e-03
    78   -3.088462806765e-03
    79    1.591847094319e-03
    80    1.726180894348e-15
    81    6.442469068841e-03
    82   -1.471942734847e-03
    83   -1.860812640612e-02
    84    2.381601660772e-03
    85   -3.658925164577e-04
    86   -2.079735698040e-03
    87    3.382413494506e-15
Sym=X
Ene= 1.999959
Spin=Alpha
Occup=1
     1    1.053675110738e-02
     2    1.759973333389e-02
     3    1.026883358646e-01
     4    2.971528164931e-02
     5    4.551010036059e-13
     6   -5.057676944016e-02
     7    1.578692614575e-01
     8    4.582965316453e-02
     9    6.975794680170e-13
    10   -2.160417027682e-02
    11    1.216424936434e-01
    12    2.936229612353e-02
    13    6.089576543701e-13
    14    1.874686958811e-03
    15    1.494790791923e-02
    16    5.655240954667e-03
    17    5.784625547396e-14
    18    3.139711073144e-03
    19   -1.775220515807e-14
    20   -1.051472134111e-14
    21   -4.287910850557e-03
    22   -4.765574497211e-03
    23    3.283535767665e-02
    24    5.884006705592e-02
    25    1.001282234626e-01
    26    1.305611669956e-01
    27   -2.210011569655e-14
    28   -1.602564165495e-01
    29    1.440374592162e-01
    30    2.035346477967e-01
    31   -3.931839890209e-14
    32   -9.611895282446e-02
    33    1.031950727897e-01
    34    1.324125036519e-01
    35   -5.765609250552e-14
    36    1.922994153394e-02
    37   -1.958231301789e-03
    38   -7.914924650582e-03
    39   -2.394161287493e-14
    40    6.303995833326e-03
    41    2.822839559878e-15
    42   -1.767406764210e-15
    43   -2.295242054774e-02
    44   -1.433164299701e-02
    45    1.010671368620e-02
    46    2.423677033528e-02
    47   -1.779568441140e-02
    48   -2.835452497002e-02
    49    4.286345417108e-14
    50   -7.959065941314e-02
    51   -4.298169659440e-02
    52   -5.401822495006e-02
    53    8.160737128549e-14
    54    4.939293237520e-03
    55   -1.532830917508e-03
    56   -2.804804868837e-02
    57    2.755113231534e-15
    58   -7.906166840912e-03
    59    5.278746148736e-03
    60   -2.285441536208e-04
    61    1.650296739183e-14
    62    8.178955496160e-03
    63    4.726728248792e-14
    64    2.175400621573e-14
    65   -3.107539072471e-02
    66   -3.154362588908e-02
    67    1.861597799058e-02
    68    2.977837999700e-02
    69    3.157145657804e-02
    70   -6.828811325039e-04
    71   -1.792575714390e-03
    72   -6.550145616713e-03
    73    2.571374321504e-15
    74    7.579126449221e-02
    75    1.212718631160e-01
    76    5.099477280199e-02
    77    1.264189556464e-02
    78    6.068958122321e-03
    79   -4.193200178946e-03
    80   -9.369877002531e-16
    81   -1.682316302897e-01
    82   -2.625207967875e-01
    83   -6.356302278608e-02
    84   -2.315716279531e-02
    85   -2.399535858582e-02
    86   -1.041311425902e-02
    87   -3.760712919176e-15
Sym=X
Ene= 1.999882
Spin=Alpha
Occup=1
     1   -1.627921102894e-02
     2   -2.689892262417e-02
     3   -1.824798784053e-01
     4   -1.060138994312e-01
     5   -1.353592123237e-12
     6    7.275791168279e-02
     7   -2.832111038995e-01
     8   -1.644133831824e-01
     9   -2.064515124473e-12
    10   -4.187639878354e-03
    11   -1.953278344252e-01
    12   -1.179044494653e-01
    13   -1.806369237094e-12
    14   -6.502255962112e-02
    15    4.870951761862e-03
    16   -1.390398931856e-03
    17   -1.758804221717e-13
    18   -8.571750481040e-03
    19    5.182323639683e-14
    20    3.076337417638e-14
    21    8.017219856855e-03
    22    1.233709909303e-02
    23   -5.512622473378e-03
    24   -9.567095393471e-03
    25    5.732220576845e-03
    26    9.819137873675e-02
    27    7.490822645553e-14
    28    2.775336030830e-02
    29    2.812859051383e-02
    30    1.396295328536e-01
    31    1.131647950648e-13
    32    2.016343641310e-02
    33    6.568075643037e-03
    34    9.452170431221e-02
    35    1.839504158550e-13
    36    1.483878361327e-02
    37    2.647947904224e-02
    38    3.970160632405e-02
    39    5.414644395331e-14
    40   -1.077538227907e-03
    41   -9.622550341327e-15
    42    4.516240350313e-15
    43    4.720975297326e-03
    44   -1.950061744137e-03
    45   -1.779871150992e-02
    46   -3.355635731472e-02
    47    1.065453512742e-01
    48    7.557822815037e-02
    49   -1.265119456874e-13
    50    9.156288649251e-02
    51    1.996070939504e-01
    52    1.346933828817e-01
    53   -2.302030100810e-13
    54    4.203902440811e-02
    55    4.662793785977e-02
    56    3.580812887890e-02
    57   -1.833727596226e-14
    58    3.084659444962e-02
    59   -3.773913622428e-03
    60   -4.154127354196e-02
    61   -2.337721462813e-14
    62   -1.564018671780e-02
    63   -1.436057499160e-13
    64   -6.344221442824e-14
    65    1.960281122346e-02
    66    4.267248324937e-02
    67   -3.183539086368e-02
    68   -4.259215627973e-02
    69   -3.570582724079e-02
    70   -3.777254090708e-02
    71    5.560728705883e-03
    72    2.938835051176e-03
    73   -4.485799182869e-15
    74    8.179541900018e-02
    75    1.301511979483e-01
    76    4.729418158725e-03
    77   -2.070525447459e-02
    78    6.438253099362e-04
    79   -1.671259352167e-02
    80    4.827922706782e-15
    81   -3.858265214314e-02
    82   -5.301449137025e-02
    83   -8.662946233755e-04
    84    3.012501477210e-02
    85   -4.697206090405e-03
    86    4.695221525920e-04
    87    9.407337864011e-15
Sym=X
Ene= 1.999803
Spin=Alpha
Occup=1
     1    8.223525296169e-03
     2    1.372429312249e-02
     3    5.902623825736e-02
     4    2.680816060895e-02
     5    2.579190809910e-13
     6   -3.950366544515e-02
     7    9.139834958599e-02
     8    4.103635567605e-02
     9    3.921038846856e-13
    10   -1.335354997140e-02
    11    6.042012030124e-02
    12    3.225596405855e-02
    13    3.453066850273e-13
    14    2.457291039074e-02
    15   -8.303008760486e-03
    16    1.422109776998e-02
    17    2.972661314010e-14
    18    2.090529660364e-03
    19   -9.293236299986e-15
    20   -6.323362828755e-15
    21   -4.654272666695e-03
    22   -2.317955575502e-03
    23   -5.749185797586e-02
    24   -9.889698637779e-02
    25   -9.585929139069e-02
    26    1.030206735969e-01
    27   -1.341363924230e-14
    28    2.546266667613e-01
    29   -1.523985368911e-01
    30    1.612404910201e-01
    31   -1.986438310734e-14
    32    2.241472376082e-01
    33   -6.509282597417e-02
    34    9.883640771461e-02
    35   -3.607011106059e-14
    36    2.020786509603e-02
    37    4.971657474121e-03
    38   -1.683054110018e-02
    39   -1.186852315125e-14
    40   -1.055541073298e-02
    41    2.222014643621e-15
    42   -1.010989120472e-15
    43   -2.460030334647e-02
    44    1.161535003880e-02
    45    1.030798327918e-02
    46    2.094997417937e-02
    47    2.194235034504e-02
    48   -8.013716271354e-02
    49    2.508456812120e-14
    50   -6.796637842375e-02
    51    1.440287204437e-02
    52   -1.235079058062e-01
    53    4.585681062296e-14
    54   -4.039318935199e-02
    55    3.031030788332e-02
    56   -8.000691904563e-02
    57    6.269442907267e-15
    58   -4.091188025744e-02
    59    1.246088069379e-02
    60   -1.018735081380e-02
    61    7.886915850629e-15
    62    3.222075890408e-03
    63    2.695947351817e-14
    64    1.275086203966e-14
    65   -1.849905810061e-02
    66   -1.964797442935e-02
    67    5.847839625689e-02
    68    9.374686196602e-02
    69    3.514479064273e-02
    70   -3.295955176618e-03
    71   -5.385236848292e-04
    72    4.339371922669e-03
    73    4.317661076521e-16
    74    1.506277298255e-01
    75    2.216276420921e-01
    76    4.965800662605e-02
    77    2.915104244695e-02
    78   -4.277708735981e-03
    79   -2.195230475162e-02
    80   -8.079236286421e-16
    81    7.400562004991e-02
    82    1.021717326809e-01
    83    3.298460690190e-03
    84   -2.815346342654e-03
    85    7.328028236892e-03
    86    1.464120321761e-02
    87   -1.519429105980e-15
Sym=X
Ene= 1.999658
Spin=Alpha
Occup=1
     1   -2.199105109917e-04
     2   -1.276653278725e-04
     3   -4.926592543943e-02
     4   -1.036230537038e-02
     5    5.427978386779e-14
     6   -2.725530260606e-03
     7   -7.543129342686e-02
     8   -1.761062175501e-02
     9    7.950820624655e-14
    10   -2.524214053652e-02
    11   -5.899049782992e-02
    12    8.734625228762e-03
    13    7.322533037204e-14
    14   -3.736301842132e-03
    15   -1.352969580334e-02
    16    2.642730616549e-02
    17    4.682668892042e-15
    18   -2.384960161377e-03
    19   -2.129032298671e-15
    20   -8.557677177199e-16
    21   -2.400685704825e-03
    22    6.258005751068e-03
    23    5.125462531493e-02
    24    8.738250983929e-02
    25   -6.292529400627e-02
    26    6.052384267003e-03
    27   -2.380783955695e-15
    28   -2.293131171463e-01
    29   -8.590803843750e-02
    30    4.822339998719e-03
    31   -7.794308418422e-15
    32   -1.495677579615e-01
    33   -4.099139015113e-02
    34    2.637651407477e-02
    35   -8.171433178591e-15
    36    7.613955047611e-02
    37    2.638000919602e-02
    38    2.744733459845e-03
    39   -5.410815765564e-16
    40    6.743867262656e-03
    41   -4.388977550643e-16
    42    6.850649073035e-16
    43   -8.440599905550e-03
    44    1.224787514182e-03
    45   -2.695056963350e-02
    46   -5.009947044848e-02
    47    1.006518702969e-01
    48   -1.583370269015e-01
    49    3.423466591810e-15
    50    1.422318670340e-01
    51    1.646702180360e-01
    52   -2.364152635378e-01
    53    8.156217486602e-15
    54    1.388712805596e-01
    55    4.257968248779e-02
    56   -1.338430616579e-01
    57    1.530645769003e-15
    58   -5.826380917943e-02
    59    1.645484844517e-02
    60   -3.285258486088e-02
    61    4.416272424765e-16
    62   -8.055479669333e-03
    63    3.976398050607e-15
    64    2.037718092072e-15
    65   -1.873744391212e-02
    66    1.596766175495e-02
    67    1.634132618878e-01
    68    2.516903483901e-01
    69    3.725084344612e-02
    70   -1.230837543603e-02
    71    4.816459732250e-04
    72    2.629423247893e-02
    73    1.701683932872e-16
    74   -3.456807963650e-02
    75   -4.424477341798e-02
    76    7.664574553674e-03
    77   -6.471967769287e-03
    78   -3.208471332313e-03
    79    9.644807807923e-03
    80    3.915938215887e-16
    81   -1.126218798368e-02
    82   -5.163191887234e-03
    83    1.633971664771e-02
    84    8.576551904787e-03
    85   -4.046758761228e-03
    86    1.859121089553e-04
    87    3.004423128797e-17
Sym=X
Ene= 1.998253
Spin=Alpha
Occup=1
     1   -6.721430995396e-03
     2   -1.160190323271e-02
     3   -8.264774434623e-03
     4    7.193433159702e-03
     5   -1.180062733429e-13
     6    3.753015713913e-02
     7   -9.987767540822e-03
     8    1.191286055683e-02
     9   -1.834754956605e-13
    10    5.556683322940e-02
    11   -2.986305246845e-02
    12    3.334353150767e-03
    13   -1.581487734997e-13
    14    5.336839905053e-02
    15   -3.146508930914e-02
    16   -7.398514225381e-03
    17   -1.376727292785e-14
    18    1.471628781804e-03
    19    4.689051688572e-15
    20    2.381148550695e-15
    21   -2.071481486070e-03
    22   -1.256292851219e-03
    23    4.938834312439e-02
    24    8.301541656014e-02
    25   -1.279008612560e-01
    26    3.214652357798e-02
    27    6.812947411612e-15
    28   -2.124217163283e-01
    29   -1.938067054813e-01
    30    4.905637069073e-02
    31    1.049158082783e-14
    32   -7.270567627383e-02
    33   -8.092872689814e-02
    34    3.365284925785e-03
    35    1.699909163242e-14
    36   -1.012816299561e-02
    37   -1.291904777934e-02
    38   -2.975742587040e-02
    39    5.593813741001e-15
    40    6.229487354855e-03
    41   -1.601139019027e-15
    42    2.732392967444e-17
    43   -6.436298570572e-03
    44    2.680716801798e-02
    45    8.607619600516e-02
    46    1.498082484034e-01
    47    9.847678737529e-02
    48   -6.300181964762e-03
    49   -9.502286312174e-15
    50   -4.110287480567e-01
    51    1.388340660274e-01
    52   -1.057937495255e-02
    53   -2.086091595936e-14
    54   -2.736471301186e-01
    55    3.612606067296e-02
    56   -3.759573143035e-03
    57   -1.629285602061e-15
    58   -7.081126541462e-03
    59   -3.328458107791e-03
    60    1.922977280971e-02
    61   -5.356136536597e-15
    62    1.109340266230e-02
    63   -1.281308231699e-14
    64   -6.142538709678e-15
    65    2.595122719264e-03
    66    2.533821948772e-02
    67   -7.328023411781e-02
    68   -1.002023991086e-01
    69    3.979354042969e-03
    70    7.199102808943e-03
    71    6.837301549934e-03
    72   -1.447998984149e-02
    73   -3.236547853151e-16
    74   -1.533472282279e-02
    75   -2.009026474522e-02
    76    1.494428592242e-02
    77    2.062472554103e-02
    78   -7.204970453743e-03
    79    5.751012187510e-03
    80    7.004310225906e-16
    81    3.514664786126e-02
    82    6.649973963053e-02
    83    3.182432127165e-02
    84   -2.399993438735e-02
    85   -3.149551407370e-03
    86    3.112351140664e-03
    87   -5.794017965216e-16
Sym=X
Ene= 1.131358
Spin=Alpha
Occup=1
     1    3.595508734787e-02
     2    5.085887497499e-02
     3    2.458323504143e-01
     4    1.039224121128e-01
     5    1.372357387077e-14
     6   -2.393520602112e-01
     7    2.588199939159e-01
     8    1.074206252284e-01
     9    3.066630151055e-15
    10   -1.880082538807e-01
    11    1.389403811340e-01
    12    5.235268754326e-02
    13    9.230900973460e-14
    14   -2.690603701334e-01
    15    5.347524892859e-02
    16    9.149353305114e-02
    17   -1.392884755208e-13
    18   -5.948696387183e-03
    19    2.386682479541e-15
    20    2.534372534592e-15
    21    5.151952386075e-03
    22    1.102655479718e-02
    23    2.124481381963e-02
    24    3.755504775639e-02