[Molden Format]
[Atoms] (Angs)
  F      1    9      1.15290231      0.22477664     -0.00000000
  C      2    6     -1.17935012      0.19972949     -0.00000000
  C      3    6     -0.01631886     -0.43556811      0.00000000
  H      4    1      0.11895302     -1.50789969      0.00000000
  H      5    1     -1.23082549      1.27856114     -0.00000000
  H      6    1     -2.09023450     -0.37861944      0.00000000
[GTO]
1    0
S    6    1.000000
   1.14271000E+04    1.80093000E-03 
   1.72235000E+03    1.37419000E-02 
   3.95746000E+02    6.81334000E-02 
   1.15139000E+02    2.33325000E-01 
   3.36026000E+01    5.89086000E-01 
   4.91901000E+00    2.99505000E-01 
SP   3    1.000000
   5.54441000E+01    1.14536000E-01   3.54609000E-02 
   1.26323000E+01    9.20512000E-01   2.37451000E-01 
   3.71756000E+00   -3.37804000E-03   8.20458000E-01 
SP   1    1.000000
   1.16545000E+00    1.00000000E+00   1.00000000E+00 
SP   1    1.000000
   3.21892000E-01    1.00000000E+00   1.00000000E+00 
SP   1    1.000000
   1.07600000E-01    1.00000000E+00   1.00000000E+00 
D    1    1.000000
   1.75000000E+00    1.00000000E+00 

2    0
S    6    1.000000
   4.56324000E+03    1.96665000E-03 
   6.82024000E+02    1.52306000E-02 
   1.54973000E+02    7.61269000E-02 
   4.44553000E+01    2.60801000E-01 
   1.30290000E+01    6.16462000E-01 
   1.82773000E+00    2.21006000E-01 
SP   3    1.000000
   2.09642000E+01    1.14660000E-01   4.02487000E-02 
   4.80331000E+00    9.19999000E-01   2.37594000E-01 
   1.45933000E+00   -3.03068000E-03   8.15854000E-01 
SP   1    1.000000
   4.83456000E-01    1.00000000E+00   1.00000000E+00 
SP   1    1.000000
   1.45585000E-01    1.00000000E+00   1.00000000E+00 
SP   1    1.000000
   4.38000000E-02    1.00000000E+00   1.00000000E+00 
D    1    1.000000
   6.26000000E-01    1.00000000E+00 

3    0
S    6    1.000000
   4.56324000E+03    1.96665000E-03 
   6.82024000E+02    1.52306000E-02 
   1.54973000E+02    7.61269000E-02 
   4.44553000E+01    2.60801000E-01 
   1.30290000E+01    6.16462000E-01 
   1.82773000E+00    2.21006000E-01 
SP   3    1.000000
   2.09642000E+01    1.14660000E-01   4.02487000E-02 
   4.80331000E+00    9.19999000E-01   2.37594000E-01 
   1.45933000E+00   -3.03068000E-03   8.15854000E-01 
SP   1    1.000000
   4.83456000E-01    1.00000000E+00   1.00000000E+00 
SP   1    1.000000
   1.45585000E-01    1.00000000E+00   1.00000000E+00 
SP   1    1.000000
   4.38000000E-02    1.00000000E+00   1.00000000E+00 
D    1    1.000000
   6.26000000E-01    1.00000000E+00 

4    0
S    3    1.000000
   3.38650000E+01    2.54938000E-02 
   5.09479000E+00    1.90373000E-01 
   1.15879000E+00    8.52161000E-01 
S    1    1.000000
   3.25840000E-01    1.00000000E+00 
S    1    1.000000
   1.02741000E-01    1.00000000E+00 
S    1    1.000000
   3.60000000E-02    1.00000000E+00 
P    1    1.000000
   7.50000000E-01    1.00000000E+00 

5    0
S    3    1.000000
   3.38650000E+01    2.54938000E-02 
   5.09479000E+00    1.90373000E-01 
   1.15879000E+00    8.52161000E-01 
S    1    1.000000
   3.25840000E-01    1.00000000E+00 
S    1    1.000000
   1.02741000E-01    1.00000000E+00 
S    1    1.000000
   3.60000000E-02    1.00000000E+00 
P    1    1.000000
   7.50000000E-01    1.00000000E+00 

6    0
S    3    1.000000
   3.38650000E+01    2.54938000E-02 
   5.09479000E+00    1.90373000E-01 
   1.15879000E+00    8.52161000E-01 
S    1    1.000000
   3.25840000E-01    1.00000000E+00 
S    1    1.000000
   1.02741000E-01    1.00000000E+00 
S    1    1.000000
   3.60000000E-02    1.00000000E+00 
P    1    1.000000
   7.50000000E-01    1.00000000E+00 

[MO]
Sym=X
Ene= 2.005655
Spin=Alpha
Occup=1
     1    2.526719900006e-02
     2    3.700859787927e-02
     3    2.581563106448e-01
     4    1.855903656086e-01
     5   -3.957347334747e-13
     6   -1.238694268887e-01
     7    3.055922289467e-01
     8    2.188236880128e-01
     9   -4.655680242791e-13
    10   -2.790512471809e-03
    11    1.475914438207e-01
    12    1.141547341854e-01
    13   -2.798280610829e-13
    14    2.690530697495e-02
    15   -3.836523056056e-03
    16   -4.754116868464e-04
    17   -3.571258671338e-14
    18    8.956401016963e-03
    19    1.051483965778e-14
    20    5.959414211711e-15
    21   -7.287775784765e-03
    22   -1.333962762949e-02
    23   -1.534285019324e-02
    24   -2.486188829663e-02
    25   -2.051911853771e-02
    26   -8.371531010276e-02
    27    1.893022841202e-14
    28    5.941952418340e-02
    29   -4.944017798570e-02
    30   -1.188502745745e-01
    31    2.213929608357e-14
    32    3.851833412229e-02
    33   -2.542122362618e-02
    34   -8.281972956832e-02
    35    9.185776079785e-14
    36   -5.006949805913e-02
    37   -2.902083358290e-02
    38   -3.161536063087e-02
    39   -2.660446678816e-14
    40   -2.284121697150e-03
    41    2.101244055214e-15
    42    5.790542125931e-16
    43   -4.104306481611e-03
    44    3.122139609552e-03
    45    1.885584854119e-02
    46    2.807157855182e-02
    47   -9.004067949817e-02
    48   -5.212999206102e-02
    49   -4.829252647209e-15
    50   -5.709963130411e-02
    51   -1.717656039616e-01
    52   -9.621340389128e-02
    53   -2.117551316119e-14
    54   -1.512911018136e-02
    55   -2.471482177205e-02
    56   -1.753367385544e-02
    57    1.376632063946e-14
    58    2.952381265117e-03
    59   -3.739916828155e-03
    60    4.588259275443e-02
    61    1.960303765957e-14
    62    1.483205090115e-02
    63   -2.495284114239e-14
    64   -1.128804324525e-14
    65   -1.666170583370e-02
    66   -4.001236937116e-02
    67    2.007347024764e-02
    68    2.296458373068e-02
    69    2.646737650105e-02
    70    3.746494335436e-02
    71   -4.049378725704e-03
    72   -2.820390560390e-03
    73    1.764614528050e-15
    74   -5.240073353079e-02
    75   -8.791237342499e-02
    76   -2.312268789479e-03
    77    1.885097033243e-02
    78   -1.913016853564e-03
    79    1.057404403181e-02
    80   -4.322156190106e-16
    81    6.192059253317e-02
    82    8.609724164809e-02
    83    6.078538884394e-03
    84   -2.134450113813e-02
    85    8.230822325108e-03
    86    2.883638600252e-03
    87   -2.039586302922e-15
Sym=X
Ene= 2.003644
Spin=Alpha
Occup=1
     1   -2.524201080923e-14
     2   -4.026153429303e-14
     3    2.929872204915e-13
     4    1.388106070976e-13
     5    4.140789735965e-01
     6    1.470703997715e-13
     7    3.464946508827e-13
     8    1.726947264260e-13
     9    4.816875630518e-01
    10    1.421831234725e-13
    11    1.552686408604e-13
    12    4.388973926591e-14
    13    3.056379474953e-01
    14    2.715762446178e-13
    15   -1.481520026981e-13
    16   -1.216475295060e-14
    17    1.417707999763e-02
    18    9.472501838130e-15
    19   -1.057913337177e-02
    20   -6.327139546114e-03
    21   -9.868409060883e-15
    22   -1.200946773656e-14
    23   -9.023743014934e-15
    24   -1.732941668108e-14
    25   -3.609834865722e-14
    26   -8.068504174647e-14
    27   -1.275258044917e-02
    28    5.037969169744e-14
    29   -6.429732247119e-14
    30   -1.138801196580e-13
    31   -1.956876931664e-02
    32   -2.831406094367e-14
    33    3.127340444413e-15
    34   -3.313771513205e-14
    35   -2.801822224886e-02
    36    2.266872687690e-12
    37   -2.260329802668e-13
    38   -1.264475831211e-12
    39   -1.066304294933e-02
    40    1.334062917529e-14
    41    1.205113671092e-03
    42   -9.937825332318e-04
    43   -6.246335616314e-15
    44   -1.331668628509e-14
    45    9.450152738502e-14
    46    1.012228777074e-13
    47   -7.816940888928e-14
    48   -4.537461635122e-14
    49    1.750835354996e-02
    50   -1.124265600834e-13
    51   -1.560784711431e-13
    52   -9.351298271115e-14
    53    3.239347397445e-02
    54   -2.038832884961e-13
    55   -1.474835446228e-13
    56   -8.074117742728e-14
    57   -2.293243758990e-03
    58   -2.315921720407e-12
    59    6.441085013868e-13
    60    2.351213199713e-13
    61    9.340901246331e-03
    62    3.056356187702e-14
    63    2.369747146576e-02
    64    1.021068162695e-02
    65    1.547531163507e-15
    66   -4.279886083169e-14
    67    1.320565695190e-15
    68    1.034129926168e-14
    69    7.210879328831e-14
    70    3.430573914201e-13
    71    1.920059307609e-15
    72   -1.045248056101e-14
    73    7.675126425645e-04
    74   -5.533192975301e-14
    75   -9.541840574604e-14
    76    8.967158507202e-14
    77    8.599637274260e-13
    78   -1.607060730477e-14
    79    6.603968148759e-15
    80   -6.669426630849e-04
    81    6.580098424702e-14
    82    1.998508900115e-13
    83   -2.791259238510e-13
    84   -1.150822156961e-12
    85    7.243319932583e-15
    86    3.204259610028e-15
    87   -1.592498528282e-03
Sym=X
Ene= 2.002349
Spin=Alpha
Occup=1
     1   -4.824505408710e-03
     2   -7.070974739188e-03
     3   -2.135441585859e-01
     4    3.500870748107e-01
     5    5.862081683836e-14
     6    2.291305324474e-02
     7   -2.484541138701e-01
     8    4.057441608233e-01
     9    6.359535001017e-14
    10    7.353386859318e-03
    11   -1.579525770950e-01
    12    2.636811846863e-01
    13    6.175315917295e-14
    14    2.826183090040e-03
    15   -2.156198042032e-03
    16    3.930258804392e-03
    17   -1.326583227268e-14
    18   -7.376112798847e-04
    19   -1.424812657127e-15
    20   -4.347125907944e-16
    21    9.328195430286e-03
    22   -3.968700489935e-03
    23    1.883496812326e-02
    24    3.059227101786e-02
    25    8.331693579932e-04
    26    9.514256127536e-03
    27   -1.002150387251e-14
    28   -7.569750706340e-02
    29    8.790135634430e-03
    30    4.985427600981e-03
    31   -1.038211834289e-14
    32   -7.841705648369e-02
    33    3.601022597493e-03
    34    2.513168269384e-02
    35   -3.034267723566e-14
    36   -1.812747976264e-01
    37   -2.914003239706e-02
    38    3.399479635710e-02
    39    1.888540550412e-14
    40    1.309302614168e-03
    41    4.367260893466e-16
    42   -1.696038700048e-15
    43   -2.176111015949e-03
    44   -8.070986921050e-03
    45   -9.654975072557e-03
    46   -1.550582908049e-02
    47    1.394572633321e-02
    48   -2.003390444508e-02
    49   -1.924911148167e-15
    50    3.907867953773e-02
    51    3.294322061371e-02
    52   -3.092495070269e-02
    53   -1.069569945993e-15
    54    2.903539231080e-02
    55   -5.421940018546e-03
    56   -2.680982818058e-02
    57   -8.306090966556e-15
    58    1.510323404650e-01
    59   -6.678853826914e-02
    60    5.234514343152e-02
    61   -7.566557171756e-15
    62   -7.376774952685e-04
    63   -5.382544380535e-17
    64   -2.994846960860e-15
    65   -2.910608768837e-02
    66    1.695200781173e-02
    67    3.626029421017e-02
    68    6.154024916574e-02
    69    3.289681532774e-02
    70    4.017332588833e-02
    71    3.251862365244e-03
    72    3.705850238194e-03
    73    2.259847594709e-15
    74   -8.737827819345e-03
    75   -8.390139872803e-03
    76   -2.981439054432e-03
    77   -1.895398379610e-02
    78    2.484486599507e-03
    79    1.556696566795e-03
    80   -1.670343022696e-15
    81   -1.978774075562e-02
    82   -2.123527388562e-02
    83    1.307446143276e-02
    84    2.679364616712e-03
    85   -1.944059747499e-03
    86    6.548195354229e-05
    87    1.539717090629e-16
Sym=X
Ene= 2.000166
Spin=Alpha
Occup=1
     1    2.022411871503e-02
     2    2.980849236371e-02
     3   -1.290258656683e-02
     4    3.627124585940e-02
     5   -2.164245348001e-16
     6   -1.001808237117e-01
     7   -1.064709861376e-02
     8    4.296929793450e-02
     9   -1.910613657911e-15
    10   -2.750738894878e-02
    11   -2.414757087766e-02
    12    2.340078595124e-02
    13    1.311087284225e-14
    14    4.632579360171e-02
    15   -2.724669627656e-02
    16    6.064855285437e-03
    17    1.347562013629e-14
    18    1.608442529343e-03
    19    3.431842934379e-15
    20    9.502653291334e-16
    21   -4.337687004325e-03
    22   -1.110640724370e-03
    23   -1.407404774895e-02
    24   -2.689822346674e-02
    25   -1.518630741774e-01
    26    1.082335724456e-01
    27   -4.813400976224e-14
    28    7.492210663547e-02
    29   -2.320720661342e-01
    30    1.664633231509e-01
    31   -8.200227853015e-14
    32    1.464352008787e-01
    33   -8.724436910063e-02
    34    8.448439594597e-02
    35   -6.800743902228e-14
    36   -2.756606666531e-03
    37   -1.739862630861e-03
    38   -1.933870497300e-02
    39   -1.738511866326e-14
    40   -3.953000581505e-03
    41   -9.820932612200e-15
    42    3.824408759493e-15
    43   -2.321955978432e-02
    44    2.604208306822e-02
    45    6.774168489742e-02
    46    1.115137341035e-01
    47    9.359387684382e-02
    48   -6.165487150259e-02
    49   -5.444553043432e-14
    50   -2.975112709412e-01
    51    1.225301466126e-01
    52   -9.798006612155e-02
    53   -9.466025007973e-14
    54   -2.019419268145e-01
    55    5.504497746823e-02
    56   -7.012623560653e-02
    57   -8.261308940007e-14
    58   -2.094888019618e-02
    59    1.153148845550e-03
    60    1.615426370519e-04
    61    1.300268849416e-15
    62    7.683779043238e-03
    63    4.766918596356e-15
    64   -7.877551024919e-15
    65   -7.182341652451e-03
    66    5.191061750273e-03
    67    4.789968643919e-04
    68    9.927582556036e-03
    69    2.245517742542e-02
    70    1.742067070957e-04
    71    4.574651127609e-03
    72   -4.243267947977e-03
    73   -3.490042110077e-15
    74    1.154467629152e-01
    75    1.730255028387e-01
    76    4.397383765343e-02
    77    2.755362646989e-02
    78   -6.493715229028e-03
    79   -1.568024620423e-02
    80   -4.095517760820e-15
    81    7.514170088101e-02
    82    1.149508060066e-01
    83    2.489747052957e-02
    84   -9.390535149817e-03
    85    3.666362059325e-03
    86    1.348897573479e-02
    87   -3.994511353805e-15
Sym=X
Ene= 2.000108
Spin=Alpha
Occup=1
     1   -5.313532922420e-02
     2   -7.853625391886e-02
     3    1.521082103183e-02
     4    1.973681031921e-02
     5   -2.450102307779e-14
     6    2.692760981403e-01
     7    1.195913491922e-02
     8    1.960863211282e-02
     9   -2.761054727581e-14
    10    1.051900893572e-01
    11    1.939239038110e-02
    12    1.900801814373e-02
    13   -1.558035513355e-14
    14   -2.995717556591e-02
    15    1.309601720701e-02
    16    1.128747820008e-02
    17   -5.146802398487e-15
    18   -2.182215666567e-03
    19    7.361332779503e-16
    20    3.117833931347e-16
    21    1.548636752773e-03
    22    2.330609532343e-03
    23   -7.761586849412e-02
    24   -1.315029494549e-01
    25    7.747290688981e-03
    26    1.885913433928e-02
    27    2.828224043296e-15
    28    3.377033662325e-01
    29    1.407720865773e-02
    30    2.835166519941e-02
    31    3.529519488647e-15
    32    2.095726047755e-01
    33   -8.139652160831e-04
    34    3.185477508441e-02
    35    4.802152591263e-15
    36   -1.903186293896e-03
    37    8.571909831287e-03
    38    1.245661327261e-02
    39    4.911256184688e-15
    40   -1.322135528267e-02
    41    1.764999824132e-15
    42    2.819987910315e-16
    43   -2.491989510549e-03
    44   -7.167886495614e-03
    45   -5.816417234818e-02
    46   -1.011848152983e-01
    47   -3.512944538655e-02
    48   -1.521718801418e-02
    49    1.913380839079e-15
    50    2.746766849826e-01
    51   -4.340260459767e-02
    52   -1.596485622549e-02
    53    5.731325833145e-15
    54    1.477642405564e-01
    55    2.621235537337e-03
    56   -2.483139093097e-02
    57    9.816754201008e-15
    58   -2.263623031695e-03
    59    6.699287476257e-03
    60   -1.471938479124e-02
    61   -2.288991345006e-15
    62   -1.231488769352e-02
    63   -1.675552893473e-15
    64   -3.977088008425e-17
    65   -9.639414535780e-04
    66   -1.235706600292e-02
    67    6.549745121161e-02
    68    9.513083265413e-02
    69    4.773645562506e-03
    70   -5.988200798319e-03
    71   -3.031353724344e-03
    72    1.341969882188e-02
    73   -2.907520880535e-16
    74    8.977562494918e-02
    75    1.299902552484e-01
    76    8.405140427734e-03
    77    1.959028543428e-03
    78    1.954521450316e-03
    79   -1.841841772451e-02
    80   -5.095696620738e-16
    81    5.503062817807e-02
    82    7.279750289248e-02
    83   -2.448986829908e-03
    84    1.921265547777e-02
    85    1.180141099291e-02
    86    8.979024741318e-03
    87    1.186353815534e-15
Sym=X
Ene= 1.999999
Spin=Alpha
Occup=1
     1    6.197164414041e-04
     2    9.204475677829e-04
     3   -8.285168233812e-04
     4   -1.688774097945e-03
     5   -3.597776706914e-15
     6   -3.237874455196e-03
     7   -9.312245641088e-04
     8   -1.978038146381e-03
     9   -2.838938747583e-15
    10   -1.699929916561e-03
    11   -4.471768392255e-04
    12   -1.017073643948e-03
    13   -1.654070384746e-15
    14   -9.208906180482e-05
    15   -1.164666092101e-04
    16    9.159668940511e-05
    17   -4.203683597786e-15
    18   -2.395548715662e-05
    19   -9.283027729110e-16
    20   -7.764078407699e-16
    21   -6.054964711618e-05
    22    9.429439935984e-05
    23    5.640136476995e-01
    24    4.680898645482e-01
    25    8.611435919533e-06
    26   -1.571569776036e-03
    27    1.195726730672e-14
    28   -1.737408654352e-04
    29   -7.898030134550e-05
    30   -2.734689833612e-03
    31    1.817057443574e-14
    32   -3.556062646324e-03
    33   -2.053407778370e-04
    34   -1.502332569752e-03
    35    2.083761019719e-14
    36    1.315354617436e-03
    37    2.366011851109e-04
    38    1.533077688888e-04
    39   -2.776754300557e-15
    40   -3.000756238885e-04
    41    2.847275174953e-15
    42   -2.686759728309e-15
    43    2.988001835615e-04
    44   -2.266523618414e-04
    45   -1.944564534873e-02
    46   -1.651780152770e-02
    47    3.533062054543e-04
    48   -1.383266018044e-03
    49    1.310090937334e-14
    50    2.106602406803e-03
    51    1.520237785399e-03
    52   -2.267972831261e-03
    53    2.141475219915e-14
    54    1.274758112119e-03
    55    3.732936691586e-04
    56   -1.084030941845e-03
    57    1.398995072350e-14
    58   -2.621602863689e-04
    59    1.264403342967e-04
    60   -3.293264069099e-04
    61    5.518533148548e-15
    62    8.707490161287e-05
    63   -5.924084858094e-16
    64    1.717836476054e-15
    65    1.121886260996e-04
    66    1.590026661115e-04
    67    1.388350134707e-03
    68    2.000865620993e-03
    69   -1.584889775652e-04
    70   -1.846499445087e-04
    71   -3.962760925199e-05
    72    2.729590001426e-04
    73    8.225244779793e-16
    74   -1.884243956713e-03
    75   -3.471923569533e-03
    76   -2.605013671916e-04
    77   -6.245967126890e-04
    78   -3.563564542415e-05
    79    4.080644242404e-04
    80    8.445415076868e-16
    81    2.590222947916e-04
    82   -2.732023186975e-04
    83    5.549793710460e-04
    84   -6.414754509300e-05
    85   -6.959735427782e-05
    86   -1.408567650361e-04
    87   -6.178803859727e-16
Sym=X
Ene= 1.999996
Spin=Alpha
Occup=1
     1   -1.402347130873e-03
     2   -2.096731209615e-03
     3    8.361293366623e-04
     4   -3.463385165392e-04
     5   -4.201527405525e-14
     6    7.229095027194e-03
     7    3.562536112814e-04
     8   -7.405985789571e-04
     9   -5.040575061976e-14
    10    3.573847906893e-03
    11    5.518220607617e-04
    12   -2.496700467563e-04
    13   -2.753519510203e-14
    14   -1.530078507969e-03
    15    4.738610540512e-04
    16    2.038587640206e-04
    17    1.917207613746e-15
    18   -1.528025718143e-04
    19    1.803595433145e-15
    20    7.722267932119e-16
    21    1.482291506529e-04
    22    2.570565451913e-04
    23    2.059049550384e-02
    24    1.858268273963e-02
    25    1.585525592674e-03
    26    1.486460974611e-03
    27   -2.433605142754e-14
    28   -7.630164846523e-03
    29    1.485776887055e-03
    30    2.978686358364e-03
    31   -3.819567445935e-14
    32   -5.230024458941e-03
    33    1.516861762791e-03
    34    1.210985841176e-03
    35   -3.651135502004e-14
    36    1.772133125626e-04
    37   -3.773231387169e-04
    38   -3.167851368688e-04
    39    2.613917967477e-16
    40    4.901886128083e-04
    41   -5.396705208646e-15
    42    3.644775680184e-15
    43   -1.762346522331e-04
    44    7.380074009948e-05
    45    5.636596942638e-01
    46    4.673274111197e-01
    47    4.326655998644e-03
    48    1.437967252194e-03
    49   -2.757297945367e-14
    50    1.034801348471e-03
    51   -8.671513593201e-04
    52   -5.490868814612e-04
    53   -5.290884915582e-14
    54   -8.057368684800e-04
    55    1.363052538419e-03
    56    7.262759380870e-04
    57   -3.523283210179e-14
    58    1.721471029760e-03
    59   -1.977934738896e-04
    60    3.317017523942e-04
    61   -5.202839741573e-15
    62   -3.676159636170e-04
    63   -1.412928148606e-15
    64   -3.795756249273e-15
    65   -6.236411711604e-05
    66   -5.424596841385e-04
    67   -5.406107877194e-05
    68   -6.722417217878e-04
    69    7.745640274208e-04
    70   -4.495335299103e-04
    71    5.793614319625e-05
    72   -1.918709597816e-04
    73   -1.561066569176e-15
    74   -2.896986014644e-04
    75   -2.387563292031e-04
    76    7.646669410054e-04
    77   -8.027238259449e-05
    78    9.775434593246e-05
    79    2.248105906242e-04
    80   -2.279304750652e-15
    81   -3.285953802527e-03
    82   -4.753871134970e-03
    83   -7.909202969119e-04
    84   -9.626095646657e-04
    85   -4.590940795077e-04
    86   -3.713791614982e-04
    87   -9.214698333943e-16
Sym=X
Ene= 1.999834
Spin=Alpha
Occup=1
     1    1.123308468015e-02
     2    1.682334512431e-02
     3   -2.789783294775e-02
     4   -6.543348651414e-02
     5    5.370832840951e-14
     6   -6.293831706440e-02
     7   -3.195585959427e-02
     8   -7.871029942519e-02
     9    5.408339834696e-14
    10   -4.614303376236e-02
    11   -1.525722142653e-02
    12   -3.495715775563e-02
    13    5.354585706408e-14
    14   -8.519169924533e-03
    15   -8.638870390891e-03
    16    2.615458791148e-02
    17    4.783698769102e-14
    18   -2.044636017764e-03
    19    8.671744755332e-15
    20    4.329749104185e-15
    21   -6.167104100739e-03
    22    7.973101702218e-03
    23    3.236622121363e-02
    24    6.015575607765e-02
    25   -6.968426676268e-02
    26   -2.732445707647e-02
    27   -1.642515000856e-13
    28   -1.709727177889e-01
    29   -1.008226030834e-01
    30   -4.288612461931e-02
    31   -2.809511862676e-13
    32   -7.488883401880e-02
    33   -4.385444789606e-02
    34   -2.093073404239e-02
    35   -2.500788310046e-13
    36    1.011865257145e-01
    37    2.913394062198e-02
    38    1.270653180832e-03
    39   -3.425012470290e-14
    40    6.349281527717e-03
    41   -3.187258588880e-14
    42    1.688224004797e-14
    43   -6.149291835797e-03
    44    3.993728128556e-03
    45   -3.590108283901e-02
    46   -6.090954763142e-02
    47    8.253294037288e-02
    48   -1.653490613714e-01
    49   -1.873600476691e-13
    50    1.641139123187e-01
    51    1.356421346824e-01
    52   -2.498798793612e-01
    53   -3.192960592562e-13
    54    1.310422623870e-01
    55    6.295790326947e-02
    56   -1.378626115978e-01
    57   -2.715299934786e-13
    58   -7.792047472107e-02
    59    2.632676940646e-02
    60   -4.021935924620e-02
    61   -1.402352126347e-14
    62   -7.960748967010e-03
    63    1.880127114687e-14
    64   -2.409790972473e-14
    65   -1.380738371960e-03
    66    2.972278044576e-03
    67    1.598720923293e-01
    68    2.364977679995e-01
    69    1.437617142372e-02
    70   -1.497801464654e-02
    71   -3.651825653013e-04
    72    2.858902093849e-02
    73   -1.332990991250e-14
    74   -4.894602341331e-02
    75   -6.876546373692e-02
    76    1.479869464325e-03
    77   -1.017046836495e-02
    78   -5.050693378320e-03
    79    1.124052199376e-02
    80   -1.287260400402e-14
    81    2.033519705027e-02
    82    3.432265545158e-02
    83    1.750632383182e-02
    84    1.287268889701e-02
    85    3.117856424075e-04
    86    1.463293134571e-03
    87   -1.226747568095e-14
Sym=X
Ene= 1.999439
Spin=Alpha
Occup=1
     1   -9.543171427752e-02
     2   -1.415436198698e-01
     3    1.785892608986e-01
     4    6.070187227626e-02
     5   -4.948967567312e-14
     6    4.959751089420e-01
     7    2.030893199591e-01
     8    6.713758217138e-02
     9   -6.356540937845e-14
    10    2.369582800006e-01
    11    1.170391652712e-01
    12    3.787528241634e-02
    13   -1.511471165317e-14
    14    5.762006520006e-03
    15   -1.540322018970e-03
    16    7.016823353908e-03
    17    4.762361024560e-14
    18    2.429740406462e-03
    19    1.240515216065e-14
    20    6.037641550940e-15
    21   -5.123131226989e-03
    22   -3.004964613183e-03
    23    4.267547152320e-02
    24    6.945263328248e-02
    25    2.805973334132e-02
    26    8.671866952794e-02
    27   -1.768440400652e-13
    28   -1.739931593126e-01
    29    3.890178160651e-02
    30    1.349970808250e-01
    31   -3.137446123897e-13
    32   -8.538925487742e-02
    33    4.613506272660e-02
    34    7.728671197126e-02
    35   -2.401805266228e-13
    36    2.474083795679e-02
    37   -6.668926154828e-03
    38   -2.305553014858e-02
    39   -2.739687889806e-14
    40    6.125238710560e-03
    41   -3.282818138855e-14
    42    1.820616884678e-14
    43   -1.608864840864e-02
    44   -2.280959235259e-03
    45    1.071011724230e-02
    46    2.617753511285e-02
    47    2.890125211170e-02
    48   -4.614117492281e-02
    49   -2.010900919751e-13
    50   -9.409619328006e-02
    51    3.248273483299e-02
    52   -7.867321143237e-02
    53   -3.483809547952e-13
    54   -3.523960898590e-02
    55    1.945489512766e-02
    56   -4.010335549710e-02
    57   -2.770198208583e-13
    58   -1.662139708973e-02
    59    1.338310573990e-02
    60    7.207050662468e-03
    61   -3.251789629770e-14
    62    3.114102004945e-03
    63    1.500619606060e-14
    64   -3.079448659627e-14
    65   -1.710839388041e-02
    66   -1.075654771003e-02
    67    2.706780129944e-02
    68    4.357282282275e-02
    69    2.931260343688e-02
    70    2.129376232785e-03
    71   -1.845606222580e-04
    72   -1.689215670554e-03
    73   -1.258859759987e-14
    74    3.859009864413e-02
    75    6.513327020986e-02
    76    4.209192895006e-02
    77    1.865096519483e-02
    78    2.429063197367e-03
    79   -3.441027233423e-04
    80   -1.576081875588e-14
    81   -9.710419761862e-02
    82   -1.475679319981e-01
    83   -3.199061648430e-02
    84   -2.741455131074e-02
    85   -1.625497223164e-02
    86   -5.941764128569e-03
    87   -1.714901716802e-14
Sym=X
Ene= 1.998557
Spin=Alpha
Occup=1
     1   -9.872415239279e-13
     2   -1.460576092685e-12
     3   -9.856258008091e-13
     4   -2.121162821297e-13
     5    3.830740102153e-02
     6    5.187123744986e-12
     7   -1.188033937564e-12
     8   -2.623991055330e-13
     9    4.016297858342e-02
    10    2.309499143545e-12
    11   -6.055869374793e-13
    12   -1.032910508746e-13
    13    4.101776624166e-02
    14    4.633846987003e-13
    15   -2.805595118168e-13
    16   -2.085318506763e-13
    17    4.837006221143e-02
    18   -1.348266900601e-14
    19    9.002223256566e-03
    20    4.276314497633e-03
    21    3.930487198834e-14
    22    2.025090899505e-14
    23   -4.809890229010e-15
    24   -4.292286810718e-14
    25   -1.001463205590e-12
    26   -1.313946069765e-12
    27   -1.631906445933e-01
    28    2.517088240964e-13
    29   -1.456391932069e-12
    30   -2.046791904883e-12
    31   -2.759872500811e-01
    32    9.179506618906e-14
    33   -1.020553893743e-12
    34   -1.428607027920e-12
    35   -2.455703695044e-01
    36    1.672482572590e-13
    37   -5.985843475887e-13
    38   -9.120985312123e-13
    39   -2.660578038297e-02
    40    9.778863850370e-15
    41   -3.039112293707e-02
    42    1.589280341885e-02
    43    2.161351555231e-13
    44    1.583717420871e-13
    45    2.166984436520e-13
    46    4.292278637617e-13
    47    1.582680585960e-13
    48    5.990442018495e-13
    49   -1.819474517448e-01
    50   -1.373128336648e-12
    51    2.975710970718e-13
    52    9.635188003616e-13
    53   -3.130988108617e-01
    54   -1.641272453700e-12
    55   -3.044646270463e-13
    56    4.871104003356e-13
    57   -2.599720591960e-01
    58   -2.783204296094e-13
    59    8.230467579856e-14
    60    6.000267769131e-13
    61   -2.224271278435e-02
    62   -9.041802175971e-15
    63    1.988241229210e-02
    64   -2.356224778717e-02
    65    3.649324098547e-13
    66    4.217780755734e-13
    67   -8.478066678944e-13
    68   -1.269688429764e-12
    69   -2.730092345126e-13
    70    3.764898325847e-13
    71    2.014031807591e-14
    72   -7.097402768617e-14
    73   -1.308630264066e-02
    74   -1.065229663799e-12
    75   -1.650101107041e-12
    76   -3.578348943388e-13
    77    5.778582807484e-13
    78   -7.715072058399e-14
    79    1.085438914445e-13
    80   -1.330170097160e-02
    81    1.375711794581e-12
    82    2.184997351526e-12
    83    2.779169163441e-13
    84   -8.746452391118e-13
    85    1.866422877598e-13
    86    6.352912622743e-14
    87   -1.292219168044e-02
Sym=X
Ene= 1.998466
Spin=Alpha
Occup=1
     1    9.375324920440e-02
     2    1.389143563968e-01
     3    7.427348189318e-02
     4    1.773498185514e-02
     5    5.549444758158e-13
     6   -4.923319778266e-01
     7    9.038257366782e-02
     8    2.264680452153e-02
     9    5.975598254449e-13
    10   -2.186631412941e-01
    11    4.496769285791e-02
    12    7.576683597535e-03
    13    5.586389097328e-13
    14   -3.792599819229e-02
    15    2.245155943506e-02
    16    1.556836446724e-02
    17    5.403227443146e-13
    18    1.155626024899e-03
    19    1.002458942759e-13
    20    4.725129836895e-14
    21   -2.370656742935e-03
    22   -2.250504883117e-03
    23   -3.285900222172e-03
    24   -5.262127348065e-03