[Molden Format]
[Atoms] (Angs)
  F      1    9      1.15290231      0.22477664     -0.00000000
  C      2    6     -1.17935012      0.19972949     -0.00000000
  C      3    6     -0.01631886     -0.43556811      0.00000000
  H      4    1      0.11895302     -1.50789969      0.00000000
  H      5    1     -1.23082549      1.27856114     -0.00000000
  H      6    1     -2.09023450     -0.37861944      0.00000000
[GTO]
1    0
S    6    1.000000
   1.14271000E+04    1.80093000E-03 
   1.72235000E+03    1.37419000E-02 
   3.95746000E+02    6.81334000E-02 
   1.15139000E+02    2.33325000E-01 
   3.36026000E+01    5.89086000E-01 
   4.91901000E+00    2.99505000E-01 
SP   3    1.000000
   5.54441000E+01    1.14536000E-01   3.54609000E-02 
   1.26323000E+01    9.20512000E-01   2.37451000E-01 
   3.71756000E+00   -3.37804000E-03   8.20458000E-01 
SP   1    1.000000
   1.16545000E+00    1.00000000E+00   1.00000000E+00 
SP   1    1.000000
   3.21892000E-01    1.00000000E+00   1.00000000E+00 
SP   1    1.000000
   1.07600000E-01    1.00000000E+00   1.00000000E+00 
D    1    1.000000
   1.75000000E+00    1.00000000E+00 

2    0
S    6    1.000000
   4.56324000E+03    1.96665000E-03 
   6.82024000E+02    1.52306000E-02 
   1.54973000E+02    7.61269000E-02 
   4.44553000E+01    2.60801000E-01 
   1.30290000E+01    6.16462000E-01 
   1.82773000E+00    2.21006000E-01 
SP   3    1.000000
   2.09642000E+01    1.14660000E-01   4.02487000E-02 
   4.80331000E+00    9.19999000E-01   2.37594000E-01 
   1.45933000E+00   -3.03068000E-03   8.15854000E-01 
SP   1    1.000000
   4.83456000E-01    1.00000000E+00   1.00000000E+00 
SP   1    1.000000
   1.45585000E-01    1.00000000E+00   1.00000000E+00 
SP   1    1.000000
   4.38000000E-02    1.00000000E+00   1.00000000E+00 
D    1    1.000000
   6.26000000E-01    1.00000000E+00 

3    0
S    6    1.000000
   4.56324000E+03    1.96665000E-03 
   6.82024000E+02    1.52306000E-02 
   1.54973000E+02    7.61269000E-02 
   4.44553000E+01    2.60801000E-01 
   1.30290000E+01    6.16462000E-01 
   1.82773000E+00    2.21006000E-01 
SP   3    1.000000
   2.09642000E+01    1.14660000E-01   4.02487000E-02 
   4.80331000E+00    9.19999000E-01   2.37594000E-01 
   1.45933000E+00   -3.03068000E-03   8.15854000E-01 
SP   1    1.000000
   4.83456000E-01    1.00000000E+00   1.00000000E+00 
SP   1    1.000000
   1.45585000E-01    1.00000000E+00   1.00000000E+00 
SP   1    1.000000
   4.38000000E-02    1.00000000E+00   1.00000000E+00 
D    1    1.000000
   6.26000000E-01    1.00000000E+00 

4    0
S    3    1.000000
   3.38650000E+01    2.54938000E-02 
   5.09479000E+00    1.90373000E-01 
   1.15879000E+00    8.52161000E-01 
S    1    1.000000
   3.25840000E-01    1.00000000E+00 
S    1    1.000000
   1.02741000E-01    1.00000000E+00 
S    1    1.000000
   3.60000000E-02    1.00000000E+00 
P    1    1.000000
   7.50000000E-01    1.00000000E+00 

5    0
S    3    1.000000
   3.38650000E+01    2.54938000E-02 
   5.09479000E+00    1.90373000E-01 
   1.15879000E+00    8.52161000E-01 
S    1    1.000000
   3.25840000E-01    1.00000000E+00 
S    1    1.000000
   1.02741000E-01    1.00000000E+00 
S    1    1.000000
   3.60000000E-02    1.00000000E+00 
P    1    1.000000
   7.50000000E-01    1.00000000E+00 

6    0
S    3    1.000000
   3.38650000E+01    2.54938000E-02 
   5.09479000E+00    1.90373000E-01 
   1.15879000E+00    8.52161000E-01 
S    1    1.000000
   3.25840000E-01    1.00000000E+00 
S    1    1.000000
   1.02741000E-01    1.00000000E+00 
S    1    1.000000
   3.60000000E-02    1.00000000E+00 
P    1    1.000000
   7.50000000E-01    1.00000000E+00 

[MO]
Sym=X
Ene= 2.000018
Spin=Alpha
Occup=1
     1   -3.099890288955e-12
     2   -5.203083360608e-12
     3    4.522318437022e-13
     4   -9.020436245011e-13
     5    3.050284624156e-01
     6    1.535145821853e-11
     7    5.009064132056e-13
     8   -1.479721109729e-12
     9    4.642989056351e-01
    10    1.226342702320e-11
    11    6.736176259350e-13
    12   -1.173633846593e-12
    13    4.072798519630e-01
    14   -9.132428221170e-13
    15    1.509996110396e-13
    16   -1.341271490051e-14
    17    3.832404981441e-02
    18   -7.172987277615e-14
    19   -1.163224333665e-02
    20   -6.856336467428e-03
    21    2.635604735922e-14
    22    1.159938237096e-13
    23    4.859638427569e-12
    24    3.852410801313e-12
    25   -1.247898467802e-14
    26    1.313313734840e-12
    27   -1.722345251835e-02
    28    9.428016819870e-13
    29    2.810670564603e-13
    30    1.934729201488e-12
    31   -2.616570962300e-02
    32    1.134200691649e-12
    33    4.214024785721e-13
    34    1.461003429929e-12
    35   -4.293102221838e-02
    36   -4.953709759721e-13
    37   -9.235855917797e-14
    38    1.507248410104e-13
    39   -1.273390847594e-02
    40   -1.999403114295e-14
    41    2.115037799749e-03
    42   -1.095811027003e-03
    43    5.411105489527e-15
    44   -2.462310827909e-14
    45    6.810371257202e-12
    46    5.501097592197e-12
    47    1.088765474483e-12
    48    6.272117452218e-13
    49    2.763805636431e-02
    50    5.268827574209e-13
    51    1.786983062092e-12
    52    1.031860730587e-12
    53    5.103279634814e-02
    54   -1.161111323342e-12
    55   -3.877576396149e-14
    56   -4.784747442216e-13
    57    3.228555254397e-03
    58    1.530991026717e-12
    59    2.829345840597e-13
    60   -6.275239254430e-14
    61    6.635255858976e-03
    62   -1.914717387679e-13
    63    3.239249801317e-02
    64    1.428231981298e-02
    65    3.540427554675e-13
    66    4.877927778010e-13
    67   -2.545003259678e-13
    68   -3.987529187457e-13
    69   -3.586779638186e-13
    70   -5.067987770396e-13
    71    6.356340618740e-14
    72    5.157543585495e-14
    73    1.061075769670e-03
    74    1.296575652270e-12
    75    1.912706388280e-12
    76    2.989802855085e-13
    77   -4.984210891258e-14
    78   -2.427517872895e-15
    79   -2.414865493982e-13
    80   -9.819643780206e-04
    81   -4.196292993871e-13
    82   -5.102490446750e-13
    83   -1.597469094576e-13
    84    1.521481933576e-13
    85   -2.095317155915e-14
    86    2.719689857767e-14
    87   -1.994092213708e-03
Sym=X
Ene= 2.000000
Spin=Alpha
Occup=1
     1   -2.662313311866e-04
     2   -4.457476367359e-04
     3    2.820092026741e-04
     4    3.689629024078e-04
     5    2.751771588307e-12
     6    1.314783039618e-03
     7    4.345004870015e-04
     8    5.729351568452e-04
     9    4.187005243380e-12
    10    1.120780175076e-03
    11    2.941722011886e-04
    12    4.256541356703e-04
    13    3.671620351159e-12
    14   -3.366449907553e-05
    15    5.114187022900e-05
    16    1.763343641016e-04
    17    3.467227045908e-13
    18    8.561518730991e-06
    19   -1.046316608750e-13
    20   -6.133083460323e-14
    21   -8.171188296391e-06
    22   -7.597356341011e-06
    23   -5.645552342503e-01
    24   -4.686981900936e-01
    25   -8.090268494219e-04
    26   -6.851006291270e-04
    27   -1.561077375852e-13
    28    1.047688653290e-03
    29   -2.070694943154e-03
    30   -6.909664654769e-04
    31   -2.352878195762e-13
    32    4.018632800554e-03
    33   -1.010789959250e-03
    34   -5.144719776929e-04
    35   -3.914260399312e-13
    36   -5.338494996584e-04
    37    4.355573392006e-05
    38    1.549368849374e-05
    39   -1.101141200055e-13
    40    2.514614758076e-04
    41    1.833560865774e-14
    42   -8.265986669556e-15
    43   -1.282592760224e-04
    44    3.601571176004e-04
    45   -4.291907534495e-03
    46   -3.910606659825e-03
    47   -4.037523963926e-04
    48   -4.912964165958e-04
    49    2.485029966096e-13
    50    1.792558465878e-03
    51   -1.284874512927e-03
    52   -3.684525909747e-04
    53    4.605016638222e-13
    54    1.186531977379e-03
    55   -1.704802078422e-04
    56   -3.176749104016e-04
    57    3.236054099469e-14
    58   -3.928162912757e-04
    59    1.496323791773e-04
    60   -8.615638309166e-05
    61    5.555803226089e-14
    62   -2.128743693333e-04
    63    2.915146530748e-13
    64    1.287851635269e-13
    65    1.248613503786e-04
    66   -1.424731394257e-04
    67    6.039552544028e-04
    68    9.044674863422e-04
    69    4.640444841964e-05
    70    9.238881838959e-05
    71   -1.027384756179e-05
    72    1.664147059061e-04
    73    9.607009144264e-15
    74    2.973604961563e-04
    75    9.749339687882e-04
    76   -3.227087512437e-04
    77    3.071803058847e-04
    78   -6.829368680900e-05
    79   -1.776432802570e-04
    80   -8.769343894262e-15
    81    1.724100231785e-03
    82    3.176657176374e-03
    83    2.339744796978e-04
    84    4.822245733672e-04
    85    3.031957859916e-04
    86    2.093538692954e-04
    87   -1.645069497133e-14
Sym=X
Ene= 1.999999
Spin=Alpha
Occup=1
     1   -4.079918798655e-04
     2   -6.652902431676e-04
     3   -1.134469828660e-03
     4   -1.153809514523e-03
     5    3.804276620591e-12
     6    1.965062851136e-03
     7   -1.341073915621e-03
     8   -1.551226268397e-03
     9    5.791460834431e-12
    10    7.331838535483e-04
    11   -1.088069203039e-03
    12   -1.124193913510e-03
    13    5.078078868251e-12
    14    3.481628669590e-04
    15   -2.386614943949e-04
    16    4.237162317753e-05
    17    4.815454734753e-13
    18    3.951023551688e-05
    19   -1.443803155994e-13
    20   -8.487110815132e-14
    21   -1.017397754215e-04
    22   -3.038043619273e-05
    23    4.085647465386e-03
    24    3.367437596423e-03
    25   -6.422078182349e-04
    26   -5.979420449480e-03
    27   -2.134766464937e-13
    28    1.979155426519e-04
    29   -8.530379762888e-06
    30   -9.712054558573e-03
    31   -3.279312070147e-13
    32   -1.244791727417e-03
    33   -1.177559584554e-03
    34   -5.265407347005e-03
    35   -5.318313066789e-13
    36    1.445535002409e-03
    37    6.874823258493e-04
    38    4.833522803618e-04
    39   -1.615244086758e-13
    40   -1.695841864980e-04
    41    2.706810740176e-14
    42   -1.474006474411e-14
    43    8.505134854767e-04
    44   -2.053135489609e-04
    45   -5.654072086491e-01
    46   -4.701255608438e-01
    47   -2.687906749427e-03
    48   -2.037902578494e-03
    49    3.429981984665e-13
    50    6.306948406278e-03
    51    9.561435583750e-04
    52   -1.846287678784e-03
    53    6.389011587346e-13
    54    5.708527145585e-03
    55   -1.340185320284e-03
    56   -1.138243931636e-03
    57    3.674680111179e-14
    58   -1.993042107520e-03
    59    5.496492412414e-04
    60   -7.717838894553e-04
    61    8.306125865346e-14
    62   -1.096116650772e-05
    63    4.057705201367e-13
    64    1.773803703636e-13
    65    5.534635307635e-04
    66    1.058320564150e-03
    67    2.270302393392e-03
    68    3.754330299908e-03
    69   -9.437435046553e-04
    70    6.456553805968e-05
    71   -8.719973399797e-05
    72    6.838184385366e-04
    73    1.274066046447e-14
    74   -5.053164004976e-03
    75   -7.727022581752e-03
    76   -2.199000708325e-03
    77   -7.458691005176e-04
    78   -9.160803774849e-05
    79    6.072668906479e-04
    80   -1.192262638771e-14
    81    3.030566796524e-03
    82    4.749543180974e-03
    83    1.333099958864e-03
    84    1.115880751190e-03
    85    5.055550324054e-04
    86    6.693664049473e-05
    87   -2.570801419566e-14
Sym=X
Ene= 1.999951
Spin=Alpha
Occup=1
     1    1.186616162180e-01
     2    1.991382210793e-01
     3   -3.711706727113e-02
     4   -1.008671021647e-02
     5    7.826307668445e-12
     6   -5.882409582149e-01
     7   -5.014277768851e-02
     8   -1.138560189503e-02
     9    1.191129120403e-11
    10   -4.808974727734e-01
    11   -4.291798203422e-02
    12   -1.141797435948e-02
    13    1.044692439009e-11
    14    2.580617957588e-02
    15   -4.200396865479e-03
    16   -3.532568538241e-03
    17    9.871300334800e-13
    18    1.358772247058e-03
    19   -2.987612074637e-13
    20   -1.759779616244e-13
    21   -2.330802134655e-04
    22   -1.957680136074e-03
    23    1.236024427828e-02
    24    2.238914282614e-02
    25    1.232165708053e-02
    26   -4.956310498489e-02
    27   -4.424468270466e-13
    28   -6.159796445068e-02
    29    1.039130853494e-02
    30   -7.370133985311e-02
    31   -6.700946232979e-13
    32   -6.089625706465e-02
    33   -7.355689687208e-03
    34   -5.890844250389e-02
    35   -1.100207544395e-12
    36    8.390663355249e-02
    37    1.711524093790e-02
    38   -9.960707640660e-03
    39   -3.249962116484e-13
    40    2.169945792540e-03
    41    5.434266931512e-14
    42   -2.850999617596e-14
    43    3.708335855019e-03
    44    3.506839882446e-04
    45    8.777803759078e-03
    46    1.163545138480e-02
    47   -2.867723394390e-02
    48    8.923559068103e-04
    49    7.100089544577e-13
    50   -1.369096189085e-02
    51   -4.421495428434e-02
    52    4.420658709082e-04
    53    1.307717221496e-12
    54    4.325240702902e-02
    55    7.329751776016e-03
    56    3.679867868296e-02
    57    8.200502382513e-14
    58   -1.077308786043e-01
    59    3.788128644379e-03
    60   -1.382809924966e-02
    61    1.661143348384e-13
    62    5.011082425850e-03
    63    8.322276908141e-13
    64    3.662907591250e-13
    65   -4.624920771650e-03
    66   -1.230180471178e-02
    67   -1.023097927731e-02
    68   -1.729640207968e-02
    69   -7.779620399725e-04
    70    8.610442674204e-03
    71   -1.797448285572e-03
    72   -3.478836417971e-03
    73    2.772137688025e-14
    74   -5.684272000658e-02
    75   -8.238354070431e-02
    76   -1.681507195990e-02
    77   -2.270189558588e-05
    78    3.664317519712e-04
    79    9.662919390956e-03
    80   -2.589717389026e-14
    81    2.282602078141e-03
    82    6.668855658545e-04
    83    2.873811958390e-04
    84   -6.174933964666e-03
    85   -7.016247307864e-04
    86   -2.894498235514e-03
    87   -5.187972071034e-14
Sym=X
Ene= 1.999909
Spin=Alpha
Occup=1
     1   -3.705780481413e-02
     2   -6.229817835441e-02
     3    3.996614350742e-02
     4    5.853205959775e-04
     5   -2.055149957303e-13
     6    1.859840102163e-01
     7    5.997060198155e-02
     8    7.440931141229e-04
     9   -3.125318374764e-13
    10    1.616294847573e-01
    11    4.530593806887e-02
    12   -2.758462707810e-03
    13   -2.759601691502e-13
    14    6.328178218840e-03
    15   -9.314525414448e-04
    16   -8.239108093155e-03
    17   -2.189321899369e-14
    18    1.268712675938e-03
    19    7.542258321028e-15
    20    4.963618528445e-15
    21   -8.602252265461e-04
    22   -1.084935303101e-03
    23    3.862775596336e-02
    24    6.489098715109e-02
    25    2.061599474485e-02
    26   -1.698663072979e-01
    27    9.373948702417e-15
    28   -1.644274405702e-01
    29    3.187412556170e-02
    30   -2.582543691822e-01
    31    1.421731459682e-14
    32   -1.444776040850e-01
    33    4.890296400110e-03
    34   -1.609181801206e-01
    35    2.791255013019e-14
    36   -1.783881477370e-02
    37   -1.419564446759e-02
    38   -5.749975522957e-03
    39    1.256683776865e-14
    40    6.884703749357e-03
    41   -1.968348467120e-15
    42    1.593205691622e-15
    43    2.251373135296e-02
    44   -1.909064749365e-03
    45    7.668263260083e-04
    46   -1.165373609723e-02
    47   -4.640540210655e-02
    48    9.265637087850e-04
    49   -2.037088964864e-14
    50    6.609834274510e-02
    51   -7.027502966852e-02
    52   -3.366571409983e-03
    53   -3.819629250781e-14
    54    2.039811757484e-02
    55   -4.117164800731e-02
    56    1.722953203153e-02
    57   -3.406004075980e-15
    58    2.184465039888e-02
    59    1.049311677721e-03
    60    2.145817040759e-02
    61   -1.164069720157e-14
    62    9.397669303483e-05
    63   -2.172566154565e-14
    64   -1.033612688737e-14
    65    1.694281121094e-02
    66    6.315767877777e-03
    67   -2.564316031838e-03
    68   -1.227573441262e-02
    69   -1.769398233475e-02
    70    1.274098465733e-02
    71   -2.005815357122e-03
    72    3.478463669762e-03
    73   -1.112520873812e-15
    74   -1.792562012560e-01
    75   -2.726034981332e-01
    76   -5.365294455495e-02
    77   -1.589992955411e-02
    78   -2.428033664716e-04
    79    2.666389898305e-02
    80    3.577783570982e-16
    81    2.605936005362e-02
    82    4.820850412014e-02
    83    2.184118330478e-02
    84   -2.385664411930e-03
    85    5.626066433117e-03
    86   -6.911241038024e-03
    87    1.420372873127e-15
Sym=X
Ene= 1.999881
Spin=Alpha
Occup=1
     1    7.080802776488e-03
     2    1.189265113709e-02
     3    1.371911986059e-01
     4   -2.705423988461e-01
     5   -6.137689663162e-13
     6   -3.524638337341e-02
     7    2.080488864365e-01
     8   -4.109877353355e-01
     9   -9.367366823224e-13
    10   -3.687647079284e-02
    11    1.869334079537e-01
    12   -3.571696526988e-01
    13   -8.208976250292e-13
    14   -1.566839196240e-02
    15    1.196734177758e-02
    16   -1.187147106620e-02
    17   -7.590192780539e-14
    18   -3.850863054147e-04
    19    2.328047709365e-14
    20    1.374640884066e-14
    21   -1.069920388251e-02
    22    7.251256348382e-03
    23   -1.029509647037e-02
    24   -1.713544706266e-02
    25   -1.377436219184e-02
    26    1.139915863824e-03
    27    3.506533049312e-14
    28    4.251521827497e-02
    29   -2.691512858055e-02
    30    1.175592716291e-02
    31    5.111014585556e-14
    32    9.203575610873e-02
    33   -4.146915125387e-03
    34   -2.031759681512e-02
    35    8.653646935636e-14
    36    2.480471341782e-01
    37    4.641602035895e-02
    38   -2.654720938555e-02
    39    2.658800929251e-14
    40    6.084499606536e-04
    41   -4.521068510784e-15
    42    2.428818991908e-15
    43   -1.057670409870e-03
    44    9.197235833149e-03
    45   -1.855036291576e-03
    46   -5.143237127711e-03
    47    1.777788387228e-02
    48   -2.549932727061e-02
    49   -5.548963787811e-14
    50    1.912258759942e-02
    51    1.887455928504e-02
    52   -3.619555102800e-02
    53   -1.032966508856e-13
    54    1.258046622555e-02
    55    4.336051391818e-02
    56   -1.842989537335e-02
    57   -6.311708159089e-15
    58   -1.778189996589e-01
    59    8.159492655123e-02
    60   -8.392329398286e-02
    61   -1.568996498061e-14
    62   -2.929831674579e-03
    63   -6.520473094233e-14
    64   -2.881713205553e-14
    65    3.464851214320e-02
    66   -1.929721107774e-02
    67    7.717721311845e-03
    68   -2.306930160527e-03
    69   -4.736809544011e-02
    70   -6.404289756545e-02
    71   -3.694288402158e-03
    72    4.907795426810e-03
    73   -2.138009535158e-15
    74    1.343999772155e-02
    75    1.828970887217e-02
    76    6.694397235251e-03
    77    9.030814777037e-03
    78   -3.791636221270e-03
    79   -1.238912877871e-03
    80    1.969033235478e-15
    81    1.558198790442e-02
    82    1.169156126699e-02
    83   -1.697844048683e-02
    84    4.048798827887e-03
    85    3.894726448206e-04
    86    1.141176756596e-04
    87    3.903133892677e-15
Sym=X
Ene= 1.999796
Spin=Alpha
Occup=1
     1   -8.559137074474e-03
     2   -1.430286990996e-02
     3   -2.378055966861e-02
     4   -7.333675929415e-02
     5   -1.216979062561e-12
     6    4.156167676001e-02
     7   -3.783905806370e-02
     8   -1.116575472153e-01
     9   -1.850562903409e-12
    10    1.830616728532e-02
    11   -1.390775057136e-02
    12   -9.977685472420e-02
    13   -1.624486387437e-12
    14   -3.068079407756e-02
    15    1.541949128044e-02
    16   -1.858830073436e-02
    17   -1.521372390973e-13
    18   -2.077164191121e-03
    19    4.595956699794e-14
    20    2.745367253188e-14
    21    2.992724900017e-03
    22    2.455066635150e-03
    23    4.173599258864e-02
    24    7.416110232403e-02
    25    1.139770202659e-01
    26    4.683500716301e-02
    27    7.066341967424e-14
    28   -1.955810665086e-01
    29    1.772075651799e-01
    30    6.979089898983e-02
    31    1.057154764770e-13
    32   -1.394355111467e-01
    33    9.883997674866e-02
    34    3.436675278022e-02
    35    1.737993269620e-13
    36    6.316706153909e-03
    37    8.461315189430e-04
    38    1.258135517649e-02
    39    4.907940174457e-14
    40    8.723224849094e-03
    41   -8.547393780991e-15
    42    3.643848216489e-15
    43    6.967991373206e-03
    44   -1.038567285924e-02
    45    1.109180213947e-02
    46    2.547377082629e-02
    47    5.266258674913e-03
    48    1.157621606351e-01
    49   -1.092426921296e-13
    50   -8.327018033976e-02
    51    1.979954367746e-02
    52    1.777832707304e-01
    53   -2.004723549471e-13
    54   -5.248941632867e-02
    55   -5.624220687286e-03
    56    9.187630550091e-02
    57   -1.500102457120e-14
    58    2.974516731501e-02
    59   -3.092068759095e-03
    60   -6.396789227407e-03
    61   -2.331812076106e-14
    62    2.952397024517e-04
    63   -1.290758550769e-13
    64   -5.697803947241e-14
    65    1.446718833102e-02
    66    1.002452464579e-02
    67   -1.080548710371e-01
    68   -1.650504553868e-01
    69   -3.761065478333e-02
    70   -1.581933500612e-02
    71    2.231456004214e-03
    72   -1.600108507443e-02
    73   -3.150624947533e-15
    74   -1.322130444700e-02
    75   -1.220227575949e-02
    76   -1.177335243733e-03
    77   -1.270954446206e-02
    78    5.558506648827e-03
    79    2.859744647656e-03
    80    4.381610756481e-15
    81   -1.414913799764e-01
    82   -2.129373808482e-01
    83   -3.879894452994e-02
    84   -5.867645267660e-03
    85   -1.862018622911e-02
    86   -1.433878240561e-02
    87    7.392884921984e-15
Sym=X
Ene= 1.999656
Spin=Alpha
Occup=1
     1    4.994625471571e-03
     2    7.848380355125e-03
     3    2.279294292091e-01
     4    1.033845372285e-01
     5    9.669260634258e-13
     6   -1.683583392162e-02
     7    3.508813840643e-01
     8    1.596194368900e-01
     9    1.476725585434e-12
    10    5.607421470859e-02
    11    2.506782205865e-01
    12    1.070287988528e-01
    13    1.290012317279e-12
    14    5.227597310642e-02
    15    5.746266500920e-03
    16    6.887115723830e-04
    17    1.259427659901e-13
    18    9.141147278563e-03
    19   -3.688549774945e-14
    20   -2.211949227157e-14
    21   -9.088405634350e-03
    22   -1.366282342887e-02
    23    5.543215948520e-03
    24    1.029970242153e-02
    25    4.169048011814e-02
    26    2.938867076044e-02
    27   -5.508264698641e-14
    28   -3.122470623477e-02
    29    4.144876939886e-02
    30    5.670262032919e-02
    31   -8.679406729002e-14
    32    1.372767760719e-03
    33    4.917307781609e-02
    34    2.657153683334e-02
    35   -1.309080101485e-13
    36   -2.376184936573e-02
    37   -2.943259059325e-02
    38   -3.870941436861e-02
    39   -4.626802519402e-14
    40    1.520922865704e-03
    41    6.127920869662e-15
    42   -3.017823171737e-15
    43   -2.030851415565e-02
    44   -3.024633333743e-03
    45    3.627370393159e-02
    46    6.781469111924e-02
    47   -9.746706322952e-02
    48   -5.144169099070e-02
    49    8.735892682125e-14
    50   -1.914096899455e-01
    51   -1.926329633688e-01
    52   -1.006672800676e-01
    53    1.603661788769e-13
    54   -9.005253007855e-02
    55   -3.499006803988e-02
    56   -2.935918708364e-02
    57    4.926590408563e-15
    58   -4.747348746007e-03
    59    5.616506468541e-03
    60    4.038464889872e-02
    61    2.354099472783e-14
    62    1.944131648908e-02
    63    1.025716394236e-13
    64    4.526897926571e-14
    65   -3.102363316366e-02
    66   -5.477484275514e-02
    67    2.632435912456e-03
    68    1.448416881604e-03
    69    4.212648154007e-02
    70    2.820671628129e-02
    71   -4.649067466887e-03
    72   -1.212356649993e-02
    73    3.302168591936e-15
    74    2.301432828928e-02
    75    3.059856903351e-02
    76    3.552396684265e-02
    77    2.994053463824e-02
    78    2.482621119826e-03
    79    3.402950991740e-03
    80   -3.469654299727e-15
    81   -5.381205570147e-02
    82   -9.311080478000e-02
    83   -3.722234110022e-02
    84   -3.856776213767e-02
    85   -8.915493389284e-03
    86   -3.548203847631e-03
    87   -7.642969436387e-15
Sym=X
Ene= 1.999537
Spin=Alpha
Occup=1
     1   -4.154558563519e-03
     2   -7.144590761999e-03
     3    2.577120166933e-02
     4   -1.491980655788e-02
     5   -1.054818942449e-13
     6    2.377476117380e-02
     7    3.920750555350e-02
     8   -2.107268228287e-02
     9   -1.594427416858e-13
    10    3.473303406177e-02
    11    3.240126480962e-02
    12   -3.682607354254e-02
    13   -1.420561244416e-13
    14    4.046608721277e-03
    15    7.913204918490e-03
    16   -2.589590431093e-02
    17   -1.125079520288e-14
    18    1.331034710118e-03
    19    4.053292448886e-15
    20    2.126180598557e-15
    21    2.629219307117e-03
    22   -3.916784134860e-03
    23   -6.820002530126e-02
    24   -1.161320725063e-01
    25    1.652833984990e-02
    26   -6.331236746831e-02
    27    4.374031926727e-15
    28    3.031340228118e-01
    29    1.794814972102e-02
    30   -9.293932771325e-02
    31    1.292386542253e-14
    32    1.974949180560e-01
    33   -5.099411215451e-03
    34   -8.194257436418e-02
    35    1.284108558259e-14
    36   -5.952576530654e-02
    37   -2.045159760717e-02
    38   -2.545919327458e-03
    39    6.259299938139e-15
    40   -9.588165288414e-03
    41    3.176713936200e-16
    42   -3.525492492110e-16
    43    1.608922150231e-02
    44    4.516371117972e-03
    45    1.568885537552e-02
    46    2.781511566765e-02
    47   -9.387129225730e-02
    48    1.448284534333e-01
    49   -7.992993461833e-15
    50   -7.599578620926e-02
    51   -1.497077222700e-01
    52    2.198033153633e-01
    53   -1.772051355980e-14
    54   -1.158564437773e-01
    55   -3.979310412614e-02
    56    1.243058405608e-01
    57    5.981650541278e-16
    58    3.989993793774e-02
    59   -1.065076621244e-02
    60    2.456868472547e-02
    61   -5.582729617510e-15
    62    3.897766417986e-03
    63   -9.242061874692e-15
    64   -4.586457607203e-15
    65    3.033963969568e-02
    66   -7.398012467006e-03
    67   -1.451638668268e-01
    68   -2.260544916798e-01
    69   -4.641794044211e-02
    70    8.675157080355e-03
    71   -7.504085037399e-04
    72   -1.960781061912e-02
    73   -7.780379860753e-16
    74    4.034178929664e-03
    75   -5.004127927176e-03
    76   -2.619611316073e-02
    77    2.984286718400e-03
    78    2.688094467548e-04
    79   -7.539163893251e-03
    80   -4.029967143459e-16
    81    8.617466433704e-02
    82    1.205387093562e-01
    83    8.810528726625e-03
    84    1.455501087088e-03
    85    1.473208362016e-02
    86    4.765084047592e-03
    87    7.823514712759e-16
Sym=X
Ene= 1.995266
Spin=Alpha
Occup=1
     1    9.726076653553e-03
     2    1.650648350049e-02
     3    1.821057045551e-02
     4   -3.344827116601e-03
     5    4.558789976991e-14
     6   -5.330057230223e-02
     7    2.402468773353e-02
     8   -6.600623764720e-03
     9    7.373364267474e-14
    10   -6.818696079646e-02
    11    4.173041909402e-02
    12   -3.480200988147e-04
    13    6.229333987931e-14
    14   -6.301345494038e-02
    15    3.589085729031e-02
    16    6.935351608807e-03
    17    3.227893939820e-15
    18   -1.324710681557e-03
    19   -1.947029934475e-15
    20   -7.074886429694e-16
    21    2.151893014349e-03
    22    8.467832412780e-04
    23   -3.765460075646e-02
    24   -6.265596478713e-02
    25    1.539441474127e-01
    26   -1.383340705393e-02
    27   -2.298296417082e-15
    28    1.588950360090e-01
    29    2.327085328811e-01
    30   -2.097473768395e-02
    31   -5.462091340921e-15
    32    3.396694663204e-02
    33    1.043023455627e-01
    34    1.484020513073e-02
    35   -1.432666899106e-15
    36    5.452150330943e-03
    37    1.079266489953e-02
    38    3.234014495030e-02
    39   -1.047253127488e-14
    40   -4.130874950772e-03
    41    8.401594720237e-16
    42    2.962972231775e-16
    43    5.107141603724e-03
    44   -2.980126913181e-02
    45   -8.451516248699e-02
    46   -1.452718036994e-01
    47   -9.930890006561e-02
    48    1.565579249702e-02
    49    1.922761082882e-15
    50    3.947531183510e-01
    51   -1.400297391771e-01
    52    2.383292965052e-02
    53    7.318364217561e-15
    54    2.810629153047e-01
    55   -3.188125583855e-02
    56    1.542468747254e-02
    57   -3.120953803156e-15
    58    2.384589127169e-02
    59    3.880007366207e-03
    60   -1.523819956642e-02
    61    1.091420151229e-14
    62   -9.580468567586e-03
    63    5.019645956402e-15
    64    2.717689278115e-15
    65   -6.175625082916e-03
    66   -2.806601656990e-02
    67    6.440566094610e-02
    68    8.688414224853e-02
    69   -4.439388998488e-03
    70   -8.201120658373e-03
    71   -6.630871798885e-03
    72    1.195611023946e-02
    73    2.238299320549e-16
    74    1.756621590050e-02
    75    2.493271439085e-02
    76   -1.313472123748e-02
    77   -2.416315917849e-02
    78    8.693751795583e-03
    79   -5.037316364481e-03
    80   -3.616074723522e-16
    81   -7.289983024570e-02
    82   -1.234935336391e-01
    83   -4.120432057489e-02
    84    2.321154705890e-02
    85   -2.211324651520e-03
    86   -6.300561660200e-03
    87    7.990800373164e-16
Sym=X
Ene= 1.879444
Spin=Alpha
Occup=1
     1   -5.303046087382e-02
     2   -7.852380007252e-02
     3   -2.277722413079e-01
     4   -1.220381885832e-01
     5   -2.393290325669e-14
     6    3.452000741900e-01
     7   -2.429444986552e-01
     8   -1.295836583844e-01
     9   -2.308039830849e-14
    10    3.671251989807e-01
    11   -2.106146980663e-01
    12   -1.116925398611e-01
    13   -1.097738665256e-13
    14    6.462098787294e-01
    15   -1.100316223199e-01
    16   -4.731094643187e-02
    17    1.545104496734e-13
    18    7.777925324229e-03
    19   -3.016938306975e-15
    20   -2.069647340410e-15
    21   -8.674620285353e-03
    22   -1.286203405254e-02
    23   -1.645510936758e-02
    24   -2.938415365416e-02