[Molden Format]
[Atoms] (Angs)
  F      1    9      1.15290231      0.22477664     -0.00000000
  C      2    6     -1.17935012      0.19972949     -0.00000000
  C      3    6     -0.01631886     -0.43556811      0.00000000
  H      4    1      0.11895302     -1.50789969      0.00000000
  H      5    1     -1.23082549      1.27856114     -0.00000000
  H      6    1     -2.09023450     -0.37861944      0.00000000
[GTO]
1    0
S    6    1.000000
   1.14271000E+04    1.80093000E-03 
   1.72235000E+03    1.37419000E-02 
   3.95746000E+02    6.81334000E-02 
   1.15139000E+02    2.33325000E-01 
   3.36026000E+01    5.89086000E-01 
   4.91901000E+00    2.99505000E-01 
SP   3    1.000000
   5.54441000E+01    1.14536000E-01   3.54609000E-02 
   1.26323000E+01    9.20512000E-01   2.37451000E-01 
   3.71756000E+00   -3.37804000E-03   8.20458000E-01 
SP   1    1.000000
   1.16545000E+00    1.00000000E+00   1.00000000E+00 
SP   1    1.000000
   3.21892000E-01    1.00000000E+00   1.00000000E+00 
SP   1    1.000000
   1.07600000E-01    1.00000000E+00   1.00000000E+00 
D    1    1.000000
   1.75000000E+00    1.00000000E+00 

2    0
S    6    1.000000
   4.56324000E+03    1.96665000E-03 
   6.82024000E+02    1.52306000E-02 
   1.54973000E+02    7.61269000E-02 
   4.44553000E+01    2.60801000E-01 
   1.30290000E+01    6.16462000E-01 
   1.82773000E+00    2.21006000E-01 
SP   3    1.000000
   2.09642000E+01    1.14660000E-01   4.02487000E-02 
   4.80331000E+00    9.19999000E-01   2.37594000E-01 
   1.45933000E+00   -3.03068000E-03   8.15854000E-01 
SP   1    1.000000
   4.83456000E-01    1.00000000E+00   1.00000000E+00 
SP   1    1.000000
   1.45585000E-01    1.00000000E+00   1.00000000E+00 
SP   1    1.000000
   4.38000000E-02    1.00000000E+00   1.00000000E+00 
D    1    1.000000
   6.26000000E-01    1.00000000E+00 

3    0
S    6    1.000000
   4.56324000E+03    1.96665000E-03 
   6.82024000E+02    1.52306000E-02 
   1.54973000E+02    7.61269000E-02 
   4.44553000E+01    2.60801000E-01 
   1.30290000E+01    6.16462000E-01 
   1.82773000E+00    2.21006000E-01 
SP   3    1.000000
   2.09642000E+01    1.14660000E-01   4.02487000E-02 
   4.80331000E+00    9.19999000E-01   2.37594000E-01 
   1.45933000E+00   -3.03068000E-03   8.15854000E-01 
SP   1    1.000000
   4.83456000E-01    1.00000000E+00   1.00000000E+00 
SP   1    1.000000
   1.45585000E-01    1.00000000E+00   1.00000000E+00 
SP   1    1.000000
   4.38000000E-02    1.00000000E+00   1.00000000E+00 
D    1    1.000000
   6.26000000E-01    1.00000000E+00 

4    0
S    3    1.000000
   3.38650000E+01    2.54938000E-02 
   5.09479000E+00    1.90373000E-01 
   1.15879000E+00    8.52161000E-01 
S    1    1.000000
   3.25840000E-01    1.00000000E+00 
S    1    1.000000
   1.02741000E-01    1.00000000E+00 
S    1    1.000000
   3.60000000E-02    1.00000000E+00 
P    1    1.000000
   7.50000000E-01    1.00000000E+00 

5    0
S    3    1.000000
   3.38650000E+01    2.54938000E-02 
   5.09479000E+00    1.90373000E-01 
   1.15879000E+00    8.52161000E-01 
S    1    1.000000
   3.25840000E-01    1.00000000E+00 
S    1    1.000000
   1.02741000E-01    1.00000000E+00 
S    1    1.000000
   3.60000000E-02    1.00000000E+00 
P    1    1.000000
   7.50000000E-01    1.00000000E+00 

6    0
S    3    1.000000
   3.38650000E+01    2.54938000E-02 
   5.09479000E+00    1.90373000E-01 
   1.15879000E+00    8.52161000E-01 
S    1    1.000000
   3.25840000E-01    1.00000000E+00 
S    1    1.000000
   1.02741000E-01    1.00000000E+00 
S    1    1.000000
   3.60000000E-02    1.00000000E+00 
P    1    1.000000
   7.50000000E-01    1.00000000E+00 

[MO]
Sym=X
Ene= 2.005595
Spin=Alpha
Occup=1
     1    2.545559937084e-02
     2    3.729251325452e-02
     3    2.683812683836e-01
     4    1.693341674320e-01
     5   -4.056262446263e-13
     6   -1.242478178643e-01
     7    3.180605597114e-01
     8    2.002839755318e-01
     9   -4.766926218947e-13
    10   -1.253403133347e-03
    11    1.543342133570e-01
    12    1.010714940030e-01
    13   -2.889742069567e-13
    14    3.223709432873e-02
    15   -6.100361171330e-03
    16   -2.820697054688e-03
    17   -3.466883378775e-14
    18    9.182960178871e-03
    19    1.083295232477e-14
    20    6.330957044351e-15
    21   -7.759354826633e-03
    22   -1.361806198088e-02
    23   -1.766122847780e-02
    24   -2.860551024983e-02
    25   -2.405462241646e-02
    26   -7.979666850197e-02
    27    2.131711381907e-14
    28    6.786649853521e-02
    29   -5.584802094723e-02
    30   -1.128963827175e-01
    31    2.643920177488e-14
    32    4.868628092383e-02
    33   -2.540217958393e-02
    34   -8.399316070738e-02
    35    9.446839097623e-14
    36   -2.881336277865e-02
    37   -2.802973459869e-02
    38   -3.280708669299e-02
    39   -2.474006869896e-14
    40   -2.735378932645e-03
    41    2.446117173076e-15
    42    2.662815787614e-16
    43   -4.950947879185e-03
    44    4.738304259164e-03
    45    2.296399936201e-02
    46    3.517537485681e-02
    47   -8.958011717436e-02
    48   -4.840305449749e-02
    49   -2.569564079396e-15
    50   -7.652594950561e-02
    51   -1.736400613262e-01
    52   -9.110024940559e-02
    53   -1.765057732745e-14
    54   -3.543053373349e-02
    55   -2.526772709691e-02
    56   -1.506805140643e-02
    57    1.798746604600e-14
    58   -1.100120853887e-02
    59    1.608613990818e-03
    60    4.136666562198e-02
    61    1.780576776724e-14
    62    1.533867732648e-02
    63   -2.588760135511e-14
    64   -1.112728561611e-14
    65   -1.555429811740e-02
    66   -4.096960300923e-02
    67    1.281164397082e-02
    68    1.252707616450e-02
    69    2.423096016987e-02
    70    3.658587474578e-02
    71   -3.947961272934e-03
    72   -4.152949721454e-03
    73    1.773994491407e-15
    74   -4.642038664786e-02
    75   -7.690265200242e-02
    76    1.942053543737e-03
    77    1.299626133070e-02
    78   -1.924008948474e-03
    79    9.717997515293e-03
    80   -3.836481997180e-16
    81    6.519341257326e-02
    82    9.100786240189e-02
    83    5.704123192241e-03
    84   -2.325082341195e-02
    85    8.372846397679e-03
    86    3.129875900245e-03
    87   -1.869375436914e-15
Sym=X
Ene= 2.003656
Spin=Alpha
Occup=1
     1   -2.454533767635e-14
     2   -3.923210322115e-14
     3    3.125950842300e-13
     4    1.127021302101e-13
     5    4.138647997051e-01
     6    1.442938175352e-13
     7    3.700783867123e-13
     8    1.428099111992e-13
     9    4.817544690264e-01
    10    1.436494245963e-13
    11    1.681890661544e-13
    12    2.291677122820e-14
    13    3.059905638668e-01
    14    2.780141446135e-13
    15   -1.508185607221e-13
    16   -1.424610909858e-14
    17    1.415578541813e-02
    18    9.941678315697e-15
    19   -1.073322345248e-02
    20   -6.669721484441e-03
    21   -1.072993713959e-14
    22   -1.218731023351e-14
    23   -2.327882050339e-14
    24   -3.271179515757e-14
    25   -4.427459337782e-14
    26   -7.507896950152e-14
    27   -1.321815272806e-02
    28    6.761077291320e-14
    29   -7.850535825028e-14
    30   -1.051265540746e-13
    31   -2.036681976946e-02
    32   -8.450385924702e-15
    33    1.382027870907e-16
    34   -3.470324549011e-14
    35   -2.899327143787e-02
    36    2.287462255145e-12
    37   -2.189397524102e-13
    38   -1.256921367331e-12
    39   -1.053465462464e-02
    40    1.292346469900e-14
    41    1.095783764525e-03
    42   -8.900397412874e-04
    43   -7.545921010090e-15
    44   -9.656920052331e-15
    45    9.749790221618e-14
    46    1.094141122343e-13
    47   -7.694718544937e-14
    48   -4.175924774734e-14
    49    1.697607101016e-02
    50   -1.422960168210e-13
    51   -1.585596281769e-13
    52   -8.856720714445e-14
    53    3.199058684850e-02
    54   -2.329791946788e-13
    55   -1.464079653195e-13
    56   -7.783480022794e-14
    57   -2.973548818037e-03
    58   -2.325138163530e-12
    59    6.493043435071e-13
    60    2.229071336072e-13
    61    9.086315622532e-03
    62    3.085990375671e-14
    63    2.414973913132e-02
    64    1.030525464020e-02
    65    3.877895780570e-15
    66   -4.431773062493e-14
    67   -8.745132971501e-15
    68   -2.101845524307e-15
    69    6.706819362780e-14
    70    3.352581915459e-13
    71    2.492135155784e-15
    72   -1.250713361119e-14
    73    7.004834804926e-04
    74   -4.643633915843e-14
    75   -7.900109471772e-14
    76    9.280599719759e-14
    77    8.478987504978e-13
    78   -1.666021709814e-14
    79    5.409560211351e-15
    80   -6.091003762523e-04
    81    7.401069117092e-14
    82    2.103429295962e-13
    83   -2.759964077428e-13
    84   -1.142643405400e-12
    85    7.748066822644e-15
    86    3.936104882857e-15
    87   -1.644482929731e-03
Sym=X
Ene= 2.002133
Spin=Alpha
Occup=1
     1   -1.096864643867e-03
     2   -1.565676978819e-03
     3   -2.021201167616e-01
     4    3.572497687701e-01
     5    7.741129572642e-14
     6    4.227390900170e-03
     7   -2.349685715161e-01
     8    4.143497884375e-01
     9    8.508870319644e-14
    10   -2.051692223478e-04
    11   -1.505769756180e-01
    12    2.672991162080e-01
    13    7.571609789455e-14
    14    3.606396724243e-03
    15   -1.218091870506e-03
    16    3.652940828380e-03
    17   -1.436987348912e-14
    18   -2.479303707416e-04
    19   -1.928624739308e-15
    20   -8.833480173585e-16
    21    9.340345698952e-03
    22   -4.515667671695e-03
    23    1.867299070005e-02
    24    3.022089854292e-02
    25    9.769383842106e-04
    26    1.727601597356e-03
    27   -9.998669004165e-15
    28   -7.429396546976e-02
    29    8.150465936296e-03
    30   -6.404285981539e-03
    31   -1.032171120391e-14
    32   -8.144216347609e-02
    33    2.329919059650e-03
    34    1.942171684810e-02
    35   -2.993956840460e-14
    36   -1.702398535692e-01
    37   -2.823226808460e-02
    38    3.155140176670e-02
    39    2.046445743051e-14
    40    1.130139488366e-03
    41    7.599763575878e-16
    42   -1.771579104832e-15
    43   -1.868789683057e-03
    44   -8.358496322159e-03
    45   -1.022022375768e-02
    46   -1.683591345408e-02
    47    8.478054159953e-03
    48   -2.355112119252e-02
    49    4.331766972579e-16
    50    4.416745168612e-02
    51    2.377205790211e-02
    52   -3.643672012027e-02
    53    2.526870775781e-15
    54    3.815246837984e-02
    55   -8.058886786756e-03
    56   -2.717812758258e-02
    57   -4.966607914130e-15
    58    1.246628616218e-01
    59   -6.288613541629e-02
    60    5.606031694826e-02
    61   -8.869035690393e-15
    62   -2.239926372041e-04
    63    1.030719781899e-15
    64   -2.430359738143e-15
    65   -3.009948490695e-02
    66    1.517908533532e-02
    67    3.915725696722e-02
    68    6.469240910475e-02
    69    3.675523702917e-02
    70    5.406402111478e-02
    71    2.955937413279e-03
    72    4.107888572675e-03
    73    2.442335052820e-15
    74   -1.478595823252e-02
    75   -1.786844084935e-02
    76   -3.848883648208e-03
    77   -2.395967047837e-02
    78    2.460386256642e-03
    79    2.583597333108e-03
    80   -1.656323544276e-15
    81   -1.633684919916e-02
    82   -1.599836968315e-02
    83    1.580452429462e-02
    84    2.839286344454e-03
    85   -1.361627787011e-03
    86    1.189396506114e-04
    87   -2.600238818112e-17
Sym=X
Ene= 2.000208
Spin=Alpha
Occup=1
     1    5.426740877368e-02
     2    8.018603041329e-02
     3   -2.985232116515e-02
     4    3.400646391126e-03
     5    1.740650846170e-14
     6   -2.738874265670e-01
     7   -2.733898008654e-02
     8    7.195382878022e-03
     9    1.850584409252e-14
    10   -1.008233812603e-01
    11   -3.682210665319e-02
    12   -2.339543717609e-03
    13    1.948314655404e-14
    14    5.276865658668e-02
    15   -2.711083363281e-02
    16   -5.123996689370e-03
    17    1.798611546531e-14
    18    2.396117034189e-03
    19    2.430472469801e-15
    20    8.583123522801e-16
    21   -3.521247447111e-03
    22   -2.275143127625e-03
    23    5.445632419873e-02
    24    8.910027126265e-02
    25   -9.729527709973e-02
    26    5.058720898975e-02
    27   -4.707482995821e-14
    28   -2.213823647853e-01
    29   -1.501465979120e-01
    30    7.869770558883e-02
    31   -7.852214808644e-14
    32   -7.371234428797e-02
    33   -4.910972610472e-02
    34    2.679471203711e-02
    35   -7.114832174129e-14
    36   -2.166307669077e-03
    37   -8.280115251300e-03
    38   -2.047431955930e-02
    39   -1.554218498288e-14
    40    7.674909774020e-03
    41   -1.043851418914e-14
    42    4.045825748936e-15
    43   -1.135645293505e-02
    44    2.202853220323e-02
    45    8.579867548910e-02
    46    1.466181061176e-01
    47    8.619532581936e-02
    48   -2.165413927599e-02
    49   -5.316020989781e-14
    50   -3.968593708156e-01
    51    1.120505715349e-01
    52   -4.058569126412e-02
    53   -9.421404902889e-14
    54   -2.496961375866e-01
    55    3.332675941845e-02
    56   -2.181458370697e-02
    57   -8.512903712769e-14
    58   -4.426790427464e-03
    59   -6.186888652495e-03
    60    1.013940272198e-02
    61    3.609387450194e-16
    62    1.317359214375e-02
    63    6.122801703344e-15
    64   -7.006785827651e-15
    65   -3.100945851361e-03
    66    1.427051613331e-02
    67   -5.390289704981e-02
    68   -7.113910798569e-02
    69    8.514764513917e-03
    70    2.062331908100e-03
    71    5.426764851259e-03
    72   -1.348049620477e-02
    73   -3.225897054020e-15
    74   -1.505243861133e-03
    75    8.014175760317e-04
    76    1.797564623960e-02
    77    1.546815609335e-02
    78   -5.243185397993e-03
    79    5.023466382686e-03
    80   -3.027866102605e-15
    81    1.636134930376e-03
    82    1.273486462165e-02
    83    1.818130618060e-02
    84   -2.198088226410e-02
    85   -7.174088275058e-03
    86    9.555180716806e-04
    87   -4.474201243796e-15
Sym=X
Ene= 2.000012
Spin=Alpha
Occup=1
     1   -2.866369045690e-03
     2   -4.170887845332e-03
     3   -6.978550784820e-02
     4    3.947733176679e-03
     5    7.688515862049e-15
     6    1.419340602311e-02
     7   -8.055945633146e-02
     8    3.269908671645e-03
     9    6.505182914856e-15
    10    1.500333393177e-03
    11   -5.078475901737e-02
    12    8.883860015367e-03
    13    1.811568540397e-14
    14    1.912865876565e-02
    15   -1.703444276297e-02
    16    1.299275035996e-02
    17    2.688795400423e-14
    18   -1.434993385598e-03
    19    5.494022934852e-15
    20    2.165941188898e-15
    21   -1.631603706407e-03
    22    3.492087510281e-03
    23    3.145142573275e-02
    24   -2.220807640851e-02
    25   -1.396827755431e-01
    26    4.410300382065e-02
    27   -8.510411022300e-14
    28    2.422034592566e-01
    29   -2.086967451612e-01
    30    6.646577175251e-02
    31   -1.425409204442e-13
    32    2.311120131521e-01
    33   -9.365367251885e-02
    34    3.579355968836e-02
    35   -1.327297517803e-13
    36    1.792237535253e-02
    37    1.289172832834e-02
    38   -2.099252946363e-03
    39   -1.464965799959e-14
    40   -9.697377883565e-03
    41   -1.587243276845e-14
    42    8.097153568192e-15
    43   -1.206149520569e-02
    44    1.911921763504e-02
    45   -1.160410517450e-01
    46   -9.345406037700e-02
    47    6.306338805067e-02
    48   -6.990413958263e-02
    49   -9.738518018826e-14
    50   -2.164799754355e-02
    51    9.601585029245e-02
    52   -1.013759176769e-01
    53   -1.667865815339e-13
    54   -5.206424087523e-02
    55    4.940661125244e-02
    56   -8.069320462080e-02
    57   -1.412134602475e-13
    58   -3.476412358744e-02
    59    7.627454593781e-03
    60   -1.914014887050e-02
    61   -9.029821340834e-15
    62   -4.239804292057e-03
    63    1.026438193175e-14
    64   -1.280146233925e-14
    65    2.976325152239e-03
    66    7.069815232720e-03
    67    5.360627697411e-02
    68    8.342768392637e-02
    69    9.494504072211e-03
    70   -6.770080800831e-03
    71    1.707059824913e-03
    72    1.021303800359e-02
    73   -7.334706974689e-15
    74    9.551980482627e-02
    75    1.365700609602e-01
    76    1.663642774420e-02
    77    1.462075453353e-02
    78   -6.184372090103e-03
    79   -1.735972037579e-02
    80   -6.551075427104e-15
    81    1.297771034738e-01
    82    1.940627925916e-01
    83    3.561692442849e-02
    84    1.351193038073e-02
    85    1.543841410015e-02
    86    1.685822759829e-02
    87   -5.711663951400e-15
Sym=X
Ene= 1.999997
Spin=Alpha
Occup=1
     1    9.747282235065e-05
     2    1.322578150860e-04
     3    7.258797865791e-03
     4   -1.300170208200e-03
     5   -9.947974156900e-15
     6   -4.629362098467e-04
     7    8.215541993963e-03
     8   -1.495582751519e-03
     9   -9.996729646502e-15
    10    3.148635254225e-04
    11    5.295213018634e-03
    12   -1.444658785969e-03
    13   -6.916150476800e-15
    14   -2.332662519039e-03
    15    1.727260473459e-03
    16   -1.185874430147e-03
    17   -7.445239426987e-15
    18    9.366347537018e-05
    19   -1.284485905793e-15
    20   -9.594726710442e-16
    21    1.530363545164e-04
    22   -2.383440248815e-04
    23    5.459701103915e-01
    24    4.576697302710e-01
    25    1.421459215196e-02
    26   -4.568770493234e-03
    27    1.752153460076e-14
    28   -2.288319441143e-02
    29    2.081198719896e-02
    30   -6.403456147209e-03
    31    2.837159771213e-14
    32   -2.546332014093e-02
    33    9.537545754249e-03
    34   -3.627120988413e-03
    35    2.970579986603e-14
    36   -1.038293888621e-03
    37   -1.342043132230e-03
    38    1.147003897285e-04
    39   -8.293225871585e-16
    40    6.680149022677e-04
    41    3.672795496921e-15
    42   -2.940351144232e-15
    43    1.242283734508e-03
    44   -2.048736808792e-03
    45    1.517582924099e-01
    46    1.253365593136e-01
    47   -4.965309274706e-03
    48    6.557241141918e-03
    49    2.002639720999e-14
    50    3.523056678389e-03
    51   -8.976783474525e-03
    52    8.473962152225e-03
    53    3.170985165350e-14
    54    5.326859734073e-03
    55   -4.244233104728e-03
    56    7.446557666726e-03
    57    2.547831258590e-14
    58    3.935223614514e-03
    59   -7.411175541705e-04
    60    1.892159753276e-03
    61    5.764949099163e-15
    62    4.263301981376e-04
    63   -2.248386355808e-15
    64    2.604435352583e-15
    65   -3.000633129114e-04
    66   -8.700161698166e-04
    67   -4.519162338084e-03
    68   -7.305197454316e-03
    69   -7.273804607628e-04
    70    4.529663453456e-04
    71   -1.881193188978e-04
    72   -9.372110598241e-04
    73    1.439632692086e-15
    74   -9.695841716698e-03
    75   -1.454338472126e-02
    76   -1.178526205374e-03
    77   -1.769593872881e-03
    78    6.279447959264e-04
    79    1.940679621842e-03
    80    1.112321815578e-15
    81   -1.325441378987e-02
    82   -2.047304884042e-02
    83   -3.384760192078e-03
    84   -1.781726203004e-03
    85   -1.668747069233e-03
    86   -1.809062844236e-03
    87    3.645357347590e-17
Sym=X
Ene= 1.999996
Spin=Alpha
Occup=1
     1   -1.930434557009e-03
     2   -2.858634840319e-03
     3   -1.742651042220e-02
     4    3.560020583970e-04
     5   -3.241901889321e-14
     6    9.752877457797e-03
     7   -2.070517492670e-02
     8   -2.975168453508e-04
     9   -4.095794392554e-14
    10    3.404355222417e-03
    11   -1.283204568447e-02
    12    1.899574696368e-03
    13   -1.574986585691e-14
    14    3.572609110894e-03
    15   -4.152422716350e-03
    16    3.957270908789e-03
    17    1.706681007525e-14
    18   -5.362681343514e-04
    19    4.671971450247e-15
    20    2.132882372131e-15
    21   -3.686870955441e-04
    22    1.245111367914e-03
    23   -1.482092128056e-01
    24   -1.335976845710e-01
    25   -3.639296509929e-02
    26    1.334649654049e-02
    27   -7.134800282565e-14
    28    5.296092712350e-02
    29   -5.521162070096e-02
    30    2.083880538083e-02
    31   -1.177233615870e-13
    32    5.519149445523e-02
    33   -2.382447632118e-02
    34    1.101278834053e-02
    35   -1.096609336873e-13
    36    5.960877227267e-03
    37    3.386054614771e-03
    38   -1.010653997569e-03
    39   -6.065595154831e-15
    40   -1.858790785218e-03
    41   -1.446631819033e-14
    42    9.113786200338e-15
    43   -3.557886973040e-03
    44    5.291345717062e-03
    45    5.304770111006e-01
    46    4.404353756502e-01
    47    2.222231804339e-02
    48   -1.894787443389e-02
    49   -8.153480625283e-14
    50   -4.113144051976e-03
    51    2.593725345782e-02
    52   -3.043728643267e-02
    53   -1.449983126705e-13
    54   -1.348047197767e-02
    55    1.515925119954e-02
    56   -2.223695165815e-02
    57   -1.121174398092e-13
    58   -8.774607650720e-03
    59    2.170675213944e-03
    60   -5.120169317008e-03
    61   -1.147693368183e-14
    62   -1.569663129570e-03
    63    4.136834896794e-15
    64   -1.071801094076e-14
    65    6.025759174476e-04
    66    1.288515839943e-03
    67    1.577516124205e-02
    68    2.379816001614e-02
    69    3.604980628742e-03
    70   -2.276769331746e-03
    71    5.201812767310e-04
    72    2.755457105689e-03
    73   -5.349289152856e-15
    74    2.466818844594e-02
    75    3.568201854096e-02
    76    5.219082481751e-03
    77    3.940763182579e-03
    78   -1.604923030377e-03
    79   -4.285208703088e-03
    80   -5.674330224118e-15
    81    3.100983718901e-02
    82    4.684009874077e-02
    83    8.763550799806e-03
    84    2.762060526061e-03
    85    3.600171375009e-03
    86    4.126711353591e-03
    87   -3.989200000772e-15
Sym=X
Ene= 1.999794
Spin=Alpha
Occup=1
     1    1.770695106715e-02
     2    2.639111191483e-02
     3   -1.035888565835e-02
     4   -7.300355455974e-02
     5    9.072023141323e-14
     6   -9.628234584467e-02
     7   -1.115905390812e-02
     8   -8.699230544702e-02
     9    9.444297212069e-14
    10   -5.861944061299e-02
    11   -3.530728792821e-03
    12   -4.175441672741e-02
    13    8.798999978011e-14
    14   -8.315832390408e-03
    15   -6.571662424362e-03
    16    2.349411180502e-02
    17    8.434771274213e-14
    18   -1.607031466652e-03
    19    1.463769148056e-14
    20    6.986066317404e-15
    21   -6.064900757197e-03
    22    7.170307541250e-03
    23    5.121178733906e-02
    24    8.699926623711e-02
    25   -3.993035851103e-02
    26   -4.809562399993e-02
    27   -2.758785032730e-13
    28   -2.272402139679e-01
    29   -5.666627644909e-02
    30   -7.435427861695e-02
    31   -4.704189121511e-13
    32   -1.339542911237e-01
    33   -2.400925464070e-02
    34   -3.707587153781e-02
    35   -4.182111931166e-13
    36    1.163481159672e-01
    37    3.079017020533e-02
    38    4.637552623589e-04
    39   -5.127446709354e-14
    40    8.104760472638e-03
    41   -5.264413783260e-14
    42    3.018927079592e-14
    43   -2.372912781143e-03
    44    2.211671500868e-04
    45   -4.455306658979e-02
    46   -6.921085408955e-02
    47    6.487072821173e-02
    48   -1.513319030957e-01
    49   -3.137707409315e-13
    50    1.718077448781e-01
    51    1.096408940167e-01
    52   -2.304495636661e-01
    53   -5.398719413350e-13
    54    1.480791819386e-01
    55    4.692595965967e-02
    56   -1.242931947121e-01
    57   -4.580594539988e-13
    58   -8.536717993946e-02
    59    2.946478817698e-02
    60   -4.184857778346e-02
    61   -2.593590676633e-14
    62   -6.418368552860e-03
    63    3.415880965900e-14
    64   -3.953665765441e-14
    65   -1.063562765985e-03
    66    1.292118915309e-03
    67    1.470562289714e-01
    68    2.121124212521e-01
    69    6.696852940452e-03
    70   -1.684782842497e-02
    71   -1.506176924549e-03
    72    2.640044932090e-02
    73   -2.169209518003e-14
    74   -7.869892773137e-02
    75   -1.107050101268e-01
    76   -5.049293946875e-03
    77   -1.341918044522e-02
    78   -3.511447146641e-03
    79    1.651554585184e-02
    80   -2.017267810700e-14
    81   -3.171521389078e-03
    82    1.081804146403e-03
    83    1.283372718669e-02
    84    1.037655599311e-02
    85   -2.254437716309e-03
    86   -2.423600731839e-03
    87   -2.197129157895e-14
Sym=X
Ene= 1.999332
Spin=Alpha
Occup=1
     1   -1.068001774323e-01
     2   -1.583698891168e-01
     3    1.542939817371e-01
     4    6.936938173312e-02
     5    1.070874978208e-13
     6    5.554215654474e-01
     7    1.746718499647e-01
     8    7.648059165907e-02
     9    9.751950153359e-14
    10    2.629929425637e-01
    11    9.942887006351e-02
    12    4.558981544604e-02
    13    1.639149347856e-13
    14    1.717295343845e-02
    15   -8.957349252537e-03
    16    8.186341201013e-03
    17    2.804946867467e-13
    18    2.194373773379e-03
    19    5.469391727000e-14
    20    2.605832441783e-14
    21   -5.192740887308e-03
    22   -2.118698649369e-03
    23    2.823428278716e-02
    24    4.617781390154e-02
    25   -1.736542809845e-02
    26    9.282436778804e-02
    27   -9.331775353815e-13
    28   -1.160945787394e-01
    29   -2.872986826397e-02
    30    1.447064303841e-01
    31   -1.597642584080e-12
    32   -3.074004508169e-02
    33    1.243336109869e-02
    34    8.625106360387e-02
    35   -1.383409101886e-12
    36    3.024698375085e-02
    37   -2.327264853563e-03
    38   -2.415800399647e-02
    39   -1.387895608965e-13
    40    3.890858212853e-03
    41   -1.741143646328e-13
    42    9.980832445240e-14
    43   -1.821540621861e-02
    44    3.987435153816e-03
    45    1.601668179949e-02
    46    3.464707392007e-02
    47    4.992527740089e-02
    48   -6.263420616783e-02
    49   -1.055139306504e-12
    50   -1.180472376607e-01
    51    6.393459077224e-02
    52   -1.026740526225e-01
    53   -1.826250429769e-12
    54   -6.096635134305e-02
    55    2.789284958890e-02
    56   -6.035368170445e-02
    57   -1.509034333685e-12
    58   -3.681731561592e-02
    59    1.589133059199e-02
    60    5.000714711995e-03
    61   -1.316806887422e-13
    62    1.825910683463e-03
    63    1.085277989760e-13
    64   -1.404404893599e-13
    65   -1.499888086416e-02
    66   -5.684026781143e-03
    67    3.614548040745e-02
    68    5.779578783413e-02
    69    3.270373136995e-02
    70    7.636084059509e-03
    71    5.890922863983e-04
    72    2.887910150917e-04
    73   -7.145100349213e-14
    74    5.709673395500e-02
    75    8.843207583305e-02
    76    4.087419313516e-02
    77    2.120984847894e-02
    78    1.088887161264e-04
    79   -4.105497807477e-03
    80   -7.189536242192e-14
    81   -5.618299584505e-02
    82   -8.493603968044e-02
    83   -1.731625521137e-02
    84   -2.221431374597e-02
    85   -1.137413534717e-02
    86   -9.480859496579e-04
    87   -7.835603303249e-14
Sym=X
Ene= 1.999124
Spin=Alpha
Occup=1
     1   -4.938379520998e-13
     2   -7.344000956664e-13
     3    8.728421165518e-13
     4    3.024205405690e-13
     5   -3.722956352834e-02
     6    2.563175635368e-12
     7    9.945354716983e-13
     8    3.242646264245e-13
     9   -3.888250366823e-02
    10    1.200061367796e-12
    11    5.577743546661e-13
    12    2.137362556727e-13
    13   -4.061224625140e-02
    14    3.571203996150e-14
    15   -1.884166540543e-14
    16    1.057419694983e-13
    17   -4.939442845168e-02
    18    9.931381299138e-15
    19   -8.936441788860e-03
    20   -4.244358753380e-03
    21   -4.476633513494e-14
    22    6.588977487998e-16
    23    1.503825512591e-13
    24    3.055459911303e-13
    25   -2.240369581896e-13
    26    6.230363695216e-13
    27    1.619991134096e-01
    28   -9.297360205961e-13
    29   -3.513684106651e-13
    30    9.753022211766e-13
    31    2.749411706026e-01
    32   -2.843419321253e-13
    33   -1.577047152946e-14
    34    6.256932763962e-13
    35    2.443185402279e-01
    36   -2.494420596395e-13
    37    5.248847538803e-13
    38    7.787297160460e-13
    39    2.498847246143e-02
    40    3.151328068493e-14
    41    3.023550372453e-02
    42   -1.718846575164e-02
    43   -1.407880421755e-13
    44    3.408388089287e-14
    45    1.767683288064e-13
    46    2.195475119832e-13
    47    4.665287922149e-13
    48   -7.166575633754e-13
    49    1.824032369395e-01
    50   -4.243492003802e-13
    51    6.443609457581e-13
    52   -1.138679002734e-12
    53    3.152830157949e-01
    54    1.067419337328e-14
    55    2.810002951492e-13
    56   -6.405956439121e-13
    57    2.629806222330e-01
    58    2.853288896115e-13
    59   -7.338582352868e-14
    60   -4.423090006782e-13
    61    2.076478117544e-02
    62   -3.030847626876e-15
    63   -2.017313499290e-02
    64    2.333341476825e-02
    65   -1.191294324929e-13
    66   -5.662082419544e-14
    67    5.464638652623e-13
    68    8.217930761921e-13
    69    1.916445164455e-13
    70   -2.951679798545e-13
    71    4.401535485629e-15
    72    5.255844669653e-14
    73    1.266579582377e-02
    74    3.703346029078e-13
    75    5.836332853745e-13
    76    1.421129794830e-13
    77   -5.948838549939e-13
    78   -2.654877392797e-15
    79   -1.791918456017e-14
    80    1.221140066018e-02
    81   -3.432558844892e-13
    82   -5.389073477490e-13
    83    1.130894683210e-13
    84    8.844635489631e-13
    85   -7.166504584445e-14
    86   -7.665563345400e-16
    87    1.314172875319e-02
Sym=X
Ene= 1.998231
Spin=Alpha
Occup=1
     1    8.116724818786e-02
     2    1.202569402376e-01
     3    8.648130281337e-02
     4    2.903588670706e-02
     5    1.379386474220e-13
     6   -4.268466361870e-01
     7    1.042162601735e-01
     8    3.530894213445e-02
     9    1.583347047807e-13
    10   -1.873411948480e-01
    11    5.165027044152e-02
    12    1.584489467110e-02
    13    1.205703488591e-13
    14   -3.163984183660e-02
    15    1.841892246196e-02
    16    1.723255128729e-02
    17    3.316006654724e-14
    18    1.276520801365e-03
    19    6.305322950872e-15
    20    2.477026554457e-15
    21   -3.436024158907e-03
    22   -2.406552379844e-03
    23   -1.186730538428e-02
    24   -1.927775852990e-02