[Molden Format]
[Atoms] (Angs)
  F      1    9      1.15290231      0.22477664     -0.00000000
  C      2    6     -1.17935012      0.19972949     -0.00000000
  C      3    6     -0.01631886     -0.43556811      0.00000000
  H      4    1      0.11895302     -1.50789969      0.00000000
  H      5    1     -1.23082549      1.27856114     -0.00000000
  H      6    1     -2.09023450     -0.37861944      0.00000000
[GTO]
1    0
S    6    1.000000
   1.14271000E+04    1.80093000E-03 
   1.72235000E+03    1.37419000E-02 
   3.95746000E+02    6.81334000E-02 
   1.15139000E+02    2.33325000E-01 
   3.36026000E+01    5.89086000E-01 
   4.91901000E+00    2.99505000E-01 
SP   3    1.000000
   5.54441000E+01    1.14536000E-01   3.54609000E-02 
   1.26323000E+01    9.20512000E-01   2.37451000E-01 
   3.71756000E+00   -3.37804000E-03   8.20458000E-01 
SP   1    1.000000
   1.16545000E+00    1.00000000E+00   1.00000000E+00 
SP   1    1.000000
   3.21892000E-01    1.00000000E+00   1.00000000E+00 
SP   1    1.000000
   1.07600000E-01    1.00000000E+00   1.00000000E+00 
D    1    1.000000
   1.75000000E+00    1.00000000E+00 

2    0
S    6    1.000000
   4.56324000E+03    1.96665000E-03 
   6.82024000E+02    1.52306000E-02 
   1.54973000E+02    7.61269000E-02 
   4.44553000E+01    2.60801000E-01 
   1.30290000E+01    6.16462000E-01 
   1.82773000E+00    2.21006000E-01 
SP   3    1.000000
   2.09642000E+01    1.14660000E-01   4.02487000E-02 
   4.80331000E+00    9.19999000E-01   2.37594000E-01 
   1.45933000E+00   -3.03068000E-03   8.15854000E-01 
SP   1    1.000000
   4.83456000E-01    1.00000000E+00   1.00000000E+00 
SP   1    1.000000
   1.45585000E-01    1.00000000E+00   1.00000000E+00 
SP   1    1.000000
   4.38000000E-02    1.00000000E+00   1.00000000E+00 
D    1    1.000000
   6.26000000E-01    1.00000000E+00 

3    0
S    6    1.000000
   4.56324000E+03    1.96665000E-03 
   6.82024000E+02    1.52306000E-02 
   1.54973000E+02    7.61269000E-02 
   4.44553000E+01    2.60801000E-01 
   1.30290000E+01    6.16462000E-01 
   1.82773000E+00    2.21006000E-01 
SP   3    1.000000
   2.09642000E+01    1.14660000E-01   4.02487000E-02 
   4.80331000E+00    9.19999000E-01   2.37594000E-01 
   1.45933000E+00   -3.03068000E-03   8.15854000E-01 
SP   1    1.000000
   4.83456000E-01    1.00000000E+00   1.00000000E+00 
SP   1    1.000000
   1.45585000E-01    1.00000000E+00   1.00000000E+00 
SP   1    1.000000
   4.38000000E-02    1.00000000E+00   1.00000000E+00 
D    1    1.000000
   6.26000000E-01    1.00000000E+00 

4    0
S    3    1.000000
   3.38650000E+01    2.54938000E-02 
   5.09479000E+00    1.90373000E-01 
   1.15879000E+00    8.52161000E-01 
S    1    1.000000
   3.25840000E-01    1.00000000E+00 
S    1    1.000000
   1.02741000E-01    1.00000000E+00 
S    1    1.000000
   3.60000000E-02    1.00000000E+00 
P    1    1.000000
   7.50000000E-01    1.00000000E+00 

5    0
S    3    1.000000
   3.38650000E+01    2.54938000E-02 
   5.09479000E+00    1.90373000E-01 
   1.15879000E+00    8.52161000E-01 
S    1    1.000000
   3.25840000E-01    1.00000000E+00 
S    1    1.000000
   1.02741000E-01    1.00000000E+00 
S    1    1.000000
   3.60000000E-02    1.00000000E+00 
P    1    1.000000
   7.50000000E-01    1.00000000E+00 

6    0
S    3    1.000000
   3.38650000E+01    2.54938000E-02 
   5.09479000E+00    1.90373000E-01 
   1.15879000E+00    8.52161000E-01 
S    1    1.000000
   3.25840000E-01    1.00000000E+00 
S    1    1.000000
   1.02741000E-01    1.00000000E+00 
S    1    1.000000
   3.60000000E-02    1.00000000E+00 
P    1    1.000000
   7.50000000E-01    1.00000000E+00 

[MO]
Sym=X
Ene= 2.005425
Spin=Alpha
Occup=1
     1   -2.491619084402e-02
     2   -3.650692893754e-02
     3   -2.614674135109e-01
     4   -1.939184394167e-01
     5    3.704599063600e-13
     6    1.223892398987e-01
     7   -3.097599304763e-01
     8   -2.286561597038e-01
     9    4.365139433226e-13
    10    1.550805864905e-03
    11   -1.500651767635e-01
    12   -1.210388093509e-01
    13    2.619780627155e-13
    14   -2.829859870601e-02
    15    4.277580365233e-03
    16    1.362930591949e-04
    17    3.612896950276e-14
    18   -8.964257138339e-03
    19   -9.768707522937e-15
    20   -5.551585634209e-15
    21    7.408509652866e-03
    22    1.335304900302e-02
    23    1.385262132171e-02
    24    2.216853979917e-02
    25    1.718642395079e-02
    26    7.615337848497e-02
    27   -1.625560509522e-14
    28   -5.135241626247e-02
    29    4.431223017278e-02
    30    1.076973751906e-01
    31   -1.753083530552e-14
    32   -3.379657233202e-02
    33    2.207051342480e-02
    34    7.695652971231e-02
    35   -8.559765560611e-14
    36    5.346452228869e-02
    37    3.034128873171e-02
    38    3.187880148062e-02
    39    2.191003436493e-14
    40    2.101700452792e-03
    41   -2.157054823774e-15
    42   -6.217190315632e-16
    43    5.657851031198e-03
    44   -2.204163595132e-03
    45   -1.802283024950e-02
    46   -2.624570170499e-02
    47    8.857991753956e-02
    48    5.741407662604e-02
    49    4.377050549107e-15
    50    5.036737196409e-02
    51    1.697527023617e-01
    52    1.043918188227e-01
    53    2.044223329582e-14
    54    1.024279116921e-02
    55    2.485744485584e-02
    56    2.394065461902e-02
    57   -1.594152262196e-14
    58   -6.256767672607e-03
    59    4.521818526608e-03
    60   -4.623449461593e-02
    61   -1.510588852749e-14
    62   -1.466366295817e-02
    63    2.337660532923e-14
    64    1.081204882945e-14
    65    1.910204898793e-02
    66    4.123196820467e-02
    67   -2.636119728068e-02
    68   -3.237990293224e-02
    69   -2.828008326674e-02
    70   -3.782303765275e-02
    71    4.028005148016e-03
    72    2.213313581809e-03
    73   -1.843808572314e-15
    74    4.782391424714e-02
    75    7.987080883795e-02
    76   -1.748090260426e-03
    77   -1.972826144607e-02
    78    1.874540995402e-03
    79   -1.009009554297e-02
    80    6.086909025498e-16
    81   -5.490074450983e-02
    82   -7.524730639764e-02
    83   -3.203440650618e-03
    84    2.288174524312e-02
    85   -7.294853707480e-03
    86   -2.278681530066e-03
    87    2.381355108082e-15
Sym=X
Ene= 2.003271
Spin=Alpha
Occup=1
     1    3.119397622837e-14
     2    4.911671907205e-14
     3   -2.788808987564e-13
     4   -1.506045511774e-13
     5   -4.129637139106e-01
     6   -1.772180915201e-13
     7   -3.299636733176e-13
     8   -1.861061578926e-13
     9   -4.810217269232e-01
    10   -1.540012112271e-13
    11   -1.475354251956e-13
    12   -5.474453291382e-14
    13   -3.063198487987e-01
    14   -2.727562595027e-13
    15    1.489494211846e-13
    16    1.176795189204e-14
    17   -1.425804891588e-02
    18   -9.024255782201e-15
    19    1.046692544558e-02
    20    6.294654705871e-03
    21    9.287575226852e-15
    22    1.144462597153e-14
    23    3.952466242529e-15
    24    1.028903354078e-14
    25    3.144878725289e-14
    26    6.580715110300e-14
    27    1.095136035798e-02
    28   -3.560171171046e-14
    29    5.619529652108e-14
    30    9.202430823065e-14
    31    1.663769741868e-02
    32    3.697099130694e-14
    33   -8.698526411122e-15
    34    2.070295635545e-14
    35    2.472627490081e-02
    36   -2.275678917938e-12
    37    2.317507907954e-13
    38    1.277070605701e-12
    39    1.174680345223e-02
    40   -1.385593001174e-14
    41   -1.422196298871e-03
    42    1.126603883648e-03
    43    8.288215834901e-15
    44    1.404322397002e-14
    45   -9.913808119480e-14
    46   -1.037213190755e-13
    47    7.038444986739e-14
    48    4.872375686493e-14
    49   -1.925069522361e-02
    50    1.050050007321e-13
    51    1.428154341435e-13
    52    9.787700564023e-14
    53   -3.553304556474e-02
    54    2.016324375070e-13
    55    1.454439087007e-13
    56    8.733813771082e-14
    57    7.841793361318e-04
    58    2.325851751260e-12
    59   -6.459987366777e-13
    60   -2.401732262601e-13
    61   -1.055991138179e-02
    62   -2.904513948905e-14
    63   -2.349213554308e-02
    64   -1.029290519402e-02
    65    1.055852666913e-15
    66    4.117400355768e-14
    67   -7.059589942314e-15
    68   -1.972686446713e-14
    69   -7.537297358385e-14
    70   -3.479664093839e-13
    71   -2.374985767153e-15
    72    9.878204717880e-15
    73   -9.239175103801e-04
    74    4.642950205903e-14
    75    8.014426659082e-14
    76   -9.746610888604e-14
    77   -8.708136354575e-13
    78    1.581614438802e-14
    79   -5.620336398735e-15
    80    5.157641488589e-04
    81   -5.362231708299e-14
    82   -1.810447620515e-13
    83    2.850960497707e-13
    84    1.166253666229e-12
    85   -5.595136692152e-15
    86   -2.426796828604e-15
    87    1.452711892158e-03
Sym=X
Ene= 2.002152
Spin=Alpha
Occup=1
     1    7.060769465139e-03
     2    1.038613549663e-02
     3    2.164663344282e-01
     4   -3.464634364354e-01
     5   -4.246742530372e-14
     6   -3.457803450157e-02
     7    2.523541911626e-01
     8   -4.019249276154e-01
     9   -4.474376997042e-14
    10   -1.095920725599e-02
    11    1.597256252634e-01
    12   -2.630790679824e-01
    13   -4.997054766482e-14
    14   -2.454388472470e-03
    15    2.060053293031e-03
    16   -5.303688385036e-03
    17    1.299560671658e-14
    18    9.105758300042e-04
    19    8.139506241020e-16
    20    6.759457983571e-18
    21   -9.182927494105e-03
    22    3.538268495360e-03
    23   -2.015360761983e-02
    24   -3.191806134283e-02
    25    8.902726143250e-04
    26   -1.314692643014e-02
    27    1.129792515825e-14
    28    7.610735042500e-02
    29   -6.576464315248e-03
    30   -1.051864046854e-02
    31    1.240460061317e-14
    32    7.730519800600e-02
    33   -3.136876613376e-03
    34   -2.915669487557e-02
    35    3.348256640906e-14
    36    1.806608306086e-01
    37    2.822984525443e-02
    38   -2.886011946963e-02
    39   -2.145810763326e-14
    40   -1.218358305173e-03
    41    1.320169042620e-17
    42    1.516850050652e-15
    43    2.414517975053e-03
    44    7.766256445051e-03
    45    9.600245290060e-03
    46    1.519143872733e-02
    47   -1.784359320255e-02
    48    2.116459601780e-02
    49    4.784411804388e-15
    50   -3.723614214701e-02
    51   -3.980855102399e-02
    52    3.238869970948e-02
    53    5.784706243718e-15
    54   -2.931058382239e-02
    55    2.193098895114e-03
    56    2.919055645695e-02
    57    1.117511080242e-14
    58   -1.321629677722e-01
    59    6.475278574566e-02
    60   -5.711458015433e-02
    61    9.986923825640e-15
    62    1.006453919305e-03
    63    7.999119870245e-16
    64    3.692078195954e-15
    65    2.884275713842e-02
    66   -1.776076097559e-02
    67   -3.755365999033e-02
    68   -6.336245104700e-02
    69   -3.650409469472e-02
    70   -4.891777329151e-02
    71   -3.371533284973e-03
    72   -3.934522401086e-03
    73   -2.066623690620e-15
    74    5.847318004013e-03
    75    4.197582878527e-03
    76    8.616352496472e-04
    77    1.376313837120e-02
    78   -2.463261420742e-03
    79   -1.154735710910e-03
    80    1.797956226420e-15
    81    2.047305860742e-02
    82    2.210233470477e-02
    83   -1.434589079447e-02
    84   -2.312146502251e-03
    85    2.191671223531e-03
    86   -2.417568465575e-04
    87   -1.303992426397e-16
Sym=X
Ene= 2.000012
Spin=Alpha
Occup=1
     1   -6.175039289828e-02
     2   -9.130882031110e-02
     3    3.345097179738e-02
     4   -1.047440929682e-02
     5   -2.808566748180e-14
     6    3.116221281032e-01
     7    3.130916738432e-02
     8   -1.616553144561e-02
     9   -3.289446917073e-14
    10    1.156569799766e-01
    11    3.927910047483e-02
    12   -4.326949471752e-04
    13   -2.198181025599e-14
    14   -5.279433299430e-02
    15    2.473760299175e-02
    16    1.126200090251e-02
    17   -3.018251715870e-15
    18   -2.823914129344e-03
    19    1.513432241883e-15
    20    1.052916227433e-15
    21    2.093295737883e-03
    22    3.684219137931e-03
    23   -3.097232262532e-02
    24   -6.094885713805e-02
    25    8.000101652274e-02
    26   -3.526827148731e-02
    27   -7.062575795718e-15
    28    1.758727790662e-01
    29    1.248292133282e-01
    30   -5.489163399942e-02
    31   -1.448200317562e-14
    32    5.937903307887e-02
    33    4.385602431922e-02
    34   -1.055505105118e-02
    35   -9.052994120040e-15
    36    2.137380148873e-02
    37    1.369570405790e-02
    38    1.770221373642e-02
    39    7.526855320115e-15
    40   -6.495753290167e-03
    41   -1.789319239155e-16
    42    2.062698082529e-15
    43    7.652484532381e-03
    44   -1.967248455862e-02
    45   -4.867663726324e-03
    46   -8.030933114783e-02
    47   -6.030008529589e-02
    48   -1.142665138230e-02
    49   -9.933136002385e-15
    50    3.995922597198e-01
    51   -7.285529754967e-02
    52   -1.012751161975e-02
    53   -1.512365984395e-14
    54    2.602150249509e-01
    55   -1.559043557150e-02
    56   -7.694747688798e-03
    57   -4.183584073844e-15
    58   -1.249787821563e-02
    59    1.184714117109e-02
    60   -1.754974568584e-02
    61   -7.451005360345e-15
    62   -1.459780256557e-02
    63   -1.179931742141e-15
    64   -1.466379820466e-15
    65    4.911078862353e-04
    66   -1.334606589956e-02
    67    8.323256460943e-02
    68    1.167216398003e-01
    69   -1.550498583920e-03
    70   -5.504846575359e-03
    71   -4.878165247162e-03
    72    1.783641225751e-02
    73   -1.004585652803e-15
    74    6.990854591133e-03
    75    8.392243816593e-03
    76   -1.142197549410e-02
    77   -1.250570999670e-02
    78    4.573835091382e-03
    79   -4.593100572130e-03
    80   -1.100564839976e-15
    81   -6.628570887496e-03
    82   -1.806642225348e-02
    83   -1.560022014584e-02
    84    2.114742560794e-02
    85    5.385145110313e-03
    86   -6.040382403178e-04
    87    1.471383403055e-16
Sym=X
Ene= 1.999994
Spin=Alpha
Occup=1
     1    7.565998719555e-03
     2    1.116089306577e-02
     3   -4.984003857363e-03
     4    1.802559143710e-03
     5   -4.258603583794e-14
     6   -3.797598587572e-02
     7   -5.311093158716e-03
     8    2.349194131200e-03
     9   -5.110668887393e-14
    10   -1.301320698824e-02
    11   -5.918530176701e-03
    12    1.901099199363e-04
    13   -2.835625546717e-14
    14    6.500427258529e-03
    15   -3.262683284950e-03
    16   -1.584734911682e-03
    17    1.509820130998e-15
    18    2.548514573722e-04
    19    1.685933162281e-15
    20    6.565436277936e-16
    21   -9.894792047128e-05
    22   -3.093437227934e-04
    23   -2.375754724327e-02
    24   -1.382839332069e-02
    25   -1.113464926079e-02
    26    7.527424334774e-03
    27   -2.087970567690e-14
    28   -2.947940213246e-02
    29   -1.837322264505e-02
    30    1.243569095456e-02
    31   -3.164514137881e-14
    32   -1.063422054371e-02
    33   -5.577228606705e-03
    34    3.524682271230e-03
    35   -3.190223191873e-14
    36   -3.953504941470e-03
    37   -2.552958782562e-03
    38   -2.987209984290e-03
    39    3.189614578468e-15
    40    1.312843844400e-03
    41   -5.069523413615e-15
    42    3.248020534666e-15
    43   -1.395413147887e-03
    44    3.202329011887e-03
    45    5.704995421383e-01
    46    4.846294229066e-01
    47    1.345203330868e-02
    48    4.168472864882e-03
    49   -2.402972392707e-14
    50   -5.980117037563e-02
    51    9.546496136094e-03
    52    2.543439582917e-03
    53   -4.743299761441e-14
    54   -4.128095053369e-02
    55    3.659330626245e-03
    56    2.515625548778e-03
    57   -3.119223635820e-14
    58    3.869802215665e-03
    59   -2.167492146956e-03
    60    3.232328843693e-03
    61   -6.218000047085e-15
    62    1.807898621495e-03
    63   -2.004950884293e-15
    64   -3.368826847993e-15
    65   -6.076680877628e-05
    66    1.492077940164e-03
    67   -1.347749081136e-02
    68   -1.953003048061e-02
    69    1.037100304567e-03
    70    5.635715237387e-04
    71    8.147502907304e-04
    72   -3.026498980076e-03
    73   -1.271654707597e-15
    74    3.006915054471e-04
    75    8.951027844887e-04
    76    2.618808704356e-03
    77    2.054281615143e-03
    78   -5.902312795625e-04
    79    5.913162812913e-04
    80   -1.907601667334e-15
    81   -1.111349800003e-03
    82   -2.499267317714e-04
    83    1.761049589279e-03
    84   -4.019257130341e-03
    85   -1.087434800301e-03
    86   -9.449982055155e-05
    87   -6.261840820787e-16
Sym=X
Ene= 1.999992
Spin=Alpha
Occup=1
     1   -2.226740344055e-03
     2   -3.294149598163e-03
     3    1.312805321226e-03
     4    1.248096429478e-03
     5    7.845969037579e-15
     6    1.130477478009e-02
     7    1.298449356859e-03
     8    1.398046481717e-03
     9    7.738561733955e-15
    10    4.439740784138e-03
    11    1.414730236880e-03
    12    9.373896920573e-04
    13    3.964591157434e-15
    14   -1.791017928756e-03
    15    1.130461534047e-03
    16   -1.943312841165e-05
    17    2.934027170774e-15
    18   -5.464372559940e-05
    19    4.858724669458e-16
    20    5.964340683065e-16
    21    1.934146621534e-04
    22   -1.943040721542e-05
    23   -5.634976737603e-01
    24   -4.679144888616e-01
    25    4.421193600300e-03
    26   -1.554332462288e-03
    27   -6.443210901703e-15
    28    7.403898630690e-04
    29    7.402944861303e-03
    30   -2.341255715242e-03
    31   -9.071023060472e-15
    32    1.048133058107e-03
    33    2.665651053621e-03
    34   -6.521309081035e-04
    35   -1.310277611042e-14
    36   -7.934449941445e-04
    37    1.292731858667e-04
    38    6.307893567222e-04
    39    6.153924034455e-15
    40    2.466479329569e-04
    41   -1.659544932893e-15
    42    2.092459375801e-15
    43    3.856506805065e-04
    44   -7.544510767058e-04
    45   -3.125935423333e-02
    46   -2.814228120738e-02
    47   -3.685357506390e-03
    48    2.182880023611e-03
    49   -6.655780343020e-15
    50    1.166064247807e-02
    51   -5.139947082617e-03
    52    3.983867418388e-03
    53   -9.742731749223e-15
    54    8.382037343473e-03
    55   -2.006225428100e-03
    56    2.374550616905e-03
    57   -5.228567406516e-15
    58    1.270532629499e-04
    59    5.891049847213e-05
    60    6.142052625765e-05
    61   -6.873750776990e-15
    62   -4.866801541111e-04
    63    4.380642469700e-16
    64   -7.449033870152e-16
    65    2.000496947067e-05
    66   -3.908050217673e-04
    67    3.199068996138e-04
    68    2.877287443584e-04
    69   -3.186357500778e-04
    70    2.567858234690e-04
    71   -1.542593541487e-04
    72    2.039048536878e-04
    73   -4.097824433338e-16
    74   -8.022771208956e-04
    75   -5.224604653726e-04
    76   -1.081187763152e-03
    77   -2.521920782788e-04
    78    2.462912024122e-04
    79   -1.529319311452e-04
    80   -3.510418475950e-16
    81   -1.962465325060e-03
    82   -2.414310450518e-03
    83   -1.389959216480e-03
    84    7.847643998984e-04
    85    1.263733529437e-04
    86   -1.228877734811e-04
    87    9.848376355633e-16
Sym=X
Ene= 1.999821
Spin=Alpha
Occup=1
     1    1.609669643712e-02
     2    2.398414144850e-02
     3   -2.549177264416e-02
     4   -4.211368071058e-02
     5    5.086781169069e-14
     6   -8.631865937202e-02
     7   -2.769873853863e-02
     8   -5.142925851818e-02
     9    5.160132152932e-14
    10   -4.850966580140e-02
    11   -2.027228847307e-02
    12   -2.051702576745e-02
    13    5.445465058172e-14
    14    8.190817851886e-03
    15   -1.778439243253e-02
    16    2.928925481785e-02
    17    4.379905565007e-14
    18   -1.329838677789e-03
    19    8.467845394182e-15
    20    3.918538432162e-15
    21   -7.427206967979e-03
    22    6.786470281977e-03
    23    4.488131860456e-03
    24    1.560383428492e-02
    25   -1.252595380416e-01
    26    3.768436744338e-02
    27   -1.486800480044e-13
    28   -6.263641766596e-02
    29   -1.863145704514e-01
    30    5.731786255708e-02
    31   -2.523804445340e-13
    32    4.543634014162e-02
    33   -6.861019817654e-02
    34    3.307783596154e-02
    35   -2.205115800276e-13
    36    1.019081876603e-01
    37    2.882508450269e-02
    38   -6.798016866959e-03
    39   -3.599238974817e-14
    40    1.798031078319e-03
    41   -2.957505473132e-14
    42    1.484963270135e-14
    43   -1.768893839779e-02
    44    1.457602622602e-02
    45   -6.647806419369e-03
    46   -1.367428851962e-02
    47    1.115984609906e-01
    48   -1.752162834725e-01
    49   -1.729933557636e-13
    50    3.877295934071e-02
    51    1.712373911886e-01
    52   -2.667385552070e-01
    53   -2.973778915778e-13
    54    3.306492270211e-02
    55    8.929267953222e-02
    56   -1.642911585822e-01
    57   -2.602472437650e-13
    58   -8.648264350756e-02
    59    2.758497558864e-02
    60   -4.242363057263e-02
    61   -5.037517823658e-15
    62   -5.010272237891e-03
    63    1.587744495399e-14
    64   -2.234484546618e-14
    65   -5.710196358681e-03
    66    1.211869998713e-03
    67    1.499825341097e-01
    68    2.256653804718e-01
    69    2.260593272608e-02
    70   -1.818455018656e-02
    71    1.520179470065e-03
    72    2.454732414299e-02
    73   -1.219819349329e-14
    74    3.148662455205e-02
    75    5.080989892191e-02
    76    2.442719189270e-02
    77    5.102657263364e-03
    78   -6.590872248774e-03
    79   -1.143665349491e-03
    80   -1.184103798006e-14
    81    5.437292906581e-02
    82    8.543613169371e-02
    83    2.431687326467e-02
    84    8.184428443541e-03
    85    2.884369289460e-03
    86    8.447012118025e-03
    87   -1.123918595890e-14
Sym=X
Ene= 1.999539
Spin=Alpha
Occup=1
     1   -5.272971693170e-02
     2   -7.830687996552e-02
     3    4.577096005308e-02
     4    7.122630675929e-02
     5   -6.617106061982e-14
     6    2.763143085169e-01
     7    5.154798219581e-02
     8    8.196867419073e-02
     9   -7.587711104367e-14
    10    1.394816604126e-01
    11    2.380951412971e-02
    12    4.582101283409e-02
    13   -4.005483556884e-14
    14    2.693995438830e-02
    15   -1.171151273526e-02
    16   -1.909127928437e-03
    17    2.280489069375e-15
    18    1.254989269453e-03
    19    2.921885649927e-15
    20    9.325369196274e-16
    21   -3.623260586119e-04
    22   -3.420994985375e-03
    23   -6.357694723152e-02
    24   -1.052008963634e-01
    25   -7.139076623050e-02
    26    1.009975271113e-01
    27   -1.186687965583e-14
    28    2.622484748989e-01
    29   -1.102830939944e-01
    30    1.559450618334e-01
    31   -2.223818782662e-14
    32    2.337459535785e-01
    33   -3.271227418446e-02
    34    8.416866236679e-02
    35   -6.683940127194e-15
    36   -6.076022223310e-02
    37   -1.569482732738e-02
    38   -1.446346083246e-02
    39   -2.214428590978e-15
    40   -1.020712249756e-02
    41   -1.709908357410e-15
    42    7.840493574258e-16
    43   -1.575688112413e-02
    44    1.407918993471e-02
    45    3.086631498939e-02
    46    5.613964915544e-02
    47    1.767849485345e-02
    48    1.881791689803e-02
    49   -1.505260840749e-14
    50   -1.682292930528e-01
    51    1.226371198753e-02
    52    2.718247827382e-02
    53   -2.805753356347e-14
    54   -1.566048090262e-01
    55    1.542656718707e-02
    56   -5.323631966260e-03
    57   -1.640752958811e-14
    58    2.490079500256e-02
    59   -6.683192360966e-03
    60    1.734169718711e-02
    61   -4.588098453318e-15
    62    2.433657599041e-03
    63   -2.034115321313e-15
    64   -4.334846802313e-15
    65   -4.364049347792e-03
    66   -2.523895292957e-03
    67   -3.913093084351e-02
    68   -5.139494751746e-02
    69    1.599170050190e-02
    70    7.573037830856e-03
    71    1.813208383475e-03
    72   -9.699378221019e-03
    73   -7.898973672526e-16
    74    1.445814144423e-01
    75    2.135077369785e-01
    76    3.992682593606e-02
    77    3.127598134602e-02
    78   -7.871599731553e-04
    79   -2.409752845446e-02
    80   -2.117538948037e-15
    81    6.259706682502e-02
    82    9.042387794485e-02
    83    7.654883424649e-03
    84   -8.572023444007e-03
    85    6.809744115029e-03
    86    1.243847731948e-02
    87   -1.443742504294e-15
Sym=X
Ene= 1.999319
Spin=Alpha
Occup=1
     1    8.803600849293e-02
     2    1.306706999888e-01
     3   -1.562642596005e-01
     4   -3.306362800493e-02
     5    4.645447912407e-14
     6   -4.580670610719e-01
     7   -1.780993515750e-01
     8   -3.539125212918e-02
     9    6.145968760707e-14
    10   -2.187043597958e-01
    11   -1.040649517716e-01
    12   -1.963911034702e-02
    13    1.477102841066e-14
    14   -8.164274497834e-03
    15    3.785133489905e-03
    16   -4.850473096552e-03
    17   -5.738062734663e-14
    18   -2.095137459377e-03
    19   -1.392957470884e-14
    20   -6.895399421567e-15
    21    5.110204881355e-03
    22    1.855308954058e-03
    23   -6.544486949066e-02
    24   -1.069735737556e-01
    25   -2.804809542310e-02
    26   -5.944596195889e-02
    27    1.949915783274e-13
    28    2.651420609490e-01
    29   -3.981422686834e-02
    30   -9.318379335955e-02
    31    3.442646574762e-13
    32    1.543521895257e-01
    33   -4.238500449916e-02
    34   -5.414023828447e-02
    35    2.665293059640e-13
    36   -4.045942599048e-02
    37    2.783228736226e-03
    38    2.305648674078e-02
    39    3.500194260566e-14
    40   -9.670745314026e-03
    41    3.786284843512e-14
    42   -2.043954232612e-14
    43    1.120447076498e-02
    44    1.666962478944e-03
    45   -1.816491709167e-02
    46   -3.651655815824e-02
    47   -3.866962811461e-02
    48    4.546084867881e-02
    49    2.299357916135e-13
    50    1.146611314213e-01
    51   -4.966818424462e-02
    52    7.755344276145e-02
    53    3.983399875343e-13
    54    4.234819931443e-02
    55   -1.827491730795e-02
    56    3.544300532923e-02
    57    3.285751874836e-13
    58    3.013761641485e-02
    59   -1.535494053704e-02
    60   -6.465221851190e-03
    61    2.756874440265e-14
    62   -3.563944681680e-03
    63   -1.550224832747e-14
    64    3.390685608467e-14
    65    1.256950471223e-02
    66    4.243477948138e-03
    67   -2.070893876962e-02
    68   -3.394790282448e-02
    69   -2.431360360662e-02
    70   -3.292086135309e-03
    71   -2.763591140648e-04
    72    1.831052055617e-03
    73    1.489104577609e-14
    74    4.767846638388e-03
    75    1.404094039405e-04
    76   -2.929830088075e-02
    77   -1.264663437342e-02
    78   -1.735855861596e-03
    79   -7.050760392152e-03
    80    1.701103020731e-14
    81    1.049960842182e-01
    82    1.561595016166e-01
    83    2.679975532414e-02
    84    2.599370046200e-02
    85    1.794648202534e-02
    86    8.271827332247e-03
    87    1.868529859648e-14
Sym=X
Ene= 1.998410
Spin=Alpha
Occup=1
     1    2.739820270911e-13
     2    4.038410239743e-13
     3    5.291374782130e-13
     4    1.307911012193e-13
     5   -4.410267391511e-02
     6   -1.443386255500e-12
     7    6.268585629192e-13
     8    1.527759656999e-13
     9   -4.647373008915e-02
    10   -6.431042786827e-13
    11    3.321595203776e-13
    12    7.630058187194e-14
    13   -4.470634890747e-02
    14   -2.195892293708e-13
    15    1.397603485375e-13
    16    9.496532730366e-14
    17   -4.902279178603e-02
    18    6.271426192311e-15
    19   -9.127793832924e-03
    20   -4.344877207562e-03
    21   -2.174394648303e-14
    22   -8.385777884394e-15
    23    2.903119688081e-14
    24    7.216577495559e-14
    25    3.457892744905e-13
    26    6.891419204965e-13
    27    1.604801187558e-01
    28   -2.656672132212e-13
    29    4.989640532514e-13
    30    1.074961963302e-12
    31    2.721673327137e-01
    32   -9.045262169664e-14
    33    3.922636973555e-13
    34    7.604121869830e-13
    35    2.376345955900e-01
    36   -7.048850566777e-13
    37    6.476625950329e-13
    38    1.194837800244e-12
    39    2.815046033845e-02
    40    2.263366150589e-15
    41    3.065613319906e-02
    42   -1.591438524884e-02
    43   -1.108339649752e-13
    44   -4.692064528274e-14
    45    8.599568577704e-16
    46   -5.549280232417e-14
    47    5.053410306257e-14
    48   -3.129898999414e-13
    49    1.839933627077e-01
    50    2.980693863219e-13
    51    3.903533786862e-14
    52   -5.060654839958e-13
    53    3.173713636251e-01
    54    6.103121946950e-13
    55    1.772550088577e-13
    56   -2.550478617573e-13
    57    2.701539858036e-01
    58    8.304459230475e-13
    59   -2.409278056280e-13
    60   -5.850613616296e-13
    61    1.743617470309e-02
    62    3.979758711525e-15
    63   -1.853277644870e-02
    64    2.341312775762e-02
    65   -1.656057137767e-13
    66   -1.683971113641e-13
    67    3.723654072707e-13
    68    5.674489489867e-13
    69    9.908657137289e-14
    70   -4.563703062655e-13
    71   -3.014953907897e-15
    72    2.472059993428e-14
    73    1.331513658292e-02
    74    5.376732138996e-13
    75    8.357816019301e-13
    76    6.542676401413e-14
    77   -8.635514770896e-13
    78    3.563227276490e-14
    79   -5.203273039638e-14
    80    1.307679193976e-02
    81   -6.283308438038e-13
    82   -1.005228675467e-12
    83    6.311136757417e-14
    84    1.230780186135e-12
    85   -9.065691262151e-14
    86   -2.173757124955e-14
    87    1.302449638941e-02
Sym=X
Ene= 1.998190
Spin=Alpha
Occup=1
     1   -8.086348168528e-02
     2   -1.198612108261e-01
     3   -8.413091534775e-02
     4   -2.654251149235e-02
     5   -3.072482219651e-13
     6    4.250593175438e-01
     7   -1.009426794694e-01
     8   -3.261908717410e-02
     9   -3.383464055119e-13
    10    1.890550887648e-01
    11   -5.184303625365e-02
    12   -1.319519430300e-02
    13   -2.873650608550e-13
    14    3.736282969986e-02
    15   -2.194760820088e-02
    16   -1.404898015765e-02
    17   -2.129871564901e-13
    18   -1.237772680886e-03
    19   -3.960748394663e-14
    20   -1.847759228500e-14
    21    2.079387074400e-03
    22    2.867203726672e-03
    23    6.172556442314e-03
    24    1.010821345193e-02