[Molden Format]
[Atoms] (Angs)
  F      1    9      1.15290231      0.22477664     -0.00000000
  C      2    6     -1.17935012      0.19972949     -0.00000000
  C      3    6     -0.01631886     -0.43556811      0.00000000
  H      4    1      0.11895302     -1.50789969      0.00000000
  H      5    1     -1.23082549      1.27856114     -0.00000000
  H      6    1     -2.09023450     -0.37861944      0.00000000
[GTO]
1    0
S    6    1.000000
   1.14271000E+04    1.80093000E-03 
   1.72235000E+03    1.37419000E-02 
   3.95746000E+02    6.81334000E-02 
   1.15139000E+02    2.33325000E-01 
   3.36026000E+01    5.89086000E-01 
   4.91901000E+00    2.99505000E-01 
SP   3    1.000000
   5.54441000E+01    1.14536000E-01   3.54609000E-02 
   1.26323000E+01    9.20512000E-01   2.37451000E-01 
   3.71756000E+00   -3.37804000E-03   8.20458000E-01 
SP   1    1.000000
   1.16545000E+00    1.00000000E+00   1.00000000E+00 
SP   1    1.000000
   3.21892000E-01    1.00000000E+00   1.00000000E+00 
SP   1    1.000000
   1.07600000E-01    1.00000000E+00   1.00000000E+00 
D    1    1.000000
   1.75000000E+00    1.00000000E+00 

2    0
S    6    1.000000
   4.56324000E+03    1.96665000E-03 
   6.82024000E+02    1.52306000E-02 
   1.54973000E+02    7.61269000E-02 
   4.44553000E+01    2.60801000E-01 
   1.30290000E+01    6.16462000E-01 
   1.82773000E+00    2.21006000E-01 
SP   3    1.000000
   2.09642000E+01    1.14660000E-01   4.02487000E-02 
   4.80331000E+00    9.19999000E-01   2.37594000E-01 
   1.45933000E+00   -3.03068000E-03   8.15854000E-01 
SP   1    1.000000
   4.83456000E-01    1.00000000E+00   1.00000000E+00 
SP   1    1.000000
   1.45585000E-01    1.00000000E+00   1.00000000E+00 
SP   1    1.000000
   4.38000000E-02    1.00000000E+00   1.00000000E+00 
D    1    1.000000
   6.26000000E-01    1.00000000E+00 

3    0
S    6    1.000000
   4.56324000E+03    1.96665000E-03 
   6.82024000E+02    1.52306000E-02 
   1.54973000E+02    7.61269000E-02 
   4.44553000E+01    2.60801000E-01 
   1.30290000E+01    6.16462000E-01 
   1.82773000E+00    2.21006000E-01 
SP   3    1.000000
   2.09642000E+01    1.14660000E-01   4.02487000E-02 
   4.80331000E+00    9.19999000E-01   2.37594000E-01 
   1.45933000E+00   -3.03068000E-03   8.15854000E-01 
SP   1    1.000000
   4.83456000E-01    1.00000000E+00   1.00000000E+00 
SP   1    1.000000
   1.45585000E-01    1.00000000E+00   1.00000000E+00 
SP   1    1.000000
   4.38000000E-02    1.00000000E+00   1.00000000E+00 
D    1    1.000000
   6.26000000E-01    1.00000000E+00 

4    0
S    3    1.000000
   3.38650000E+01    2.54938000E-02 
   5.09479000E+00    1.90373000E-01 
   1.15879000E+00    8.52161000E-01 
S    1    1.000000
   3.25840000E-01    1.00000000E+00 
S    1    1.000000
   1.02741000E-01    1.00000000E+00 
S    1    1.000000
   3.60000000E-02    1.00000000E+00 
P    1    1.000000
   7.50000000E-01    1.00000000E+00 

5    0
S    3    1.000000
   3.38650000E+01    2.54938000E-02 
   5.09479000E+00    1.90373000E-01 
   1.15879000E+00    8.52161000E-01 
S    1    1.000000
   3.25840000E-01    1.00000000E+00 
S    1    1.000000
   1.02741000E-01    1.00000000E+00 
S    1    1.000000
   3.60000000E-02    1.00000000E+00 
P    1    1.000000
   7.50000000E-01    1.00000000E+00 

6    0
S    3    1.000000
   3.38650000E+01    2.54938000E-02 
   5.09479000E+00    1.90373000E-01 
   1.15879000E+00    8.52161000E-01 
S    1    1.000000
   3.25840000E-01    1.00000000E+00 
S    1    1.000000
   1.02741000E-01    1.00000000E+00 
S    1    1.000000
   3.60000000E-02    1.00000000E+00 
P    1    1.000000
   7.50000000E-01    1.00000000E+00 

[MO]
Sym=X
Ene= 2.005601
Spin=Alpha
Occup=1
     1   -2.213145582004e-02
     2   -3.229693029003e-02
     3   -2.708935399974e-01
     4   -1.845884060149e-01
     5    3.527403453792e-13
     6    1.087894301991e-01
     7   -3.195088541539e-01
     8   -2.172676453106e-01
     9    4.160206306647e-13
    10   -2.687207545458e-03
    11   -1.604181660933e-01
    12   -1.156607022316e-01
    13    2.517742758031e-13
    14   -2.251470455411e-02
    15    1.982812850067e-03
    16   -3.417560044232e-04
    17    3.719697425270e-14
    18   -8.217570610003e-03
    19   -8.356463246906e-15
    20   -4.586971010530e-15
    21    6.903833214350e-03
    22    1.200753405096e-02
    23    1.437624971481e-02
    24    2.342110729024e-02
    25    1.452226403307e-02
    26    8.065232342749e-02
    27   -1.063245739370e-14
    28   -5.635863848839e-02
    29    3.937485006104e-02
    30    1.136766987652e-01
    31   -6.094350487006e-15
    32   -3.595772719439e-02
    33    2.038031178876e-02
    34    8.065005099369e-02
    35   -8.269024623378e-14
    36    4.640091460044e-02
    37    2.846940479302e-02
    38    3.187095947850e-02
    39    2.517903687726e-14
    40    2.165841378237e-03
    41   -6.292575101672e-16
    42   -1.297358772797e-15
    43    3.049345916458e-03
    44   -3.024306937178e-03
    45   -1.959341769117e-02
    46   -2.729002856277e-02
    47    8.816605851479e-02
    48    4.937066669422e-02
    49    9.783271934114e-15
    50    4.881667945779e-02
    51    1.656085670559e-01
    52    9.038627461096e-02
    53    3.027503563588e-14
    54    6.927936476494e-03
    55    2.280786015815e-02
    56    1.435007017513e-02
    57   -1.230315237893e-14
    58   -2.122912711757e-03
    59    2.335526427765e-03
    60   -4.477742139444e-02
    61   -1.462799331533e-14
    62   -1.390047493416e-02
    63    2.005046067401e-14
    64    1.065952570704e-14
    65    1.643936587812e-02
    66    3.897458225612e-02
    67   -2.092499381218e-02
    68   -2.561298595045e-02
    69   -2.816891178677e-02
    70   -3.583938204051e-02
    71    4.329395195168e-03
    72    2.524395294763e-03
    73   -1.275993404473e-15
    74    5.213598693835e-02
    75    8.848374595635e-02
    76    4.393453023448e-03
    77   -1.899849437656e-02
    78    1.446097909440e-03
    79   -1.031721160923e-02
    80    9.968037592331e-16
    81   -5.701122816379e-02
    82   -7.965202849903e-02
    83   -6.557266303972e-03
    84    2.210648941322e-02
    85   -7.400736520229e-03
    86   -2.449096746131e-03
    87    2.696623256718e-15
Sym=X
Ene= 2.003406
Spin=Alpha
Occup=1
     1    3.583733944822e-14
     2    5.603878650673e-14
     3   -2.779992057493e-13
     4   -1.246227869489e-13
     5   -4.125115402680e-01
     6   -1.995047249968e-13
     7   -3.277189108504e-13
     8   -1.553659371256e-13
     9   -4.806704827492e-01
    10   -1.580916040181e-13
    11   -1.549000304744e-13
    12   -3.918196375504e-14
    13   -3.089034499191e-01
    14   -2.595352153719e-13
    15    1.440881369760e-13
    16    1.061091848966e-14
    17   -1.594189617923e-02
    18   -7.760071788881e-15
    19    8.821135136500e-03
    20    5.231065791158e-03
    21    8.334325502287e-15
    22    9.394237456934e-15
    23    6.291892644012e-15
    24    1.355117716376e-14
    25    2.240565984130e-14
    26    6.887982155033e-14
    27    1.219873890730e-02
    28   -4.252540475991e-14
    29    4.261431008406e-14
    30    9.525755227520e-14
    31    1.840525579270e-02
    32    3.718383468221e-14
    33   -1.325647813022e-14
    34    2.211003954166e-14
    35    2.726384739014e-02
    36   -2.300879013399e-12
    37    2.412336050968e-13
    38    1.300781488186e-12
    39    1.109604039540e-02
    40   -1.324613271678e-14
    41   -1.534091720783e-03
    42    1.061908979700e-03
    43    5.082359752948e-15
    44    1.395919399313e-14
    45   -9.155580488078e-14
    46   -9.165558119599e-14
    47    6.947851155864e-14
    48    4.015457177879e-14
    49   -1.802057828096e-02
    50    7.328254434787e-14
    51    1.368696270299e-13
    52    8.042226498372e-14
    53   -3.165757123589e-02
    54    1.764876191768e-13
    55    1.406483228856e-13
    56    7.523465690255e-14
    57    3.454414404994e-03
    58    2.349381093632e-12
    59   -6.545607132439e-13
    60   -2.477969994326e-13
    61   -9.824834026179e-03
    62   -2.664464141083e-14
    63   -2.196408526269e-02
    64   -9.475049131739e-03
    65   -2.198719404894e-15
    66    3.845278038266e-14
    67   -6.355084732114e-15
    68   -1.898685812795e-14
    69   -7.598011133538e-14
    70   -3.538920753132e-13
    71   -1.754515335215e-15
    72    8.363692155116e-15
    73   -9.195458381221e-04
    74    4.929983137956e-14
    75    8.713299870270e-14
    76   -9.649267990039e-14
    77   -8.887535508441e-13
    78    1.479275860191e-14
    79   -5.670250885481e-15
    80    7.176880852234e-04
    81   -5.115531880706e-14
    82   -1.775405965141e-13
    83    2.877871772497e-13
    84    1.191193144952e-12
    85   -5.267133230624e-15
    86   -2.292535627762e-15
    87    1.583851902496e-03
Sym=X
Ene= 2.002070
Spin=Alpha
Occup=1
     1    4.684536940184e-03
     2    6.900133315335e-03
     3    2.066155840673e-01
     4   -3.535461373307e-01
     5   -4.880305644093e-14
     6   -2.303995904304e-02
     7    2.405695458735e-01
     8   -4.110226279729e-01
     9   -5.248375093321e-14
    10   -1.024908731043e-02
    11    1.565367886989e-01
    12   -2.695023020433e-01
    13   -5.474149398915e-14
    14   -5.576836200132e-03
    15    2.867784602077e-03
    16   -3.951236014192e-03
    17    1.447732899856e-14
    18    4.435719954607e-04
    19    1.256485296187e-15
    20    2.456390501607e-16
    21   -7.949664559021e-03
    22    3.977367798684e-03
    23   -1.895206941043e-02
    24   -3.074461547037e-02
    25   -6.469980593922e-03
    26   -8.973146654013e-03
    27    3.427233446181e-15
    28    7.540343250465e-02
    29   -1.710736515330e-02
    30   -4.467695098709e-03
    31   -1.187392377048e-15
    32    7.466234616981e-02
    33   -1.000562714981e-02
    34   -2.150852389630e-02
    35    1.933230643080e-14
    36    1.965739000335e-01
    37    3.396484233753e-02
    38   -2.775607645938e-02
    39   -1.817913708098e-14
    40   -1.319343704416e-03
    41   -1.708592697411e-15
    42    2.355233336533e-15
    43    1.274248574485e-03
    44    7.711714552223e-03
    45    3.240401861622e-03
    46    4.835014134382e-03
    47   -6.567652042750e-03
    48    4.285410359389e-03
    49   -4.627348739293e-15
    50   -1.095648339057e-02
    51   -2.018031939717e-02
    52    8.736356406944e-03
    53   -1.003686979608e-14
    54   -6.918509861285e-03
    55    6.851154592935e-03
    56    1.795202632073e-02
    57    3.365754125867e-16
    58   -1.439179674941e-01
    59    6.824354684578e-02
    60   -6.348319677838e-02
    61    5.192673655443e-15
    62   -4.645480563921e-04
    63    1.367467748018e-15
    64    2.416362887808e-15
    65    2.710868339991e-02
    66   -1.593251717742e-02
    67   -1.900002903076e-02
    68   -3.388542363232e-02
    69   -3.462395524479e-02
    70   -5.240678739271e-02
    71   -3.008593762880e-03
    72   -1.414324106109e-04
    73   -2.852437107285e-15
    74    1.018851914067e-02
    75    1.102610633692e-02
    76    1.392833097715e-03
    77    1.260402962208e-02
    78   -2.726459479348e-03
    79   -1.624914078230e-03
    80    1.240092559311e-15
    81    2.351207758532e-02
    82    2.760574601461e-02
    83   -1.213457477476e-02
    84    4.989193502862e-04
    85    2.412593234993e-03
    86    6.121655749435e-04
    87   -4.553466858047e-16
Sym=X
Ene= 1.999997
Spin=Alpha
Occup=1
     1   -1.591794678589e-03
     2   -2.362530681102e-03
     3    1.069715095479e-03
     4    2.874478415625e-03
     5    1.795792571229e-15
     6    8.218912825140e-03
     7    1.165583360087e-03
     8    3.304519091607e-03
     9    7.798919335101e-16
    10    3.914467980140e-03
    11    6.030531235775e-04
    12    2.006521525498e-03
    13   -1.624121208401e-16
    14    1.619302157479e-04
    15   -7.475111048851e-05
    16    3.409139119761e-04
    17    1.222222815242e-15
    18    2.024639220154e-06
    19    3.439125068873e-16
    20    4.872200442696e-16
    21   -4.238082586026e-06
    22   -4.630298276778e-05
    23   -5.657634543450e-01
    24   -4.711238547268e-01
    25   -2.177124269522e-03
    26    3.493772046815e-03
    27   -2.804686316039e-15
    28    7.716765680782e-03
    29   -4.324534138132e-03
    30    6.340351601845e-03
    31   -2.667534048090e-15
    32    1.014035338099e-02
    33   -1.588606439436e-03
    34    3.600964181472e-03
    35   -7.611252089856e-15
    36   -1.541290750377e-03
    37   -1.354422340160e-04
    38   -2.727085454256e-04
    39    4.409232100136e-15
    40   -5.247848721813e-05
    41   -1.070929010267e-15
    42    1.775679143565e-15
    43   -8.193491538140e-04
    44    5.365033795725e-04
    45    9.645137161959e-03
    46    8.185454218519e-03
    47    6.333272326292e-04
    48   -4.046460155543e-04
    49   -2.857401588650e-15
    50   -1.152769203178e-03
    51   -1.838512642173e-04
    52   -2.448248280697e-04
    53   -3.813538057574e-15
    54   -1.111609011580e-03
    55    7.696869039229e-04
    56   -9.408467948674e-04
    57    1.725354810158e-15
    58   -2.583048276266e-04
    59    7.691141877338e-05
    60    1.074351549821e-04
    61   -4.838223522777e-15
    62   -2.590547516066e-04
    63   -4.597568812317e-16
    64   -3.794918695283e-16
    65   -2.114453175702e-04
    66   -3.572626434810e-04
    67    3.524073397232e-04
    68    6.680653902781e-04
    69    7.831372163976e-04
    70    2.077046324427e-04
    71    5.159841566489e-05
    72   -3.175877594072e-06
    73   -3.999717418400e-17
    74    5.735001717947e-03
    75    9.214051036255e-03
    76    1.552319714978e-03
    77    1.166155531568e-03
    78   -5.713299271143e-05
    79   -1.002663922645e-03
    80   -1.078348858423e-16
    81    2.243434234917e-03
    82    3.800169132577e-03
    83   -8.340418783522e-05
    84    2.996731400809e-04
    85    3.437945021762e-04
    86    5.545909362747e-04
    87    1.348906891937e-15
Sym=X
Ene= 1.999974
Spin=Alpha
Occup=1
     1    1.487594178113e-02
     2    2.208455271537e-02
     3   -1.178684923107e-02
     4   -1.499773993747e-02
     5    6.112293897963e-14
     6   -7.665455786424e-02
     7   -1.239376061592e-02
     8   -1.669522056305e-02
     9    7.170812166412e-14
    10   -3.601184395055e-02
    11   -7.905996831683e-03
    12   -1.070700582407e-02
    13    4.173057547369e-14
    14    2.429053620124e-04
    15   -7.862624792813e-05
    16   -1.421626020921e-03
    17    5.390091186596e-15
    18    1.936640189255e-04
    19   -9.216495628562e-16
    20   -2.458477957841e-16
    21   -1.664838921733e-04
    22    5.050344725175e-05
    23    2.240383945985e-03
    24    1.526494888640e-02
    25    7.169392724009e-03
    26   -2.440339079186e-02
    27    4.670148855288e-15
    28   -6.677079718763e-02
    29    1.277335193069e-02
    30   -3.845196285225e-02
    31    5.378181279977e-15
    32   -5.134017552722e-02
    33    3.450924026841e-03
    34   -2.375547429488e-02
    35    6.134276683920e-15
    36    7.413716121175e-03
    37    1.611958388786e-03
    38    1.992093632189e-03
    39   -3.793826530898e-15
    40    2.613987095302e-03
    41    1.429538038307e-15
    42   -1.709913963163e-15
    43    3.904441607383e-03
    44   -9.840945075340e-04
    45   -5.465349826475e-01
    46   -4.524896762096e-01
    47   -4.223941914732e-03
    48   -1.061320572087e-03
    49    6.156567957623e-15
    50   -5.659093494717e-03
    51    2.896275080596e-03
    52    2.434244528493e-04
    53    1.510253764057e-14
    54    7.179173494188e-03
    55   -4.221284234003e-03
    56    4.825864686862e-03
    57    3.325797063681e-15
    58   -2.774787480834e-03
    59    3.778637840177e-05
    60   -1.539660782852e-03
    61    2.533410330358e-15
    62    1.182320470098e-03
    63    4.502548359545e-15
    64    1.358289909622e-15
    65    1.716794121408e-03
    66    2.936467379546e-03
    67   -2.549482300639e-03
    68   -3.839680535645e-03
    69   -5.189831188821e-03
    70   -5.319249757420e-04
    71   -3.734906064999e-05
    72    3.174018127578e-04
    73    6.453360902020e-17
    74   -3.642966817098e-02
    75   -5.448164611044e-02
    76   -1.120485963806e-02
    77   -5.692305616274e-03
    78   -1.529015434958e-04
    79    5.869415330668e-03
    80    9.101909577417e-16
    81   -8.442910995098e-03
    82   -1.075989810732e-02
    83    1.698535951156e-03
    84    9.760764395584e-04
    85   -1.162044600904e-03
    86   -2.429470588731e-03
    87   -4.920304143405e-16
Sym=X
Ene= 1.999924
Spin=Alpha
Occup=1
     1   -4.761328034406e-02
     2   -7.061607663164e-02
     3    3.126423808866e-02
     4    6.249680345268e-02
     5   -3.492647479079e-14
     6    2.453044548982e-01
     7    3.390853085585e-02
     8    7.118518669309e-02
     9   -3.947627036934e-14
    10    1.140487938716e-01
    11    2.020906396282e-02
    12    4.522287836830e-02
    13   -1.787416018150e-14
    14    3.995036646347e-03
    15   -1.930036623306e-03
    16    6.187422026473e-03
    17   -3.698238723333e-15
    18   -2.213532698161e-04
    19    1.581810704252e-15
    20    3.330806120888e-16
    21    8.989693175487e-06
    22   -9.888294827506e-04
    23   -5.749109969540e-02
    24   -1.109886991578e-01
    25   -4.909067615865e-02
    26    8.427013285852e-02
    27   -2.087539367854e-16
    28    3.155827609273e-01
    29   -7.642356662841e-02
    30    1.295779387461e-01
    31   -1.245981271152e-15
    32    2.380233995426e-01
    33   -3.406553070714e-02
    34    8.336317580890e-02
    35    1.455987224362e-15
    36   -2.594365291247e-02
    37   -2.072305814873e-03
    38   -5.113097700578e-03
    39    1.886030997924e-15
    40   -1.345678012031e-02
    41    1.318308389850e-15
    42   -3.901518770792e-16
    43   -1.361133535470e-02
    44    4.634647905645e-03
    45   -1.357428421176e-01
    46   -1.160810966097e-01
    47    9.187395466515e-04
    48   -6.404656993861e-03
    49   -1.358523133947e-15
    50    1.134310854156e-02
    51   -2.086869947017e-03
    52   -7.127612581999e-03
    53    3.487243523823e-17
    54   -1.768212580855e-02
    55    1.363768453050e-02
    56   -2.480075904565e-02
    57    1.817305315298e-16
    58   -1.014022084308e-03
    59    1.279584883802e-03
    60    2.047223522069e-03
    61   -4.418224291890e-16
    62   -3.336478793603e-03
    63   -1.450876162822e-15
    64   -1.379023581105e-15
    65   -5.795498671368e-03
    66   -7.852989487029e-03
    67    1.414624250881e-02
    68    2.411012073874e-02
    69    1.691040994690e-02
    70    2.827731483907e-03
    71    2.119771258761e-05
    72    8.745296180700e-04
    73   -1.594586076609e-16
    74    1.449653596061e-01
    75    2.153646306116e-01
    76    3.806909333715e-02
    77    2.162023973703e-02
    78   -5.530703242597e-04
    79   -2.470067705117e-02
    80   -8.536887159484e-16
    81    6.460939785094e-02
    82    8.923476674654e-02
    83    3.012628476054e-03
    84    3.676039667046e-03
    85    8.778755114924e-03
    86    1.284081935532e-02
    87   -4.340679720139e-16
Sym=X
Ene= 1.999609
Spin=Alpha
Occup=1
     1    9.224088964198e-02
     2    1.369329806138e-01
     3   -1.689522997267e-01
     4   -3.946599476605e-02
     5    8.892613178018e-14
     6   -4.773872114405e-01
     7   -1.920500454439e-01
     8   -4.373101407886e-02
     9    1.032301093725e-13
    10   -2.267965812933e-01
    11   -1.200913407651e-01
    12   -2.301622401650e-02
    13    6.317130826910e-14
    14    8.188987306639e-03
    15   -1.045587295307e-02
    16    2.024102369661e-03
    17    4.228748596721e-16
    18   -1.407777315777e-03
    19   -2.880731089449e-15
    20   -1.649130557495e-15
    21    1.472678736948e-03
    22    3.106830269992e-03
    23   -3.394560008039e-02
    24   -5.737217234257e-02
    25   -9.649495625595e-02
    26   -5.447858463932e-02
    27    9.523633370826e-15
    28    1.467685555665e-01
    29   -1.436705749877e-01
    30   -8.365091580168e-02
    31    3.006385168237e-14
    32    1.086475314264e-01
    33   -9.014448040869e-02
    34   -5.006061853716e-02
    35   -1.387599865604e-14
    36   -2.428527291703e-03
    37    1.035895147127e-02
    38    1.585599049569e-02
    39    8.552089241908e-15
    40   -5.766084154427e-03
    41    1.734657148932e-15
    42   -2.042805188192e-15
    43    7.343472004997e-03
    44    1.255091303096e-02
    45    1.984266770893e-02
    46    1.354877313512e-02
    47    2.056246600073e-02
    48   -1.547294831096e-02
    49    1.585248673153e-14
    50    1.597324074474e-02
    51    3.473962700760e-02
    52   -1.780926330746e-02
    53    2.736696584321e-14
    54   -6.781742761058e-03
    55    1.470298781111e-02
    56   -1.611258629021e-02
    57    1.580366198385e-14
    58   -4.512150263948e-04
    59   -7.818154602091e-03
    60   -1.526653617289e-02
    61    1.721848167372e-15
    62   -1.415209615815e-03
    63    4.141024524762e-15
    64    5.607187493138e-15
    65    1.184296075964e-02
    66    1.121083059945e-02
    67    1.057049896434e-02
    68    1.608497869518e-02
    69   -1.506742979539e-02
    70   -7.410368337711e-03
    71    1.515715529230e-03
    72    6.110100466779e-03
    73   -5.767510151997e-17
    74   -1.195777627339e-02
    75   -2.534671295064e-02
    76   -2.852399690826e-02
    77   -1.132183436741e-02
    78   -5.769850837030e-03
    79   -1.828112091770e-03
    80    1.915703941422e-15
    81    1.274249288886e-01
    82    1.968209916012e-01
    83    4.823561313878e-02
    84    2.283889600779e-02
    85    1.652696902199e-02
    86    1.105941866653e-02
    87    3.475768390134e-15
Sym=X
Ene= 1.998928
Spin=Alpha
Occup=1
     1   -8.413377208658e-02
     2   -1.245189739499e-01
     3   -6.923555455880e-02
     4   -3.485367914338e-02
     5   -7.756305100309e-14
     6    4.329167145423e-01
     7   -8.641389731551e-02
     8   -4.363869832450e-02
     9   -9.290939276434e-14
    10    1.713568110407e-01
    11   -3.047472068787e-02
    12   -1.335878554195e-02
    13   -6.363009938105e-14
    14   -1.716839440892e-02
    15    3.837590705109e-03
    16   -3.238649038914e-04
    17    1.182558445239e-14
    18   -3.365264507537e-03
    19    2.237384952517e-15
    20    1.663426984746e-15
    21    3.339708920013e-03
    22    5.277922611254e-03
    23   -1.760139903743e-02
    24   -2.733194832965e-02
    25   -1.121359215189e-03
    26   -1.324014724328e-01
    27   -1.840165667548e-14
    28    6.724651296304e-02
    29    6.588941226206e-03
    30   -2.045286425536e-01
    31   -2.841815184484e-14
    32   -3.567294124421e-04
    33   -2.864912708196e-02
    34   -1.181286343439e-01
    35   -4.699235963150e-14
    36    3.449836664224e-03
    37    3.543671019622e-03
    38    1.118689713346e-02
    39    3.471498956909e-14
    40   -9.098679113362e-04
    41   -2.859972523461e-15
    42    2.210513228553e-15
    43    2.223097484770e-02
    44   -4.215416995536e-03
    45   -5.238620735676e-02
    46   -9.138654895800e-02
    47   -2.246106737152e-02
    48    2.053612752444e-03
    49   -2.292321090311e-14
    50    2.440289685254e-01
    51   -1.252025270711e-02
    52    1.245297381729e-02
    53   -3.698003533948e-14
    54    1.259132163688e-01
    55   -2.077757898616e-02
    56    6.891479191933e-03
    57   -1.227542302576e-14
    58    2.729301659708e-03
    59    1.698944035491e-03
    60   -1.703374945346e-03
    61   -3.951308537912e-14
    62   -1.344767027584e-02
    63   -2.486958388765e-15
    64   -5.551581480300e-15
    65    2.182086422027e-02
    66    1.771580169327e-02
    67    3.711051168641e-02
    68    5.028637960418e-02
    69   -1.832492218333e-02
    70    2.573594839257e-03
    71   -2.321030455245e-03
    72    1.400317183157e-02
    73   -2.357803114188e-15
    74   -1.002915390453e-01
    75   -1.569779266046e-01
    76   -5.240794445398e-02
    77   -1.978069169663e-02
    78   -1.527712884305e-03
    79    1.022192574477e-02
    80   -2.234885812345e-15
    81    7.464306122678e-02
    82    1.160172975353e-01
    83    2.486267834597e-02
    84    1.837080160030e-02
    85    1.436308263018e-02
    86    1.435310124860e-03
    87    5.626511469332e-16
Sym=X
Ene= 1.998181
Spin=Alpha
Occup=1
     1    4.243023169852e-02
     2    6.303408949691e-02
     3   -1.959242977813e-03
     4   -8.037298679604e-03
     5    5.442271934019e-14
     6   -2.245346053275e-01
     7   -3.206066099061e-03
     8   -7.150227049204e-03
     9    6.899619904160e-14
    10   -1.087719146917e-01
    11    6.072886437791e-03
    12   -1.083628302130e-02
    13    2.785856274676e-14
    14   -4.174006567103e-02
    15    3.288264402935e-02
    16   -1.389894135742e-02
    17   -1.638194230393e-14
    18   -7.076904776451e-04
    19   -4.413688012944e-15
    20   -1.988235158995e-15
    21    7.089027166041e-03
    22   -2.955363675763e-03
    23   -5.162873629757e-02
    24   -8.456201104383e-02
    25    1.573192117162e-01
    26   -3.053817851663e-02
    27    5.105268586862e-14
    28    2.129546156317e-01
    29    2.377000317125e-01
    30   -4.684399198105e-02
    31    8.576166201907e-14
    32    6.126835442563e-02
    33    1.053411933660e-01
    34   -1.195323834179e-02
    35    9.041559084852e-14
    36   -5.401330323062e-02
    37   -5.294478498290e-03
    38    2.608107880863e-02
    39   -5.941092073937e-15
    40   -7.493746971582e-03
    41    9.154531089746e-15
    42   -4.597529657875e-15
    43    1.395367869419e-02
    44   -2.280188154970e-02
    45   -4.916688857720e-02
    46   -8.228668200425e-02
    47   -1.258739965609e-01
    48    1.233377014462e-01
    49    5.859243838037e-14
    50    2.196321641432e-01
    51   -1.802397995145e-01
    52    1.927956772622e-01
    53    9.783840006201e-14
    54    1.339819138525e-01
    55   -6.893773478061e-02
    56    1.155061332779e-01
    57    8.187808377084e-14
    58    5.546667034694e-02
    59   -1.581470476497e-02
    60    5.539220858710e-03
    61    2.023423528102e-14
    62   -3.481057795188e-03
    63    4.484654668474e-16
    64    1.111605442737e-14
    65   -1.239421470288e-03
    66   -1.717985283831e-02
    67   -6.179440599681e-02
    68   -9.814535656397e-02
    69   -2.812322576048e-02
    70    5.495806722304e-05
    71   -4.128063013128e-03
    72   -7.756618084445e-03
    73    3.629893404263e-15
    74    8.085283448140e-03
    75    5.992125482535e-03
    76   -2.531135743441e-02
    77   -1.422291748157e-02
    78    9.052103479441e-03
    79   -6.101046336602e-03
    80    4.743213765183e-15
    81   -5.245176417388e-02
    82   -8.804223133009e-02
    83   -3.218056719889e-02
    84    1.285823462149e-02
    85    9.939080733269e-04
    86   -6.618780670854e-03
    87    5.616419291516e-15
Sym=X
Ene= 1.997489
Spin=Alpha
Occup=1
     1   -3.797532967432e-02
     2   -5.652522590859e-02
     3   -2.836523652547e-02
     4    2.009771240740e-03
     5   -6.197039943924e-14
     6    2.065888024055e-01
     7   -3.279852745909e-02
     8    4.615218705718e-03
     9   -7.078675769557e-14
    10    1.129957504741e-01
    11   -2.325538829891e-02
    12   -6.489620207566e-03
    13   -5.222948986586e-14
    14    4.572820274356e-02
    15   -1.561088639410e-02
    16   -3.225716692121e-02
    17    8.758458614133e-15
    18    1.576135074225e-03
    19    8.679403059617e-16
    20    2.769706427523e-16
    21    4.194866271506e-03
    22   -4.654081297896e-03
    23   -5.944783944422e-03
    24   -1.153516287816e-02
    25   -3.894770157034e-02
    26   -4.481598189886e-02
    27    6.468428261957e-15
    28    3.820042363087e-02
    29   -5.980324433821e-02
    30   -6.784909451302e-02
    31    1.667289479494e-14
    32    1.127849782579e-02
    33   -4.752263241222e-02
    34   -6.003478528110e-02
    35   -6.491954734818e-15
    36   -7.570986151989e-02
    37   -2.824477616965e-02
    38   -1.465262697034e-02
    39    4.052031850349e-14
    40   -1.920134626483e-04
    41    1.700379417802e-15
    42   -1.329354510999e-15
    43    1.411864691512e-02
    44    1.390555507356e-02
    45    6.783567460113e-02
    46    1.140677651268e-01
    47   -1.759863295619e-02
    48    1.301312293088e-01
    49    1.043106018078e-14
    50   -2.990515225964e-01
    51   -3.814175843040e-02
    52    1.960090878492e-01
    53    1.481120190243e-14
    54   -2.474790121516e-01
    55   -5.453032552715e-02
    56    1.199640949823e-01
    57    2.777358083759e-14
    58    5.341450902292e-02
    59   -2.129881802508e-02
    60    4.082801707409e-02
    61   -3.920890635293e-14
    62    1.075769048867e-02
    63   -1.745679443804e-15
    64   -2.126909042419e-16
    65    2.065317283954e-02
    66    2.382420481394e-02
    67   -1.730593851589e-01
    68   -2.582836931850e-01
    69   -3.700791937271e-02
    70    1.582712960033e-02
    71    2.511855430888e-03
    72   -2.683927987495e-02
    73    1.657980989427e-16
    74   -3.733722638711e-02
    75   -6.245780705250e-02
    76   -2.821617485684e-02
    77    8.774698577613e-03
    78   -2.622503900792e-03
    79    1.925988714751e-03
    80    2.087723615262e-16
    81    6.256627105271e-02
    82    1.021038372432e-01
    83    2.329520836574e-02
    84   -1.458930098286e-02
    85    7.458556953201e-03
    86    2.326924635441e-03
    87    3.744450602992e-16
Sym=X
Ene= 1.992806
Spin=Alpha
Occup=1
     1    2.719601295913e-14
     2    4.256233838665e-14
     3    4.841789247259e-15
     4    5.651804103956e-15
     5    3.720984307927e-02
     6   -1.474564980151e-13
     7    7.179448454410e-15
     8    8.614229239563e-15
     9    3.961260181297e-02
    10   -5.377050586996e-14
    11   -1.519713523045e-15
    12   -1.844252520759e-15
    13    4.117186114686e-02
    14   -8.482889728072e-15
    15   -6.517340857546e-15
    16    6.300956480476e-18
    17    4.962067643070e-02
    18    5.703413213849e-16
    19    9.172151486114e-03
    20    4.362862910616e-03
    21    1.859942960289e-15
    22   -2.244964038300e-15
    23   -1.048364903053e-14
    24   -2.172641945104e-14