[Molden Format]
[Atoms] (Angs)
  F      1    9      1.15290231      0.22477664     -0.00000000
  C      2    6     -1.17935012      0.19972949     -0.00000000
  C      3    6     -0.01631886     -0.43556811      0.00000000
  H      4    1      0.11895302     -1.50789969      0.00000000
  H      5    1     -1.23082549      1.27856114     -0.00000000
  H      6    1     -2.09023450     -0.37861944      0.00000000
[GTO]
1    0
S    6    1.000000
   1.14271000E+04    1.80093000E-03 
   1.72235000E+03    1.37419000E-02 
   3.95746000E+02    6.81334000E-02 
   1.15139000E+02    2.33325000E-01 
   3.36026000E+01    5.89086000E-01 
   4.91901000E+00    2.99505000E-01 
SP   3    1.000000
   5.54441000E+01    1.14536000E-01   3.54609000E-02 
   1.26323000E+01    9.20512000E-01   2.37451000E-01 
   3.71756000E+00   -3.37804000E-03   8.20458000E-01 
SP   1    1.000000
   1.16545000E+00    1.00000000E+00   1.00000000E+00 
SP   1    1.000000
   3.21892000E-01    1.00000000E+00   1.00000000E+00 
SP   1    1.000000
   1.07600000E-01    1.00000000E+00   1.00000000E+00 
D    1    1.000000
   1.75000000E+00    1.00000000E+00 

2    0
S    6    1.000000
   4.56324000E+03    1.96665000E-03 
   6.82024000E+02    1.52306000E-02 
   1.54973000E+02    7.61269000E-02 
   4.44553000E+01    2.60801000E-01 
   1.30290000E+01    6.16462000E-01 
   1.82773000E+00    2.21006000E-01 
SP   3    1.000000
   2.09642000E+01    1.14660000E-01   4.02487000E-02 
   4.80331000E+00    9.19999000E-01   2.37594000E-01 
   1.45933000E+00   -3.03068000E-03   8.15854000E-01 
SP   1    1.000000
   4.83456000E-01    1.00000000E+00   1.00000000E+00 
SP   1    1.000000
   1.45585000E-01    1.00000000E+00   1.00000000E+00 
SP   1    1.000000
   4.38000000E-02    1.00000000E+00   1.00000000E+00 
D    1    1.000000
   6.26000000E-01    1.00000000E+00 

3    0
S    6    1.000000
   4.56324000E+03    1.96665000E-03 
   6.82024000E+02    1.52306000E-02 
   1.54973000E+02    7.61269000E-02 
   4.44553000E+01    2.60801000E-01 
   1.30290000E+01    6.16462000E-01 
   1.82773000E+00    2.21006000E-01 
SP   3    1.000000
   2.09642000E+01    1.14660000E-01   4.02487000E-02 
   4.80331000E+00    9.19999000E-01   2.37594000E-01 
   1.45933000E+00   -3.03068000E-03   8.15854000E-01 
SP   1    1.000000
   4.83456000E-01    1.00000000E+00   1.00000000E+00 
SP   1    1.000000
   1.45585000E-01    1.00000000E+00   1.00000000E+00 
SP   1    1.000000
   4.38000000E-02    1.00000000E+00   1.00000000E+00 
D    1    1.000000
   6.26000000E-01    1.00000000E+00 

4    0
S    3    1.000000
   3.38650000E+01    2.54938000E-02 
   5.09479000E+00    1.90373000E-01 
   1.15879000E+00    8.52161000E-01 
S    1    1.000000
   3.25840000E-01    1.00000000E+00 
S    1    1.000000
   1.02741000E-01    1.00000000E+00 
S    1    1.000000
   3.60000000E-02    1.00000000E+00 
P    1    1.000000
   7.50000000E-01    1.00000000E+00 

5    0
S    3    1.000000
   3.38650000E+01    2.54938000E-02 
   5.09479000E+00    1.90373000E-01 
   1.15879000E+00    8.52161000E-01 
S    1    1.000000
   3.25840000E-01    1.00000000E+00 
S    1    1.000000
   1.02741000E-01    1.00000000E+00 
S    1    1.000000
   3.60000000E-02    1.00000000E+00 
P    1    1.000000
   7.50000000E-01    1.00000000E+00 

6    0
S    3    1.000000
   3.38650000E+01    2.54938000E-02 
   5.09479000E+00    1.90373000E-01 
   1.15879000E+00    8.52161000E-01 
S    1    1.000000
   3.25840000E-01    1.00000000E+00 
S    1    1.000000
   1.02741000E-01    1.00000000E+00 
S    1    1.000000
   3.60000000E-02    1.00000000E+00 
P    1    1.000000
   7.50000000E-01    1.00000000E+00 

[MO]
Sym=X
Ene= 2.005904
Spin=Alpha
Occup=1
     1   -2.500645150683e-02
     2   -3.662713880700e-02
     3   -2.662801652677e-01
     4   -1.883473198533e-01
     5    2.741850024002e-13
     6    1.218254799779e-01
     7   -3.162826088850e-01
     8   -2.227466948065e-01
     9    3.233164845822e-13
    10    3.154515720793e-04
    11   -1.512541575351e-01
    12   -1.149991175366e-01
    13    1.908781578718e-13
    14   -3.194503631115e-02
    15    5.570223237167e-03
    16    1.114726000364e-03
    17    1.251696452759e-14
    18   -9.552585818657e-03
    19   -7.973897064961e-15
    20   -4.454527536082e-15
    21    7.904686085299e-03
    22    1.430809776941e-02
    23    1.373549203457e-02
    24    2.214099419856e-02
    25    1.710425440623e-02
    26    7.395233717047e-02
    27   -1.961269910405e-14
    28   -5.193044392409e-02
    29    4.522796673733e-02
    30    1.037163431135e-01
    31   -2.343293985333e-14
    32   -3.569124471930e-02
    33    1.935028685062e-02
    34    7.423897166936e-02
    35   -9.267801143621e-14
    36    4.850000327932e-02
    37    2.947756522110e-02
    38    3.311931994553e-02
    39    2.264053467208e-14
    40    2.171951920094e-03
    41   -3.215079735105e-15
    42    2.719193123069e-17
    43    5.867426547807e-03
    44   -3.286104480034e-03
    45   -2.057083674272e-02
    46   -3.189183987649e-02
    47    9.001631960229e-02
    48    5.458854557779e-02
    49   -4.426248111080e-15
    50    7.025956231445e-02
    51    1.752167684703e-01
    52    1.018268794057e-01
    53    4.746453144098e-15
    54    2.620077413686e-02
    55    2.555705344094e-02
    56    1.983878688251e-02
    57   -1.253107782755e-14
    58   -1.768258572486e-03
    59    3.244495779666e-03
    60   -4.572670297483e-02
    61   -7.700939169515e-15
    62   -1.572966381650e-02
    63    1.936077974772e-14
    64    8.020993202733e-15
    65    1.933809301756e-02
    66    4.254166349827e-02
    67   -2.056310914900e-02
    68   -2.455649483334e-02
    69   -2.944177050926e-02
    70   -3.693499558871e-02
    71    4.017242640438e-03
    72    3.582090998464e-03
    73   -2.363520594905e-15
    74    4.544064555963e-02
    75    7.645577407105e-02
    76   -2.503691562817e-03
    77   -2.066094869966e-02
    78    1.274353399130e-03
    79   -9.948728152560e-03
    80    2.847518176737e-16
    81   -5.387428328404e-02
    82   -7.417447457509e-02
    83   -3.713848337366e-03
    84    2.389404842045e-02
    85   -6.778450664075e-03
    86   -2.531177356526e-03
    87    2.331909955022e-15
Sym=X
Ene= 2.002726
Spin=Alpha
Occup=1
     1   -4.895051772621e-14
     2   -7.509222986808e-14
     3    3.299057608742e-13
     4   -6.881492495523e-14
     5    4.178882665449e-01
     6    2.690556763015e-13
     7    3.877871579044e-13
     8   -6.936799762811e-14
     9    4.852017665749e-01
    10    1.884562241857e-13
    11    1.906548531708e-13
    12   -1.083087363900e-13
    13    3.083465039673e-01
    14    2.738939280916e-13
    15   -1.592550403513e-13
    16   -1.556001252669e-14
    17   -6.583840147074e-03
    18    7.482743882273e-15
    19   -1.137623968254e-02
    20   -6.886273657943e-03
    21   -1.340024854481e-14
    22   -6.578543776525e-15
    23    1.539367261198e-15
    24   -1.031390656198e-14
    25   -4.076015604758e-14
    26   -4.988617709057e-14
    27   -2.124666181126e-02
    28    5.963743180590e-14
    29   -6.943670440414e-14
    30   -6.631093893416e-14
    31   -3.376946744492e-02
    32    1.878995568462e-15
    33    7.755630136918e-15
    34   -1.196725426955e-14
    35   -4.345738636335e-02
    36    2.308990567669e-12
    37   -2.049759222548e-13
    38   -1.243909981136e-12
    39   -2.105801504920e-02
    40    1.403742849851e-14
    41   -4.049788515973e-04
    42   -4.074031289014e-04
    43   -5.864951876667e-15
    44   -8.379916300732e-15
    45    1.426546677747e-13
    46    1.469510178525e-13
    47   -4.956152219735e-14
    48   -2.645269252294e-14
    49    8.766872076720e-03
    50   -1.463576905201e-13
    51   -1.109726564419e-13
    52   -6.193192985996e-14
    53    1.824633541047e-02
    54   -2.532352834957e-13
    55   -1.392806162342e-13
    56   -7.640716064130e-14
    57   -8.370285856115e-03
    58   -2.313085960401e-12
    59    6.681172923288e-13
    60    1.894244672657e-13
    61    2.756786085617e-02
    62    2.795443241686e-14
    63    2.596399204061e-02
    64    9.497579593287e-03
    65    2.028358517564e-14
    66   -3.882280431820e-14
    67   -2.244026278802e-14
    68   -2.188491405684e-14
    69    4.151336635604e-14
    70    2.964757182981e-13
    71    2.245683865217e-15
    72   -1.224894993740e-14
    73    2.154881748118e-04
    74   -2.842582929435e-14
    75   -5.112447026366e-14
    76    8.896932470509e-14
    77    8.475777093532e-13
    78   -1.757851391696e-14
    79    1.763347258693e-15
    80   -1.400698837358e-03
    81    5.814851718756e-14
    82    1.866586493636e-13
    83   -2.769947356396e-13
    84   -1.123271010320e-12
    85    4.363286713750e-15
    86    2.724682714898e-15
    87   -2.167117038376e-03
Sym=X
Ene= 2.002522
Spin=Alpha
Occup=1
     1   -4.275126086076e-03
     2   -6.255192719288e-03
     3   -2.144803027764e-01
     4    3.508975581172e-01
     5    2.506679852152e-13
     6    2.033443556930e-02
     7   -2.498806581221e-01
     8    4.073366466900e-01
     9    2.865598582884e-13
    10    6.198682359216e-03
    11   -1.583264995936e-01
    12    2.638882876642e-01
    13    2.032747341322e-13
    14    5.259097974593e-03
    15   -1.646350086698e-03
    16    2.365020434155e-03
    17   -2.291314141252e-14
    18   -7.981413467813e-04
    19   -6.998094093692e-15
    20   -3.631319111589e-15
    21    1.039779360029e-02
    22   -4.632790485677e-03
    23    1.665883347190e-02
    24    2.704991235306e-02
    25   -1.038501468015e-03
    26    1.105185769111e-02
    27   -2.063514289441e-14
    28   -6.677131992863e-02
    29    5.882901146711e-03
    30    7.182839030799e-03
    31   -2.722361886753e-14
    32   -7.849478804131e-02
    33    1.175935063311e-03
    34    2.866242803975e-02
    35   -5.310715909789e-14
    36   -1.967466401667e-01
    37   -3.135450969585e-02
    38    2.913089056973e-02
    39    9.620425415608e-15
    40    7.779642867158e-04
    41    1.471698671972e-16
    42   -1.860208179877e-15
    43   -2.481461301995e-03
    44   -8.048217846406e-03
    45   -8.733308212525e-03
    46   -1.399590166569e-02
    47    1.353016010388e-02
    48   -1.809319222458e-02
    49    2.141608267604e-15
    50    3.506373507320e-02
    51    3.220260350559e-02
    52   -2.699298214528e-02
    53    7.033182691307e-15
    54    2.872171925532e-02
    55   -1.087239998636e-02
    56   -2.235937613986e-02
    57   -8.415405041328e-15
    58    1.428879031435e-01
    59   -6.868436319228e-02
    60    6.149184147978e-02
    61    7.436502488950e-15
    62   -6.855071186012e-04
    63    1.235840314407e-14
    64    1.460062337950e-15
    65   -3.035879819653e-02
    66    1.791653538650e-02
    67    3.413397385924e-02
    68    5.933921211022e-02
    69    3.797785992333e-02
    70    5.139879593509e-02
    71    3.537539208663e-03
    72    3.383026939696e-03
    73    2.221982812217e-15
    74   -5.611148612621e-03
    75   -4.433620766175e-03
    76   -6.465234137195e-04
    77   -1.256576983858e-02
    78    2.512260893540e-03
    79    1.002053004110e-03
    80   -2.359345172448e-15
    81   -1.719018296348e-02
    82   -1.660630097385e-02
    83    1.590990959984e-02
    84    2.103003433033e-03
    85   -1.473371356296e-03
    86    4.903628589760e-04
    87   -8.213256844939e-16
Sym=X
Ene= 2.000355
Spin=Alpha
Occup=1
     1    8.821498622589e-03
     2    1.300026111710e-02
     3   -1.764126861890e-02
     4    1.073207792287e-02
     5   -2.866221980759e-14
     6   -4.399548341525e-02
     7   -1.754249178183e-02
     8    1.182424553359e-02
     9   -3.707942421020e-14
    10   -1.121127407609e-02
    11   -2.379153866724e-02
    12    1.037181636305e-02
    13   -1.853844093654e-15
    14    3.522454638052e-02
    15   -2.543824912865e-02
    16    1.509353484279e-02
    17    3.304473728517e-14
    18    4.404367525540e-04
    19    7.961684567659e-15
    20    3.324493011995e-15
    21   -5.426371273601e-03
    22    1.954968402421e-03
    23   -1.384604602576e-02
    24   -2.524513153848e-02
    25   -1.661882661662e-01
    26    9.387638013517e-02
    27   -1.190401037139e-13
    28    6.645029831979e-02
    29   -2.520637110271e-01
    30    1.444518597581e-01
    31   -2.026949147459e-13
    32    1.385032889738e-01
    33   -1.034907212161e-01
    34    7.760041580166e-02
    35   -1.783930077348e-13
    36    3.131465162336e-02
    37    9.031365514025e-03
    38   -1.753248059449e-02
    39   -2.198148430072e-14
    40   -3.834170888885e-03
    41   -2.291884928388e-14
    42    1.187440848110e-14
    43   -2.323508359976e-02
    44    2.522377434213e-02
    45    4.140182309424e-02
    46    6.882717981538e-02
    47    1.101139308071e-01
    48   -1.099474553359e-01
    49   -1.348355420055e-13
    50   -1.882013239433e-01
    51    1.541336885611e-01
    52   -1.679551971707e-01
    53   -2.335782994360e-13
    54   -1.205954796386e-01
    55    6.739450314177e-02
    56   -1.069508962524e-01
    57   -1.881153153509e-13
    58   -4.429216332191e-02
    59    1.100641239402e-02
    60   -1.573974067407e-02
    61   -1.355577127626e-14
    62    2.505191623558e-03
    63    1.218648021790e-14
    64   -1.828673579099e-14
    65   -7.301438533484e-03
    66    6.075788957735e-03
    67    5.808369902871e-02
    68    9.517053069836e-02
    69    2.586166653591e-02
    70   -7.735274329566e-03
    71    3.710814655105e-03
    72    6.888254937360e-03
    73   -9.781077011637e-15
    74    1.041257829263e-01
    75    1.556988318378e-01
    76    4.103608286237e-02
    77    2.460218789985e-02
    78   -7.964907217513e-03
    79   -1.370384309909e-02
    80   -9.552024761370e-15
    81    8.855586386877e-02
    82    1.352186625470e-01
    83    2.867161156443e-02
    84   -3.127525023072e-03
    85    5.603022763025e-03
    86    1.461764159280e-02
    87   -9.367529175512e-15
Sym=X
Ene= 2.000146
Spin=Alpha
Occup=1
     1   -4.184434293312e-02
     2   -6.173162498303e-02
     3    6.025336777360e-03
     4    1.251786614550e-02
     5   -2.051431372150e-14
     6    2.108844861965e-01
     7    1.221951603679e-03
     8    1.176255356779e-02
     9   -2.152865796706e-14
    10    7.709635831946e-02
    11    1.495093014281e-02
    12    1.309202901390e-02
    13   -1.835921335915e-14
    14   -3.447005639536e-02
    15    1.739044837732e-02
    16    7.321549315937e-03
    17   -2.223218542417e-14
    18   -2.435701671148e-03
    19   -2.018248369570e-15
    20   -1.062845600152e-15
    21    2.843331799475e-03
    22    1.880286286185e-03
    23   -8.585923441219e-02
    24   -1.418866740583e-01
    25    3.354206957497e-02
    26   -2.171692491961e-03
    27    5.332159295085e-14
    28    3.561904624804e-01
    29    5.278915451644e-02
    30   -3.945752562372e-03
    31    9.141050277029e-14
    32    2.043034950595e-01
    33    1.044022904874e-02
    34    1.438277751283e-02
    35    7.936332974008e-14
    36   -1.409414084533e-02
    37    6.457776539374e-03
    38    1.648207170701e-02
    39    1.302433172526e-14
    40   -1.314624847480e-02
    41    1.132580135256e-14
    42   -5.048345483699e-15
    43    2.420974897273e-03
    44   -1.138344071968e-02
    45   -7.176116567721e-02
    46   -1.188088214991e-01
    47   -5.953107112944e-02
    48    9.528114586421e-03
    49    5.904248907139e-14
    50    3.097869296674e-01
    51   -7.874634615625e-02
    52    2.223705271182e-02
    53    1.037424686471e-13
    54    1.678152164727e-01
    55   -1.357864224332e-02
    56   -2.262622161996e-03
    57    8.998426027938e-14
    58    6.590497547922e-03
    59    2.954506239691e-03
    60   -1.074508201990e-02
    61    5.943617562225e-15
    62   -1.224415960404e-02
    63   -7.415563068442e-15
    64    7.492733164122e-15
    65    1.657556646624e-03
    66   -1.374820517273e-02
    67    5.064278865541e-02
    68    7.098019511401e-02
    69   -1.935986662390e-03
    70   -2.758761549440e-03
    71   -3.825053249937e-03
    72    1.185083282238e-02
    73    3.804485262761e-15
    74    7.367704554693e-02
    75    1.041156706967e-01
    76   -1.538626958153e-03
    77   -2.037925991362e-03
    78    2.759380729165e-03
    79   -1.696136170130e-02
    80    3.648477490103e-15
    81    5.084121942201e-02
    82    6.500718394258e-02
    83   -6.030808050733e-03
    84    2.192064853466e-02
    85    1.261473047920e-02
    86    7.423627084288e-03
    87    5.449309109971e-15
Sym=X
Ene= 2.000000
Spin=Alpha
Occup=1
     1    8.239546298074e-04
     2    1.232751407477e-03
     3   -2.105780323382e-03
     4   -3.949279751162e-03
     5   -3.778805699655e-15
     6   -4.565431830923e-03
     7   -2.432174891883e-03
     8   -4.692109787028e-03
     9   -2.750709317914e-15
    10   -3.196517820729e-03
    11   -9.609861966729e-04
    12   -2.103068100174e-03
    13   -2.458461522548e-15
    14   -1.003470802691e-03
    15   -3.434779691396e-05
    16    9.690951824649e-04
    17   -5.533765479648e-15
    18   -1.173868468068e-04
    19   -1.061310831025e-15
    20   -8.076980672594e-16
    21   -1.917723677125e-04
    22    3.782094033764e-04
    23    5.616586501224e-01
    24    4.669550308016e-01
    25   -5.602840146905e-04
    26   -4.514743589343e-03
    27    1.688605644971e-14
    28   -4.390413694186e-03
    29   -4.798062866925e-04
    30   -7.291809276580e-03
    31    2.647040604675e-14
    32   -6.868049898870e-03
    33   -7.190018672121e-04
    34   -3.566334895139e-03
    35    2.860860268782e-14
    36    4.897510678839e-03
    37    1.408485608622e-03
    38    6.436402544951e-04
    39   -2.560893957672e-15
    40   -1.561172037241e-04
    41    3.716695393308e-15
    42   -3.280325775085e-15
    43    4.582177306064e-04
    44   -5.066858758801e-04
    45   -6.031655041957e-02
    46   -5.266001253185e-02
    47    1.274092423348e-03
    48   -6.528454796273e-03
    49    1.803553143881e-14
    50    1.402464461937e-02
    51    4.107385192193e-03
    52   -9.755770677974e-03
    53    3.024578389654e-14
    54    9.902790291773e-03
    55    1.336113021605e-03
    56   -5.122578334189e-03
    57    2.084688815619e-14
    58   -2.708745706906e-03
    59    1.037565048986e-03
    60   -1.945883325072e-03
    61    6.634661540262e-15
    62   -3.411187228656e-04
    63   -1.387306656902e-15
    64    2.125136317863e-15
    65    1.159741182928e-04
    66    2.125811322156e-04
    67    7.451703821049e-03
    68    1.085604905893e-02
    69   -3.607689771929e-05
    70   -8.186557686015e-04
    71   -1.462690580958e-04
    72    1.446105773117e-03
    73    1.172429628074e-15
    74   -4.950988306482e-03
    75   -7.946427211033e-03
    76   -9.782252097019e-04
    77   -1.427520333399e-03
    78   -9.757292483420e-05
    79    9.304480694626e-04
    80    1.239762535897e-15
    81    8.211012099427e-04
    82    7.349756586856e-04
    83    1.050819119588e-03
    84    7.604700637021e-04
    85    6.423945964793e-05
    86   -1.730867051095e-04
    87   -2.329330518578e-16
Sym=X
Ene= 1.999999
Spin=Alpha
Occup=1
     1   -2.526648956225e-03
     2   -3.752646423922e-03
     3    3.319633636325e-03
     4   -4.372166339738e-04
     5   -7.750621843841e-14
     6    1.284216522963e-02
     7    3.126822178004e-03
     8   -9.809895025997e-04
     9   -9.170723124503e-14
    10    5.624128533625e-03
    11    2.388175750675e-03
    12   -8.638103766864e-05
    13   -5.139879493311e-14
    14   -2.379509302319e-03
    15    7.177966472068e-04
    16    1.023492996432e-03
    17    5.884236572561e-15
    18   -1.965801548585e-04
    19    3.616414358980e-15
    20    1.797032671467e-15
    21   -2.254963357838e-05
    22    3.908106400311e-04
    23    5.848447654849e-02
    24    5.017709346460e-02
    25    2.041767920009e-03
    26    2.460394633801e-03
    27   -3.750144803566e-14
    28   -8.478595689373e-03
    29    2.285156382535e-03
    30    4.453225156804e-03
    31   -6.182823212064e-14
    32   -5.891790713078e-03
    33    2.187106597261e-03
    34    2.759012191775e-03
    35   -5.563733496508e-14
    36    2.474458391715e-03
    37    3.477959694806e-04
    38   -2.858755307475e-04
    39   -7.323356410724e-16
    40    4.747230772421e-04
    41   -8.089095008142e-15
    42    5.279585691854e-15
    43   -5.491774162820e-04
    44   -2.725734588800e-04
    45    5.588947883202e-01
    46    4.616975042156e-01
    47    4.996600566564e-03
    48   -2.878391531664e-03
    49   -4.509954579793e-14
    50    9.593479566282e-03
    51    7.196183635901e-04
    52   -7.112524277141e-03
    53   -8.336063807246e-14
    54    5.843576263061e-03
    55    2.444365452572e-03
    56   -2.942806928538e-03
    57   -5.694486547169e-14
    58   -3.016956908426e-04
    59    6.049602226802e-04
    60   -6.075284632264e-04
    61   -8.541247790251e-15
    62   -6.596142970284e-04
    63   -1.625868892666e-15
    64   -6.640929304460e-15
    65   -5.825525368570e-04
    66   -1.091877359591e-03
    67    5.092790088136e-03
    68    6.907331324269e-03
    69    1.661153146455e-03
    70   -6.708648859791e-04
    71   -5.010414974808e-05
    72    6.378623784948e-04
    73   -2.866837445840e-15
    74    5.473531104235e-04
    75    1.087293132729e-03
    76    1.482311160372e-03
    77   -7.305953747704e-05
    78    1.298504632250e-04
    79    2.019807538564e-04
    80   -3.340248959918e-15
    81   -4.469457352348e-03
    82   -6.731525825387e-03
    83   -1.226204123083e-03
    84   -6.806834203615e-04
    85   -6.026711172222e-04
    86   -3.889032611688e-04
    87   -2.116282592353e-15
Sym=X
Ene= 1.999981
Spin=Alpha
Occup=1
     1    6.673557104280e-03
     2    1.009965143859e-02
     3   -2.241527009698e-02
     4   -6.354895130106e-02
     5    5.464010697296e-14
     6   -4.071016119612e-02
     7   -2.684651324488e-02
     8   -7.651377858007e-02
     9    5.571517112557e-14
    10   -3.890101922677e-02
    11   -7.795048060064e-03
    12   -3.283562318264e-02
    13    5.451189652102e-14
    14   -2.166651988124e-02
    15    5.401308739909e-04
    16    2.321128577062e-02
    17    5.497236880212e-14
    18   -2.326446244804e-03
    19    9.705746048402e-15
    20    5.076654776991e-15
    21   -4.191241397828e-03
    22    7.568886113470e-03
    23    9.650402469517e-03
    24    4.219771787119e-02
    25   -1.624765849533e-02
    26   -6.003298517394e-02
    27   -2.001347165378e-13
    28   -1.750597720397e-01
    29   -1.952717125493e-02
    30   -9.327985462360e-02
    31   -3.405840381553e-13
    32   -1.184186987243e-01
    33   -1.193936283559e-02
    34   -4.234942069923e-02
    35   -3.084921973850e-13
    36    9.639390803692e-02
    37    2.902179235875e-02
    38    8.338922597101e-03
    39   -3.345788742020e-14
    40    6.415234736822e-03
    41   -3.742783295300e-14
    42    2.135098851625e-14
    43    1.250876918839e-03
    44   -4.914787327374e-03
    45   -6.719925924099e-02
    46   -1.047309429315e-01
    47    4.473269485189e-02
    48   -1.388898504290e-01
    49   -2.229142351806e-13
    50    2.602101813037e-01
    51    8.342438142374e-02
    52   -2.083452117818e-01
    53   -3.816869938689e-13
    54    1.973003135260e-01
    55    3.468736544424e-02
    56   -1.095998746509e-01
    57   -3.119511675798e-13
    58   -6.533002862125e-02
    59    2.415699441660e-02
    60   -3.993449845314e-02
    61   -2.114275586490e-14
    62   -9.925884161853e-03
    63    2.622945457894e-14
    64   -2.703153158657e-14
    65   -1.457875459854e-03
    66    6.266401466425e-04
    67    1.548045723770e-01
    68    2.260381002027e-01
    69    7.532789250312e-03
    70   -1.602115698690e-02
    71   -2.088833500177e-03
    72    2.879203362104e-02
    73   -1.661782154656e-14
    74   -8.010610710743e-02
    75   -1.156439252853e-01
    76   -1.239743314673e-02
    77   -1.821898759322e-02
    78   -2.083356716465e-03
    79    1.513295930637e-02
    80   -1.537724818531e-14
    81   -3.662228687678e-03
    82   -1.253737796211e-03
    83    1.001590912491e-02
    84    1.569143799121e-02
    85   -5.044345219068e-04
    86   -2.603265639920e-03
    87   -1.528317273412e-14
Sym=X
Ene= 1.999769
Spin=Alpha
Occup=1
     1   -6.656790444834e-02
     2   -9.859218191121e-02
     3    1.771515581574e-01
     4    5.719160967098e-02
     5   -5.764524378888e-14
     6    3.440959346814e-01
     7    2.023522769388e-01
     8    6.350471846569e-02
     9   -6.998106607095e-14
    10    1.631193488793e-01
    11    1.164903710093e-01
    12    3.534872019042e-02
    13   -2.291805713887e-14
    14   -7.187535297141e-03
    15    6.459065275816e-03
    16    1.064649740104e-02
    17    3.204200647446e-14
    18    1.902952227689e-03
    19    9.414912975995e-15
    20    4.672288037954e-15
    21   -5.202804604384e-03
    22   -3.009614482870e-03
    23    3.275719955925e-02
    24    5.254840076144e-02
    25    6.148028222055e-02
    26    1.201650830323e-01
    27   -1.351919788945e-13
    28   -1.305725987837e-01
    29    8.920067329032e-02
    30    1.869367063341e-01
    31   -2.443215446637e-13
    32   -6.692697364492e-02
    33    7.298863696980e-02
    34    1.193346907065e-01
    35   -1.788091958402e-13
    36    2.507231931297e-02
    37   -1.130160733673e-03
    38   -1.600785073579e-02
    39   -2.401854358439e-14
    40    4.226558522551e-03
    41   -2.479917607700e-14
    42    1.478074523619e-14
    43   -2.048353001348e-02
    44   -8.920180820695e-03
    45   -1.499611756978e-02
    46   -9.806233821216e-03
    47    1.660502621373e-02
    48   -5.227344133437e-02
    49   -1.534333926464e-13
    50   -1.567299164299e-02
    51    1.523882180099e-02
    52   -8.739799611606e-02
    53   -2.660964756185e-13
    54    3.070449952832e-02
    55    1.837077149064e-02
    56   -4.793196445211e-02
    57   -2.054642540727e-13
    58   -2.151471219483e-02
    59    1.362438557700e-02
    60    6.430134599264e-04
    61   -2.074828498144e-14
    62    1.633770130812e-03
    63    1.186850604530e-14
    64   -2.288222626259e-14
    65   -2.542961952997e-02
    66   -2.125719274912e-02
    67    4.971857657909e-02
    68    7.653302487995e-02
    69    3.459499157945e-02
    70    1.327101176645e-03
    71   -1.116237554635e-03
    72    1.127999253014e-03
    73   -9.513847649283e-15
    74    7.519421858836e-02
    75    1.195094641071e-01
    76    5.054542994096e-02
    77    1.885968798319e-02
    78    4.413286105933e-03
    79   -5.571680747423e-03
    80   -1.177389427291e-14
    81   -1.280741843307e-01
    82   -1.982405330039e-01
    83   -4.453480602739e-02
    84   -2.185434819521e-02
    85   -1.933399140086e-02
    86   -6.856034632916e-03
    87   -1.384651813883e-14
Sym=X
Ene= 1.999132
Spin=Alpha
Occup=1
     1   -6.811718139396e-13
     2   -1.006344430315e-12
     3   -1.086888752755e-13
     4    6.943231943108e-14
     5    1.608820840593e-02
     6    3.561349053126e-12
     7   -1.642066704039e-13
     8    6.531204033444e-14
     9    1.502267737410e-02
    10    1.610615161848e-12
    11   -5.251613024233e-14
    12    4.955101038026e-14
    13    2.592728346790e-02
    14    2.042882026047e-13
    15   -1.151492702376e-13
    16   -9.784789397486e-14
    17    4.666215455203e-02
    18   -4.566627410199e-15
    19    8.866064881172e-03
    20    4.307511297727e-03
    21    1.831696099748e-14
    22   -1.895649391878e-15
    23    5.699855560194e-14
    24    3.151070888114e-14
    25   -3.172129820228e-13
    26   -5.602837681884e-13
    27   -1.637361513261e-01
    28    1.033815248741e-13
    29   -4.594570352051e-13
    30   -8.763744920886e-13
    31   -2.777771719515e-01
    32    5.721371405916e-14
    33   -3.184338670488e-13
    34   -6.520464775404e-13
    35   -2.494043501957e-01
    36    6.720909925629e-14
    37   -4.548165148825e-13
    38   -6.709188936032e-13
    39   -2.445250364163e-02
    40    1.073517694565e-15
    41   -3.017582884857e-02
    42    1.672022312453e-02
    43    1.016109332397e-13
    44    5.947790580075e-14
    45    2.235759535401e-14
    46    1.480875082058e-13
    47   -2.260460272661e-14
    48    3.895438589215e-13
    49   -1.816399806348e-01
    50   -7.080960258556e-13
    51   -1.403979831540e-14
    52    6.105473240553e-13
    53   -3.128082580704e-01
    54   -8.790444531138e-13
    55   -1.409475503225e-13
    56    3.201527159320e-13
    57   -2.526869836101e-01
    58   -1.692878666880e-13
    59    7.043270200046e-14
    60    4.408530233227e-13
    61   -2.201162457567e-02
    62   -1.021938308825e-15
    63    2.109266745368e-02
    64   -2.262827327449e-02
    65    1.602952444141e-13
    66    1.788063542468e-13
    67   -4.908748614737e-13
    68   -7.262498538214e-13
    69   -9.439557419642e-14
    70    2.860169933487e-13
    71    5.421873268787e-15
    72   -5.363211952478e-14
    73   -1.346126606874e-02
    74   -4.615376433370e-13
    75   -7.076838672132e-13
    76   -8.972294591495e-14
    77    4.756442224305e-13
    78   -2.483689126909e-14
    79    4.537238922080e-14
    80   -1.304524616811e-02
    81    5.159585808483e-13
    82    8.280325127120e-13
    83    3.519849439101e-14
    84   -6.934117681497e-13
    85    6.913368560520e-14
    86    1.867663075424e-14
    87   -1.321580519047e-02
Sym=X
Ene= 1.998929
Spin=Alpha
Occup=1
     1    1.224121831356e-01
     2    1.812442116838e-01
     3    4.380522481759e-03
     4   -7.412217690268e-03
     5    2.814483953178e-13
     6   -6.398527597303e-01
     7    1.173271697578e-02
     8   -4.915415828841e-03
     9    3.082132455983e-13
    10   -2.868126411408e-01
    11   -2.624460362110e-04
    12   -7.781459869983e-03
    13    2.898387121458e-13
    14   -3.317003659446e-02
    15    1.870035124177e-02
    16    1.047807294545e-02
    17    2.525009420722e-13
    18    9.412001098986e-04
    19    4.630653501167e-14
    20    2.191539213326e-14
    21   -8.281792121018e-04
    22   -1.156227832651e-03
    23   -1.295675500444e-02
    24   -2.119018236120e-02