[Molden Format]
[Atoms] (Angs)
  F      1    9      1.15290231      0.22477664     -0.00000000
  C      2    6     -1.17935012      0.19972949     -0.00000000
  C      3    6     -0.01631886     -0.43556811      0.00000000
  H      4    1      0.11895302     -1.50789969      0.00000000
  H      5    1     -1.23082549      1.27856114     -0.00000000
  H      6    1     -2.09023450     -0.37861944      0.00000000
[GTO]
1    0
S    6    1.000000
   1.14271000E+04    1.80093000E-03 
   1.72235000E+03    1.37419000E-02 
   3.95746000E+02    6.81334000E-02 
   1.15139000E+02    2.33325000E-01 
   3.36026000E+01    5.89086000E-01 
   4.91901000E+00    2.99505000E-01 
SP   3    1.000000
   5.54441000E+01    1.14536000E-01   3.54609000E-02 
   1.26323000E+01    9.20512000E-01   2.37451000E-01 
   3.71756000E+00   -3.37804000E-03   8.20458000E-01 
SP   1    1.000000
   1.16545000E+00    1.00000000E+00   1.00000000E+00 
SP   1    1.000000
   3.21892000E-01    1.00000000E+00   1.00000000E+00 
SP   1    1.000000
   1.07600000E-01    1.00000000E+00   1.00000000E+00 
D    1    1.000000
   1.75000000E+00    1.00000000E+00 

2    0
S    6    1.000000
   4.56324000E+03    1.96665000E-03 
   6.82024000E+02    1.52306000E-02 
   1.54973000E+02    7.61269000E-02 
   4.44553000E+01    2.60801000E-01 
   1.30290000E+01    6.16462000E-01 
   1.82773000E+00    2.21006000E-01 
SP   3    1.000000
   2.09642000E+01    1.14660000E-01   4.02487000E-02 
   4.80331000E+00    9.19999000E-01   2.37594000E-01 
   1.45933000E+00   -3.03068000E-03   8.15854000E-01 
SP   1    1.000000
   4.83456000E-01    1.00000000E+00   1.00000000E+00 
SP   1    1.000000
   1.45585000E-01    1.00000000E+00   1.00000000E+00 
SP   1    1.000000
   4.38000000E-02    1.00000000E+00   1.00000000E+00 
D    1    1.000000
   6.26000000E-01    1.00000000E+00 

3    0
S    6    1.000000
   4.56324000E+03    1.96665000E-03 
   6.82024000E+02    1.52306000E-02 
   1.54973000E+02    7.61269000E-02 
   4.44553000E+01    2.60801000E-01 
   1.30290000E+01    6.16462000E-01 
   1.82773000E+00    2.21006000E-01 
SP   3    1.000000
   2.09642000E+01    1.14660000E-01   4.02487000E-02 
   4.80331000E+00    9.19999000E-01   2.37594000E-01 
   1.45933000E+00   -3.03068000E-03   8.15854000E-01 
SP   1    1.000000
   4.83456000E-01    1.00000000E+00   1.00000000E+00 
SP   1    1.000000
   1.45585000E-01    1.00000000E+00   1.00000000E+00 
SP   1    1.000000
   4.38000000E-02    1.00000000E+00   1.00000000E+00 
D    1    1.000000
   6.26000000E-01    1.00000000E+00 

4    0
S    3    1.000000
   3.38650000E+01    2.54938000E-02 
   5.09479000E+00    1.90373000E-01 
   1.15879000E+00    8.52161000E-01 
S    1    1.000000
   3.25840000E-01    1.00000000E+00 
S    1    1.000000
   1.02741000E-01    1.00000000E+00 
S    1    1.000000
   3.60000000E-02    1.00000000E+00 
P    1    1.000000
   7.50000000E-01    1.00000000E+00 

5    0
S    3    1.000000
   3.38650000E+01    2.54938000E-02 
   5.09479000E+00    1.90373000E-01 
   1.15879000E+00    8.52161000E-01 
S    1    1.000000
   3.25840000E-01    1.00000000E+00 
S    1    1.000000
   1.02741000E-01    1.00000000E+00 
S    1    1.000000
   3.60000000E-02    1.00000000E+00 
P    1    1.000000
   7.50000000E-01    1.00000000E+00 

6    0
S    3    1.000000
   3.38650000E+01    2.54938000E-02 
   5.09479000E+00    1.90373000E-01 
   1.15879000E+00    8.52161000E-01 
S    1    1.000000
   3.25840000E-01    1.00000000E+00 
S    1    1.000000
   1.02741000E-01    1.00000000E+00 
S    1    1.000000
   3.60000000E-02    1.00000000E+00 
P    1    1.000000
   7.50000000E-01    1.00000000E+00 

[MO]
Sym=X
Ene= 2.005610
Spin=Alpha
Occup=1
     1    2.571910431388e-02
     2    3.769799498192e-02
     3    2.580619306572e-01
     4    1.785588700256e-01
     5   -3.722873347485e-13
     6   -1.256672026037e-01
     7    3.062750337764e-01
     8    2.110999145585e-01
     9   -4.384613099602e-13
    10   -2.291501494047e-03
    11    1.472805212842e-01
    12    1.089143618853e-01
    13   -2.637311569495e-13
    14    3.186076833189e-02
    15   -6.255239312622e-03
    16   -1.902692315488e-03
    17   -3.404583813171e-14
    18    9.115711372813e-03
    19    9.966646841637e-15
    20    5.755484687818e-15
    21   -7.563227177167e-03
    22   -1.353485030774e-02
    23   -1.621724744936e-02
    24   -2.622306909936e-02
    25   -2.684652901281e-02
    26   -8.273574449310e-02
    27    1.989436618823e-14
    28    6.236711391182e-02
    29   -5.954364635345e-02
    30   -1.178258101782e-01
    31    2.456373810657e-14
    32    4.396108371428e-02
    33   -2.984102735850e-02
    34   -8.701091507469e-02
    35    9.045363239423e-14
    36   -3.849703949353e-02
    37   -2.876973417111e-02
    38   -3.572202184257e-02
    39   -2.582508648236e-14
    40   -2.429719963363e-03
    41    2.610260623640e-15
    42    2.297436205798e-16
    43   -4.680676984423e-03
    44    4.523458039393e-03
    45    2.210142496739e-02
    46    3.369627889603e-02
    47   -8.776836063251e-02
    48   -5.198658116482e-02
    49   -1.569655453150e-15
    50   -7.239372723835e-02
    51   -1.701420781411e-01
    52   -9.638418362994e-02
    53   -1.552470382279e-14
    54   -3.090357586748e-02
    55   -2.451218845804e-02
    56   -1.851977237576e-02
    57    1.692027251423e-14
    58   -7.298277797903e-03
    59    5.476252637756e-04
    60    4.258326683988e-02
    61    1.926338189870e-14
    62    1.521312936570e-02
    63   -2.408610839463e-14
    64   -1.042901256804e-14
    65   -1.616297140739e-02
    66   -3.993300207296e-02
    67    1.662319462917e-02
    68    1.791984920960e-02
    69    2.506937715349e-02
    70    3.435193028683e-02
    71   -3.878531683477e-03
    72   -3.491389567703e-03
    73    1.862181106105e-15
    74   -4.994473878036e-02
    75   -8.180149928763e-02
    76    2.484026469428e-03
    77    2.228873963490e-02
    78   -2.563319467887e-03
    79    1.014917427028e-02
    80   -3.906364071542e-16
    81    6.663019904342e-02
    82    9.209805835232e-02
    83    4.878944399711e-03
    84   -2.346163629229e-02
    85    8.692528950429e-03
    86    2.940549256208e-03
    87   -1.983024945369e-15
Sym=X
Ene= 2.003551
Spin=Alpha
Occup=1
     1   -2.702591718168e-14
     2   -4.287101334601e-14
     3    2.684926193758e-13
     4    1.336360310074e-13
     5    4.137530402800e-01
     6    1.565169028308e-13
     7    3.184941277337e-13
     8    1.668855218019e-13
     9    4.817758705129e-01
    10    1.448469507331e-13
    11    1.393526545332e-13
    12    4.145552084953e-14
    13    3.060713292069e-01
    14    2.771394710775e-13
    15   -1.515580837907e-13
    16   -1.319842034950e-14
    17    1.416712485056e-02
    18    9.171775443585e-15
    19   -1.072939366436e-02
    20   -6.591661183872e-03
    21   -9.326844197733e-15
    22   -1.139297994731e-14
    23   -8.236255949891e-15
    24   -1.623844078772e-14
    25   -4.482577748535e-14
    26   -7.264343426045e-14
    27   -1.306612859661e-02
    28    4.811212118356e-14
    29   -7.679075602941e-14
    30   -1.031310494410e-13
    31   -2.012633184506e-02
    32   -2.316336293665e-14
    33   -1.001171705567e-15
    34   -3.163879703787e-14
    35   -2.850152167188e-02
    36    2.297108316498e-12
    37   -2.189107478222e-13
    38   -1.262472417853e-12
    39   -1.047103829381e-02
    40    1.354579699624e-14
    41    1.074766214088e-03
    42   -9.226353290634e-04
    43   -7.019532426591e-15
    44   -1.101473671985e-14
    45    1.002667301788e-13
    46    1.096428291605e-13
    47   -6.761991371208e-14
    48   -4.270780860471e-14
    49    1.709277996454e-02
    50   -1.321053903746e-13
    51   -1.401015739355e-13
    52   -8.860588444653e-14
    53    3.213331747319e-02
    54   -2.258727362351e-13
    55   -1.446454961838e-13
    56   -8.228895079802e-14
    57   -3.043700637848e-03
    58   -2.337040920956e-12
    59    6.550717197594e-13
    60    2.173439095571e-13
    61    9.100268667441e-03
    62    2.975602593299e-14
    63    2.412497587928e-02
    64    1.027173473374e-02
    65    2.566920444302e-15
    66   -3.889764388832e-14
    67   -4.191100595634e-15
    68    4.840792090821e-15
    69    6.771198755002e-14
    70    3.280025834452e-13
    71    2.945653682836e-15
    72   -1.128288425409e-14
    73    7.270188171537e-04
    74   -4.876933321135e-14
    75   -8.133174979412e-14
    76    9.369545961118e-14
    77    8.632851439149e-13
    78   -1.692190416913e-14
    79    5.573954829276e-15
    80   -6.267607041778e-04
    81    6.850726533236e-14
    82    2.023603121326e-13
    83   -2.785841215295e-13
    84   -1.145979728882e-12
    85    7.253939998695e-15
    86    3.318547677733e-15
    87   -1.612513428982e-03
Sym=X
Ene= 2.002042
Spin=Alpha
Occup=1
     1   -3.402859848209e-03
     2   -4.965885782942e-03
     3   -2.065229264046e-01
     4    3.502767954110e-01
     5    4.803672327847e-14
     6    1.551887622783e-02
     7   -2.404174061353e-01
     8    4.061282192644e-01
     9    5.076374870719e-14
    10    3.569249098264e-03
    11   -1.527652714522e-01
    12    2.634845500221e-01
    13    5.430443038230e-14
    14    4.637977516276e-03
    15   -2.575668812644e-03
    16    5.125653447873e-03
    17   -1.355853420862e-14
    18   -6.334710778469e-04
    19   -9.325935900796e-16
    20   -1.350732344374e-16
    21    9.155291499490e-03
    22   -3.918916605590e-03
    23    2.163301804952e-02
    24    3.515526021200e-02
    25    1.055489417484e-03
    26    6.320445447201e-03
    27   -1.457979088761e-14
    28   -8.711883813073e-02
    29    8.994552482654e-03
    30    3.166935963919e-04
    31   -1.823460437786e-14
    32   -8.660277631257e-02
    33    3.358840734904e-03
    34    2.501391212601e-02
    35   -3.795416708748e-14
    36   -1.376065966406e-01
    37   -2.148610261894e-02
    38    2.588948201945e-02
    39    2.231126931595e-14
    40    1.515076978089e-03
    41   -4.969798732483e-16
    42   -1.117622617778e-15
    43   -2.418067517057e-03
    44   -8.721392673413e-03
    45   -1.200206060469e-02
    46   -1.979073060778e-02
    47    1.468878329374e-02
    48   -2.932477567330e-02
    49   -7.353653529864e-15
    50    5.190304904929e-02
    51    3.449429314482e-02
    52   -4.496234149667e-02
    53   -1.070583324488e-14
    54    4.427817472324e-02
    55   -5.452979791330e-03
    56   -3.410396192811e-02
    57   -1.380853786106e-14
    58    9.538964216184e-02
    59   -4.677639804700e-02
    60    3.906742976126e-02
    61   -1.142405817206e-14
    62   -9.332429707784e-04
    63   -1.620951816083e-16
    64   -4.003618262936e-15
    65   -3.038076986000e-02
    66    1.593469531497e-02
    67    4.568746464725e-02
    68    7.469561555115e-02
    69    3.482202739945e-02
    70    3.504136365956e-02
    71    3.139644729768e-03
    72    5.245334196481e-03
    73    1.920334606668e-15
    74   -1.319602716320e-02
    75   -1.529799949577e-02
    76   -2.359701550322e-03
    77   -6.582013637116e-03
    78    2.340216487947e-03
    79    2.653471273344e-03
    80   -2.000296879850e-15
    81   -2.117389025223e-02
    82   -2.269741372815e-02
    83    1.402730206889e-02
    84    4.984836829292e-03
    85   -2.214156536183e-03
    86   -4.888722823974e-05
    87   -2.672116169523e-16
Sym=X
Ene= 2.000284
Spin=Alpha
Occup=1
     1    4.421852121589e-02
     2    6.526653875120e-02
     3   -1.864149362033e-02
     4    2.534516403511e-02
     5   -7.023099126795e-16
     6   -2.209323802469e-01
     7   -1.486883774489e-02
     8    3.290717626934e-02
     9   -1.214740975757e-15
    10   -7.322145159853e-02
    11   -2.981637914701e-02
    12    1.078253631153e-02
    13    4.497888549590e-15
    14    5.390742509044e-02
    15   -2.516749742727e-02
    16   -9.825520404173e-03
    17    9.223228794586e-15
    18    2.857926717982e-03
    19    1.226994622876e-15
    20    2.594020571534e-16
    21   -2.329711199807e-03
    22   -4.014559000556e-03
    23    4.512516494407e-02
    24    7.327708667075e-02
    25   -8.345613931456e-02
    26    6.279574291222e-02
    27   -1.973176782770e-14
    28   -1.803189217404e-01
    29   -1.302649073275e-01
    30    9.752068728891e-02
    31   -3.275915499793e-14
    32   -5.006086556174e-02
    33   -3.812460631166e-02
    34    3.558068427207e-02
    35   -2.646264821104e-14
    36   -2.807685698478e-02
    37   -1.610682347937e-02
    38   -2.017578040417e-02
    39   -9.400135286172e-15
    40    6.354491582587e-03
    41   -5.192259375186e-15
    42    9.369418864909e-16
    43   -1.158476076441e-02
    44    2.116104279722e-02
    45    9.540196178432e-02
    46    1.606113669824e-01
    47    7.119679083885e-02
    48    8.965430770285e-03
    49   -2.203452605595e-14
    50   -4.299494716149e-01
    51    8.652938604561e-02
    52    5.828316506287e-03
    53   -4.113681671681e-14
    54   -2.766340422867e-01
    55    2.224705885067e-02
    56    2.920774201833e-03
    57   -3.820681354442e-14
    58    1.566369262076e-02
    59   -1.244909019857e-02
    60    1.999278526593e-02
    61    1.123784666677e-15
    62    1.461449680149e-02
    63    2.266582322145e-15
    64   -3.510108828604e-15
    65   -3.712258781554e-03
    66    1.333944322976e-02
    67   -8.335645806644e-02
    68   -1.142965198535e-01
    69    8.084350186536e-03
    70    6.579418689274e-03
    71    5.453991009524e-03
    72   -1.895522004121e-02
    73   -9.582310842512e-16
    74    1.540325221261e-02
    75    2.526975509135e-02
    76    2.034795504898e-02
    77    1.799695802052e-02
    78   -4.070806486855e-03
    79    1.765087891733e-03
    80   -1.251949186418e-15
    81   -4.070129929512e-03
    82    2.407038597592e-03
    83    1.274359793788e-02
    84   -2.500751684149e-02
    85   -7.483535028126e-03
    86    9.332137871271e-04
    87   -2.432368716794e-15
Sym=X
Ene= 2.000121
Spin=Alpha
Occup=1
     1   -5.589484875695e-03
     2   -8.385873381191e-03
     3    1.659472363038e-02
     4    3.896701523337e-02
     5   -5.929455820513e-14
     6    3.163086744304e-02
     7    1.785651228278e-02
     8    4.792971608802e-02
     9   -5.860188273896e-14
    10    2.151094392106e-02
    11    1.510401413391e-02
    12    1.884732152545e-02
    13   -7.182242375887e-14
    14   -1.334224932283e-02
    15    1.920608387142e-02
    16   -2.788103267156e-02
    17   -8.342071138803e-14
    18    1.249654787348e-03
    19   -1.601428141584e-14
    20   -7.697057274461e-15
    21    7.348454763716e-03
    22   -6.475734632678e-03
    23   -1.526098677808e-02
    24   -1.609618823726e-02
    25    1.365152114525e-01
    26   -4.667949433744e-02
    27    2.802304280468e-13
    28    2.051258958495e-02
    29    2.037751089877e-01
    30   -7.164219846751e-02
    31    4.792249779457e-13
    32   -7.778943717806e-02
    33    7.347994245694e-02
    34   -4.027406905578e-02
    35    4.137528088585e-13
    36   -8.502564535767e-02
    37   -2.423808100049e-02
    38    8.372545408956e-03
    39    5.287526920106e-14
    40   -1.877738540939e-04
    41    5.525566511360e-14
    42   -2.942003502023e-14
    43    1.911953023585e-02
    44   -1.709763827121e-02
    45    1.942996244168e-03
    46    6.934991621795e-03
    47   -1.122130387298e-01
    48    1.707616527202e-01
    49    3.223687386053e-13
    50   -2.315757950132e-02
    51   -1.702306743934e-01
    52    2.596547982263e-01
    53    5.551486691443e-13
    54   -1.615416614417e-02
    55   -8.489717428040e-02
    56    1.609576685053e-01
    57    4.681467057627e-13
    58    7.290139711136e-02
    59   -2.424930008914e-02
    60    3.924772941564e-02
    61    2.723532871151e-14
    62    5.020341687174e-03
    63   -3.242867795165e-14
    64    4.170059598966e-14
    65    5.438183336594e-03
    66   -1.668103647732e-03
    67   -1.423709175473e-01
    68   -2.135067641839e-01
    69   -2.072993524869e-02
    70    1.728775955299e-02
    71   -1.192298804833e-03
    72   -2.326949029444e-02
    73    2.256307110761e-14
    74   -4.756233965403e-02
    75   -7.249076560032e-02
    76   -2.666526534633e-02
    77   -1.000645517873e-02
    78    6.619145031017e-03
    79    4.173339344792e-03
    80    2.147248419123e-14
    81   -6.670233249739e-02
    82   -1.030498932172e-01
    83   -2.587316312569e-02
    84   -5.852157286245e-03
    85   -4.594814970989e-03
    86   -1.012834090569e-02
    87    2.151591845537e-14
Sym=X
Ene= 2.000002
Spin=Alpha
Occup=1
     1    1.495322231387e-02
     2    2.217838223290e-02
     3    2.040035855947e-02
     4   -5.107338879449e-02
     5    3.370877007746e-14
     6   -7.862036438350e-02
     7    2.428999228450e-02
     8   -5.961254387930e-02
     9    3.263016891250e-14
    10   -4.006283335346e-02
    11    1.679668670595e-02
    12   -3.420056568599e-02
    13    3.113335644471e-14
    14   -1.067158808571e-02
    15    3.057154975672e-03
    16    4.259254586158e-03
    17    3.878784400815e-14
    18   -1.216292481998e-04
    19    6.793101457940e-15
    20    3.818634531350e-15
    21   -2.485449979498e-03
    22    2.252980928740e-03
    23   -2.447907035797e-01
    24   -1.501130079597e-01
    25    3.722837483056e-02
    26   -4.894144677617e-02
    27   -1.306807085746e-13
    28   -2.680263052791e-01
    29    5.684552009843e-02
    30   -7.465747725049e-02
    31   -2.211980081971e-13
    32   -1.994985657048e-01
    33    2.041131305308e-02
    34   -4.032513473588e-02
    35   -1.984219599774e-13
    36    6.015220375362e-02
    37    1.326643734146e-02
    38   -1.598551897941e-03
    39   -1.721641134104e-14
    40    1.041794528304e-02
    41   -2.649017626830e-14
    42    1.555536019309e-14
    43    5.437980441811e-03
    44   -6.878101737190e-03
    45    2.167890125634e-01
    46    1.691682592728e-01
    47    1.318169363916e-02
    48   -4.220365288761e-02
    49   -1.496980032608e-13
    50    6.045118470686e-02
    51    2.187553374541e-02
    52   -6.750232697023e-02
    53   -2.589759085082e-13
    54    8.219951075888e-02
    55    1.655079804894e-03
    56   -2.037607893117e-02
    57   -2.149589789952e-13
    58   -3.732210132978e-02
    59    1.274790161234e-02
    60   -1.277101754634e-02
    61   -1.784931751562e-14
    62   -4.407910954687e-04
    63    1.418696294968e-14
    64   -1.873920398889e-14
    65   -2.169020088952e-04
    66    1.948900898504e-04
    67    4.112290550095e-02
    68    5.679717913171e-02
    69   -1.950411586059e-03
    70   -5.825546796282e-03
    71   -8.945682014893e-04
    72    7.179693778715e-03
    73   -1.010222986333e-14
    74   -9.647107471660e-02
    75   -1.374373291012e-01
    76   -1.261978388892e-02
    77   -1.436105436994e-02
    78   -2.364464919518e-04
    79    1.848809910816e-02
    80   -9.578051553062e-15
    81   -6.233974501467e-02
    82   -8.894183988893e-02
    83   -8.190622113105e-03
    84   -9.679904619502e-04
    85   -9.140158622805e-03
    86   -9.571527974723e-03
    87   -9.699353040450e-15
Sym=X
Ene= 1.999998
Spin=Alpha
Occup=1
     1   -2.266661302364e-03
     2   -3.349686709066e-03
     3   -5.284092905991e-03
     4    1.095338360744e-02
     5    2.288429902843e-14
     6    1.196810052674e-02
     7   -5.837854802359e-03
     8    1.295990018102e-02
     9    2.748915274195e-14
    10    6.076831665810e-03
    11   -4.331396116538e-03
    12    7.474177739258e-03
    13    1.252318279372e-14
    14    3.612383480110e-03
    15   -1.337805770151e-03
    16   -4.623752042576e-04
    17   -5.906747513386e-15
    18    1.034785981845e-04
    19   -1.901656438352e-15
    20   -6.962112896832e-16
    21    3.065107767942e-04
    22   -5.319255362190e-04
    23   -4.191534899032e-01
    24   -3.591581602622e-01
    25   -1.185249287532e-02
    26    1.095758538656e-02
    27    3.370858609556e-14
    28    5.715293621997e-02
    29   -1.701392942119e-02
    30    1.627742742514e-02
    31    5.702098384208e-14
    32    4.743509735563e-02
    33   -6.617702743602e-03
    34    8.990598712279e-03
    35    4.801418602336e-14
    36   -1.154723003011e-02
    37   -2.173661133151e-03
    38    2.739630354385e-04
    39    5.727601228887e-15
    40   -2.104060943977e-03
    41    6.739888949827e-15
    42   -3.433277824439e-15
    43   -1.579207163386e-03
    44    1.915486334845e-03
    45   -3.783850101389e-01
    46   -3.113141497478e-01
    47   -2.978561151272e-03
    48    4.851810580681e-03
    49    3.901608393250e-14
    50   -1.431335703461e-02
    51   -7.296333695185e-04
    52    9.877466061939e-03
    53    7.212792723162e-14
    54   -1.717941089433e-02
    55    4.716796124030e-04
    56    8.609169840650e-04
    57    5.668944869673e-14
    58    5.322094457464e-03
    59   -2.113913316138e-03
    60    1.773771492997e-03
    61    2.429005612549e-15
    62    1.394530075027e-04
    63   -1.658862516348e-15
    64    5.036867531444e-15
    65   -9.457225774348e-05
    66    3.861389919905e-04
    67   -6.218508087339e-03
    68   -7.895115092092e-03
    69    4.428150026777e-04
    70    1.206521232980e-03
    71    2.190764100541e-04
    72   -1.020864053357e-03
    73    2.531862200862e-15
    74    2.158831369269e-02
    75    3.137150673673e-02
    76    2.683761495059e-03
    77    3.599045911815e-03
    78   -1.481201515280e-04
    79   -4.208626802835e-03
    80    2.821432813964e-15
    81    1.593746413790e-02
    82    2.352320855061e-02
    83    2.337807045585e-03
    84    9.385159181256e-04
    85    2.290670069115e-03
    86    2.478958942123e-03
    87    3.239506939927e-15
Sym=X
Ene= 1.999996
Spin=Alpha
Occup=1
     1    1.525185689897e-02
     2    2.263622100787e-02
     3    1.768734024733e-02
     4   -4.610152852403e-02
     5    5.666080060597e-14
     6   -7.996435443153e-02
     7    2.169252065366e-02
     8   -5.343578092745e-02
     9    6.447572068028e-14
    10   -4.049046494345e-02
    11    1.480966976789e-02
    12   -3.091084100606e-02
    13    4.121826627777e-14
    14   -8.331818689812e-03
    15    2.519841017675e-03
    16    3.151499565111e-03
    17    1.461891584787e-14
    18    5.810126452789e-05
    19    9.275431264051e-16
    20    5.768831973287e-16
    21   -2.310548168180e-03
    22    1.703374513927e-03
    23    2.979070578855e-01
    24    2.934922406618e-01
    25    3.480013713770e-02
    26   -4.712255354924e-02
    27   -3.579855562028e-14
    28   -2.337195016230e-01
    29    5.355552089328e-02
    30   -7.266410294536e-02
    31   -6.485949700637e-14
    32   -1.791709877531e-01
    33    1.842990239425e-02
    34   -3.907052077621e-02
    35   -5.388683749123e-14
    36    5.353207256900e-02
    37    1.193643265647e-02
    38   -9.502324223962e-04
    39   -1.176938421319e-14
    40    8.616506181453e-03
    41   -6.667070586530e-15
    42    2.809631742483e-15
    43    5.574264807712e-03
    44   -6.760424485734e-03
    45   -3.579439703586e-01
    46   -3.062553905508e-01
    47    5.864510505794e-03
    48   -3.722836730843e-02
    49   -4.134566240552e-14
    50    5.348290307181e-02
    51    1.880551490570e-02
    52   -5.719565881534e-02
    53   -6.800385567258e-14
    54    7.456735647423e-02
    55   -1.027432114657e-03
    56   -1.694790798322e-02
    57   -6.708638219022e-14
    58   -3.381577017091e-02
    59    1.126489392902e-02
    60   -1.130069592912e-02
    61    2.420629801188e-16
    62    1.831857153745e-04
    63    7.839170590594e-15
    64   -4.714375677402e-15
    65   -3.026635896254e-05
    66    7.494432230624e-04
    67    3.529671608963e-02
    68    4.905541291148e-02
    69   -2.967336848128e-03
    70   -4.712533385031e-03
    71   -9.086442629789e-04
    72    6.351280225142e-03
    73   -3.016108277059e-15
    74   -8.853829706198e-02
    75   -1.270130099943e-01
    76   -1.241641667118e-02
    77   -1.353196019236e-02
    78   -2.009722756457e-04
    79    1.681489141128e-02
    80   -2.151151164370e-15
    81   -5.442302948240e-02
    82   -7.844572116102e-02
    83   -6.828865490756e-03
    84   -3.808114559667e-04
    85   -8.023606011534e-03
    86   -8.611514084059e-03
    87   -4.705239970297e-15
Sym=X
Ene= 1.999351
Spin=Alpha
Occup=1
     1    4.944165424088e-11
     2    7.332666644791e-11
     3   -7.874064746706e-11
     4   -3.084227831751e-11
     5   -3.812922502259e-02
     6   -2.571073805684e-10
     7   -8.917428279595e-11
     8   -3.419523482761e-11
     9   -3.978777883982e-02
    10   -1.221904873840e-10
    11   -5.183453025771e-11
    12   -1.942813151540e-11
    13   -4.115201049882e-02
    14   -4.643361952319e-12
    15    1.525010053102e-12
    16   -1.810740203344e-12
    17   -4.879975220642e-02
    18   -1.117365598659e-12
    19   -8.986124436324e-03
    20   -4.294577974518e-03
    21    1.906021083967e-12
    22    1.488202818279e-12
    23   -1.304595969156e-11
    24   -2.112221182063e-11
    25   -9.321809546164e-12
    26   -3.712989534716e-11
    27    1.615354963556e-01
    28    5.252679577392e-11
    29   -1.265080418134e-11
    30   -5.817074812062e-11
    31    2.741006463623e-01
    32    2.288628387379e-11
    33   -1.691631690792e-11
    34   -3.513169704920e-11
    35    2.410473018516e-01
    36   -8.555276973318e-12
    37    3.658565380833e-12
    38    1.151750643926e-11
    39    2.384482766128e-02
    40   -1.803183450736e-12
    41    3.107607111500e-02
    42   -1.678162958870e-02
    43    6.509113762462e-12
    44    4.585354425865e-13
    45   -5.514102556154e-12
    46   -1.287401198917e-11
    47   -1.006121606119e-11
    48    1.376611637599e-11
    49    1.836333893948e-01
    50    4.569813559301e-11
    51   -1.005598485311e-11
    52    2.440119292306e-11
    53    3.168420009768e-01
    54    2.197320493246e-11
    55   -5.030677510526e-12
    56    1.316579140236e-11
    57    2.649884328557e-01
    58    1.054305753964e-11
    59   -6.808349965293e-12
    60   -4.860160530263e-12
    61    2.141918859742e-02
    62   -1.119553005108e-12
    63   -1.976417758594e-02
    64    2.341771685908e-02
    65    6.456108081317e-12
    66    3.941785394094e-12
    67   -5.864014048083e-12
    68   -1.015867551465e-11
    69   -1.233184685266e-11
    70   -2.573907017626e-12
    71    5.287103924870e-14
    72    1.584292327362e-12
    73    1.295464567790e-02
    74   -2.066697475767e-11
    75   -3.221953318351e-11
    76   -1.605649842834e-11
    77   -1.078594836134e-11
    78   -1.106012999887e-12
    79    1.177448647534e-12
    80    1.245759868007e-02
    81    3.485267398780e-11
    82    5.251647214423e-11
    83    1.137134064359e-11
    84    1.157805955770e-11
    85    5.940900015828e-12
    86    1.601385937859e-12
    87    1.285807853810e-02
Sym=X
Ene= 1.999349
Spin=Alpha
Occup=1
     1   -1.091258542647e-01
     2   -1.618488078736e-01
     3    1.742642999620e-01
     4    6.803156114372e-02
     5   -1.734472355248e-11
     6    5.674698880039e-01
     7    1.973732383634e-01
     8    7.540878803813e-02
     9   -1.811301600548e-11
    10    2.696786945161e-01
    11    1.147004473836e-01
    12    4.287505526873e-02
    13   -1.867613911837e-11
    14    1.012453571855e-02
    15   -3.292857626457e-03
    16    4.138075691640e-03
    17   -2.206633371894e-11
    18    2.468467268980e-03
    19   -4.059522921771e-12
    20   -1.939980203979e-12
    21   -4.253659569098e-03
    22   -3.267029104561e-03
    23    2.882571241281e-02
    24    4.683201067312e-02
    25    2.033842943215e-02
    26    8.244886794216e-02
    27    7.303050945730e-11
    28   -1.169001263346e-01
    29    2.755612794542e-02
    30    1.291778813322e-01
    31    1.239073913234e-10
    32   -5.087692161160e-02
    33    3.726071084548e-02
    34    7.809500293953e-02
    35    1.090026185784e-10
    36    1.768475389656e-02
    37   -6.852693222143e-03
    38   -2.326210606309e-02
    39    1.078694069617e-11
    40    4.014006567419e-03
    41    1.404985449821e-11
    42   -7.586113276827e-12
    43   -1.449850671617e-02
    44   -9.807420097548e-04
    45    1.255764293222e-02
    46    2.871159394033e-02
    47    2.270326943833e-02
    48   -3.125798682334e-02
    49    8.301713562891e-11
    50   -1.007666664093e-01
    51    2.291269697636e-02
    52   -5.522448771400e-02
    53    1.432354649634e-10
    54   -4.794772225740e-02
    55    1.143415914329e-02
    56   -2.978698711657e-02
    57    1.198095593304e-10
    58   -2.189560782827e-02
    59    1.461018793255e-02
    60    9.665561779296e-03
    61    9.669783345232e-12
    62    2.454353877619e-03
    63   -8.942659338378e-12
    64    1.058144347729e-11
    65   -1.437097669754e-02
    66   -8.782095946716e-03
    67    1.370229097024e-02
    68    2.354270713002e-02
    69    2.729184819973e-02
    70    4.871730332739e-03
    71   -1.109640224835e-04
    72   -3.402030257475e-03
    73    5.858323880388e-12
    74    4.588173775232e-02
    75    7.154719207646e-02
    76    3.533088652746e-02
    77    2.214182621701e-02
    78    2.441325152519e-03
    79   -2.597616647562e-03
    80    5.630501241092e-12
    81   -7.721426499737e-02
    82   -1.163969511666e-01
    83   -2.465777246145e-02
    84   -2.319494533540e-02
    85   -1.317092101524e-02
    86   -3.533317904440e-03
    87    5.810215282540e-12
Sym=X
Ene= 1.998224
Spin=Alpha
Occup=1
     1    8.292917767449e-02
     2    1.228636447631e-01
     3    9.695708964701e-02
     4    2.855335252503e-02
     5    1.432074129467e-13
     6   -4.356951314183e-01
     7    1.163689070960e-01
     8    3.515710272685e-02
     9    1.648547591212e-13
    10   -1.905218654732e-01
    11    5.928630074188e-02
    12    1.392784221436e-02
    13    1.220488157792e-13
    14   -3.467487525042e-02
    15    2.103906302296e-02
    16    1.461576564388e-02
    17    3.055282205078e-14
    18    1.593635735235e-03
    19    5.598252252003e-15
    20    2.235598919565e-15
    21   -2.853923877515e-03
    22   -3.245958101180e-03
    23   -7.369017838085e-03
    24   -1.182198163654e-02