[Molden Format]
[Atoms] (Angs)
  F      1    9      1.15290231      0.22477664     -0.00000000
  C      2    6     -1.17935012      0.19972949     -0.00000000
  C      3    6     -0.01631886     -0.43556811      0.00000000
  H      4    1      0.11895302     -1.50789969      0.00000000
  H      5    1     -1.23082549      1.27856114     -0.00000000
  H      6    1     -2.09023450     -0.37861944      0.00000000
[GTO]
1    0
S    6    1.000000
   1.14271000E+04    1.80093000E-03 
   1.72235000E+03    1.37419000E-02 
   3.95746000E+02    6.81334000E-02 
   1.15139000E+02    2.33325000E-01 
   3.36026000E+01    5.89086000E-01 
   4.91901000E+00    2.99505000E-01 
SP   3    1.000000
   5.54441000E+01    1.14536000E-01   3.54609000E-02 
   1.26323000E+01    9.20512000E-01   2.37451000E-01 
   3.71756000E+00   -3.37804000E-03   8.20458000E-01 
SP   1    1.000000
   1.16545000E+00    1.00000000E+00   1.00000000E+00 
SP   1    1.000000
   3.21892000E-01    1.00000000E+00   1.00000000E+00 
SP   1    1.000000
   1.07600000E-01    1.00000000E+00   1.00000000E+00 
D    1    1.000000
   1.75000000E+00    1.00000000E+00 

2    0
S    6    1.000000
   4.56324000E+03    1.96665000E-03 
   6.82024000E+02    1.52306000E-02 
   1.54973000E+02    7.61269000E-02 
   4.44553000E+01    2.60801000E-01 
   1.30290000E+01    6.16462000E-01 
   1.82773000E+00    2.21006000E-01 
SP   3    1.000000
   2.09642000E+01    1.14660000E-01   4.02487000E-02 
   4.80331000E+00    9.19999000E-01   2.37594000E-01 
   1.45933000E+00   -3.03068000E-03   8.15854000E-01 
SP   1    1.000000
   4.83456000E-01    1.00000000E+00   1.00000000E+00 
SP   1    1.000000
   1.45585000E-01    1.00000000E+00   1.00000000E+00 
SP   1    1.000000
   4.38000000E-02    1.00000000E+00   1.00000000E+00 
D    1    1.000000
   6.26000000E-01    1.00000000E+00 

3    0
S    6    1.000000
   4.56324000E+03    1.96665000E-03 
   6.82024000E+02    1.52306000E-02 
   1.54973000E+02    7.61269000E-02 
   4.44553000E+01    2.60801000E-01 
   1.30290000E+01    6.16462000E-01 
   1.82773000E+00    2.21006000E-01 
SP   3    1.000000
   2.09642000E+01    1.14660000E-01   4.02487000E-02 
   4.80331000E+00    9.19999000E-01   2.37594000E-01 
   1.45933000E+00   -3.03068000E-03   8.15854000E-01 
SP   1    1.000000
   4.83456000E-01    1.00000000E+00   1.00000000E+00 
SP   1    1.000000
   1.45585000E-01    1.00000000E+00   1.00000000E+00 
SP   1    1.000000
   4.38000000E-02    1.00000000E+00   1.00000000E+00 
D    1    1.000000
   6.26000000E-01    1.00000000E+00 

4    0
S    3    1.000000
   3.38650000E+01    2.54938000E-02 
   5.09479000E+00    1.90373000E-01 
   1.15879000E+00    8.52161000E-01 
S    1    1.000000
   3.25840000E-01    1.00000000E+00 
S    1    1.000000
   1.02741000E-01    1.00000000E+00 
S    1    1.000000
   3.60000000E-02    1.00000000E+00 
P    1    1.000000
   7.50000000E-01    1.00000000E+00 

5    0
S    3    1.000000
   3.38650000E+01    2.54938000E-02 
   5.09479000E+00    1.90373000E-01 
   1.15879000E+00    8.52161000E-01 
S    1    1.000000
   3.25840000E-01    1.00000000E+00 
S    1    1.000000
   1.02741000E-01    1.00000000E+00 
S    1    1.000000
   3.60000000E-02    1.00000000E+00 
P    1    1.000000
   7.50000000E-01    1.00000000E+00 

6    0
S    3    1.000000
   3.38650000E+01    2.54938000E-02 
   5.09479000E+00    1.90373000E-01 
   1.15879000E+00    8.52161000E-01 
S    1    1.000000
   3.25840000E-01    1.00000000E+00 
S    1    1.000000
   1.02741000E-01    1.00000000E+00 
S    1    1.000000
   3.60000000E-02    1.00000000E+00 
P    1    1.000000
   7.50000000E-01    1.00000000E+00 

[MO]
Sym=X
Ene= 2.003905
Spin=Alpha
Occup=1
     1   -2.806690139010e-02
     2   -4.117454216350e-02
     3   -2.622898028803e-01
     4   -1.954561364763e-01
     5    4.482774467696e-13
     6    1.387644735188e-01
     7   -3.114720732204e-01
     8   -2.313414793955e-01
     9    5.297469089512e-13
    10    8.724938457940e-03
    11   -1.540448507971e-01
    12   -1.253300681142e-01
    13    3.284294130661e-13
    14   -2.845603325718e-02
    15    3.285067329082e-03
    16   -9.185069149167e-04
    17    3.950010359027e-14
    18   -8.737217149444e-03
    19   -1.088373658381e-14
    20   -6.747850741490e-15
    21    7.034515588637e-03
    22    1.303504376844e-02
    23    1.209827042679e-02
    24    1.867616808407e-02
    25    1.669768099921e-02
    26    6.763950779212e-02
    27   -1.097310236141e-14
    28   -4.010788333507e-02
    29    4.289733764426e-02
    30    9.434170745663e-02
    31   -6.061327622809e-15
    32   -2.713464401691e-02
    33    2.062141405113e-02
    34    6.948880568772e-02
    35   -8.001917003189e-14
    36    4.922860316124e-02
    37    2.857280738607e-02
    38    3.121386550386e-02
    39    9.276294082077e-15
    40    1.859148674312e-03
    41   -9.446973934109e-16
    42   -1.390720436716e-15
    43    6.933966640156e-03
    44   -2.117739980938e-03
    45   -2.200388117131e-02
    46   -3.096744103892e-02
    47    8.574532677841e-02
    48    6.057579806471e-02
    49    1.202148262402e-14
    50    5.741344434049e-02
    51    1.647801927784e-01
    52    1.085420920675e-01
    53    3.359711178039e-14
    54    8.291620945516e-03
    55    2.468095961777e-02
    56    2.712078397769e-02
    57   -1.562478382098e-14
    58   -3.100703194015e-03
    59    4.456349778224e-03
    60   -4.465353667157e-02
    61   -1.354816736413e-15
    62   -1.480719797284e-02
    63    2.649174766000e-14
    64    1.305561737665e-14
    65    2.104926218443e-02
    66    4.085630911101e-02
    67   -2.854522010301e-02
    68   -3.615887177935e-02
    69   -3.003386451098e-02
    70   -3.712813167584e-02
    71    3.836216579193e-03
    72    2.266360527522e-03
    73   -1.384136033385e-15
    74    4.501553929984e-02
    75    7.646487611686e-02
    76    1.656068307096e-03
    77   -1.966479697140e-02
    78    1.810882874489e-03
    79   -9.744894285405e-03
    80    9.434541668193e-16
    81   -5.071084333566e-02
    82   -7.126175291687e-02
    83   -7.369553683689e-03
    84    2.297823688235e-02
    85   -6.451810805172e-03
    86   -2.028630757562e-03
    87    2.685639605539e-15
Sym=X
Ene= 2.002123
Spin=Alpha
Occup=1
     1    3.522647525282e-14
     2    5.536325893196e-14
     3   -3.455750628540e-13
     4   -2.035020145779e-13
     5   -4.096877084496e-01
     6   -1.987716881707e-13
     7   -4.092572393515e-13
     8   -2.484042661795e-13
     9   -4.795892448210e-01
    10   -1.781620497174e-13
    11   -1.939867480371e-13
    12   -9.332637593515e-14
    13   -3.115736575733e-01
    14   -2.734906242849e-13
    15    1.456417258552e-13
    16    1.061706032695e-14
    17   -1.517107602472e-02
    18   -1.068793108178e-14
    19    9.452654095099e-03
    20    6.213882007676e-03
    21    1.027357641748e-14
    22    1.422661018326e-14
    23    3.662839130314e-15
    24    9.053418922538e-15
    25    2.716341007512e-14
    26    6.673454598176e-14
    27    1.023913502456e-02
    28   -2.889137878484e-14
    29    5.333722237559e-14
    30    9.052879006366e-14
    31    1.457273791990e-02
    32    3.828541706621e-14
    33   -1.150033329495e-14
    34    2.451759989905e-14
    35    2.520994315369e-02
    36   -2.256085530413e-12
    37    2.466217559256e-13
    38    1.294948721970e-12
    39    1.008540338397e-02
    40   -1.320365837682e-14
    41   -1.439719062314e-03
    42    1.190787014276e-03
    43    1.158060732930e-14
    44    1.393791568568e-14
    45   -1.467940321060e-13
    46   -1.470233575934e-13
    47    8.651038826833e-14
    48    6.267412837130e-14
    49   -1.969039174509e-02
    50    1.223950104356e-13
    51    1.754994459250e-13
    52    1.214610427702e-13
    53   -3.520955801273e-02
    54    2.000343584540e-13
    55    1.471841539211e-13
    56    9.324366693320e-14
    57    4.233836674942e-04
    58    2.322559788270e-12
    59   -6.432364621009e-13
    60   -2.605396942747e-13
    61   -9.351161682406e-03
    62   -3.153139514135e-14
    63   -2.304217355835e-02
    64   -9.802097586183e-03
    65    8.923816191070e-15
    66    4.950083421315e-14
    67   -1.442838064494e-14
    68   -2.807605272116e-14
    69   -8.845977235839e-14
    70   -3.638151695641e-13
    71   -1.405721698999e-15
    72    1.051845264379e-14
    73   -9.345309476023e-04
    74    4.945247819787e-14
    75    8.857818044516e-14
    76   -1.017078825633e-13
    77   -8.852422342165e-13
    78    1.521649483019e-14
    79   -7.177580622938e-15
    80    4.825808164916e-04
    81   -5.211017463266e-14
    82   -1.770508389075e-13
    83    2.834063697841e-13
    84    1.185497850797e-12
    85   -5.226461981241e-15
    86   -2.394476977926e-15
    87    1.379980531393e-03
Sym=X
Ene= 2.001127
Spin=Alpha
Occup=1
     1    8.464782349556e-03
     2    1.249052557707e-02
     3    2.179830474108e-01
     4   -3.441790878457e-01
     5   -3.241056827216e-14
     6   -4.274974901579e-02
     7    2.554377636566e-01
     8   -4.015363398966e-01
     9   -3.362381798430e-14
    10   -1.380224371318e-02
    11    1.636479743368e-01
    12   -2.681481486391e-01
    13   -4.227633840161e-14
    14   -1.030377276656e-03
    15    2.466548547881e-03
    16   -5.168886719371e-03
    17    1.359137271816e-14
    18    5.837570874831e-04
    19    8.325650775987e-16
    20    1.606211218830e-16
    21   -9.025971507048e-03
    22    3.072523577990e-03
    23   -2.565247286321e-02
    24   -3.505464101358e-02
    25   -1.888500836640e-03
    26   -9.409082412371e-03
    27    4.772734099456e-15
    28    6.683182099858e-02
    29   -1.092559640062e-02
    30   -4.754705235166e-03
    31    1.064645474525e-15
    32    7.251638998403e-02
    33   -4.072813897584e-03
    34   -2.345195327768e-02
    35    2.195871197626e-14
    36    1.940212233660e-01
    37    3.177927324973e-02
    38   -2.984404934558e-02
    39   -1.749036238480e-14
    40   -1.347361442374e-03
    41   -1.028712769614e-15
    42    2.092975609854e-15
    43    9.650210125745e-04
    44    7.688633060057e-03
    45    8.169671422578e-03
    46    1.208010996186e-02
    47   -1.330080028503e-02
    48    9.868329535744e-03
    49   -9.354818145441e-16
    50   -2.720195349122e-02
    51   -3.344099844997e-02
    52    1.536362148655e-02
    53   -4.089664716555e-15
    54   -1.793185686356e-02
    55    2.884449011782e-03
    56    2.132445541669e-02
    57    4.519972267342e-15
    58   -1.454127384848e-01
    59    6.770662424870e-02
    60   -6.047691301448e-02
    61    5.271736912073e-15
    62    6.199424374346e-04
    63    1.902873080570e-15
    64    3.010844612186e-15
    65    2.689827476332e-02
    66   -1.851721630138e-02
    67   -2.696281309729e-02
    68   -4.760561580683e-02
    69   -3.459943520460e-02
    70   -4.964965366545e-02
    71   -3.286788049180e-03
    72   -2.265113018638e-03
    73   -2.430178312531e-15
    74    8.248743615726e-03
    75    7.863336748918e-03
    76    2.592632766551e-03
    77    1.410791160669e-02
    78   -2.578355615711e-03
    79   -1.041253889929e-03
    80    1.332310252415e-15
    81    1.960651271241e-02
    82    2.195058962704e-02
    83   -1.223394305591e-02
    84   -2.219347154163e-03
    85    1.828508401714e-03
    86   -8.466407520831e-05
    87   -6.648428541227e-16
Sym=X
Ene= 1.999992
Spin=Alpha
Occup=1
     1   -2.257770977002e-03
     2   -3.364163698069e-03
     3   -2.470931921648e-03
     4   -9.473784091126e-04
     5   -7.987169824040e-14
     6    1.148167044698e-02
     7   -3.632293241261e-03
     8   -1.516515625517e-03
     9   -9.443146044981e-14
    10    4.890283825560e-03
    11   -1.376344565275e-03
    12   -4.280975090885e-04
    13   -5.903811290886e-14
    14   -2.213009941377e-03
    15    6.573217175891e-04
    16    3.608091458487e-04
    17   -5.183926860342e-15
    18   -2.728839859715e-04
    19    1.347061944233e-15
    20    7.318765577231e-16
    21    2.838131732196e-04
    22    4.140699986002e-04
    23    3.075948880391e-03
    24    2.429508245582e-03
    25    9.979201328142e-04
    26    7.663256061040e-04
    27   -3.840483920679e-15
    28    5.721520888484e-04
    29    5.415377336697e-04
    30    1.923012099697e-03
    31   -3.226972533037e-15
    32    4.642176495703e-06
    33    7.666177808800e-04
    34    8.550226459003e-04
    35   -6.316102072356e-15
    36   -6.443888882777e-04
    37   -1.891887069057e-04
    38    2.571842286408e-04
    39    4.881125645087e-15
    40    1.894755603020e-04
    41   -1.883015735168e-15
    42    1.889504934524e-15
    43   -2.677767264877e-05
    44    1.091699551912e-04
    45    5.623705289538e-01
    46    4.650167973924e-01
    47    4.390272569595e-03
    48    1.618450276055e-03
    49   -7.913450540995e-15
    50    7.998780794621e-03
    51   -1.376525423124e-03
    52    6.858485283374e-04
    53   -1.895811926957e-14
    54    1.980935096261e-03
    55    1.470956450419e-03
    56    6.368446550393e-04
    57   -4.071912898353e-15
    58    2.279001521157e-03
    59   -3.434218469185e-04
    60    4.549718733144e-05
    61   -3.756629437225e-15
    62   -7.198234541892e-04
    63   -5.890500773373e-15
    64   -1.717004019506e-15
    65    3.277240268600e-04
    66   -3.624950205666e-04
    67    8.399169002775e-04
    68    6.452800475070e-04
    69    3.921795083342e-04
    70   -5.254181340351e-04
    71    3.227174281422e-05
    72    1.451322650027e-04
    73   -1.563920820297e-16
    74    9.361482034601e-04
    75    1.424812335709e-03
    76    4.877860520776e-04
    77   -2.911241220788e-04
    78    9.146393182395e-05
    79   -1.073860872669e-04
    80   -6.640483948249e-16
    81   -8.383572292097e-04
    82   -1.222088918723e-03
    83   -3.110295311654e-04
    84   -2.070837100868e-04
    85   -2.719487219127e-05
    86   -1.150174360047e-04
    87    8.363015789747e-16
Sym=X
Ene= 1.999968
Spin=Alpha
Occup=1
     1    1.324265401197e-04
     2    1.968306728239e-04
     3    3.652622700454e-03
     4   -5.455372747191e-03
     5   -4.917143133080e-15
     6   -7.178675417850e-04
     7    4.294289715896e-03
     8   -6.405618240467e-03
     9   -4.199871109566e-15
    10   -4.824338610418e-04
    11    2.816084653774e-03
    12   -4.095569990709e-03
    13   -1.798718070362e-15
    14    6.324924853532e-05
    15   -7.896672932403e-05
    16    3.021864102014e-06
    17   -1.631800849897e-15
    18   -1.469247653610e-06
    19   -2.658360179815e-16
    20   -4.840773449585e-16
    21   -2.031108106374e-04
    22    8.770073611187e-05
    23    5.628786415210e-01
    24    4.666137053606e-01
    25    3.450927621314e-04
    26   -6.838168691272e-04
    27    2.294498807458e-15
    28    5.933005490744e-03
    29    4.319079450644e-04
    30   -1.417699679719e-03
    31    1.305860428942e-15
    32   -2.431737205617e-03
    33   -2.216107668346e-04
    34   -5.555431102100e-04
    35    8.799190474664e-15
    36    5.472281056204e-03
    37    8.585590415158e-04
    38   -5.935782678254e-04
    39   -5.605800456709e-15
    40   -4.453396089131e-04
    41    9.601434751505e-16
    42   -1.718456486396e-15
    43    2.166705404095e-04
    44   -2.706547762616e-04
    45   -4.092978495829e-03
    46   -3.888714336128e-03
    47   -2.891231919092e-04
    48   -1.176838929014e-03
    49    2.463944697780e-15
    50    2.682407296946e-03
    51    5.969806023816e-04
    52   -2.382941968028e-03
    53    2.973107767095e-15
    54    2.183760210957e-03
    55   -8.535135419470e-05
    56   -8.158589602126e-04
    57   -1.331532406472e-15
    58   -3.627389814912e-03
    59    1.387195114081e-03
    60   -1.165358244433e-03
    61    5.295264600399e-15
    62    1.107582614051e-04
    63    3.844906327289e-16
    64    2.027821777171e-16
    65    1.520579248088e-04
    66   -2.467721364060e-04
    67    1.320732921168e-03
    68    1.655243738845e-03
    69   -1.679695141172e-04
    70   -7.980689069230e-04
    71   -6.174256639502e-05
    72    1.685488660140e-04
    73    5.533169925846e-17
    74   -3.052121178775e-04
    75   -1.315581149736e-03
    76    2.380149852603e-04
    77   -2.795874503879e-04
    78   -1.818331652688e-05
    79    2.821309721991e-04
    80    4.526683275403e-17
    81    4.824383065051e-04
    82   -2.038459717524e-04
    83    2.648454258751e-04
    84   -4.020757536825e-04
    85   -1.339189166999e-04
    86   -1.670435387033e-04
    87   -1.351806820003e-15
Sym=X
Ene= 1.999442
Spin=Alpha
Occup=1
     1   -8.232114774104e-02
     2   -1.220411921411e-01
     3    4.476631833641e-02
     4   -3.424422289680e-03
     5   -6.600926211325e-14
     6    4.181024947080e-01
     7    4.517690693013e-02
     8   -9.397884323219e-03
     9   -7.972004269539e-14
    10    1.698867590023e-01
    11    4.483348984296e-02
    12    7.097776295923e-03
    13   -4.752473580838e-14
    14   -3.885681730543e-02
    15    1.296839418427e-02
    16    1.952475730372e-02
    17    4.591210116788e-16
    18   -2.591390087657e-03
    19    3.101769294617e-15
    20    1.991438977071e-15
    21   -1.126361650549e-03
    22    5.067088901890e-03
    23   -2.657521452995e-02
    24   -3.985148522329e-02
    25    2.157649426991e-02
    26   -2.152029094248e-02
    27   -1.736603984929e-14
    28    8.595193287353e-02
    29    3.712437930957e-02
    30   -3.392584523066e-02
    31   -3.387935586326e-14
    32    4.118779926793e-02
    33    1.239736629418e-02
    34   -4.233722579525e-03
    35   -2.275276836840e-14
    36    4.537301337006e-02
    37    1.637975466179e-02
    38    7.317211253340e-03
    39    4.225568799059e-15
    40   -3.457257104480e-03
    41   -2.703814567052e-15
    42    3.250643098597e-15
    43    3.869593553731e-04
    44   -1.087620668944e-02
    45   -8.453343419090e-02
    46   -1.347440592986e-01
    47   -8.516423283795e-03
    48   -7.468997288565e-02
    49   -2.697065129420e-14
    50    3.342740824590e-01
    51    4.513611170037e-03
    52   -1.081068986603e-01
    53   -4.377299590722e-14
    54    2.216878975428e-01
    55    1.741103982527e-02
    56   -6.726980129167e-02
    57   -2.803811910068e-14
    58   -3.409221430697e-02
    59    1.947966089021e-02
    60   -2.181404238091e-02
    61   -9.897293616049e-15
    62   -1.453770939802e-02
    63   -3.436180391507e-15
    64   -5.380037374252e-15
    65   -1.751270491926e-03
    66   -8.264702871148e-03
    67    1.249380812562e-01
    68    1.820426750923e-01
    69    1.338200615977e-02
    70   -6.709141513287e-03
    71   -3.319602745125e-03
    72    2.340779261451e-02
    73   -1.861886259693e-15
    74    4.380828524549e-03
    75    6.718486389550e-03
    76   -6.668474283024e-05
    77   -6.491345962390e-03
    78    1.304993676610e-03
    79   -1.844089461229e-03
    80   -2.229762237774e-15
    81    8.942527234865e-03
    82    9.414406974138e-03
    83   -5.372742849685e-03
    84    1.568712734278e-02
    85    4.680076329503e-03
    86    1.497587712313e-03
    87   -1.164637468158e-15
Sym=X
Ene= 1.998972
Spin=Alpha
Occup=1
     1    1.070693414371e-01
     2    1.592219629282e-01
     3   -1.125961527379e-01
     4   -6.195435335754e-02
     5    1.588541807428e-13
     6   -5.590759697014e-01
     7   -1.271769723389e-01
     8   -7.143655416526e-02
     9    1.846360478595e-13
    10   -2.772962638404e-01
    11   -7.805925930516e-02
    12   -3.568073206941e-02
    13    1.187835474300e-13
    14   -2.315911787246e-02
    15    2.134542123142e-03
    16    1.996812532027e-02
    17   -1.359886724073e-15
    18   -2.197287464887e-03
    19   -4.147503015434e-15
    20   -2.323428449470e-15
    21   -1.928472272764e-03
    22    5.882170091246e-03
    23    3.727399295872e-03
    24    9.508196300530e-03
    25   -2.969580575186e-02
    26   -2.575051853466e-02
    27    2.208629436965e-15
    28   -3.326192378372e-02
    29   -4.129871186876e-02
    30   -4.066729997450e-02
    31    1.099969296763e-14
    32   -7.451333255795e-03
    33   -2.088357692410e-02
    34   -1.494776145609e-02
    35   -1.388996126778e-14
    36    6.041500418175e-02
    37    2.731970619595e-02
    38    2.116317514925e-02
    39   -1.322886428076e-14
    40    8.614414884822e-04
    41    9.595792661064e-18
    42   -9.916346382962e-16
    43   -1.252700666904e-03
    44   -8.923104401055e-04
    45   -3.582219356447e-02
    46   -6.385340734025e-02
    47    3.424242013754e-02
    48   -9.517699998029e-02
    49    9.002963409889e-15
    50    1.816233674601e-01
    51    6.442355515105e-02
    52   -1.408507399939e-01
    53    1.826826835881e-14
    54    1.427955648461e-01
    55    4.623680235455e-02
    56   -8.434700222987e-02
    57   -3.115805524371e-15
    58   -3.678653973448e-02
    59    8.800045181077e-03
    60   -4.093972400809e-02
    61    2.066835330656e-14
    62   -5.893006061920e-03
    63    7.676492465454e-15
    64    5.779727413326e-15
    65   -3.531601591964e-03
    66   -4.410152141172e-03
    67    1.105475065496e-01
    68    1.631754974612e-01
    69    2.158741123812e-03
    70   -1.891781644545e-02
    71   -1.012500645276e-04
    72    2.053887657768e-02
    73    1.039904354504e-16
    74   -2.519982767455e-02
    75   -3.807340000960e-02
    76   -1.295383416564e-02
    77   -1.871718907521e-02
    78   -2.536588304095e-03
    79    4.743902716866e-03
    80    1.606705967578e-15
    81    2.411146542047e-02
    82    3.872837233185e-02
    83    1.849257169387e-02
    84    2.301337663886e-02
    85    3.184424378725e-03
    86    1.830644177221e-03
    87    2.150234761506e-15
Sym=X
Ene= 1.997954
Spin=Alpha
Occup=1
     1   -3.382905959368e-02
     2   -5.034580104095e-02
     3    4.422328009852e-02
     4    6.232553239755e-03
     5   -5.644134562043e-14
     6    1.788988808330e-01
     7    5.354531027073e-02
     8    4.698874909056e-03
     9   -7.121054801967e-14
    10    9.310691293904e-02
    11    2.247056123505e-02
    12    6.773382724758e-03
    13   -3.166680127560e-14
    14    3.481662076227e-02
    15   -2.749784110911e-02
    16    1.704526623589e-02
    17    1.503520394949e-14
    18    1.256126982483e-03
    19    5.050098756664e-15
    20    2.508060893799e-15
    21   -8.308993120099e-03
    22    2.157141184987e-03
    23    6.249929795418e-02
    24    1.042656326600e-01
    25   -1.088014146624e-01
    26    6.746790764125e-02
    27   -4.305776730053e-14
    28   -2.588188787889e-01
    29   -1.640058397799e-01
    30    1.037823809800e-01
    31   -7.575793001898e-14
    32   -7.147118104253e-02
    33   -4.802651018589e-02
    34    4.938794092819e-02
    35   -6.136751816884e-14
    36    5.302427220386e-02
    37    3.586547276742e-03
    38   -2.500740050031e-02
    39   -1.486823230384e-14
    40    9.921622358213e-03
    41   -1.023348651778e-14
    42    4.194069113724e-15
    43   -1.927675381935e-02
    44    1.780599905012e-02
    45    5.274181328268e-02
    46    8.778032929490e-02
    47    1.293176716191e-01
    48   -1.329467658191e-01
    49   -6.005895467932e-14
    50   -2.362841107048e-01
    51    1.848462499876e-01
    52   -2.100626162156e-01
    53   -1.027593144312e-13
    54   -1.532560974261e-01
    55    8.596229093632e-02
    56   -1.292125067067e-01
    57   -9.330669270064e-14
    58   -4.476597516209e-02
    59    1.627079138513e-02
    60   -9.190504844757e-03
    61   -2.172350639164e-15
    62    3.846320381034e-03
    63   -2.168231720931e-15
    64   -1.108100601459e-14
    65   -8.093854241220e-03
    66    7.408421177879e-03
    67    6.931361541664e-02
    68    1.117891860562e-01
    69    3.306041562041e-02
    70   -4.532406819568e-03
    71    3.833816184623e-03
    72    6.652790000597e-03
    73   -2.803507872420e-15
    74    1.151461279969e-02
    75    2.399794124159e-02
    76    4.030157878505e-02
    77    1.703489875006e-02
    78   -6.096658523681e-03
    79    5.440939293707e-03
    80   -4.342595725023e-15
    81   -1.111101075591e-02
    82   -1.023065982870e-02
    83    1.146973211232e-02
    84   -1.993293433547e-02
    85   -9.454966187349e-03
    86    1.918042690535e-03
    87   -4.617455830710e-15
Sym=X
Ene= 1.996933
Spin=Alpha
Occup=1
     1    7.007825861310e-03
     2    1.039056754173e-02
     3   -2.839690905197e-02
     4    3.760126448441e-02
     5    3.074178683874e-15
     6   -3.546680947483e-02
     7   -3.187652835291e-02
     8    4.411715800058e-02
     9    4.727007634007e-15
    10   -1.115314089717e-02
    11   -2.689819861733e-02
    12    2.753965324653e-02
    13    9.172605060605e-15
    14    1.934648275133e-02
    15   -1.281914780513e-02
    16    6.840639451518e-03
    17   -2.303244953923e-15
    18    2.854475398453e-05
    19    1.700575539828e-16
    20   -5.369635717446e-16
    21   -9.042563572508e-04
    22   -3.809895894586e-04
    23   -7.048668334591e-02
    24   -1.188822935186e-01
    25   -1.014948384898e-01
    26    8.330467664982e-02
    27    2.324418000223e-15
    28    2.937926037492e-01
    29   -1.522215525713e-01
    30    1.265498849395e-01
    31    9.803234025952e-15
    32    2.710272093603e-01
    33   -6.226324230135e-02
    34    7.424586553012e-02
    35   -7.569545300680e-15
    36   -2.852620446431e-02
    37   -2.926702320539e-03
    38   -4.447672851635e-03
    39    3.070846135664e-15
    40   -1.366105076562e-02
    41    1.025770331732e-15
    42   -1.075812054791e-15
    43   -1.502735608115e-02
    44    1.518921849067e-02
    45    1.680809064319e-02
    46    2.949190165416e-02
    47    3.342498998719e-02
    48   -2.187766358185e-02
    49    3.891678581587e-15
    50   -8.851483086400e-02
    51    4.250098818361e-02
    52   -3.249637760174e-02
    53    7.176231424855e-15
    54   -1.035738113240e-01
    55    3.739378021214e-02
    56   -4.233391678849e-02
    57    4.075868664153e-15
    58    1.468622827680e-03
    59   -2.371443700224e-03
    60   -1.618262486043e-03
    61    1.883487297628e-15
    62   -2.693758896987e-04
    63    4.917224235853e-17
    64    8.926519501787e-16
    65   -3.551083993728e-03
    66   -3.076382214965e-03
    67    7.247538588402e-03
    68    1.701498949512e-02
    69    1.588686551706e-02
    70    2.552732917279e-04
    71    2.053331697830e-03
    72   -3.299320670935e-04
    73   -8.581347248182e-18
    74    1.461146433717e-01
    75    2.177989942955e-01
    76    4.429358377606e-02
    77    2.153495683806e-02
    78   -2.913520180295e-03
    79   -2.416034699689e-02
    80   -1.443916750735e-16
    81    1.031258506492e-01
    82    1.535445884660e-01
    83    2.824141971557e-02
    84    3.242537236263e-03
    85    1.180120836625e-02
    86    1.599900075591e-02
    87    9.184551366553e-16
Sym=X
Ene= 1.995684
Spin=Alpha
Occup=1
     1   -3.772263100477e-02
     2   -5.595069875908e-02
     3   -1.243564135901e-01
     4   -4.288663071705e-02
     5   -3.893083348324e-14
     6    2.015544539958e-01
     7   -1.450112060253e-01
     8   -5.023144053765e-02
     9   -4.997696645916e-14
    10    8.948448501940e-02
    11   -8.230646097788e-02
    12   -2.530500232798e-02
    13   -3.532674615273e-14
    14    4.084332225356e-02
    15   -2.359472519218e-02
    16   -1.449203347902e-02
    17    2.360729929729e-14
    18   -1.209198738704e-03
    19    2.358126895132e-15
    20    1.323386021483e-15
    21    2.028705633060e-03
    22    3.240737206429e-03
    23   -4.225545919345e-03
    24   -7.602798898095e-03
    25   -1.054447674970e-01
    26   -1.345648905449e-01
    27   -3.441743867738e-14
    28    2.394874984266e-02
    29   -1.532586092039e-01
    30   -2.076906699343e-01
    31   -4.306217403101e-14
    32    1.186034075748e-02
    33   -1.135470992367e-01
    34   -1.494117362351e-01
    35   -1.059252067288e-13
    36   -2.224090802774e-02
    37   -1.036545380894e-02
    38   -5.331590518673e-03
    39    8.300112744135e-14
    40    6.887417066285e-04
    41   -4.794776842052e-15
    42    2.178549592828e-15
    43    1.789118854253e-02
    44    1.440088601338e-02
    45    1.564263251030e-02
    46    2.629164760695e-02
    47    1.963396031917e-02
    48    1.909724455533e-02
    49   -3.180349434278e-14
    50   -7.268941037113e-02
    51    3.533571811643e-02
    52    3.297786073456e-02
    53   -5.633985292713e-14
    54   -1.069763291632e-01
    55   -2.364169598261e-02
    56    1.255369509805e-02
    57   -2.057531996037e-14
    58    1.141637153430e-02
    59   -9.783184429311e-03
    60    1.498280662483e-02
    61   -8.674446193024e-14
    62   -1.585173758394e-03
    63    7.707241812445e-16
    64   -6.571325544419e-15
    65    3.310152975075e-02
    66    3.445902948446e-02
    67   -4.310321482849e-02
    68   -7.015107036324e-02
    69   -3.401472217585e-02
    70    1.066064307176e-02
    71    1.517499510121e-03
    72   -2.286217728813e-04
    73   -2.974094768931e-15
    74   -1.123285890503e-01
    75   -1.750557620686e-01
    76   -5.815869709189e-02
    77   -8.664185420811e-03
    78   -8.964012035079e-03
    79    1.196310925422e-02
    80   -3.150215590556e-15
    81    1.488616528622e-01
    82    2.354880029642e-01
    83    6.151655513737e-02
    84    5.681674000073e-03
    85    2.015109073080e-02
    86    6.154529839846e-03
    87   -1.315460156464e-15
Sym=X
Ene= 1.992362
Spin=Alpha
Occup=1
     1    2.854060583485e-14
     2    4.459128167503e-14
     3    1.858444652460e-14
     4    1.122008275803e-14
     5    4.858577954821e-02
     6   -1.541098951788e-13
     7    2.159409613928e-14
     8    1.549513485474e-14
     9    5.085803506935e-02
    10   -5.688642930367e-14
    11    1.286642058264e-14
    12    1.060539748056e-15
    13    4.502538965838e-02
    14    7.516803223565e-14
    15   -7.077184897821e-14
    16   -1.199513583175e-14
    17    4.959397993070e-02
    18    5.601325776858e-16
    19    9.663385260019e-03
    20    4.568415481652e-03
    21    1.900139990969e-15
    22   -2.478349039458e-15
    23   -9.679387070886e-15
    24   -2.032702464435e-14