[Molden Format]
[Atoms] (Angs)
  F      1    9      1.15290231      0.22477664     -0.00000000
  C      2    6     -1.17935012      0.19972949     -0.00000000
  C      3    6     -0.01631886     -0.43556811      0.00000000
  H      4    1      0.11895302     -1.50789969      0.00000000
  H      5    1     -1.23082549      1.27856114     -0.00000000
  H      6    1     -2.09023450     -0.37861944      0.00000000
[GTO]
1    0
S    6    1.000000
   1.14271000E+04    1.80093000E-03 
   1.72235000E+03    1.37419000E-02 
   3.95746000E+02    6.81334000E-02 
   1.15139000E+02    2.33325000E-01 
   3.36026000E+01    5.89086000E-01 
   4.91901000E+00    2.99505000E-01 
SP   3    1.000000
   5.54441000E+01    1.14536000E-01   3.54609000E-02 
   1.26323000E+01    9.20512000E-01   2.37451000E-01 
   3.71756000E+00   -3.37804000E-03   8.20458000E-01 
SP   1    1.000000
   1.16545000E+00    1.00000000E+00   1.00000000E+00 
SP   1    1.000000
   3.21892000E-01    1.00000000E+00   1.00000000E+00 
SP   1    1.000000
   1.07600000E-01    1.00000000E+00   1.00000000E+00 
D    1    1.000000
   1.75000000E+00    1.00000000E+00 

2    0
S    6    1.000000
   4.56324000E+03    1.96665000E-03 
   6.82024000E+02    1.52306000E-02 
   1.54973000E+02    7.61269000E-02 
   4.44553000E+01    2.60801000E-01 
   1.30290000E+01    6.16462000E-01 
   1.82773000E+00    2.21006000E-01 
SP   3    1.000000
   2.09642000E+01    1.14660000E-01   4.02487000E-02 
   4.80331000E+00    9.19999000E-01   2.37594000E-01 
   1.45933000E+00   -3.03068000E-03   8.15854000E-01 
SP   1    1.000000
   4.83456000E-01    1.00000000E+00   1.00000000E+00 
SP   1    1.000000
   1.45585000E-01    1.00000000E+00   1.00000000E+00 
SP   1    1.000000
   4.38000000E-02    1.00000000E+00   1.00000000E+00 
D    1    1.000000
   6.26000000E-01    1.00000000E+00 

3    0
S    6    1.000000
   4.56324000E+03    1.96665000E-03 
   6.82024000E+02    1.52306000E-02 
   1.54973000E+02    7.61269000E-02 
   4.44553000E+01    2.60801000E-01 
   1.30290000E+01    6.16462000E-01 
   1.82773000E+00    2.21006000E-01 
SP   3    1.000000
   2.09642000E+01    1.14660000E-01   4.02487000E-02 
   4.80331000E+00    9.19999000E-01   2.37594000E-01 
   1.45933000E+00   -3.03068000E-03   8.15854000E-01 
SP   1    1.000000
   4.83456000E-01    1.00000000E+00   1.00000000E+00 
SP   1    1.000000
   1.45585000E-01    1.00000000E+00   1.00000000E+00 
SP   1    1.000000
   4.38000000E-02    1.00000000E+00   1.00000000E+00 
D    1    1.000000
   6.26000000E-01    1.00000000E+00 

4    0
S    3    1.000000
   3.38650000E+01    2.54938000E-02 
   5.09479000E+00    1.90373000E-01 
   1.15879000E+00    8.52161000E-01 
S    1    1.000000
   3.25840000E-01    1.00000000E+00 
S    1    1.000000
   1.02741000E-01    1.00000000E+00 
S    1    1.000000
   3.60000000E-02    1.00000000E+00 
P    1    1.000000
   7.50000000E-01    1.00000000E+00 

5    0
S    3    1.000000
   3.38650000E+01    2.54938000E-02 
   5.09479000E+00    1.90373000E-01 
   1.15879000E+00    8.52161000E-01 
S    1    1.000000
   3.25840000E-01    1.00000000E+00 
S    1    1.000000
   1.02741000E-01    1.00000000E+00 
S    1    1.000000
   3.60000000E-02    1.00000000E+00 
P    1    1.000000
   7.50000000E-01    1.00000000E+00 

6    0
S    3    1.000000
   3.38650000E+01    2.54938000E-02 
   5.09479000E+00    1.90373000E-01 
   1.15879000E+00    8.52161000E-01 
S    1    1.000000
   3.25840000E-01    1.00000000E+00 
S    1    1.000000
   1.02741000E-01    1.00000000E+00 
S    1    1.000000
   3.60000000E-02    1.00000000E+00 
P    1    1.000000
   7.50000000E-01    1.00000000E+00 

[MO]
Sym=X
Ene= 2.005071
Spin=Alpha
Occup=1
     1    2.232321672160e-02
     2    3.258318542790e-02
     3    2.663135421033e-01
     4    1.866743485339e-01
     5   -2.225884246427e-13
     6   -1.099215993837e-01
     7    3.148809495932e-01
     8    2.199885560167e-01
     9   -2.651829370413e-13
    10    2.437049545199e-03
    11    1.589162537042e-01
    12    1.191908433128e-01
    13   -1.554668476572e-13
    14    2.398342588897e-02
    15   -2.754826456228e-03
    16    1.316769908969e-03
    17   -3.192499991718e-14
    18    8.232650202683e-03
    19    5.404580267663e-15
    20    2.839716769697e-15
    21   -7.017995838205e-03
    22   -1.173306467410e-02
    23   -1.396665254034e-02
    24   -2.220843424980e-02
    25   -1.764409914102e-02
    26   -7.811005518885e-02
    27    2.777695394701e-15
    28    5.050694326383e-02
    29   -4.339399764293e-02
    30   -1.098087044856e-01
    31   -5.375170431072e-15
    32    3.593217667045e-02
    33   -2.315413408063e-02
    34   -8.129877395087e-02
    35    6.022486726455e-14
    36   -4.498288022473e-02
    37   -2.828122309283e-02
    38   -3.211257025801e-02
    39   -1.773320793459e-14
    40   -2.161728279210e-03
    41    1.290841256407e-15
    42    9.152092056502e-16
    43   -4.724300713808e-03
    44    2.360386023913e-03
    45    1.827875681078e-02
    46    2.489831257212e-02
    47   -8.530033896405e-02
    48   -5.655013333824e-02
    49   -3.503720734763e-15
    50   -4.190195710900e-02
    51   -1.607708291175e-01
    52   -1.007568361641e-01
    53   -1.876133074870e-14
    54   -2.804284055661e-03
    55   -2.240147885272e-02
    56   -2.313459433215e-02
    57    1.587900741580e-14
    58    6.912674503799e-04
    59   -2.061455489618e-03
    60    4.393513495381e-02
    61    8.474490557868e-15
    62    1.346777085799e-02
    63   -1.247598789748e-14
    64   -8.023203496051e-15
    65   -1.658864604383e-02
    66   -3.891252699745e-02
    67    2.815963112522e-02
    68    3.654414455466e-02
    69    2.871408479110e-02
    70    3.615545352868e-02
    71   -4.355140606205e-03
    72   -1.396949978147e-03
    73    1.700888601893e-15
    74   -5.127030689063e-02
    75   -8.662648343002e-02
    76   -4.736408035543e-03
    77    1.916110882324e-02
    78   -1.995583232886e-03
    79    1.013356768673e-02
    80   -1.518029734606e-15
    81    5.776239593563e-02
    82    8.085452021266e-02
    83    8.311856086352e-03
    84   -2.209280988973e-02
    85    7.466101915228e-03
    86    2.195757276658e-03
    87   -3.633305086815e-15
Sym=X
Ene= 2.001908
Spin=Alpha
Occup=1
     1   -5.549529995573e-03
     2   -8.173410474302e-03
     3   -2.075983790425e-01
     4    3.508013561300e-01
     5   -1.696711544730e-13
     6    2.745269899191e-02
     7   -2.423134143194e-01
     8    4.085613780495e-01
     9   -2.025768600128e-13
    10    1.117891301053e-02
    11   -1.581205872104e-01
    12    2.704103322087e-01
    13   -1.090246065457e-13
    14    4.045864269714e-03
    15   -3.052405671686e-03
    16    5.253699834985e-03
    17   -1.998099613481e-14
    18   -4.753581216105e-04
    19    3.863139908603e-15
    20    2.689637906155e-15
    21    7.757759711073e-03
    22   -3.597574853424e-03
    23    2.238817100280e-02
    24    3.460600255347e-02
    25    3.825970468240e-03
    26    1.134858635034e-02
    27   -6.387980393010e-15
    28   -7.888147813173e-02
    29    1.279702471314e-02
    30    8.383812302503e-03
    31   -4.795192775973e-15
    32   -8.055573777285e-02
    33    7.602452445268e-03
    34    2.529102513285e-02
    35   -1.983400164986e-14
    36   -1.986225211585e-01
    37   -3.344503759807e-02
    38    2.888287205790e-02
    39    1.694627748197e-14
    40    1.449487836073e-03
    41   -6.167449591007e-16
    42   -1.079355127810e-15
    43   -1.563296821778e-03
    44   -7.356384620690e-03
    45   -4.007774250599e-03
    46   -5.679034659751e-03
    47    1.079589127543e-02
    48   -9.026767932313e-03
    49   -1.513527368897e-14
    50    1.161684619864e-02
    51    2.695964673337e-02
    52   -1.576567224843e-02
    53   -2.395073707483e-14
    54    1.242552097855e-02
    55   -4.121938048008e-03
    56   -2.254879821048e-02
    57   -1.471809138297e-14
    58    1.471329257014e-01
    59   -6.843834871242e-02
    60    6.230951808581e-02
    61   -6.677667709782e-15
    62    4.474578618116e-04
    63   -1.204454802970e-14
    64   -8.660380049151e-15
    65   -2.715827008822e-02
    66    1.630732234231e-02
    67    2.355439932227e-02
    68    4.102778624991e-02
    69    3.569647070126e-02
    70    5.119221126309e-02
    71    3.036811865078e-03
    72    7.976420275413e-04
    73    1.572060533277e-15
    74   -9.004135999209e-03
    75   -8.823822546412e-03
    76   -7.553914261965e-04
    77   -1.297723901429e-02
    78    2.606819369143e-03
    79    1.516091075442e-03
    80   -1.743917885803e-15
    81   -2.427493464411e-02
    82   -2.846034711648e-02
    83    1.187901126720e-02
    84    5.182377431955e-04
    85   -2.624619705407e-03
    86   -3.625242552732e-04
    87    4.872911096158e-16
Sym=X
Ene= 2.001565
Spin=Alpha
Occup=1
     1    7.964217353054e-14
     2    1.210462793631e-13
     3   -1.021934664342e-13
     4   -2.680239550689e-13
     5   -4.056512089745e-01
     6   -4.246409950550e-13
     7   -1.205667535337e-13
     8   -3.205609010611e-13
     9   -4.736963824499e-01
    10   -2.455262107775e-13
    11   -3.746147466777e-14
    12   -1.590507533196e-13
    13   -3.051266798310e-01
    14   -2.679603857751e-13
    15    1.509239740921e-13
    16    1.111903210892e-14
    17   -1.075558283400e-02
    18   -5.024674462693e-15
    19    9.347979605671e-03
    20    5.433027592663e-03
    21    1.977439359240e-15
    22    7.852635557906e-15
    23   -1.906111562049e-14
    24   -1.815769931061e-14
    25    1.801172549603e-14
    26    2.872033662627e-14
    27   -7.250497842767e-03
    28    9.788840447538e-15
    29    2.580926392867e-14
    30    4.071187303230e-14
    31   -1.369886098019e-02
    32    9.037773915896e-14
    33   -1.914600090144e-14
    34   -2.301799037524e-14
    35   -5.814584530567e-03
    36   -2.321628599033e-12
    37    2.794027318480e-13
    38    1.368882823761e-12
    39    2.351096744668e-03
    40   -1.466380418258e-14
    41   -4.013311697761e-03
    42    2.274328290367e-03
    43    7.242977721239e-15
    44    1.847888608214e-14
    45   -1.639153589287e-13
    46   -1.496858994698e-13
    47    3.323517945029e-14
    48    2.616250771939e-14
    49   -3.507663640533e-02
    50    6.686713256825e-14
    51    6.849949304888e-14
    52    5.643778614141e-14
    53   -6.096231664806e-02
    54    1.870906223240e-13
    55    1.406908734914e-13
    56    8.115829144214e-14
    57   -2.105040594607e-02
    58    2.403911553441e-12
    59   -6.499032605655e-13
    60   -3.048511286546e-13
    61   -7.306428214907e-03
    62   -2.078188633236e-14
    63   -1.925462436327e-02
    64   -1.159086916741e-02
    65    6.792643492481e-15
    66    1.572744603026e-14
    67   -7.436584426061e-15
    68   -2.276238115843e-14
    69   -1.000236063203e-13
    70   -4.098416232259e-13
    71   -4.766559879092e-15
    72    8.428617206023e-15
    73   -2.290863813681e-03
    74    2.842985760055e-14
    75    4.978684032538e-14
    76   -1.119029274772e-13
    77   -9.430061722845e-13
    78    1.253334747620e-14
    79   -1.936632081323e-15
    80   -1.076104852930e-03
    81   -2.014648219106e-14
    82   -1.393426090679e-13
    83    3.044598772579e-13
    84    1.275056609219e-12
    85   -2.105954886916e-15
    86   -1.408028941041e-15
    87   -1.865869979847e-04
Sym=X
Ene= 1.999984
Spin=Alpha
Occup=1
     1    2.056236844724e-04
     2    3.055237428181e-04
     3    8.028214538312e-04
     4   -2.070647201480e-03
     5   -1.363800890646e-14
     6   -1.078679167603e-03
     7    9.277712173174e-04
     8   -2.437742993870e-03
     9   -1.459524381705e-14
    10   -6.074754465609e-04
    11    7.012347339418e-04
    12   -1.470984341863e-03
    13   -8.511279209356e-15
    14   -1.867085798515e-04
    15    3.914304052270e-05
    16   -6.913597726309e-05
    17   -2.155917837507e-15
    18   -7.896761238747e-06
    19   -1.705341833391e-16
    20   -3.799205239935e-16
    21   -4.218278820879e-05
    22    4.265784876753e-05
    23    5.634929186547e-01
    24    4.671888966786e-01
    25    8.281920019600e-04
    26   -9.355126934609e-04
    27    3.096705643839e-15
    28    3.474144143252e-03
    29    9.038075317367e-04
    30   -1.612538669148e-03
    31    3.189898991775e-15
    32   -2.182438461208e-03
    33    3.340126806185e-04
    34   -8.953048696474e-04
    35    8.445508482253e-15
    36    1.469436737297e-03
    37    1.682157043424e-04
    38   -1.146741196335e-06
    39   -3.975062614244e-15
    40   -3.663771223456e-04
    41    1.017207749161e-15
    42   -1.721065802334e-15
    43    2.527348628035e-04
    44   -2.585592470445e-04
    45    5.693691486831e-03
    46    4.369538765019e-03
    47   -3.681316897515e-04
    48   -1.650296680665e-04
    49    2.453973775389e-15
    50    1.925036762144e-03
    51    1.083941008372e-04
    52   -6.298470001709e-04
    53    2.783985710584e-15
    54    9.357654710341e-04
    55   -5.665481606265e-05
    56   -1.417836482552e-04
    57    2.752654383466e-16
    58   -2.720985103877e-04
    59    2.299588010489e-04
    60   -2.781750081045e-04
    61    4.259055093697e-15
    62    9.544390695344e-05
    63   -1.967532274626e-16
    64    6.858382025021e-17
    65    8.441095097464e-05
    66   -4.905668422780e-05
    67    4.617485278015e-04
    68    5.581651564032e-04
    69   -2.064715477939e-04
    70   -2.946718727617e-04
    71   -5.548349987878e-05
    72    6.527862403816e-05
    73    8.254587188482e-17
    74   -8.300000691519e-04
    75   -2.105591151862e-03
    76   -6.764520529789e-05
    77   -4.636471579532e-04
    78    1.838289589028e-05
    79    2.951818832823e-04
    80    9.789367095765e-17
    81    3.171953629314e-05
    82   -8.516848058875e-04
    83    2.868534199261e-04
    84   -2.428832315305e-04
    85   -1.324122827915e-04
    86   -1.852264563878e-04
    87   -1.259084070879e-15
Sym=X
Ene= 1.999975
Spin=Alpha
Occup=1
     1   -3.102965988687e-03
     2   -4.621468891208e-03
     3    8.384287821689e-04
     4    6.220394016918e-04
     5   -1.019544839869e-13
     6    1.605553910114e-02
     7    2.952787679734e-04
     8    3.646297282529e-04
     9   -1.201670558535e-13
    10    7.680799335718e-03
    11    6.678239506146e-04
    12    4.566791185916e-04
    13   -7.404713065595e-14
    14   -9.159658338714e-04
    15    2.444212967839e-04
    16   -8.172155511028e-05
    17   -2.262597453948e-15
    18   -1.704272925366e-04
    19    2.536368382596e-15
    20    1.213470054226e-15
    21    2.229222005599e-04
    22    2.026960982212e-04
    23   -6.132895484373e-03
    24   -5.008248318277e-03
    25    9.005621503686e-04
    26    3.754537278895e-03
    27   -1.718196292868e-14
    28   -4.333923410442e-04
    29    2.062015648140e-04
    30    6.558059252821e-03
    31   -2.493594570065e-14
    32    3.098432549598e-04
    33    1.319047436703e-03
    34    3.497401918366e-03
    35   -2.608901583419e-14
    36   -1.752010004774e-03
    37   -9.241858536015e-04
    38   -6.500706134266e-04
    39    7.072927541642e-16
    40    2.267029121603e-04
    41   -4.013747832302e-15
    42    2.962060600829e-15
    43   -4.584167844142e-04
    44    3.348556056808e-04
    45    5.639679931142e-01
    46    4.680803229840e-01
    47    4.296295986202e-03
    48    3.092543259191e-03
    49   -2.260057871303e-14
    50    1.853884633582e-04
    51   -1.129935428399e-03
    52    1.754406554997e-03
    53   -4.463278789437e-14
    54   -4.276368078804e-03
    55    1.189120824854e-03
    56    1.423877487920e-03
    57   -2.512252217525e-14
    58    2.587936750018e-03
    59   -4.963037305709e-04
    60    1.072027022521e-03
    61   -4.489935338399e-15
    62   -3.693454044865e-04
    63   -5.365728094749e-15
    64   -3.959779698791e-15
    65   -7.229386564297e-05
    66   -5.403055484558e-04
    67   -1.586004810755e-03
    68   -3.105943217972e-03
    69    1.053861557146e-03
    70   -4.698822561967e-05
    71    1.047281817411e-04
    72   -6.022667375009e-04
    73   -1.372772519557e-15
    74    3.280629845577e-03
    75    5.034445006903e-03
    76    1.840815561315e-03
    77    6.480932740138e-04
    78    1.276842801989e-04
    79   -3.557570019515e-04
    80   -1.884625702656e-15
    81   -2.318275137241e-03
    82   -3.425351511649e-03
    83   -1.019998463840e-03
    84   -1.232978436668e-03
    85   -3.280119187326e-04
    86   -1.201179987017e-04
    87   -3.898943123145e-16
Sym=X
Ene= 1.999646
Spin=Alpha
Occup=1
     1    1.179363463309e-01
     2    1.748040539967e-01
     3   -9.831639440646e-02
     4   -4.854455872302e-02
     5    1.753516746161e-13
     6   -6.062239578359e-01
     7   -1.073160641609e-01
     8   -5.297433075934e-02
     9    2.049015435913e-13
    10   -2.716811414483e-01
    11   -7.914585930979e-02
    12   -3.738759618665e-02
    13    1.261549475789e-13
    14    2.185531275835e-02
    15   -1.325607000327e-02
    16   -3.380757723749e-03
    17   -4.231813151209e-15
    18    9.310988372594e-04
    19   -6.307119519378e-15
    20   -3.286602459110e-15
    21   -1.273194504858e-03
    22    3.693727101635e-04
    23    3.838715611160e-02
    24    6.436979693349e-02
    25   -4.911498779742e-02
    26   -2.973111162450e-02
    27    3.518801709262e-14
    28   -1.603877297166e-01
    29   -7.517399428518e-02
    30   -4.482866046824e-02
    31    6.776505095518e-14
    32   -9.230782510633e-02
    33   -3.825709026458e-02
    34   -3.889341068991e-02
    35    3.736361520724e-14
    36    1.256553594634e-02
    37    3.778853687777e-03
    38    2.921759401374e-03
    39    6.086806731415e-15
    40    6.299663291904e-03
    41    5.577992460027e-15
    42   -4.508994495393e-15
    43    1.938903588601e-03
    44    9.900541638614e-03
    45    4.815520628619e-02
    46    7.052728412115e-02
    47    3.637835399199e-02
    48   -1.458821163474e-02
    49    4.980001198048e-14
    50   -1.520943496993e-01
    51    4.975509788940e-02
    52   -2.480927612348e-02
    53    8.444697232601e-14
    54   -8.848690992040e-02
    55    1.403215714624e-02
    56   -5.963400236730e-03
    57    5.529900478623e-14
    58   -3.832765986728e-03
    59   -6.471917129708e-03
    60   -7.334032587958e-03
    61    1.088493862927e-14
    62    7.918107087560e-03
    63    6.040699914457e-15
    64    1.067846462911e-14
    65    3.175082558710e-03
    66    8.226207591123e-03
    67   -2.193777744961e-02
    68   -3.130189189093e-02
    69   -1.127926122162e-02
    70   -5.765376272990e-03
    71    2.696818446754e-03
    72   -3.428319793499e-03
    73    3.509552115333e-15
    74   -6.085319479645e-02
    75   -9.087730089481e-02
    76   -1.874450977637e-02
    77   -8.760792003127e-03
    78   -4.218029212989e-03
    79    1.094801419388e-02
    80    4.660106530182e-15
    81    1.586072553396e-02
    82    3.181715774671e-02
    83    2.287899170945e-02
    84    2.509540184375e-04
    85   -1.142495923410e-03
    86   -1.187814227057e-03
    87    3.731602971687e-15
Sym=X
Ene= 1.999044
Spin=Alpha
Occup=1
     1   -4.199790829028e-02
     2   -6.247154803373e-02
     3    1.203791187826e-01
     4    1.783241043592e-03
     5   -5.716715572465e-14
     6    2.206361953901e-01
     7    1.396543053188e-01
     8    1.698147885283e-03
     9   -6.835792813964e-14
    10    1.155749457824e-01
    11    8.253665547039e-02
    12   -5.475636966009e-03
    13   -3.977693919198e-14
    14    1.112645404584e-02
    15   -1.530168067018e-03
    16   -7.294794792364e-03
    17    1.449720117567e-14
    18    2.264814853586e-03
    19    3.693377094762e-15
    20    2.092366009313e-15
    21   -2.741478562560e-03
    22   -2.781638387380e-03
    23    8.200060642908e-02
    24    1.366905416136e-01
    25    5.962000341560e-02
    26    1.255922064175e-02
    27   -4.497970497951e-14
    28   -3.378579931549e-01
    29    8.591775579560e-02
    30    2.088910437397e-02
    31   -8.560678934659e-14
    32   -2.497720292837e-01
    33    5.673312069214e-02
    34    5.967894888521e-03
    35   -4.785135743516e-14
    36    2.738477968756e-03
    37   -1.128885329440e-02
    38   -1.808157068697e-02
    39   -2.621634739654e-14
    40    1.299462429452e-02
    41   -8.967278399893e-15
    42    4.947297573298e-15
    43   -1.175901863444e-03
    44   -4.562364921911e-03
    45    3.013323374552e-02
    46    5.490848967590e-02
    47    1.235396016775e-02
    48    5.330947104804e-03
    49   -5.715748413756e-14
    50   -1.519085786932e-01
    51    1.045528993969e-02
    52    3.278448463546e-05
    53   -9.948792759598e-14
    54   -5.993255994319e-02
    55   -1.396847943627e-02
    56    2.144853759194e-02
    57   -8.659376907893e-14
    58    5.222711190129e-03
    59    3.717346520506e-03
    60    1.661271847265e-02
    61    2.398531735600e-15
    62    7.302514101888e-03
    63    2.591247238512e-17
    64   -9.523521236770e-15
    65   -5.933490640790e-03
    66   -6.683789023139e-05
    67   -3.325815830506e-02
    68   -4.916015111572e-02
    69    6.930758658345e-03
    70    5.173417493352e-03
    71    6.663570924027e-04
    72   -9.313234945296e-03
    73   -3.482971294506e-15
    74   -6.735713651840e-02
    75   -9.325000827041e-02
    76    7.600802960275e-03
    77    5.208569805622e-03
    78    2.260698228735e-03
    79    1.547745696685e-02
    80   -4.464692898196e-15
    81   -1.247457519014e-01
    82   -1.843820296883e-01
    83   -3.391545763650e-02
    84   -2.551812092685e-02
    85   -1.891859050336e-02
    86   -1.325357252357e-02
    87   -6.379272714620e-15
Sym=X
Ene= 1.998862
Spin=Alpha
Occup=1
     1    9.899564654315e-03
     2    1.498155674280e-02
     3   -5.970711778660e-02
     4   -6.107776530880e-02
     5    4.542463675675e-14
     6   -5.791260835533e-02
     7   -7.243874899517e-02
     8   -7.226385318020e-02
     9    5.281957648374e-14
    10   -5.809407647817e-02
    11   -2.399631273960e-02
    12   -3.499639208758e-02
    13    2.250470106502e-14
    14   -5.310705827106e-02
    15    2.425638606174e-02
    16    4.020715340603e-03
    17   -6.473737512819e-15
    18   -3.148747288927e-03
    19   -3.165280329224e-15
    20   -8.033290209847e-16
    21    3.543382266820e-03
    22    4.677537441293e-03
    23    6.820053722333e-03
    24    1.521808092862e-02
    25    9.837278914203e-02
    26   -1.225059581982e-01
    27    2.889577509312e-14
    28   -4.434639217962e-02
    29    1.541410714116e-01
    30   -1.888089434394e-01
    31    4.870288872651e-14
    32   -1.259336674959e-01
    33    4.586893998157e-02
    34   -9.876441294278e-02
    35    3.937194622829e-14
    36    1.115294850419e-02
    37    1.378122376418e-02
    38    2.933173772582e-02
    39    1.257247910120e-14
    40    1.801635363968e-03
    41    4.928711925927e-15
    42   -1.931220413130e-15
    43    2.139728962555e-02
    44   -2.148140360270e-02
    45   -7.243495593417e-02
    46   -1.297180446348e-01
    47   -5.981355971232e-02
    48    3.802526132351e-03
    49    3.331741583161e-14
    50    3.611727174204e-01
    51   -6.614948194178e-02
    52    1.449186228499e-02
    53    5.901136748985e-14
    54    2.827824565075e-01
    55   -3.465073067649e-02
    56    2.250149944695e-02
    57    5.223531728233e-14
    58    1.506996824840e-02
    59    7.125182354922e-04
    60   -1.814041546334e-02
    61   -9.256590642690e-16
    62   -1.107447563347e-02
    63   -4.432291601938e-17
    64    5.760616437866e-15
    65    8.721308337700e-03
    66   -2.728606173246e-04
    67    6.012893007902e-02
    68    8.006770439716e-02
    69   -2.119391296373e-02
    70   -9.100571263915e-03
    71   -4.167052303268e-03
    72    1.593214101031e-02
    73    2.171656379111e-15
    74   -1.217330282926e-01
    75   -1.845439680012e-01
    76   -5.741156940504e-02
    77   -3.377658177976e-02
    78    3.286863860354e-03
    79    1.525628316357e-02
    80    3.100648800640e-15
    81   -2.771009699236e-02
    82   -4.186025958938e-02
    83   -7.224051387612e-03
    84    2.617268353980e-02
    85    2.892420809195e-03
    86   -8.817714776957e-03
    87    4.382866126902e-15
Sym=X
Ene= 1.998600
Spin=Alpha
Occup=1
     1   -2.399456091468e-02
     2   -3.544539256246e-02
     3   -8.642804016430e-03
     4   -1.886187335579e-02
     5    5.797482617990e-14
     6    1.217476981970e-01
     7   -1.005474644637e-02
     8   -2.554006381951e-02
     9    5.915727164819e-14
    10    4.388214684781e-02
    11   -5.947473373684e-03
    12   -1.892944015922e-03
    13    6.363091412024e-14
    14    5.311509627299e-03
    15   -1.837430471026e-02
    16    3.055953399547e-02
    17    5.030528003776e-14
    18   -1.342991902362e-03
    19    9.605673789155e-15
    20    4.522666043608e-15
    21   -7.349252044803e-03
    22    6.604953780326e-03
    23    3.485063035316e-02
    24    5.888739005933e-02
    25   -1.073844143131e-01
    26    2.789401461874e-02
    27   -1.645747242800e-13
    28   -1.514045321160e-01
    29   -1.583815195874e-01
    30    4.215940588608e-02
    31   -2.750646812936e-13
    32   -3.356831979386e-02
    33   -6.315861138361e-02
    34    2.706995219031e-02
    35   -2.671627006204e-13
    36    8.480736684512e-02
    37    2.183857866310e-02
    38   -7.792412914787e-03
    39   -3.792085284267e-14
    40    5.513766274993e-03
    41   -2.835162968756e-14
    42    1.453308016644e-14
    43   -1.531198163492e-02
    44    1.101036607432e-02
    45   -7.767975664178e-03
    46   -1.498937602266e-02
    47    1.110765775287e-01
    48   -1.718205030309e-01
    49   -1.864639423599e-13
    50    3.842963439826e-02
    51    1.722488180471e-01
    52   -2.617535433396e-01
    53   -3.149378515210e-13
    54    4.489728302683e-02
    55    8.965094939906e-02
    56   -1.696888570464e-01
    57   -2.903383334855e-13
    58   -6.626251800285e-02
    59    2.511297008464e-02
    60   -3.412161686353e-02
    61   -1.685450121762e-14
    62   -4.336388477978e-03
    63    1.312255807280e-14
    64   -2.342016191336e-14
    65   -5.346197311392e-03
    66    5.908061642281e-03
    67    1.547829928485e-01
    68    2.358112095908e-01
    69    3.512006813489e-02
    70   -1.409044893233e-02
    71    1.352267061868e-03
    72    2.397938963504e-02
    73   -1.425639135664e-14
    74    3.676683356466e-03
    75    1.190109541997e-02
    76    2.592451535618e-02
    77    3.227906647734e-03
    78   -6.170996108731e-03
    79    4.131079596515e-03
    80   -1.487188110328e-14
    81    2.766015493129e-02
    82    4.756461572116e-02
    83    2.179724456451e-02
    84    3.275903127869e-03
    85   -1.003422991860e-03
    86    4.994187339251e-03
    87   -1.458257144425e-14
Sym=X
Ene= 1.997854
Spin=Alpha
Occup=1
     1    7.008639921174e-02
     2    1.039081585540e-01
     3    9.328375703132e-02
     4    2.618505734122e-02
     5    3.803249432440e-14
     6   -3.698010385520e-01
     7    1.102615014594e-01
     8    3.093221049716e-02
     9    5.105864804203e-14
    10   -1.703356931767e-01
    11    6.145243742360e-02
    12    1.558277432465e-02
    13    2.288418227093e-14
    14   -4.348556165426e-02
    15    2.368030019781e-02
    16    1.901224324254e-02
    17   -6.558993579621e-14
    18    7.137299633917e-04
    19   -1.097695134532e-14
    20   -5.331586982696e-15
    21   -2.502923566204e-03
    22   -1.481217080588e-03
    23   -5.224894505251e-03
    24   -7.936729338905e-03
    25    9.462990262161e-02
    26    1.152959409346e-01
    27    1.739151159429e-13
    28    1.380166269188e-02
    29    1.377562453045e-01
    30    1.770755681968e-01
    31    2.801835793933e-13
    32    1.085871100338e-02
    33    1.012349934452e-01
    34    1.351644301045e-01
    35    3.166507803490e-13
    36    2.642172314126e-02
    37    1.620030867819e-02
    38    1.386600035387e-02
    39   -4.434181255498e-14
    40   -2.470656721733e-03
    41    2.796778223828e-14
    42   -1.416653931428e-14
    43   -1.748027845829e-02
    44   -1.554294849142e-02
    45   -3.197489096643e-02
    46   -5.324631392611e-02
    47   -2.211874225650e-02
    48   -4.353845484019e-02
    49    1.865531938337e-13
    50    1.404006187208e-01
    51   -3.571661822276e-02
    52   -6.876736599778e-02
    53    3.200168423485e-13
    54    1.605929198111e-01
    55    2.509326268258e-02
    56   -4.241361507167e-02
    57    2.558888283260e-13
    58   -1.243712667265e-02
    59    9.795931757508e-03
    60   -2.578115317739e-02
    61    1.007573383747e-13
    62   -1.261721945402e-05
    63   -1.260148052697e-14
    64    2.586772529137e-14
    65   -3.025641072133e-02
    66   -3.544428741831e-02
    67    7.516028349142e-02
    68    1.139709341148e-01
    69    3.068029916111e-02
    70   -1.469040071119e-02
    71   -2.240066463280e-03
    72    6.282940451911e-03
    73    1.575460841275e-14
    74    1.043375636983e-01
    75    1.617584062911e-01
    76    5.009117354529e-02
    77    2.720039380758e-03
    78    7.642113533213e-03
    79   -1.124637071898e-02
    80    1.596888085727e-14
    81   -1.229323475920e-01
    82   -1.956044870284e-01
    83   -5.110533527884e-02
    84    3.997887546555e-03
    85   -1.549402930716e-02
    86   -4.528215275915e-03
    87    1.434983663858e-14
Sym=X
Ene= 1.996979
Spin=Alpha
Occup=1
     1   -1.333612839963e-13
     2   -1.996214268759e-13
     3   -6.922036575241e-14
     4   -3.863549298700e-14
     5   -8.480233313031e-02
     6    7.007479416901e-13
     7   -8.373139085963e-14
     8   -5.188624735615e-14
     9   -9.493451833974e-02
    10    2.991858250115e-13
    11   -4.089224333432e-14
    12   -7.582858711937e-15
    13   -7.558794243813e-02
    14   -6.544973953162e-15
    15    1.522976694962e-14
    16    1.298474678326e-14
    17   -5.032959151986e-02
    18   -1.966599923376e-15
    19   -8.241846605449e-03
    20   -3.777109087007e-03
    21   -5.357360409732e-15
    22    7.926306364191e-15
    23    4.716419956253e-14
    24    8.505278783017e-14