[Molden Format]
[Atoms] (Angs)
  F      1    9      1.15290231      0.22477664     -0.00000000
  C      2    6     -1.17935012      0.19972949     -0.00000000
  C      3    6     -0.01631886     -0.43556811      0.00000000
  H      4    1      0.11895302     -1.50789969      0.00000000
  H      5    1     -1.23082549      1.27856114     -0.00000000
  H      6    1     -2.09023450     -0.37861944      0.00000000
[GTO]
1    0
S    6    1.000000
   1.14271000E+04    1.80093000E-03 
   1.72235000E+03    1.37419000E-02 
   3.95746000E+02    6.81334000E-02 
   1.15139000E+02    2.33325000E-01 
   3.36026000E+01    5.89086000E-01 
   4.91901000E+00    2.99505000E-01 
SP   3    1.000000
   5.54441000E+01    1.14536000E-01   3.54609000E-02 
   1.26323000E+01    9.20512000E-01   2.37451000E-01 
   3.71756000E+00   -3.37804000E-03   8.20458000E-01 
SP   1    1.000000
   1.16545000E+00    1.00000000E+00   1.00000000E+00 
SP   1    1.000000
   3.21892000E-01    1.00000000E+00   1.00000000E+00 
SP   1    1.000000
   1.07600000E-01    1.00000000E+00   1.00000000E+00 
D    1    1.000000
   1.75000000E+00    1.00000000E+00 

2    0
S    6    1.000000
   4.56324000E+03    1.96665000E-03 
   6.82024000E+02    1.52306000E-02 
   1.54973000E+02    7.61269000E-02 
   4.44553000E+01    2.60801000E-01 
   1.30290000E+01    6.16462000E-01 
   1.82773000E+00    2.21006000E-01 
SP   3    1.000000
   2.09642000E+01    1.14660000E-01   4.02487000E-02 
   4.80331000E+00    9.19999000E-01   2.37594000E-01 
   1.45933000E+00   -3.03068000E-03   8.15854000E-01 
SP   1    1.000000
   4.83456000E-01    1.00000000E+00   1.00000000E+00 
SP   1    1.000000
   1.45585000E-01    1.00000000E+00   1.00000000E+00 
SP   1    1.000000
   4.38000000E-02    1.00000000E+00   1.00000000E+00 
D    1    1.000000
   6.26000000E-01    1.00000000E+00 

3    0
S    6    1.000000
   4.56324000E+03    1.96665000E-03 
   6.82024000E+02    1.52306000E-02 
   1.54973000E+02    7.61269000E-02 
   4.44553000E+01    2.60801000E-01 
   1.30290000E+01    6.16462000E-01 
   1.82773000E+00    2.21006000E-01 
SP   3    1.000000
   2.09642000E+01    1.14660000E-01   4.02487000E-02 
   4.80331000E+00    9.19999000E-01   2.37594000E-01 
   1.45933000E+00   -3.03068000E-03   8.15854000E-01 
SP   1    1.000000
   4.83456000E-01    1.00000000E+00   1.00000000E+00 
SP   1    1.000000
   1.45585000E-01    1.00000000E+00   1.00000000E+00 
SP   1    1.000000
   4.38000000E-02    1.00000000E+00   1.00000000E+00 
D    1    1.000000
   6.26000000E-01    1.00000000E+00 

4    0
S    3    1.000000
   3.38650000E+01    2.54938000E-02 
   5.09479000E+00    1.90373000E-01 
   1.15879000E+00    8.52161000E-01 
S    1    1.000000
   3.25840000E-01    1.00000000E+00 
S    1    1.000000
   1.02741000E-01    1.00000000E+00 
S    1    1.000000
   3.60000000E-02    1.00000000E+00 
P    1    1.000000
   7.50000000E-01    1.00000000E+00 

5    0
S    3    1.000000
   3.38650000E+01    2.54938000E-02 
   5.09479000E+00    1.90373000E-01 
   1.15879000E+00    8.52161000E-01 
S    1    1.000000
   3.25840000E-01    1.00000000E+00 
S    1    1.000000
   1.02741000E-01    1.00000000E+00 
S    1    1.000000
   3.60000000E-02    1.00000000E+00 
P    1    1.000000
   7.50000000E-01    1.00000000E+00 

6    0
S    3    1.000000
   3.38650000E+01    2.54938000E-02 
   5.09479000E+00    1.90373000E-01 
   1.15879000E+00    8.52161000E-01 
S    1    1.000000
   3.25840000E-01    1.00000000E+00 
S    1    1.000000
   1.02741000E-01    1.00000000E+00 
S    1    1.000000
   3.60000000E-02    1.00000000E+00 
P    1    1.000000
   7.50000000E-01    1.00000000E+00 

[MO]
Sym=X
Ene= 2.004903
Spin=Alpha
Occup=1
     1   -2.822658412466e-02
     2   -4.141767539286e-02
     3   -2.281597409397e-01
     4   -2.132181585571e-01
     5    5.221224220778e-13
     6    1.389110789298e-01
     7   -2.712769983126e-01
     8   -2.515160262113e-01
     9    6.145641562071e-13
    10    1.192958170188e-02
    11   -1.279131775713e-01
    12   -1.375312185492e-01
    13    3.763595531088e-13
    14   -2.926951621448e-02
    15    5.388324930494e-03
    16    1.320816264402e-03
    17    4.092558824650e-14
    18   -8.621987773166e-03
    19   -1.393414987547e-14
    20   -7.861523050402e-15
    21    6.166614987646e-03
    22    1.336515231420e-02
    23    1.319317050010e-02
    24    2.131492946194e-02
    25    2.310580331754e-02
    26    8.763534702139e-02
    27   -2.129179775604e-14
    28   -5.107949780002e-02
    29    5.230934822860e-02
    30    1.267118920047e-01
    31   -2.667191475733e-14
    32   -3.014074830535e-02
    33    3.123701888168e-02
    34    8.591727156763e-02
    35   -9.517780328114e-14
    36    1.026299702372e-01
    37    2.817523999189e-02
    38    1.017674776663e-02
    39    1.916240360059e-14
    40    1.780975934765e-03
    41   -1.800090162641e-15
    42   -8.949310385346e-16
    43    3.041728212551e-03
    44   -2.443066051929e-03
    45   -1.911734296025e-02
    46   -2.782052768894e-02
    47    8.784135961232e-02
    48    5.204090502631e-02
    49    1.082560172678e-14
    50    5.393734082582e-02
    51    1.666493146877e-01
    52    9.551283780078e-02
    53    3.219658154128e-14
    54    1.306367428614e-02
    55    2.529061866710e-02
    56    1.752644964606e-02
    57   -1.486806729159e-14
    58   -4.662882112964e-02
    59    2.353680315690e-02
    60   -4.533987894911e-02
    61   -1.353534934980e-14
    62   -1.471529472555e-02
    63    3.242901961475e-14
    64    1.476020826212e-14
    65    1.840187580062e-02
    66    3.687614186145e-02
    67   -2.123216669760e-02
    68   -2.553910457839e-02
    69   -2.567709948129e-02
    70   -3.585688970522e-02
    71    3.512049336468e-03
    72    2.515423579510e-03
    73   -1.582826304942e-15
    74    5.814569822855e-02
    75    9.591247985475e-02
    76    8.078250296101e-03
    77   -3.517770113430e-03
    78    2.063301283236e-03
    79   -1.107986406087e-02
    80    3.410764694761e-16
    81   -6.335148429221e-02
    82   -8.669476990320e-02
    83   -8.664964926347e-03
    84   -6.784890191574e-03
    85   -8.420464840579e-03
    86   -3.038295001363e-03
    87    1.552836788593e-15
Sym=X
Ene= 2.003364
Spin=Alpha
Occup=1
     1    1.380536825185e-14
     2    2.347459107529e-14
     3   -2.930971573527e-13
     4   -2.935314254026e-13
     5   -4.116933873974e-01
     6   -8.986896643962e-14
     7   -3.490256921683e-13
     8   -3.540760015783e-13
     9   -4.803620018519e-01
    10   -1.303211485019e-13
    11   -1.454432533650e-13
    12   -1.564199609437e-13
    13   -3.070023608489e-01
    14   -2.814430655266e-13
    15    1.502750870555e-13
    16    1.275254194334e-14
    17   -1.329443211420e-02
    18   -1.172140276704e-14
    19    1.086742385637e-02
    20    6.309037116530e-03
    21    8.938749229712e-15
    22    1.682700845876e-14
    23    6.474285737778e-15
    24    1.415546262681e-14
    25    4.652468124885e-14
    26    1.123814084865e-13
    27    9.503398881884e-03
    28   -4.549307819440e-14
    29    8.316703119994e-14
    30    1.636566114994e-13
    31    1.410892587308e-02
    32    3.926029914075e-14
    33    1.462926170780e-14
    34    6.251133702395e-14
    35    2.322724911488e-02
    36   -2.148701511160e-12
    37    2.312804326335e-13
    38    1.229076272127e-12
    39    1.004442420997e-02
    40   -1.342716639016e-14
    41   -1.754919133771e-03
    42    1.324365543138e-03
    43    6.296349140448e-15
    44    1.409897224984e-14
    45   -1.036650074509e-13
    46   -1.110343803048e-13
    47    1.012538064778e-13
    48    6.392977129997e-14
    49   -2.103436285671e-02
    50    1.204298046062e-13
    51    1.979174839826e-13
    52    1.263273218783e-13
    53   -3.864687955091e-02
    54    2.021283226159e-13
    55    1.569776266225e-13
    56    8.962263688407e-14
    57   -2.753664295380e-03
    58    2.229138676248e-12
    59   -6.063384267614e-13
    60   -2.543449659868e-13
    61   -9.592368155282e-03
    62   -3.423188502368e-14
    63   -2.337530415947e-02
    64   -1.065475368578e-02
    65    1.068116089024e-14
    66    4.753693002281e-14
    67   -1.395727230054e-14
    68   -2.883008839889e-14
    69   -8.545744567969e-14
    70   -3.570656804309e-13
    71   -1.948300781052e-15
    72    1.054649515219e-14
    73   -1.022213744641e-03
    74    8.248505641949e-14
    75    1.369399876611e-13
    76   -7.945103727314e-14
    77   -8.332346548099e-13
    78    1.629896636066e-14
    79   -1.114812928603e-14
    80    3.990703998307e-04
    81   -8.485451713415e-14
    82   -2.234022462772e-13
    83    2.685514994445e-13
    84    1.110941821565e-12
    85   -1.015173780053e-14
    86   -4.417512832634e-15
    87    1.280378254691e-03
Sym=X
Ene= 2.001967
Spin=Alpha
Occup=1
     1    1.542808995347e-02
     2    2.275877117809e-02
     3    2.238672973821e-01
     4   -3.333468366967e-01
     5    2.100365101855e-14
     6   -7.687028250445e-02
     7    2.621153626858e-01
     8   -3.868333087484e-01
     9    2.869187694517e-14
    10   -2.743420721642e-02
    11    1.630667119999e-01
    12   -2.555263226527e-01
    13   -2.002807335129e-15
    14    1.273449478057e-03
    15    2.798580614770e-04
    16   -4.562333358180e-03
    17    1.297489024215e-14
    18    1.573697716912e-03
    19   -8.403166780346e-16
    20   -8.523595148401e-16
    21   -9.820313466973e-03
    22    3.074971034502e-03
    23   -2.095248528944e-02
    24   -3.378396211179e-02
    25   -9.679348887965e-03
    26   -1.883448833459e-02
    27    1.189389583639e-14
    28    8.262723192452e-02
    29   -2.369734260056e-02
    30   -1.865555447912e-02
    31    1.376636420307e-14
    32    8.534166550731e-02
    33   -1.226345278918e-02
    34   -3.498005598080e-02
    35    3.609097088598e-14
    36    1.667812913747e-01
    37    2.936168140112e-02
    38   -2.316734844451e-02
    39   -2.438874723577e-14
    40   -1.364598006688e-03
    41    8.012868499888e-16
    42    1.074887555824e-15
    43    1.900710734191e-03
    44    9.347121486234e-03
    45    1.342020141720e-02
    46    2.117423283082e-02
    47   -1.907326370646e-02
    48    1.392532519545e-02
    49    1.072763718929e-14
    50   -5.149804884834e-02
    51   -4.395459964676e-02
    52    2.060109304250e-02
    53    1.565899238169e-14
    54   -3.674556933497e-02
    55    3.893595580251e-03
    56    2.450959571977e-02
    57    1.492858964981e-14
    58   -1.236259046844e-01
    59    5.898983103045e-02
    60   -5.791637753894e-02
    61    1.311868753630e-14
    62    2.307743749460e-03
    63    4.081257051684e-15
    64    5.492050777081e-15
    65    2.806214951984e-02
    66   -1.943026592636e-02
    67   -3.504184421303e-02
    68   -5.934917278141e-02
    69   -3.508830602325e-02
    70   -4.933648345524e-02
    71   -3.542089241452e-03
    72   -3.934325891502e-03
    73   -1.619996298904e-15
    74    3.036985086666e-03
    75   -8.034085991894e-04
    76   -1.608580059523e-03
    77    9.051928355346e-03
    78   -3.073582361069e-03
    79   -5.925927168869e-04
    80    1.838147417857e-15
    81    3.120247274695e-02
    82    3.696012977948e-02
    83   -1.117036893823e-02
    84    9.208679335371e-03
    85    3.320987224081e-03
    86    7.551910207886e-04
    87   -3.606320449961e-16
Sym=X
Ene= 2.000102
Spin=Alpha
Occup=1
     1   -6.616881407341e-03
     2   -9.632890458952e-03
     3   -9.137152823868e-03
     4   -7.629758805129e-02
     5    2.679208986839e-14
     6    2.971981864382e-02
     7   -1.321328808712e-02
     8   -9.066865196378e-02
     9    2.753114672461e-14
    10   -9.206112730126e-03
    11    7.662167156439e-03
    12   -4.692249593010e-02
    13    1.671058190383e-14
    14   -3.805044144984e-02
    15    1.427196478279e-02
    16    6.944889924795e-03
    17    1.617415542666e-14
    18   -2.037304518428e-03
    19    1.965031894381e-15
    20    1.626369826259e-15
    21   -2.656688050755e-04
    22    5.122397090220e-03
    23    5.263567658018e-02
    24    8.921644314615e-02
    25    7.518609730341e-02
    26   -1.101806880918e-01
    27   -4.892863461986e-14
    28   -2.286709458827e-01
    29    1.182239122346e-01
    30   -1.708438997817e-01
    31   -8.572773876317e-14
    32   -2.144362175127e-01
    33    3.331920264872e-02
    34   -8.997235828538e-02
    35   -8.198490186826e-14
    36    6.330034317483e-02
    37    1.656225876507e-02
    38    1.459701843498e-02
    39   -2.811228514247e-15
    40    9.466234848930e-03
    41   -1.007764325045e-14
    42    5.703831523656e-15
    43    1.745212968172e-02
    44   -1.637963283958e-02
    45   -5.529367090299e-02
    46   -9.463842631538e-02
    47   -1.842246097805e-02
    48   -3.704894268436e-02
    49   -5.830883807143e-14
    50    2.607780125154e-01
    51   -8.150727954766e-03
    52   -5.351576816306e-02
    53   -9.727423007827e-14
    54    2.108433019131e-01
    55   -1.054998438461e-02
    56   -9.199462048729e-03
    57   -8.317064263437e-14
    58   -2.508116398421e-02
    59    1.340720095919e-02
    60   -2.128166031323e-02
    61   -9.366437829292e-15
    62   -7.659849612688e-03
    63    5.661969247901e-15
    64   -7.030303726234e-15
    65    7.096198501603e-03
    66    2.441636746814e-03
    67    7.067717458971e-02
    68    9.675724772125e-02
    69   -1.336218170697e-02
    70   -9.931065117710e-03
    71   -2.808818490059e-03
    72    1.612854224848e-02
    73   -4.270324499687e-15
    74   -1.436772406069e-01
    75   -2.115409082185e-01
    76   -3.920121165203e-02
    77   -2.999917567663e-02
    78    1.188982426791e-03
    79    2.300860388300e-02
    80   -3.489199777595e-15
    81   -5.404270579291e-02
    82   -7.749686641107e-02
    83   -7.992727733679e-03
    84    1.132459975774e-02
    85   -4.721748587243e-03
    86   -1.155901273899e-02
    87   -3.314493203994e-15
Sym=X
Ene= 2.000061
Spin=Alpha
Occup=1
     1    5.180002753631e-02
     2    7.656065526131e-02
     3   -2.365293573326e-02
     4    1.997748545681e-03
     5    1.087572635868e-14
     6   -2.611462386538e-01
     7   -2.159338343007e-02
     8    6.268426874775e-03
     9    1.367857640361e-14
    10   -9.762999536047e-02
    11   -2.746748828423e-02
    12   -5.974638628024e-03
    13    3.305642709221e-15
    14    3.972929357493e-02
    15   -1.458729768189e-02
    16   -1.717960655252e-02
    17   -3.590870902680e-15
    18    2.399685752301e-03
    19   -2.251132283289e-15
    20   -1.267159676246e-15
    21   -2.261154739357e-05
    22   -3.905645867126e-03
    23    5.375241320460e-02
    24    1.005583943950e-01
    25   -6.543267505979e-03
    26   -8.449228602973e-04
    27    2.884363818185e-14
    28   -2.804075674799e-01
    29   -1.315582353563e-02
    30   -9.717755479158e-04
    31    5.096844279934e-14
    32   -1.778957000655e-01
    33   -5.407311886511e-04
    34   -1.657643108437e-02
    35    3.858683313021e-14
    36   -2.100776727251e-02
    37   -1.647060082877e-02
    38   -1.472798005400e-02
    39    6.636075217922e-15
    40    1.044742525041e-02
    41    4.578464376451e-15
    42   -3.498427872585e-15
    43    1.905172742785e-03
    44    8.385274535564e-03
    45    4.125744364565e-02
    46    9.703568660420e-02
    47    2.628391982019e-02
    48    4.700858821619e-02
    49    3.427730968940e-14
    50   -3.259001233933e-01
    51    2.737527209792e-02
    52    6.492548483869e-02
    53    5.741369583499e-14
    54   -1.955951135142e-01
    55   -1.619674643562e-02
    56    4.911012149326e-02
    57    4.459370240986e-14
    58    1.940909272814e-02
    59   -1.329111231576e-02
    60    2.438315978935e-02
    61    6.810707062439e-16
    62    1.332621150297e-02
    63   -1.987855556729e-15
    64    4.747907096431e-15
    65    6.234741248658e-04
    66    1.340130047486e-02
    67   -9.912484717491e-02
    68   -1.423191034484e-01
    69   -4.210896472183e-03
    70    9.880261301737e-03
    71    3.350453290407e-03
    72   -1.964902909932e-02
    73    2.797235057312e-15
    74   -6.438337156454e-02
    75   -9.243213533488e-02
    76   -4.260657683554e-03
    77    3.688776896892e-03
    78   -1.460516051605e-03
    79    1.357944106049e-02
    80    2.983575393889e-15
    81   -5.003239846069e-02
    82   -6.503644501334e-02
    83    1.191724990480e-03
    84   -2.616501563116e-02
    85   -1.113794259650e-02
    86   -7.701644569974e-03
    87    1.196884670354e-15
Sym=X
Ene= 1.999997
Spin=Alpha
Occup=1
     1   -1.475989419912e-03
     2   -2.184000786013e-03
     3    5.564997922516e-04
     4    7.553931727762e-04
     5    4.258388908849e-15
     6    7.479618281600e-03
     7    4.784196423663e-04
     8    7.929856936958e-04
     9    3.332813587264e-15
    10    3.004494300357e-03
    11    5.783099200724e-04
    12    6.318746577133e-04
    13    2.562146156264e-15
    14   -8.981090102426e-04
    15    3.932443942868e-04
    16    3.822538268026e-04
    17    4.866288404394e-15
    18   -5.635312619242e-05
    19    1.041082517497e-15
    20    8.791360842474e-16
    21    4.665849522641e-05
    22    6.986143772539e-05
    23   -5.634818880997e-01
    24   -4.681490220660e-01
    25   -4.526257035287e-05
    26    2.617680051599e-04
    27   -1.563927492018e-14
    28    2.484124640972e-03
    29    6.688767138820e-04
    30    1.216828898271e-03
    31   -2.391187525210e-14
    32    4.845260191186e-03
    33    1.389443436459e-04
    34    7.801426044000e-04
    35   -2.593021283171e-14
    36   -1.025855530807e-04
    37    2.690842387929e-04
    38    1.391926271733e-04
    39    1.960958568843e-15
    40    2.309749222962e-04
    41   -3.547443130466e-15
    42    2.986459124385e-15
    43   -2.409646492405e-04
    44   -4.355706680887e-05
    45    3.785634343577e-02
    46    3.013151342382e-02
    47   -3.526060388401e-04
    48   -4.804075662912e-04
    49   -1.694848424920e-14
    50    6.585992721784e-03
    51   -1.327368210488e-03
    52   -5.090046433514e-04
    53   -2.875101016833e-14
    54    4.157052415551e-03
    55    1.985376978894e-04
    56   -5.531965439911e-04
    57   -2.003589258730e-14
    58   -6.576983669124e-04
    59    3.059741357276e-04
    60   -3.405179129674e-04
    61   -5.517708397454e-15
    62   -4.409502171980e-04
    63    9.798790060640e-16
    64   -2.199049323874e-15
    65   -3.629231750928e-05
    66   -3.142558325101e-04
    67    1.681858205250e-03
    68    2.377467079743e-03
    69    2.279456364462e-04
    70   -4.726859872916e-05
    71   -3.662558553191e-05
    72    3.418483141376e-04
    73   -1.098495818056e-15
    74    1.571236544189e-03
    75    2.931581357897e-03
    76    9.154107498922e-05
    77    3.048634885000e-04
    78    3.725665280743e-05
    79   -3.764747404797e-04
    80   -1.148517055792e-15
    81    5.109164495148e-04
    82    1.396670849206e-03
    83   -5.816003515801e-04
    84    6.745411279748e-04
    85    3.091874672977e-04
    86    2.351007291235e-04
    87    4.543297532502e-16
Sym=X
Ene= 1.999994
Spin=Alpha
Occup=1
     1    2.030735510030e-03
     2    2.979496638237e-03
     3   -1.598884362185e-03
     4   -5.168395393818e-04
     5   -4.064296570970e-14
     6   -1.015727830805e-02
     7   -2.051247324922e-03
     8   -7.507626400204e-04
     9   -4.896655348729e-14
    10   -3.097681616708e-03
    11   -1.995183972310e-03
    12   -6.218738641760e-04
    13   -2.597444002322e-14
    14    1.492679037141e-03
    15   -1.045975934698e-03
    16   -1.789216162511e-04
    17    3.874423731390e-15
    18   -2.626208498809e-05
    19    2.197595510908e-15
    20    9.270455321515e-16
    21   -2.569885516100e-05
    22    1.508957505602e-04
    23    4.400003842258e-02
    24    4.116306807362e-02
    25   -2.943305625569e-03
    26    3.417853683135e-03
    27   -3.108317168619e-14
    28   -2.348562776746e-02
    29   -5.620167905300e-03
    30    5.931386466944e-03
    31   -5.044855207378e-14
    32   -1.266242286038e-02
    33   -7.947115834060e-04
    34    1.896307157766e-03
    35   -4.682372526211e-14
    36    6.059010709584e-04
    37   -8.487566970361e-04
    38   -1.580623125340e-03
    39   -1.502003968612e-15
    40    1.033976442616e-03
    41   -7.053789385283e-15
    42    4.047626993176e-15
    43   -6.856324584907e-04
    44    1.149251447332e-03
    45    5.663138553971e-01
    46    4.736129074586e-01
    47    9.112324147070e-03
    48    2.351283376032e-04
    49   -3.593599892952e-14
    50   -2.012828361653e-02
    51    5.317095793062e-03
    52   -2.604264301178e-03
    53   -6.756569684231e-14
    54   -1.398279806124e-02
    55    2.773410212636e-03
    56   -3.941624452601e-04
    57   -4.814233179277e-14
    58    9.981495558487e-04
    59   -4.525434092304e-04
    60    1.059050900770e-03
    61   -4.971167120524e-15
    62    3.499996411419e-04
    63   -8.359023131329e-16
    64   -5.006251003636e-15
    65   -1.892015633285e-04
    66    3.629645378746e-04
    67   -3.049225461253e-03
    68   -4.724992125504e-03
    69    1.120365111245e-03
    70   -8.493179572436e-05
    71    3.423580518716e-04
    72   -9.213348501916e-04
    73   -2.110044618350e-15
    74   -1.954590322617e-03
    75   -2.467660679694e-03
    76    1.536136429418e-03
    77    6.391599287747e-04
    78   -1.789555421293e-04
    79    7.875985997115e-04
    80   -2.812783637270e-15
    81   -4.110522179339e-03
    82   -5.296526073390e-03
    83    1.771074613593e-04
    84   -2.511027047593e-03
    85   -9.836362300035e-04
    86   -4.909178730168e-04
    87   -1.446655367701e-15
Sym=X
Ene= 1.999733
Spin=Alpha
Occup=1
     1   -1.815044708903e-02
     2   -2.690322942137e-02
     3    4.744563064365e-04
     4    1.356459941642e-02
     5   -6.948641137376e-14
     6    9.451794971570e-02
     7   -2.575180783053e-03
     8    1.762131317664e-02
     9   -7.123623983700e-14
    10    4.191669975677e-02
    11    9.258802902981e-03
    12    3.028406585351e-03
    13   -7.808728368417e-14
    14   -2.097301276398e-02
    15    2.251241315396e-02
    16   -2.686354683823e-02
    17   -6.219420056546e-14
    18   -4.425556695557e-05
    19   -1.215110353293e-14
    20   -5.496674239055e-15
    21    8.285019707379e-03
    22   -4.531521477982e-03
    23   -3.540420438245e-02
    24   -6.071054462136e-02
    25    1.302929711886e-01
    26   -6.157337537506e-02
    27    2.214901472154e-13
    28    1.611998614065e-01
    29    1.961855069297e-01
    30   -9.388052613329e-02
    31    3.793452350381e-13
    32    5.770873482988e-03
    33    6.511154724661e-02
    34   -4.964075942797e-02
    35    3.294604528032e-13
    36   -8.560765848985e-02
    37   -2.177572519094e-02
    38    1.465308285893e-02
    39    5.174981263941e-14
    40   -5.019265472870e-03
    41    4.440117298482e-14
    42   -2.029499030141e-14
    43    2.263016592546e-02
    44   -1.695647048519e-02
    45   -4.360002979980e-03
    46   -1.873498459701e-02
    47   -1.256779883225e-01
    48    1.742202056399e-01
    49    2.520286708269e-13
    50    8.214864734774e-02
    51   -1.850693486482e-01
    52    2.695200481543e-01
    53    4.352565333944e-13
    54    3.302044623187e-02
    55   -9.251551132564e-02
    56    1.637420337068e-01
    57    3.750733520139e-13
    58    7.515172941332e-02
    59   -2.395468955446e-02
    60    3.231380640827e-02
    61    1.102712784190e-14
    62    6.337535078130e-05
    63   -2.474814732212e-14
    64    3.400214039999e-14
    65    1.112481060631e-02
    66   -2.154545427386e-03
    67   -1.275737036007e-01
    68   -1.926063283177e-01
    69   -2.621848842595e-02
    70    1.386204650046e-02
    71   -3.058394172289e-03
    72   -1.828833817256e-02
    73    1.709808132873e-14
    74   -3.075122831199e-02
    75   -5.205583667200e-02
    76   -3.585242791967e-02
    77   -1.113038910976e-02
    78    6.680817442414e-03
    79   -1.251786829499e-03
    80    1.785511304570e-14
    81   -2.611931995157e-02
    82   -4.353798229582e-02
    83   -1.940958303961e-02
    84    1.216320279969e-03
    85    2.899530049103e-03
    86   -6.279648367112e-03
    87    1.688415151802e-14
Sym=X
Ene= 1.999173
Spin=Alpha
Occup=1
     1    1.143792357564e-01
     2    1.697076544168e-01
     3   -1.827456494374e-01
     4   -4.807715131232e-02
     5    1.047910920422e-14
     6   -5.955008989634e-01
     7   -2.075540885691e-01
     8   -5.289049219951e-02
     9    2.291904674985e-14
    10   -2.868150967552e-01
    11   -1.216145636491e-01
    12   -2.772584828827e-02
    13   -2.581208846615e-14
    14   -1.552296971358e-02
    15    4.640653124471e-03
    16    1.573755137982e-03
    17   -9.863576495912e-14
    18   -2.700915784794e-03
    19   -2.148345221637e-14
    20   -1.035457471185e-14
    21    4.191177341165e-03
    22    3.541992972780e-03
    23   -3.489243885640e-02
    24   -5.692435357276e-02
    25   -2.367867547173e-02
    26   -5.290071776574e-02
    27    3.425007848570e-13
    28    1.419936853280e-01
    29   -3.214567796543e-02
    30   -8.388044597984e-02
    31    5.937830543204e-13
    32    7.870611141664e-02
    33   -3.531614155886e-02
    34   -4.400699314753e-02
    35    4.961464634665e-13
    36    1.173559401106e-02
    37    1.084701224819e-02
    38    1.834634267932e-02
    39    4.441369798096e-14
    40   -5.104027475432e-03
    41    6.593926422567e-14
    42   -3.233235844543e-14
    43    9.512483613356e-03
    44    7.025317720254e-05
    45   -2.020656555611e-02
    46   -3.986564875120e-02
    47   -1.274406293832e-02
    48    1.102192656118e-02
    49    3.879961299281e-13
    50    1.246604943712e-01
    51   -7.053712231365e-03
    52    2.468554680374e-02
    53    6.743294179344e-13
    54    7.264886778358e-02
    55   -7.250950131774e-04
    56    9.470654411086e-03
    57    5.506020099600e-13
    58   -4.125150753191e-03
    59   -3.410622618865e-03
    60   -1.581657099250e-02
    61    5.886722776528e-14
    62   -3.680752778878e-03
    63   -3.406453198185e-14
    64    5.623146404631e-14
    65    8.173390006796e-03
    66    5.617421561830e-03
    67    1.003324883055e-02
    68    1.309051473853e-02
    69   -1.881398753055e-02
    70   -6.835082408815e-03
    71    2.683310657325e-04
    72    6.571237893473e-03
    73    2.598382759472e-14
    74   -1.521113181394e-02
    75   -2.758330638218e-02
    76   -2.821130932803e-02
    77   -1.412897848520e-02
    78   -1.738136631646e-03
    79   -1.684883610067e-03
    80    2.947274763758e-14
    81    6.990527882246e-02
    82    1.032780338978e-01
    83    2.034824841633e-02
    84    1.529016188861e-02
    85    1.194421460167e-02
    86    5.418461475260e-03
    87    2.889249118055e-14
Sym=X
Ene= 1.998724
Spin=Alpha
Occup=1
     1    1.489267627653e-13
     2    2.231935614443e-13
     3   -4.938590569960e-13
     4   -9.743673915545e-14
     5    4.709768187705e-02
     6   -7.720354074290e-13
     7   -5.685643478670e-13
     8   -1.031977428635e-13
     9    5.032140213126e-02
    10   -3.686312245010e-13
    11   -3.235078152735e-13
    12   -6.709152941723e-14
    13    4.858045375353e-02
    14    6.033511525359e-14
    15   -4.721263929660e-14
    16   -5.078284995461e-14
    17    4.715873632995e-02
    18   -5.714924880185e-15
    19    8.675105860134e-03
    20    4.137187445550e-03
    21    2.223431465995e-14
    22    1.709867185075e-15
    23   -9.534720107155e-14
    24   -1.931719964720e-13
    25   -3.322131322703e-14
    26   -2.922007925318e-13
    27   -1.618204698554e-01
    28    5.880762478855e-13
    29   -3.955317645458e-14
    30   -4.603023067429e-13
    31   -2.745491294391e-01
    32    3.056905833353e-13
    33   -8.700625906194e-14
    34   -3.033007092903e-13
    35   -2.442131923801e-01
    36    6.211328112703e-13
    37   -5.140754857646e-13
    38   -9.455221191918e-13
    39   -2.675524942719e-02
    40   -1.966500956361e-14
    41   -3.135843805000e-02
    42    1.478412389069e-02
    43    6.530617783639e-14
    44    3.727646998152e-16
    45   -1.040200838676e-13
    46   -1.020672045847e-13
    47   -1.593747999881e-13
    48    3.078189120186e-13
    49   -1.816482199465e-01
    50    9.756923449122e-14
    51   -2.101578052423e-13
    52    4.963927139178e-13
    53   -3.143102064655e-01
    54   -1.771969584236e-13
    55   -1.194621537472e-13
    56    2.503143834978e-13
    57   -2.645553028748e-01
    58   -6.790129635619e-13
    59    2.078186875188e-13
    60    4.285699903255e-13
    61   -1.863199716243e-02
    62    5.245193645190e-17
    63    1.944493377143e-02
    64   -2.388705992254e-02
    65    7.002820005374e-14
    66    5.432644969189e-14
    67   -2.560576708431e-13
    68   -3.768224336227e-13
    69   -5.147194620295e-14
    70    3.393542183518e-13
    71   -2.132265621826e-15
    72   -2.061274121851e-14
    73   -1.288577024947e-02
    74   -1.403836779744e-13
    75   -2.413433992015e-13
    76    6.100916014743e-15
    77    7.277182276721e-13
    78   -8.521149773736e-15
    79   -1.630027510388e-15
    80   -1.319736131089e-02
    81    2.857215266080e-13
    82    4.489561920716e-13
    83   -1.447279751151e-13
    84   -1.030637925899e-12
    85    4.712092535815e-14
    86    1.498123155923e-14
    87   -1.217018438357e-02
Sym=X
Ene= 1.997915
Spin=Alpha
Occup=1
     1   -6.843864074745e-02
     2   -1.014065547208e-01
     3   -1.213747977036e-01
     4   -3.109517863805e-02
     5   -1.532056083119e-13
     6    3.603428803542e-01
     7   -1.437634289728e-01
     8   -3.749557779475e-02
     9   -1.754455408252e-13
    10    1.593567809122e-01
    11   -7.857900593448e-02
    12   -1.595045500734e-02
    13   -1.338213325149e-13
    14    4.140519714290e-02
    15   -2.503494946954e-02
    16   -1.343094297236e-02
    17   -4.135869464780e-14
    18   -1.701543440526e-03
    19   -7.883240405910e-15
    20   -3.483894819295e-15
    21    2.665894916168e-03
    22    3.383204098795e-03
    23   -5.331129188941e-03
    24   -9.469606857667e-03