[Molden Format]
[Atoms] (Angs)
  F      1    9      1.15290231      0.22477664     -0.00000000
  C      2    6     -1.17935012      0.19972949     -0.00000000
  C      3    6     -0.01631886     -0.43556811      0.00000000
  H      4    1      0.11895302     -1.50789969      0.00000000
  H      5    1     -1.23082549      1.27856114     -0.00000000
  H      6    1     -2.09023450     -0.37861944      0.00000000
[GTO]
1    0
S    6    1.000000
   1.14271000E+04    1.80093000E-03 
   1.72235000E+03    1.37419000E-02 
   3.95746000E+02    6.81334000E-02 
   1.15139000E+02    2.33325000E-01 
   3.36026000E+01    5.89086000E-01 
   4.91901000E+00    2.99505000E-01 
SP   3    1.000000
   5.54441000E+01    1.14536000E-01   3.54609000E-02 
   1.26323000E+01    9.20512000E-01   2.37451000E-01 
   3.71756000E+00   -3.37804000E-03   8.20458000E-01 
SP   1    1.000000
   1.16545000E+00    1.00000000E+00   1.00000000E+00 
SP   1    1.000000
   3.21892000E-01    1.00000000E+00   1.00000000E+00 
SP   1    1.000000
   1.07600000E-01    1.00000000E+00   1.00000000E+00 
D    1    1.000000
   1.75000000E+00    1.00000000E+00 

2    0
S    6    1.000000
   4.56324000E+03    1.96665000E-03 
   6.82024000E+02    1.52306000E-02 
   1.54973000E+02    7.61269000E-02 
   4.44553000E+01    2.60801000E-01 
   1.30290000E+01    6.16462000E-01 
   1.82773000E+00    2.21006000E-01 
SP   3    1.000000
   2.09642000E+01    1.14660000E-01   4.02487000E-02 
   4.80331000E+00    9.19999000E-01   2.37594000E-01 
   1.45933000E+00   -3.03068000E-03   8.15854000E-01 
SP   1    1.000000
   4.83456000E-01    1.00000000E+00   1.00000000E+00 
SP   1    1.000000
   1.45585000E-01    1.00000000E+00   1.00000000E+00 
SP   1    1.000000
   4.38000000E-02    1.00000000E+00   1.00000000E+00 
D    1    1.000000
   6.26000000E-01    1.00000000E+00 

3    0
S    6    1.000000
   4.56324000E+03    1.96665000E-03 
   6.82024000E+02    1.52306000E-02 
   1.54973000E+02    7.61269000E-02 
   4.44553000E+01    2.60801000E-01 
   1.30290000E+01    6.16462000E-01 
   1.82773000E+00    2.21006000E-01 
SP   3    1.000000
   2.09642000E+01    1.14660000E-01   4.02487000E-02 
   4.80331000E+00    9.19999000E-01   2.37594000E-01 
   1.45933000E+00   -3.03068000E-03   8.15854000E-01 
SP   1    1.000000
   4.83456000E-01    1.00000000E+00   1.00000000E+00 
SP   1    1.000000
   1.45585000E-01    1.00000000E+00   1.00000000E+00 
SP   1    1.000000
   4.38000000E-02    1.00000000E+00   1.00000000E+00 
D    1    1.000000
   6.26000000E-01    1.00000000E+00 

4    0
S    3    1.000000
   3.38650000E+01    2.54938000E-02 
   5.09479000E+00    1.90373000E-01 
   1.15879000E+00    8.52161000E-01 
S    1    1.000000
   3.25840000E-01    1.00000000E+00 
S    1    1.000000
   1.02741000E-01    1.00000000E+00 
S    1    1.000000
   3.60000000E-02    1.00000000E+00 
P    1    1.000000
   7.50000000E-01    1.00000000E+00 

5    0
S    3    1.000000
   3.38650000E+01    2.54938000E-02 
   5.09479000E+00    1.90373000E-01 
   1.15879000E+00    8.52161000E-01 
S    1    1.000000
   3.25840000E-01    1.00000000E+00 
S    1    1.000000
   1.02741000E-01    1.00000000E+00 
S    1    1.000000
   3.60000000E-02    1.00000000E+00 
P    1    1.000000
   7.50000000E-01    1.00000000E+00 

6    0
S    3    1.000000
   3.38650000E+01    2.54938000E-02 
   5.09479000E+00    1.90373000E-01 
   1.15879000E+00    8.52161000E-01 
S    1    1.000000
   3.25840000E-01    1.00000000E+00 
S    1    1.000000
   1.02741000E-01    1.00000000E+00 
S    1    1.000000
   3.60000000E-02    1.00000000E+00 
P    1    1.000000
   7.50000000E-01    1.00000000E+00 

[MO]
Sym=X
Ene= 2.003851
Spin=Alpha
Occup=1
     1    2.785238039129e-02
     2    4.078728735093e-02
     3    2.744830452524e-01
     4    1.253722610889e-01
     5   -1.993243306171e-12
     6   -1.372615304968e-01
     7    3.244879535893e-01
     8    1.482301704359e-01
     9   -2.335726825037e-12
    10   -1.703062910238e-02
    11    1.696076312774e-01
    12    7.400876900742e-02
    13   -1.499446385107e-12
    14    1.517501250181e-02
    15   -1.330485174544e-04
    16    2.021229045983e-03
    17   -8.798482018785e-14
    18    7.472039753694e-03
    19    4.773982907598e-14
    20    2.508383345712e-14
    21   -7.832512962399e-03
    22   -9.919349573234e-03
    23   -2.013150390205e-02
    24   -3.272670897691e-02
    25   -2.395180997933e-02
    26   -9.455624509272e-02
    27    4.725287323626e-14
    28    7.923550812514e-02
    29   -5.393694132271e-02
    30   -1.350456718393e-01
    31    6.260160683736e-14
    32    5.640733072124e-02
    33   -3.236018321960e-02
    34   -9.550745508381e-02
    35    1.690661872833e-13
    36   -2.479411767226e-02
    37   -2.380872495710e-02
    38   -1.502546556975e-02
    39    1.501498894575e-14
    40   -2.498666651177e-03
    41   -6.634702816505e-15
    42    6.396312288906e-15
    43   -5.933493635663e-04
    44    4.378718021032e-03
    45    1.587111283647e-02
    46    2.105236006743e-02
    47   -8.820169981619e-02
    48   -4.993827772735e-02
    49   -9.557521831884e-14
    50   -3.293025676485e-02
    51   -1.638829172581e-01
    52   -8.964593659774e-02
    53   -1.844336404378e-13
    54    1.034851754864e-02
    55   -1.494808681687e-02
    56   -1.222527326071e-02
    57   -3.740895743017e-15
    58    2.770317140110e-02
    59    3.065624833240e-04
    60    2.005846310735e-02
    61   -2.364012061011e-14
    62    1.269410132810e-02
    63   -1.082616507831e-13
    64   -5.254006632636e-14
    65   -8.050792716146e-03
    66   -3.893206843761e-02
    67    2.004436217951e-02
    68    2.210061002148e-02
    69    1.373715005125e-02
    70   -5.507444063470e-03
    71   -4.683586081885e-03
    72   -8.965158389707e-04
    73   -3.878521766425e-15
    74   -5.812563521078e-02
    75   -9.726829196422e-02
    76   -1.222720901316e-02
    77   -4.285373229992e-03
    78   -2.547884064010e-03
    79    1.039622377610e-02
    80    8.419817320550e-16
    81    7.368520704458e-02
    82    1.021133944696e-01
    83    9.528285933745e-03
    84   -1.015812295249e-02
    85    9.598969869056e-03
    86    3.536822901644e-03
    87    2.634454656002e-15
Sym=X
Ene= 2.003478
Spin=Alpha
Occup=1
     1   -8.397749625347e-14
     2   -1.196032613654e-13
     3   -1.395219993864e-12
     4   -5.148474078662e-13
     5   -4.096494332899e-01
     6    3.920675754628e-13
     7   -1.649013209303e-12
     8   -6.185312570441e-13
     9   -4.790451333233e-01
    10   -6.400503017165e-14
    11   -8.548428942697e-13
    12   -2.542938626939e-13
    13   -3.099968821401e-01
    14   -3.120278275522e-13
    15    1.421065935966e-13
    16    2.021959214736e-15
    17   -1.345929126087e-02
    18   -3.709903536496e-14
    19    9.736457639747e-03
    20    5.173037569039e-03
    21    4.142264571183e-14
    22    4.628918800972e-14
    23    9.445810088469e-14
    24    1.578409046388e-13
    25    1.334382911494e-13
    26    4.622896866955e-13
    27    8.010238415888e-03
    28   -3.955834918621e-13
    29    2.813912030271e-13
    30    6.582414163171e-13
    31    1.174296952018e-02
    32   -2.210116241470e-13
    33    1.356844682492e-13
    34    4.230396644616e-13
    35    2.078436177670e-02
    36   -2.211491608672e-12
    37    3.040931369543e-13
    38    1.304839322177e-12
    39    1.003358702369e-02
    40   -2.614561187261e-15
    41   -2.046015611256e-03
    42    1.341784227158e-03
    43    4.682097595715e-15
    44   -7.177287398320e-15
    45   -1.517526230239e-13
    46   -1.719465959160e-13
    47    4.200897989139e-13
    48    2.381020808307e-13
    49   -2.240357973034e-02
    50    2.003594145371e-13
    51    7.879204475285e-13
    52    4.344903786840e-13
    53   -4.034509561204e-02
    54    1.269947019721e-13
    55    1.924230409158e-13
    56    1.182921998235e-13
    57   -4.560521939314e-03
    58    2.202988281628e-12
    59   -6.559782059282e-13
    60   -2.802184535005e-13
    61   -9.950919467953e-03
    62   -7.543150172472e-14
    63   -2.187639103436e-02
    64   -1.066687966514e-02
    65    1.763848751095e-14
    66    1.940916927478e-13
    67   -8.077761566792e-14
    68   -9.651442364371e-14
    69   -1.108135869103e-13
    70   -2.780710818049e-13
    71    1.732244599309e-14
    72    1.089221487027e-14
    73   -1.214144540510e-03
    74    2.859781479650e-13
    75    4.809581627244e-13
    76   -3.229088452408e-14
    77   -8.200684917941e-13
    78    2.640728954418e-14
    79   -4.692602107209e-14
    80    3.300318456379e-04
    81   -3.697392297265e-13
    82   -6.166093677494e-13
    83    2.381877576035e-13
    84    1.170748515019e-12
    85   -4.692769825373e-14
    86   -1.804946435858e-14
    87    1.206364462523e-03
Sym=X
Ene= 2.002032
Spin=Alpha
Occup=1
     1   -4.874483350250e-04
     2   -7.303329791606e-04
     3   -1.771210370945e-01
     4    3.706869202879e-01
     5    1.109892800626e-13
     6    1.554858966930e-03
     7   -2.062929863809e-01
     8    4.323583208576e-01
     9    1.244617769784e-13
    10    7.432003800443e-03
    11   -1.408762265189e-01
    12    2.814949632998e-01
    13    1.031593910212e-13
    14    9.081222803633e-03
    15   -2.638206498828e-03
    16    2.994222679762e-03
    17   -1.585810243848e-14
    18    1.346115955154e-04
    19   -2.892659383366e-15
    20   -1.195098460496e-15
    21    7.186558931475e-03
    22   -5.631670609435e-03
    23    1.593170640553e-02
    24    2.585468290039e-02
    25   -2.153640339672e-03
    26   -9.406045554494e-03
    27   -3.438827579301e-15
    28   -6.372683854995e-02
    29    1.325071142615e-03
    30   -2.226225195546e-02
    31   -1.365394908571e-16
    32   -6.894054820445e-02
    33    2.377344533012e-04
    34    5.059363656732e-03
    35   -1.516649711373e-14
    36   -2.015514002852e-01
    37   -3.627335875415e-02
    38    2.752546140823e-02
    39    1.477474342283e-14
    40    7.617045293255e-04
    41    2.374836194732e-15
    42   -2.508436360453e-15
    43   -8.489604976896e-04
    44   -6.596367826315e-03
    45   -2.481921080163e-03
    46   -4.311041288041e-03
    47   -3.045025984076e-03
    48   -1.408557602563e-02
    49    9.885628388314e-15
    50    1.267289111252e-02
    51    1.766988005908e-03
    52   -2.513356162844e-02
    53    1.824246958708e-14
    54    1.352556492988e-02
    55   -9.788688552086e-03
    56   -2.170463926533e-02
    57    4.585772104520e-15
    58    1.484595892758e-01
    59   -6.985743889638e-02
    60    6.587456669310e-02
    61   -2.762548050386e-15
    62    1.850724168802e-03
    63    1.699309573641e-15
    64   -7.332204501460e-16
    65   -2.825750357037e-02
    66    1.211206446583e-02
    67    2.434103868228e-02
    68    4.031592374688e-02
    69    3.509777516987e-02
    70    5.175420039171e-02
    71    2.509733133678e-03
    72    9.104688396753e-04
    73    3.236234262757e-15
    74   -2.217303226087e-02
    75   -3.093977247816e-02
    76   -5.544041101205e-03
    77   -1.505894781118e-02
    78    2.010360426320e-03
    79    3.646729996709e-03
    80   -1.330528001105e-15
    81   -6.578815707341e-03
    82   -2.086308140954e-03
    83    1.780975514761e-02
    84   -1.314164297531e-04
    85   -1.983286056381e-04
    86    3.140960368539e-04
    87   -3.461034235657e-17
Sym=X
Ene= 2.000045
Spin=Alpha
Occup=1
     1    3.680761458337e-02
     2    5.448288387703e-02
     3    8.904422516619e-03
     4   -4.897635307782e-02
     5    3.854512046114e-14
     6   -1.890426548705e-01
     7    1.278022605135e-02
     8   -5.597075110242e-02
     9    4.326984016100e-14
    10   -8.611332755996e-02
    11    6.766384879153e-03
    12   -3.676300998132e-02
    13    2.315063827958e-14
    14   -2.431327231618e-03
    15    2.104352166100e-03
    16   -4.104246010998e-03
    17    4.366440694696e-15
    18    7.258291295155e-04
    19   -1.119776606265e-15
    20    8.800005127743e-17
    21   -1.199433619466e-03
    22    3.168751905596e-04
    23    6.713315055045e-02
    24    1.285991530986e-01
    25    6.145502591488e-02
    26   -6.169069318130e-02
    27   -4.593755287104e-15
    28   -3.658473622023e-01
    29    9.313007148589e-02
    30   -9.485256343961e-02
    31   -9.147976930418e-15
    32   -2.724683098191e-01
    33    4.548483919630e-02
    34   -6.090571786045e-02
    35   -7.695278351059e-15
    36    3.587811165805e-02
    37    1.746328700988e-03
    38   -2.286891746900e-04
    39   -4.193936085025e-15
    40    1.408583064161e-02
    41   -1.868109980429e-15
    42    7.797756041489e-16
    43    9.490654883608e-03
    44   -7.099391449253e-03
    45    2.291284554255e-02
    46    2.613928040660e-02
    47    2.640507467611e-03
    48   -4.666800100526e-03
    49   -4.301212939803e-15
    50   -3.079114208269e-02
    51    7.303002307157e-03
    52   -1.138253150449e-02
    53   -7.916473974458e-15
    54    2.091808418146e-02
    55   -1.115083279842e-02
    56    1.608657396165e-02
    57   -1.127420126531e-14
    58   -7.258600313602e-03
    59    2.787138464689e-03
    60   -2.163835325223e-03
    61    1.901337923466e-15
    62    4.234262096795e-03
    63    2.167922212748e-15
    64    2.631270273511e-16
    65    4.851472178109e-04
    66    4.293898791987e-03
    67   -6.610774674580e-03
    68   -1.241384214112e-02
    69   -8.306502745629e-03
    70   -4.258424987123e-03
    71    3.104834739570e-05
    72   -1.431284922147e-03
    73    1.249695909525e-17
    74   -1.336059121698e-01
    75   -1.931609059651e-01
    76   -2.274880547598e-02
    77   -1.816965027777e-02
    78    1.196124213247e-03
    79    2.478461566105e-02
    80    3.839985412948e-16
    81   -9.367945045344e-02
    82   -1.328921406215e-01
    83   -1.188989110383e-02
    84   -9.511060298241e-03
    85   -1.344693279488e-02
    86   -1.491400217684e-02
    87   -1.036154420280e-15
Sym=X
Ene= 1.999998
Spin=Alpha
Occup=1
     1   -1.359150363467e-03
     2   -2.012501940710e-03
     3   -9.776184184673e-05
     4    2.352046998506e-03
     5    5.240151906054e-15
     6    6.994328984145e-03
     7   -1.724249456114e-04
     8    2.723252730214e-03
     9    4.689595207031e-15
    10    3.292096670279e-03
    11   -1.861700631827e-04
    12    1.675906098064e-03
    13    2.730006225691e-15
    14    2.497165490030e-04
    15   -1.195869527515e-04
    16    2.382606000408e-04
    17    2.889514303151e-15
    18   -1.109533805286e-05
    19    5.355004849320e-16
    20    5.748870530750e-16
    21    2.964548291694e-05
    22   -3.017068305016e-05
    23   -5.660624309631e-01
    24   -4.715155251724e-01
    25   -2.751755699700e-03
    26    2.570510270786e-03
    27   -6.921802048394e-15
    28    8.685121421489e-03
    29   -4.180568537576e-03
    30    4.561354407949e-03
    31   -9.642181262606e-15
    32    1.063566467328e-02
    33   -1.862280088823e-03
    34    2.616431662423e-03
    35   -1.375115817201e-14
    36   -1.503198365694e-03
    37   -4.222053955754e-05
    38   -1.527168701395e-04
    39    3.452218812016e-15
    40   -4.242312398417e-05
    41   -1.794901198465e-15
    42    2.107239493753e-15
    43   -6.087571228432e-04
    44    5.422534901097e-04
    45   -3.820458103779e-03
    46   -3.136257918350e-03
    47    3.424822913269e-04
    48   -8.820768566823e-05
    49   -6.933882792614e-15
    50   -3.932467973387e-04
    51   -2.447793619215e-04
    52    3.005571110718e-04
    53   -1.059427800264e-14
    54   -1.158860557301e-03
    55    5.385203072787e-04
    56   -7.015076478072e-04
    57   -6.162697070523e-15
    58   -2.861058915502e-04
    59    1.594397289215e-05
    60    6.725601960011e-05
    61   -4.785595888332e-15
    62   -2.497278927064e-04
    63    3.138799338261e-16
    64   -8.774903029222e-16
    65   -6.052400418440e-05
    66   -1.586574030121e-04
    67    1.336926456783e-04
    68    3.462395116654e-04
    69    4.209643888688e-04
    70    2.244430901230e-04
    71    4.269092920742e-05
    72    2.911906574951e-05
    73   -3.843753659367e-16
    74    4.881182491372e-03
    75    7.763090486672e-03
    76    8.404638578263e-04
    77    1.031797410091e-03
    78   -7.827074793419e-05
    79   -9.456113951987e-04
    80   -4.155979894984e-16
    81    3.015968789596e-03
    82    5.033725318586e-03
    83    1.112554669947e-04
    84    4.908462026071e-04
    85    5.034586469402e-04
    86    6.035615608021e-04
    87    1.023765971243e-15
Sym=X
Ene= 1.999983
Spin=Alpha
Occup=1
     1    4.055986983141e-03
     2    6.018165159876e-03
     3   -7.823558591382e-04
     4   -9.967307900170e-04
     5    4.627850759604e-14
     6   -2.080223382075e-02
     7   -1.900046411289e-04
     8   -8.273675206005e-04
     9    5.514750937266e-14
    10   -9.177704639602e-03
    11   -1.045037524700e-03
    12   -9.030636498522e-04
    13    3.219131119902e-14
    14    1.816189986327e-03
    15   -7.671116475580e-04
    16    1.102822888324e-04
    17    1.126166122617e-15
    18    1.845640304369e-04
    19   -1.180274023398e-15
    20   -3.882928093664e-16
    21   -3.075981149166e-04
    22   -1.924499981902e-04
    23    5.355814929020e-03
    24    5.968196408366e-03
    25   -2.655621754223e-03
    26   -2.497465106353e-03
    27    1.473299652527e-14
    28   -7.622983811971e-03
    29   -3.372327767539e-03
    30   -4.409953849711e-03
    31    2.173692391367e-14
    32   -3.830469214729e-03
    33   -1.915739313352e-03
    34   -2.624214773005e-03
    35    2.312319078398e-14
    36    2.225849070038e-03
    37    7.362748558847e-04
    38    3.561533119749e-04
    39   -2.534577451404e-15
    40    8.826210697715e-05
    41    3.515284218109e-15
    42   -2.668019408476e-15
    43    1.253803040921e-04
    44    2.669186984565e-04
    45   -5.618293704252e-01
    46   -4.645443426454e-01
    47   -1.116110357210e-03
    48   -3.858449201929e-03
    49    1.610538247093e-14
    50   -8.588933996359e-03
    51    3.188488220530e-03
    52   -3.057640872571e-03
    53    3.332552335770e-14
    54   -1.468149149666e-03
    55    1.097224320889e-04
    56   -2.157375846794e-03
    57    1.890847141009e-14
    58   -2.062574208938e-03
    59    4.042479805809e-04
    60   -1.142666829381e-03
    61    4.237711201496e-15
    62    7.942375241285e-04
    63    2.493960928011e-15
    64    2.468830474170e-15
    65   -5.666178164035e-05
    66    7.057943875510e-04
    67    4.573632842035e-04
    68    1.469722318913e-03
    69   -9.799188986933e-04
    70   -5.134314847375e-04
    71    3.508294407379e-05
    72    2.593741395023e-04
    73    7.363547027913e-16
    74   -3.739754435385e-03
    75   -5.544475530800e-03
    76   -1.115831466498e-03
    77   -6.927236014083e-04
    78   -2.133901947558e-04
    79    6.466269438552e-04
    80    1.500501786710e-15
    81    1.277428548508e-03
    82    2.089530661139e-03
    83    1.128238932609e-03
    84    6.148493073546e-04
    85   -2.105765237829e-05
    86    2.208005172220e-05
    87    7.945747750890e-17
Sym=X
Ene= 1.999734
Spin=Alpha
Occup=1
     1   -9.249549875592e-02
     2   -1.369052696071e-01
     3    8.841991439893e-02
     4    1.944286629010e-02
     5   -6.173791538725e-14
     6    4.738413674166e-01
     7    9.580319178987e-02
     8    2.006725766160e-02
     9   -7.182329685817e-14
    10    2.041207313196e-01
    11    7.670712364214e-02
    12    1.545412895931e-02
    13   -4.949152520069e-14
    14   -4.302077193017e-02
    15    2.569149454398e-02
    16   -2.494961047020e-03
    17   -2.393902964126e-15
    18   -8.831611977530e-04
    19    1.352960674629e-15
    20    1.107580310315e-15
    21    2.948137769396e-03
    22   -2.803774396771e-04
    23   -1.167337156164e-02
    24   -1.796621604920e-02
    25    1.315235473921e-01
    26   -4.293278981757e-02
    27    6.077779832760e-16
    28    4.288994963989e-02
    29    2.006035481627e-01
    30   -6.574327224755e-02
    31   -6.421028848462e-15
    32   -4.441927098736e-02
    33    8.539857921798e-02
    34   -2.748293660491e-02
    35    1.249985097692e-14
    36   -1.703067216238e-02
    37   -5.411836902886e-03
    38    6.970260912567e-03
    39    1.162550600426e-14
    40   -5.646638090553e-04
    41    1.144898955164e-15
    42    9.925221904024e-16
    43    1.171746409304e-02
    44   -2.264826363049e-02
    45   -7.491500279869e-02
    46   -1.124983375010e-01
    47   -8.079458942372e-02
    48    4.567245455246e-02
    49   -1.746664737352e-15
    50    2.614544172078e-01
    51   -1.107401263535e-01
    52    7.316622395008e-02
    53   -2.391228520843e-15
    54    1.744331788458e-01
    55   -4.349477898935e-02
    56    5.058325752354e-02
    57    1.128590111677e-14
    58    2.098212668945e-02
    59    1.050231838221e-03
    60    1.018835230680e-02
    61   -1.422061898547e-14
    62   -8.670260055995e-03
    63   -3.436941185088e-15
    64   -2.637567444022e-15
    65    1.411964937992e-03
    66   -1.107719372219e-02
    67    1.148631873565e-02
    68    1.092949898656e-02
    69   -3.198759362031e-03
    70    7.706154409695e-03
    71   -4.513719681197e-03
    72    4.002045711135e-03
    73    3.063647563400e-16
    74   -3.289785302073e-02
    75   -4.885532820971e-02
    76   -1.331928936542e-02
    77   -8.783455770102e-03
    78    6.815547563462e-03
    79    2.876367219351e-03
    80   -9.929258331931e-16
    81   -6.627939970874e-02
    82   -1.061407408967e-01
    83   -3.248236077559e-02
    84    2.179335048156e-03
    85   -2.749193646855e-03
    86   -8.730388083678e-03
    87   -4.800617200128e-16
Sym=X
Ene= 1.999221
Spin=Alpha
Occup=1
     1    7.493077236517e-02
     2    1.113117317676e-01
     3   -1.549080875252e-01
     4   -7.849391064641e-02
     5    5.312416739503e-14
     6   -3.929736515566e-01
     7   -1.798158721376e-01
     8   -9.006574116736e-02
     9    6.618762762291e-14
    10   -2.076824657179e-01
    11   -9.475694598512e-02
    12   -5.022855248172e-02
    13    2.076893027286e-14
    14   -4.033822685853e-02
    15    1.934112046595e-02
    16   -2.419693674314e-03
    17   -2.667264812273e-14
    18   -3.413110463617e-03
    19   -7.638538114639e-15
    20   -3.295593565845e-15
    21    5.959619214770e-03
    22    3.874758625909e-03
    23   -4.465382383287e-02
    24   -7.212149252930e-02
    25    5.101656268826e-02
    26   -9.795451305274e-02
    27    1.052985221246e-13
    28    1.783774621261e-01
    29    8.232350075560e-02
    30   -1.524171826751e-01
    31    1.885885295435e-13
    32    5.384393528752e-02
    33    8.231453029208e-03
    34   -7.845529293206e-02
    35    1.422050060147e-13
    36   -2.768451910556e-03
    37    1.398158299816e-02
    38    3.137696318572e-02
    39    1.634381965426e-14
    40   -5.558197171362e-03
    41    1.919536066712e-14
    42   -9.968956863940e-15
    43    2.089198457078e-02
    44   -1.191391657335e-02
    45   -5.972821384737e-02
    46   -1.038800238320e-01
    47   -6.219663770793e-02
    48    4.888239476881e-02
    49    1.134530934554e-13
    50    2.856261149708e-01
    51   -7.490191289951e-02
    52    8.621434062675e-02
    53    2.006632130126e-13
    54    1.745927512249e-01
    55   -3.062613778280e-02
    56    5.164918087149e-02
    57    1.618735120700e-13
    58    7.735739753386e-03
    59   -6.971028094071e-03
    60   -1.619680511326e-02
    61    2.027160050809e-14
    62   -9.400950978019e-03
    63   -8.094776433647e-15
    64    2.000439459459e-14
    65    1.459733542092e-02
    66    1.341628154511e-03
    67    7.798008041533e-03
    68    6.378356136506e-03
    69   -2.825362696981e-02
    70   -1.300656214914e-03
    71   -2.482654770364e-03
    72    8.746709964706e-03
    73    6.283395315979e-15
    74   -4.962383390767e-02
    75   -8.035269009537e-02
    76   -4.807212697151e-02
    77   -2.530093478805e-02
    78    1.833413869616e-03
    79    1.489766471169e-03
    80    9.596908073247e-15
    81    4.623704834723e-02
    82    6.639757219705e-02
    83    9.934996918491e-03
    84    3.146435891143e-02
    85    1.223325702768e-02
    86    6.567092544062e-04
    87    1.168678681300e-14
Sym=X
Ene= 1.998515
Spin=Alpha
Occup=1
     1   -6.321168510759e-02
     2   -9.344432013629e-02
     3   -9.478576724107e-02
     4   -5.866058878596e-02
     5   -8.711058893413e-15
     6    3.264697045249e-01
     7   -1.130521912563e-01
     8   -7.117047681109e-02
     9   -2.020425102551e-14
    10    1.317528106960e-01
    11   -5.892909977716e-02
    12   -2.901323361081e-02
    13    1.487944962270e-14
    14    1.847425245425e-02
    15   -2.136495424943e-02
    16    9.423826298342e-03
    17    8.431122086992e-14
    18   -2.533362142462e-03
    19    1.502550417889e-14
    20    7.051265884701e-15
    21   -1.687958048545e-03
    22    7.154520493818e-03
    23    1.880625061867e-02
    24    3.149515376421e-02
    25   -1.177133264878e-01
    26   -8.653887459603e-02
    27   -2.585740403184e-13
    28   -7.896388918699e-02
    29   -1.701186004729e-01
    30   -1.361920900296e-01
    31   -4.331997859935e-13
    32   -3.275919704657e-02
    33   -1.035420573027e-01
    34   -8.706315340014e-02
    35   -4.248793100384e-13
    36    5.742142266002e-02
    37    1.330106866175e-02
    38   -1.208970422028e-02
    39   -1.574995477836e-14
    40    3.729340107297e-03
    41   -4.793023280028e-14
    42    2.399299870936e-14
    43    7.530398274354e-03
    44    1.253677490157e-02
    45   -1.226591596941e-02
    46   -2.303821952740e-02
    47    7.636228619655e-02
    48   -8.950937684426e-02
    49   -2.792363562640e-13
    50    6.220301785986e-02
    51    1.276044538296e-01
    52   -1.320954714918e-01
    53   -4.816628207927e-13
    54    1.481737070470e-02
    55    2.955328807539e-02
    56   -8.114744197490e-02
    57   -4.056225364414e-13
    58   -6.666498845939e-02
    59    1.629045561919e-02
    60   -9.485587572978e-03
    61   -5.623959935789e-14
    62   -7.957454959067e-03
    63    2.848583908547e-14
    64   -4.063452165929e-14
    65    1.868812488206e-02
    66    2.940133088038e-02
    67    7.747892475921e-02
    68    1.130188737042e-01
    69    4.017936501016e-05
    70    1.455134954103e-02
    71    1.168200671921e-03
    72    1.816929856254e-02
    73   -1.984324898091e-14
    74   -8.247294874299e-02
    75   -1.223958998767e-01
    76   -2.332713585112e-02
    77    4.487099929556e-05
    78   -7.733039861830e-03
    79    1.164765442384e-02
    80   -2.090040417660e-14
    81    1.033230246800e-01
    82    1.630806659187e-01
    83    3.955365732450e-02
    84    7.379192656837e-03
    85    1.199415093320e-02
    86    6.635918282346e-03
    87   -1.891167533112e-14
Sym=X
Ene= 1.997844
Spin=Alpha
Occup=1
     1    3.910137982883e-02
     2    5.810960038597e-02
     3    5.653683129617e-02
     4    1.745698567395e-02
     5    1.050410929867e-13
     6   -2.104841783705e-01
     7    6.707197367649e-02
     8    1.844320584192e-02
     9    1.181593732257e-13
    10   -1.084187135155e-01
    11    3.863883623177e-02
    12    1.870592365709e-02
    13    1.001253040113e-13
    14   -3.477567837558e-02
    15    1.093466814011e-02
    16    3.356359055122e-02
    17    2.738553654913e-14
    18   -6.164649475607e-04
    19    5.965259022863e-15
    20    2.909936204958e-15
    21   -5.619089918619e-03
    22    3.382013001225e-03
    23    1.077057885017e-02
    24    1.882256505029e-02
    25    1.897159953829e-02
    26    8.172315589356e-02
    27   -1.427850788334e-13
    28   -5.529295382920e-02
    29    2.926718651965e-02
    30    1.255924129930e-01
    31   -2.492165990765e-13
    32   -1.048268655002e-02
    33    4.021006667504e-02
    34    9.810156548595e-02
    35   -2.020350407335e-13
    36    7.061792785021e-02
    37    2.759712563879e-02
    38    1.034226762030e-02
    39   -5.692371848479e-14
    40    2.242475696226e-04
    41   -2.625624837567e-14
    42    1.351326737701e-14
    43   -2.051013502884e-02
    44   -9.934652030314e-03
    45   -4.957124702108e-02
    46   -8.449894283730e-02
    47    3.702031669192e-02
    48   -1.449889773398e-01
    49   -1.507228848379e-13
    50    2.288159719335e-01
    51    6.081893019601e-02
    52   -2.232922421407e-01
    53   -2.601135445729e-13
    54    2.147294241644e-01
    55    6.068460216106e-02
    56   -1.371159884937e-01
    57   -2.335159581314e-13
    58   -5.304229702637e-02
    59    1.902310901781e-02
    60   -4.157646681618e-02
    61    1.603200397064e-14
    62   -5.017323449285e-03
    63    2.017967684785e-14
    64   -1.922452510283e-14
    65   -2.670317214942e-02
    66   -2.440943882599e-02
    67    1.671505278289e-01
    68    2.437381516730e-01
    69    3.345927311363e-02
    70   -1.524066284187e-02
    71   -2.169175901679e-03
    72    2.417554404538e-02
    73   -9.584277518806e-15
    74    6.565970030086e-02
    75    1.043245300031e-01
    76    3.942079645404e-02
    77   -7.381192490704e-04
    78    2.045266761232e-03
    79   -4.998051900010e-03
    80   -1.108573637605e-14
    81   -6.771874421944e-02
    82   -1.062641620684e-01
    83   -1.981346007098e-02
    84    9.166866305276e-03
    85   -9.637470371594e-03
    86   -1.129861428896e-03
    87   -1.188953320499e-14
Sym=X
Ene= 1.997491
Spin=Alpha
Occup=1
     1    1.122522917795e-13
     2    1.681535601962e-13
     3    2.417240913201e-14
     4    4.311899040299e-14
     5    4.791814598228e-02
     6   -5.813536433557e-13
     7    3.302850190748e-14
     8    5.851061293117e-14
     9    5.225373618833e-02
    10   -2.329663569979e-13
    11    8.757629148342e-15
    12    4.623784912588e-15
    13    5.115027176360e-02
    14   -8.789585453592e-15
    15    1.191886117692e-14
    16   -3.799606989058e-14
    17    4.805282610767e-02
    18    3.097296192324e-15
    19    8.284364230946e-03
    20    3.915422194140e-03
    21    1.060850980601e-14
    22   -1.281814224987e-14
    23   -4.939075102530e-14
    24   -9.915304733869e-14