[Molden Format]
[Atoms] (Angs)
  F      1    9      1.15290231      0.22477664     -0.00000000
  C      2    6     -1.17935012      0.19972949     -0.00000000
  C      3    6     -0.01631886     -0.43556811      0.00000000
  H      4    1      0.11895302     -1.50789969      0.00000000
  H      5    1     -1.23082549      1.27856114     -0.00000000
  H      6    1     -2.09023450     -0.37861944      0.00000000
[GTO]
1    0
S    6    1.000000
   1.14271000E+04    1.80093000E-03 
   1.72235000E+03    1.37419000E-02 
   3.95746000E+02    6.81334000E-02 
   1.15139000E+02    2.33325000E-01 
   3.36026000E+01    5.89086000E-01 
   4.91901000E+00    2.99505000E-01 
SP   3    1.000000
   5.54441000E+01    1.14536000E-01   3.54609000E-02 
   1.26323000E+01    9.20512000E-01   2.37451000E-01 
   3.71756000E+00   -3.37804000E-03   8.20458000E-01 
SP   1    1.000000
   1.16545000E+00    1.00000000E+00   1.00000000E+00 
SP   1    1.000000
   3.21892000E-01    1.00000000E+00   1.00000000E+00 
SP   1    1.000000
   1.07600000E-01    1.00000000E+00   1.00000000E+00 
D    1    1.000000
   1.75000000E+00    1.00000000E+00 

2    0
S    6    1.000000
   4.56324000E+03    1.96665000E-03 
   6.82024000E+02    1.52306000E-02 
   1.54973000E+02    7.61269000E-02 
   4.44553000E+01    2.60801000E-01 
   1.30290000E+01    6.16462000E-01 
   1.82773000E+00    2.21006000E-01 
SP   3    1.000000
   2.09642000E+01    1.14660000E-01   4.02487000E-02 
   4.80331000E+00    9.19999000E-01   2.37594000E-01 
   1.45933000E+00   -3.03068000E-03   8.15854000E-01 
SP   1    1.000000
   4.83456000E-01    1.00000000E+00   1.00000000E+00 
SP   1    1.000000
   1.45585000E-01    1.00000000E+00   1.00000000E+00 
SP   1    1.000000
   4.38000000E-02    1.00000000E+00   1.00000000E+00 
D    1    1.000000
   6.26000000E-01    1.00000000E+00 

3    0
S    6    1.000000
   4.56324000E+03    1.96665000E-03 
   6.82024000E+02    1.52306000E-02 
   1.54973000E+02    7.61269000E-02 
   4.44553000E+01    2.60801000E-01 
   1.30290000E+01    6.16462000E-01 
   1.82773000E+00    2.21006000E-01 
SP   3    1.000000
   2.09642000E+01    1.14660000E-01   4.02487000E-02 
   4.80331000E+00    9.19999000E-01   2.37594000E-01 
   1.45933000E+00   -3.03068000E-03   8.15854000E-01 
SP   1    1.000000
   4.83456000E-01    1.00000000E+00   1.00000000E+00 
SP   1    1.000000
   1.45585000E-01    1.00000000E+00   1.00000000E+00 
SP   1    1.000000
   4.38000000E-02    1.00000000E+00   1.00000000E+00 
D    1    1.000000
   6.26000000E-01    1.00000000E+00 

4    0
S    3    1.000000
   3.38650000E+01    2.54938000E-02 
   5.09479000E+00    1.90373000E-01 
   1.15879000E+00    8.52161000E-01 
S    1    1.000000
   3.25840000E-01    1.00000000E+00 
S    1    1.000000
   1.02741000E-01    1.00000000E+00 
S    1    1.000000
   3.60000000E-02    1.00000000E+00 
P    1    1.000000
   7.50000000E-01    1.00000000E+00 

5    0
S    3    1.000000
   3.38650000E+01    2.54938000E-02 
   5.09479000E+00    1.90373000E-01 
   1.15879000E+00    8.52161000E-01 
S    1    1.000000
   3.25840000E-01    1.00000000E+00 
S    1    1.000000
   1.02741000E-01    1.00000000E+00 
S    1    1.000000
   3.60000000E-02    1.00000000E+00 
P    1    1.000000
   7.50000000E-01    1.00000000E+00 

6    0
S    3    1.000000
   3.38650000E+01    2.54938000E-02 
   5.09479000E+00    1.90373000E-01 
   1.15879000E+00    8.52161000E-01 
S    1    1.000000
   3.25840000E-01    1.00000000E+00 
S    1    1.000000
   1.02741000E-01    1.00000000E+00 
S    1    1.000000
   3.60000000E-02    1.00000000E+00 
P    1    1.000000
   7.50000000E-01    1.00000000E+00 

[MO]
Sym=X
Ene= -0.845534
Spin=Alpha
Occup=1
     1    5.476689526454e-01
     2    4.734890065596e-01
     3   -1.032188261707e-03
     4   -5.765590498808e-04
     5    6.360731563055e-16
     6    6.217388678849e-03
     7    3.882602022637e-04
     8    2.182625396912e-04
     9   -2.293698616139e-16
    10   -9.461671639127e-04
    11   -1.063347468462e-04
    12   -7.567495519249e-05
    13    1.425183956834e-15
    14    9.809083689437e-04
    15   -7.288102102878e-05
    16   -1.791253172280e-05
    17    2.978018014976e-16
    18    5.281149873295e-05
    19    2.612855485272e-16
    20   -7.397851417459e-16
    21   -6.195478336374e-05
    22   -1.001049980430e-04
    23    1.425444409047e-06
    24   -1.164138869570e-06
    25   -4.567422019030e-06
    26    3.922834055738e-06
    27    1.234749924561e-15
    28    2.292855429018e-05
    29    2.910050318476e-05
    30   -3.121449662221e-05
    31   -1.984000874993e-15
    32   -1.141517211589e-04
    33   -1.487814518070e-04
    34   -6.334186713537e-05
    35    3.418850149019e-15
    36    1.249156332414e-03
    37    3.000868724282e-04
    38   -3.993549501224e-05
    39    2.340348146411e-16
    40    6.185720549920e-06
    41    3.883573135822e-16
    42    1.274512657712e-15
    43    1.775761904901e-05
    44   -1.124402218658e-05
    45   -4.161459000865e-06
    46   -2.644805743354e-05
    47    1.631032665681e-05
    48    1.104535288266e-05
    49   -2.090948698880e-15
    50    8.377652361460e-05
    51    1.864365866188e-04
    52    9.895856159203e-05
    53    3.645692556845e-15
    54   -3.259219867125e-05
    55   -8.536059078719e-05
    56    7.195872175252e-05
    57   -5.639837935085e-15
    58   -1.411997345324e-03
    59    8.439893565227e-05
    60   -3.656421247065e-04
    61    7.770197686049e-16
    62   -3.923671774618e-05
    63   -5.458798994082e-16
    64   -6.096806461078e-16
    65    4.963369661039e-05
    66    9.336067092308e-05
    67   -6.521922761847e-07
    68    5.127964732249e-05
    69   -3.677048828562e-05
    70   -2.369838663724e-05
    71   -1.195796696860e-05
    72    1.384047929465e-05
    73    6.507059192191e-16
    74   -3.016968173635e-06
    75    8.169500409027e-05
    76   -8.166854040602e-05
    77    1.665727178262e-05
    78    6.506065431821e-07
    79   -1.289946395556e-05
    80   -1.152576582564e-15
    81    7.174433982669e-06
    82   -3.024159338593e-05
    83   -9.597034432165e-05
    84   -2.296896063670e-05
    85   -5.704079790139e-09
    86   -1.771700353896e-06
    87   -2.044950059286e-17
Sym=X
Ene= 0.845534
Spin=Alpha
Occup=0
     1    9.268875275874e-15
     2    1.285967778975e-14
     3    3.175219553679e-15
     4    6.245077413110e-15
     5   -1.477654832142e-01
     6   -2.925218657073e-14
     7    9.938404183558e-15
     8    1.557357575782e-15
     9   -1.493362591597e-01
    10   -2.570978470093e-13
    11    8.843493683102e-15
    12    7.273733956806e-14
    13   -3.942314896453e-01
    14   -3.003302430051e-13
    15    6.936848389455e-13
    16    2.268283217596e-13
    17    1.756310386865e+00
    18   -3.383531844346e-15
    19    7.599309116149e-03
    20    6.233820242206e-03
    21    4.599048486255e-15
    22    2.654794222653e-15
    23    9.263996337387e-16
    24    3.250904471888e-15
    25   -6.612751961257e-15
    26   -1.326280558087e-14
    27    4.310463075121e-03
    28   -2.551587993665e-14
    29   -4.443544766921e-15
    30    6.187364892585e-15
    31   -4.669828117976e-03
    32    1.898736809585e-13
    33   -4.833525716740e-14
    34   -1.893687002582e-13
    35    1.371863488232e-01
    36    2.873212833257e-12
    37    7.665687998361e-13
    38   -7.676781723196e-14
    39    7.412638957451e-01
    40   -3.072314547494e-15
    41    1.092057646835e-02
    42    1.287245614497e-02
    43    4.892506925933e-15
    44    1.519878249029e-15
    45   -9.290419373649e-15
    46   -1.921797056512e-14
    47    2.365549602091e-14
    48    1.517334072077e-14
    49   -2.894975765436e-03
    50    3.614193899435e-14
    51    3.122958902222e-14
    52    2.992511904300e-15
    53    3.875506863475e-02
    54    6.651566809638e-13
    55    5.153497735424e-13
    56    2.885764297076e-13
    57   -4.001020445908e-01
    58   -2.699263395021e-12
    59    1.607025797662e-13
    60   -6.142010304795e-13
    61   -1.507109827802e+00
    62   -2.625618545461e-14
    63    8.437612838422e-03
    64    2.017367471307e-02
    65   -2.169102325992e-14
    66    9.831481524765e-15
    67    3.295684005061e-15
    68   -8.276001812911e-14
    69    2.449157715826e-13
    70   -1.086307877555e-13
    71   -5.800774082194e-15
    72   -1.490566465622e-14
    73   -8.077296962605e-03
    74   -2.761989857963e-15
    75   -5.297340299526e-14
    76    1.871219478494e-13
    77   -2.778320207886e-13
    78    3.119683633958e-15
    79    3.726727525915e-15
    80    7.886449479592e-03
    81    1.515843309339e-15
    82    1.744212769523e-14
    83   -3.601348102182e-13
    84    7.367957016156e-14
    85    2.513286171477e-14
    86    8.237081118385e-15
    87   -8.889782816905e-03
[5D]
