[Molden Format]
[Atoms] (Angs)
  F      1    9      1.15290231      0.22477664     -0.00000000
  C      2    6     -1.17935012      0.19972949     -0.00000000
  C      3    6     -0.01631886     -0.43556811      0.00000000
  H      4    1      0.11895302     -1.50789969      0.00000000
  H      5    1     -1.23082549      1.27856114     -0.00000000
  H      6    1     -2.09023450     -0.37861944      0.00000000
[GTO]
1    0
S    6    1.000000
   1.14271000E+04    1.80093000E-03 
   1.72235000E+03    1.37419000E-02 
   3.95746000E+02    6.81334000E-02 
   1.15139000E+02    2.33325000E-01 
   3.36026000E+01    5.89086000E-01 
   4.91901000E+00    2.99505000E-01 
SP   3    1.000000
   5.54441000E+01    1.14536000E-01   3.54609000E-02 
   1.26323000E+01    9.20512000E-01   2.37451000E-01 
   3.71756000E+00   -3.37804000E-03   8.20458000E-01 
SP   1    1.000000
   1.16545000E+00    1.00000000E+00   1.00000000E+00 
SP   1    1.000000
   3.21892000E-01    1.00000000E+00   1.00000000E+00 
SP   1    1.000000
   1.07600000E-01    1.00000000E+00   1.00000000E+00 
D    1    1.000000
   1.75000000E+00    1.00000000E+00 

2    0
S    6    1.000000
   4.56324000E+03    1.96665000E-03 
   6.82024000E+02    1.52306000E-02 
   1.54973000E+02    7.61269000E-02 
   4.44553000E+01    2.60801000E-01 
   1.30290000E+01    6.16462000E-01 
   1.82773000E+00    2.21006000E-01 
SP   3    1.000000
   2.09642000E+01    1.14660000E-01   4.02487000E-02 
   4.80331000E+00    9.19999000E-01   2.37594000E-01 
   1.45933000E+00   -3.03068000E-03   8.15854000E-01 
SP   1    1.000000
   4.83456000E-01    1.00000000E+00   1.00000000E+00 
SP   1    1.000000
   1.45585000E-01    1.00000000E+00   1.00000000E+00 
SP   1    1.000000
   4.38000000E-02    1.00000000E+00   1.00000000E+00 
D    1    1.000000
   6.26000000E-01    1.00000000E+00 

3    0
S    6    1.000000
   4.56324000E+03    1.96665000E-03 
   6.82024000E+02    1.52306000E-02 
   1.54973000E+02    7.61269000E-02 
   4.44553000E+01    2.60801000E-01 
   1.30290000E+01    6.16462000E-01 
   1.82773000E+00    2.21006000E-01 
SP   3    1.000000
   2.09642000E+01    1.14660000E-01   4.02487000E-02 
   4.80331000E+00    9.19999000E-01   2.37594000E-01 
   1.45933000E+00   -3.03068000E-03   8.15854000E-01 
SP   1    1.000000
   4.83456000E-01    1.00000000E+00   1.00000000E+00 
SP   1    1.000000
   1.45585000E-01    1.00000000E+00   1.00000000E+00 
SP   1    1.000000
   4.38000000E-02    1.00000000E+00   1.00000000E+00 
D    1    1.000000
   6.26000000E-01    1.00000000E+00 

4    0
S    3    1.000000
   3.38650000E+01    2.54938000E-02 
   5.09479000E+00    1.90373000E-01 
   1.15879000E+00    8.52161000E-01 
S    1    1.000000
   3.25840000E-01    1.00000000E+00 
S    1    1.000000
   1.02741000E-01    1.00000000E+00 
S    1    1.000000
   3.60000000E-02    1.00000000E+00 
P    1    1.000000
   7.50000000E-01    1.00000000E+00 

5    0
S    3    1.000000
   3.38650000E+01    2.54938000E-02 
   5.09479000E+00    1.90373000E-01 
   1.15879000E+00    8.52161000E-01 
S    1    1.000000
   3.25840000E-01    1.00000000E+00 
S    1    1.000000
   1.02741000E-01    1.00000000E+00 
S    1    1.000000
   3.60000000E-02    1.00000000E+00 
P    1    1.000000
   7.50000000E-01    1.00000000E+00 

6    0
S    3    1.000000
   3.38650000E+01    2.54938000E-02 
   5.09479000E+00    1.90373000E-01 
   1.15879000E+00    8.52161000E-01 
S    1    1.000000
   3.25840000E-01    1.00000000E+00 
S    1    1.000000
   1.02741000E-01    1.00000000E+00 
S    1    1.000000
   3.60000000E-02    1.00000000E+00 
P    1    1.000000
   7.50000000E-01    1.00000000E+00 

[MO]
Sym=X
Ene= -0.834561
Spin=Alpha
Occup=1
     1   -5.476692217107e-01
     2   -4.734894634579e-01
     3    1.031510404559e-03
     4    5.766904572992e-04
     5   -6.361333228489e-16
     6   -6.215744856025e-03
     7   -3.889017070476e-04
     8   -2.177435800333e-04
     9    2.293476213014e-16
    10    9.476325520133e-04
    11    1.068166290893e-04
    12    7.715121979345e-05
    13   -1.425671256064e-15
    14   -9.796838062099e-04
    15    7.262049147234e-05
    16    1.801784141888e-05
    17   -2.969353584698e-16
    18   -5.271004660548e-05
    19   -2.612884064875e-16
    20    7.397782460769e-16
    21    6.187955590982e-05
    22    9.991873552200e-05
    23   -1.472698028774e-06
    24    1.087693873319e-06
    25    4.563218889398e-06
    26   -4.418765175200e-06
    27   -1.234624266039e-15
    28   -2.294698353528e-05
    29   -2.915933922063e-05
    30    3.043150617200e-05
    31    1.984660120169e-15
    32    1.144106014245e-04
    33    1.487070015043e-04
    34    6.317161464213e-05
    35   -3.420272420548e-15
    36   -1.249725914854e-03
    37   -3.003449751722e-04
    38    3.968697914241e-05
    39   -2.329698397821e-16
    40   -6.217818087993e-06
    41   -3.883675183479e-16
    42   -1.274547916593e-15
    43   -1.808782721189e-05
    44    1.115496704976e-05
    45    4.565020361231e-06
    46    2.716605921210e-05
    47   -1.735666217135e-05
    48   -1.163183822118e-05
    49    2.091001812967e-15
    50   -8.700320159527e-05
    51   -1.885688144662e-04
    52   -1.001686312900e-04
    53   -3.645355245438e-15
    54    3.116543891026e-05
    55    8.459706880036e-05
    56   -7.306964596478e-05
    57    5.639625556277e-15
    58    1.411910807295e-03
    59   -8.452997695671e-05
    60    3.660071171933e-04
    61   -7.777655644852e-16
    62    3.926344836223e-05
    63    5.458508822775e-16
    64    6.097010862169e-16
    65   -4.973902395143e-05
    66   -9.344134845617e-05
    67    1.381432179078e-06
    68   -4.977448882650e-05
    69    3.745213679470e-05
    70    2.413128159221e-05
    71    1.181749586927e-05
    72   -1.393748396071e-05
    73   -6.507187873257e-16
    74    3.212411991128e-06
    75   -8.126450118609e-05
    76    8.198542623761e-05
    77   -1.640129642815e-05
    78   -6.332027157779e-07
    79    1.297170374318e-05
    80    1.152581348862e-15
    81   -7.045568376579e-06
    82    3.050275164796e-05
    83    9.603015372952e-05
    84    2.272515961351e-05
    85    5.423154752532e-08
    86    1.717919644751e-06
    87    2.051792199568e-17
Sym=X
Ene= 0.834561
Spin=Alpha
Occup=0
     1   -1.646558083371e-02
     2   -2.918860938540e-02
     3   -1.325398544161e-01
     4   -9.356285692965e-02
     5   -1.178853450252e-15
     6    9.903169282649e-02
     7   -1.730730605994e-01
     8   -1.222583160831e-01
     9    1.267616831017e-14
    10    2.419120309828e-01
    11   -2.001818771851e-01
    12   -1.320410675166e-01
    13   -3.944734486608e-14
    14    3.888857202193e-01
    15   -2.007632221703e-01
    16   -1.510788570980e-01
    17    1.244915653783e-13
    18    4.379135765867e-03
    19    1.963235770487e-15
    20   -5.096777681235e-16
    21   -2.679925442110e-03
    22   -9.239048915388e-03
    23    3.215187880154e-03
    24    5.395788314695e-03
    25    2.770899041772e-02
    26   -2.773064279208e-02
    27    2.806303774447e-14
    28   -1.795330386194e-02
    29    4.651529288692e-02
    30   -3.241027541170e-02
    31    7.577082831517e-14
    32   -1.492754394942e-01
    33    4.508655238596e-02
    34   -7.945065182695e-02
    35    7.434567761568e-15
    36    2.434654163905e-01
    37   -5.273351804939e-03
    38   -1.217165507159e+00
    39   -1.227635421421e-13
    40    1.570972545243e-04
    41   -6.084673607697e-16
    42   -4.395352742970e-16
    43   -1.989423698946e-02
    44   -5.366372137988e-03
    45    4.764930462305e-02
    46    8.465261844838e-02
    47   -1.095831737037e-01
    48   -1.027514841658e-02
    49   -1.758089933840e-14
    50   -2.638987310909e-01
    51   -2.092617092541e-01
    52   -3.855533401093e-02
    53   -1.643341309923e-16
    54   -9.522331155073e-01
    55   -4.865083421362e-01
    56   -8.552926225952e-02
    57   -1.289348656062e-13
    58   -2.988919230209e+00
    59    3.571770985814e-01
    60    1.012408727969e+00
    61    1.192216935256e-13
    62   -8.021390312552e-03
    63   -2.244231576392e-15
    64    4.881965857683e-15
    65   -2.087401494829e-03
    66    1.304242742022e-02
    67    5.914640588137e-03
    68    3.625871762961e-02
    69    4.480337330457e-01
    70    2.476996414028e+00
    71   -8.158838570782e-03
    72   -1.662320436798e-02
    73   -4.001591828362e-15
    74    1.414556588871e-02
    75    3.285797808817e-02
    76    3.143061466387e-01
    77    1.479920662558e+00
    78    4.477820850752e-03
    79    7.872162783514e-03
    80    1.036653600347e-15
    81   -2.193748878113e-02
    82   -2.789842864179e-02
    83   -2.029480541624e-01
    84   -6.081311044788e-01
    85    4.415080029101e-03
    86   -7.112453895636e-03
    87    5.722033580842e-15
[5D]
