[Molden Format]
[Atoms] (Angs)
  F      1    9      1.15290231      0.22477664     -0.00000000
  C      2    6     -1.17935012      0.19972949     -0.00000000
  C      3    6     -0.01631886     -0.43556811      0.00000000
  H      4    1      0.11895302     -1.50789969      0.00000000
  H      5    1     -1.23082549      1.27856114     -0.00000000
  H      6    1     -2.09023450     -0.37861944      0.00000000
[GTO]
1    0
S    6    1.000000
   1.14271000E+04    1.80093000E-03 
   1.72235000E+03    1.37419000E-02 
   3.95746000E+02    6.81334000E-02 
   1.15139000E+02    2.33325000E-01 
   3.36026000E+01    5.89086000E-01 
   4.91901000E+00    2.99505000E-01 
SP   3    1.000000
   5.54441000E+01    1.14536000E-01   3.54609000E-02 
   1.26323000E+01    9.20512000E-01   2.37451000E-01 
   3.71756000E+00   -3.37804000E-03   8.20458000E-01 
SP   1    1.000000
   1.16545000E+00    1.00000000E+00   1.00000000E+00 
SP   1    1.000000
   3.21892000E-01    1.00000000E+00   1.00000000E+00 
SP   1    1.000000
   1.07600000E-01    1.00000000E+00   1.00000000E+00 
D    1    1.000000
   1.75000000E+00    1.00000000E+00 

2    0
S    6    1.000000
   4.56324000E+03    1.96665000E-03 
   6.82024000E+02    1.52306000E-02 
   1.54973000E+02    7.61269000E-02 
   4.44553000E+01    2.60801000E-01 
   1.30290000E+01    6.16462000E-01 
   1.82773000E+00    2.21006000E-01 
SP   3    1.000000
   2.09642000E+01    1.14660000E-01   4.02487000E-02 
   4.80331000E+00    9.19999000E-01   2.37594000E-01 
   1.45933000E+00   -3.03068000E-03   8.15854000E-01 
SP   1    1.000000
   4.83456000E-01    1.00000000E+00   1.00000000E+00 
SP   1    1.000000
   1.45585000E-01    1.00000000E+00   1.00000000E+00 
SP   1    1.000000
   4.38000000E-02    1.00000000E+00   1.00000000E+00 
D    1    1.000000
   6.26000000E-01    1.00000000E+00 

3    0
S    6    1.000000
   4.56324000E+03    1.96665000E-03 
   6.82024000E+02    1.52306000E-02 
   1.54973000E+02    7.61269000E-02 
   4.44553000E+01    2.60801000E-01 
   1.30290000E+01    6.16462000E-01 
   1.82773000E+00    2.21006000E-01 
SP   3    1.000000
   2.09642000E+01    1.14660000E-01   4.02487000E-02 
   4.80331000E+00    9.19999000E-01   2.37594000E-01 
   1.45933000E+00   -3.03068000E-03   8.15854000E-01 
SP   1    1.000000
   4.83456000E-01    1.00000000E+00   1.00000000E+00 
SP   1    1.000000
   1.45585000E-01    1.00000000E+00   1.00000000E+00 
SP   1    1.000000
   4.38000000E-02    1.00000000E+00   1.00000000E+00 
D    1    1.000000
   6.26000000E-01    1.00000000E+00 

4    0
S    3    1.000000
   3.38650000E+01    2.54938000E-02 
   5.09479000E+00    1.90373000E-01 
   1.15879000E+00    8.52161000E-01 
S    1    1.000000
   3.25840000E-01    1.00000000E+00 
S    1    1.000000
   1.02741000E-01    1.00000000E+00 
S    1    1.000000
   3.60000000E-02    1.00000000E+00 
P    1    1.000000
   7.50000000E-01    1.00000000E+00 

5    0
S    3    1.000000
   3.38650000E+01    2.54938000E-02 
   5.09479000E+00    1.90373000E-01 
   1.15879000E+00    8.52161000E-01 
S    1    1.000000
   3.25840000E-01    1.00000000E+00 
S    1    1.000000
   1.02741000E-01    1.00000000E+00 
S    1    1.000000
   3.60000000E-02    1.00000000E+00 
P    1    1.000000
   7.50000000E-01    1.00000000E+00 

6    0
S    3    1.000000
   3.38650000E+01    2.54938000E-02 
   5.09479000E+00    1.90373000E-01 
   1.15879000E+00    8.52161000E-01 
S    1    1.000000
   3.25840000E-01    1.00000000E+00 
S    1    1.000000
   1.02741000E-01    1.00000000E+00 
S    1    1.000000
   3.60000000E-02    1.00000000E+00 
P    1    1.000000
   7.50000000E-01    1.00000000E+00 

[MO]
Sym=X
Ene= -0.834099
Spin=Alpha
Occup=1
     1   -5.476689526620e-01
     2   -4.734890064636e-01
     3    1.032191610451e-03
     4    5.765127611791e-04
     5   -6.361082282022e-16
     6   -6.217342143248e-03
     7   -3.882448753658e-04
     8   -2.183522284636e-04
     9    2.293137676646e-16
    10    9.460879148009e-04
    11    1.064350432525e-04
    12    7.556193954368e-05
    13   -1.425158563774e-15
    14   -9.809466478028e-04
    15    7.289028031843e-05
    16    1.788883592847e-05
    17   -2.978549995318e-16
    18   -5.280671164789e-05
    19   -2.612846520725e-16
    20    7.397901701126e-16
    21    6.195183733751e-05
    22    1.001206443775e-04
    23   -1.421559766350e-06
    24    1.170341166605e-06
    25    4.422727757991e-06
    26   -3.938979399963e-06
    27   -1.234737111549e-15
    28   -2.292393443309e-05
    29   -2.937178941514e-05
    30    3.120405133061e-05
    31    1.983998185317e-15
    32    1.141166602669e-04
    33    1.485567841482e-04
    34    6.329406868928e-05
    35   -3.418811000514e-15
    36   -1.249104152571e-03
    37   -3.000732895247e-04
    38    3.992595952395e-05
    39   -2.339292170663e-16
    40   -6.157028551578e-06
    41   -3.883410460919e-16
    42   -1.274505808474e-15
    43   -1.776976409462e-05
    44    1.116647759972e-05
    45    4.148462323579e-06
    46    2.642297381500e-05
    47   -1.632505328479e-05
    48   -1.116925645130e-05
    49    2.090944696696e-15
    50   -8.348349164442e-05
    51   -1.864899982871e-04
    52   -9.916591479815e-05
    53   -3.645723867192e-15
    54    3.274345144453e-05
    55    8.532139963737e-05
    56   -7.189153965842e-05
    57    5.639899167242e-15
    58    1.411994041756e-03
    59   -8.438533392221e-05
    60    3.656431154059e-04
    61   -7.771347736485e-16
    62    3.927300911380e-05
    63    5.458681501659e-16
    64    6.096759230627e-16
    65   -4.960382276010e-05
    66   -9.334433543403e-05
    67    5.201418264482e-07
    68   -5.157595431631e-05
    69    3.671576790796e-05
    70    2.367146379349e-05
    71    1.194400279805e-05
    72   -1.383489388933e-05
    73   -6.507041002304e-16
    74    2.975671690718e-06
    75   -8.178035400566e-05
    76    8.162826552137e-05
    77   -1.667283866934e-05
    78   -6.905448691901e-07
    79    1.289981842609e-05
    80    1.152583156558e-15
    81   -7.226718577456e-06
    82    3.012416068360e-05
    83    9.593863254842e-05
    84    2.298699062818e-05
    85   -7.871892861220e-09
    86    1.789572553151e-06
    87    2.043383656543e-17
Sym=X
Ene= 0.834099
Spin=Alpha
Occup=0
     1    5.016279347134e-03
     2    8.755172203006e-03
     3    1.521421448019e-02
     4   -8.810189591712e-03
     5    3.935902674311e-14
     6   -2.810703451045e-02
     7    2.429808862336e-02
     8    2.124686679431e-03
     9    4.889070052655e-14
    10   -1.398439659342e-01
    11   -2.291017865080e-02
    12   -8.509005653135e-02
    13    6.474228384822e-14
    14    1.013746666915e+00
    15   -3.110802429736e-01
    16    2.031460458273e-01
    17    6.955894715909e-14
    18   -2.349773743551e-03
    19    9.905395729214e-15
    20   -4.936748406465e-15
    21   -8.380610818564e-04
    22   -6.877085675272e-03
    23    6.415718178522e-04
    24    2.935639374473e-04
    25    2.307251600414e-02
    26   -6.220010037362e-03
    27    1.300461165047e-13
    28    1.340515636000e-02
    29    1.282550579347e-02
    30   -3.056957907345e-02
    31    1.282882412399e-13
    32   -8.334248382997e-02
    33    4.145044380612e-01
    34    1.125834530587e-01
    35    7.529602437277e-13
    36    2.352968898960e+01
    37    9.920876060003e+00
    38   -1.256929109393e+00
    39   -1.367607318211e-12
    40   -9.456185975906e-03
    41   -2.616703581381e-14
    42    5.902837435211e-15
    43   -5.595534519234e-04
    44    3.336936420840e-02
    45    2.172303442644e-02
    46    3.753084520913e-02
    47    1.268537472159e-02
    48    5.048220915160e-02
    49   -1.372845284879e-13
    50   -9.926331207763e-02
    51   -1.172372890992e-02
    52    7.971772194345e-02
    53   -1.611855575327e-13
    54   -1.006414326667e+00
    55    1.281478404674e-02
    56   -3.189825250380e-02
    57   -7.088481429318e-13
    58   -2.370291049971e+01
    59    6.543082122826e+00
    60   -8.050050070563e+00
    61    1.279443655666e-12
    62   -1.218270960210e-02
    63   -1.196085824288e-14
    64    2.284638961074e-14
    65   -2.198549354647e-02
    66   -1.587772674532e-02
    67    2.290785981804e-02
    68    8.887897308502e-02
    69    2.640143813356e-01
    70   -6.775032656043e+00
    71    1.476472619891e-02
    72   -1.129778834106e-02
    73   -1.721729816555e-14
    74    6.942561414699e-04
    75   -3.612567200719e-02
    76   -1.176460298900e-01
    77    4.776569142451e-01
    78    1.466903980168e-02
    79    5.323485800573e-03
    80    1.125545451341e-14
    81    4.422738543504e-02
    82    5.343197359655e-02
    83    1.404985815810e+00
    84    5.351410283864e+00
    85    1.314163566333e-03
    86   -1.083854353352e-02
    87    8.800177734979e-15
[5D]
