[Molden Format]
[Atoms] (Angs)
  F      1    9      1.15290231      0.22477664     -0.00000000
  C      2    6     -1.17935012      0.19972949     -0.00000000
  C      3    6     -0.01631886     -0.43556811      0.00000000
  H      4    1      0.11895302     -1.50789969      0.00000000
  H      5    1     -1.23082549      1.27856114     -0.00000000
  H      6    1     -2.09023450     -0.37861944      0.00000000
[GTO]
1    0
S    6    1.000000
   1.14271000E+04    1.80093000E-03 
   1.72235000E+03    1.37419000E-02 
   3.95746000E+02    6.81334000E-02 
   1.15139000E+02    2.33325000E-01 
   3.36026000E+01    5.89086000E-01 
   4.91901000E+00    2.99505000E-01 
SP   3    1.000000
   5.54441000E+01    1.14536000E-01   3.54609000E-02 
   1.26323000E+01    9.20512000E-01   2.37451000E-01 
   3.71756000E+00   -3.37804000E-03   8.20458000E-01 
SP   1    1.000000
   1.16545000E+00    1.00000000E+00   1.00000000E+00 
SP   1    1.000000
   3.21892000E-01    1.00000000E+00   1.00000000E+00 
SP   1    1.000000
   1.07600000E-01    1.00000000E+00   1.00000000E+00 
D    1    1.000000
   1.75000000E+00    1.00000000E+00 

2    0
S    6    1.000000
   4.56324000E+03    1.96665000E-03 
   6.82024000E+02    1.52306000E-02 
   1.54973000E+02    7.61269000E-02 
   4.44553000E+01    2.60801000E-01 
   1.30290000E+01    6.16462000E-01 
   1.82773000E+00    2.21006000E-01 
SP   3    1.000000
   2.09642000E+01    1.14660000E-01   4.02487000E-02 
   4.80331000E+00    9.19999000E-01   2.37594000E-01 
   1.45933000E+00   -3.03068000E-03   8.15854000E-01 
SP   1    1.000000
   4.83456000E-01    1.00000000E+00   1.00000000E+00 
SP   1    1.000000
   1.45585000E-01    1.00000000E+00   1.00000000E+00 
SP   1    1.000000
   4.38000000E-02    1.00000000E+00   1.00000000E+00 
D    1    1.000000
   6.26000000E-01    1.00000000E+00 

3    0
S    6    1.000000
   4.56324000E+03    1.96665000E-03 
   6.82024000E+02    1.52306000E-02 
   1.54973000E+02    7.61269000E-02 
   4.44553000E+01    2.60801000E-01 
   1.30290000E+01    6.16462000E-01 
   1.82773000E+00    2.21006000E-01 
SP   3    1.000000
   2.09642000E+01    1.14660000E-01   4.02487000E-02 
   4.80331000E+00    9.19999000E-01   2.37594000E-01 
   1.45933000E+00   -3.03068000E-03   8.15854000E-01 
SP   1    1.000000
   4.83456000E-01    1.00000000E+00   1.00000000E+00 
SP   1    1.000000
   1.45585000E-01    1.00000000E+00   1.00000000E+00 
SP   1    1.000000
   4.38000000E-02    1.00000000E+00   1.00000000E+00 
D    1    1.000000
   6.26000000E-01    1.00000000E+00 

4    0
S    3    1.000000
   3.38650000E+01    2.54938000E-02 
   5.09479000E+00    1.90373000E-01 
   1.15879000E+00    8.52161000E-01 
S    1    1.000000
   3.25840000E-01    1.00000000E+00 
S    1    1.000000
   1.02741000E-01    1.00000000E+00 
S    1    1.000000
   3.60000000E-02    1.00000000E+00 
P    1    1.000000
   7.50000000E-01    1.00000000E+00 

5    0
S    3    1.000000
   3.38650000E+01    2.54938000E-02 
   5.09479000E+00    1.90373000E-01 
   1.15879000E+00    8.52161000E-01 
S    1    1.000000
   3.25840000E-01    1.00000000E+00 
S    1    1.000000
   1.02741000E-01    1.00000000E+00 
S    1    1.000000
   3.60000000E-02    1.00000000E+00 
P    1    1.000000
   7.50000000E-01    1.00000000E+00 

6    0
S    3    1.000000
   3.38650000E+01    2.54938000E-02 
   5.09479000E+00    1.90373000E-01 
   1.15879000E+00    8.52161000E-01 
S    1    1.000000
   3.25840000E-01    1.00000000E+00 
S    1    1.000000
   1.02741000E-01    1.00000000E+00 
S    1    1.000000
   3.60000000E-02    1.00000000E+00 
P    1    1.000000
   7.50000000E-01    1.00000000E+00 

[MO]
Sym=X
Ene= -0.837300
Spin=Alpha
Occup=1
     1   -5.476689485387e-01
     2   -4.734889990065e-01
     3    1.032241260093e-03
     4    5.764209398579e-04
     5   -6.360627134628e-16
     6   -6.217380828370e-03
     7   -3.881446846916e-04
     8   -2.185487964852e-04
     9    2.293654129517e-16
    10    9.460772389256e-04
    11    1.065481100144e-04
    12    7.517111170965e-05
    13   -1.425119178102e-15
    14   -9.808931031945e-04
    15    7.288066013761e-05
    16    1.787961424417e-05
    17   -2.978307960197e-16
    18   -5.281431372889e-05
    19   -2.612863142962e-16
    20    7.397834216204e-16
    21    6.194548350305e-05
    22    1.001097387419e-04
    23   -1.422222153720e-06
    24    1.171775374262e-06
    25    4.541620656568e-06
    26   -3.922055532436e-06
    27   -1.234745564612e-15
    28   -2.297301660241e-05
    29   -2.916587937473e-05
    30    3.122860140877e-05
    31    1.984071831280e-15
    32    1.142202865061e-04
    33    1.486664411018e-04
    34    6.339211549011e-05
    35   -3.419038202703e-15
    36   -1.248776893033e-03
    37   -3.000095704899e-04
    38    3.987478715116e-05
    39   -2.339204654847e-16
    40   -6.203410615968e-06
    41   -3.883455632374e-16
    42   -1.274517473509e-15
    43   -1.773884113382e-05
    44    1.121423654324e-05
    45    4.175373011234e-06
    46    2.647117086093e-05
    47   -1.628614054609e-05
    48   -1.104999433332e-05
    49    2.090970352193e-15
    50   -8.376858057062e-05
    51   -1.864038670500e-04
    52   -9.896158359787e-05
    53   -3.645632066145e-15
    54    3.249111439598e-05
    55    8.547201482083e-05
    56   -7.201326016209e-05
    57    5.639814605306e-15
    58    1.411678505595e-03
    59   -8.427461025005e-05
    60    3.655148732042e-04
    61   -7.770408877043e-16
    62    3.920966150400e-05
    63    5.458670277705e-16
    64    6.096782004589e-16
    65   -4.957321748201e-05
    66   -9.340446385086e-05
    67    6.452246207511e-07
    68   -5.130040698091e-05
    69    3.670717037978e-05
    70    2.360595830987e-05
    71    1.196633523446e-05
    72   -1.383822290757e-05
    73   -6.507006678735e-16
    74    3.070868059499e-06
    75   -8.157651923220e-05
    76    8.171586819327e-05
    77   -1.661486349796e-05
    78   -6.718280019412e-07
    79    1.290261610594e-05
    80    1.152575820438e-15
    81   -7.159643487353e-06
    82    3.026973766696e-05
    83    9.595657405915e-05
    84    2.296815912459e-05
    85   -3.348856294467e-09
    86    1.778842966290e-06
    87    2.044337157971e-17
Sym=X
Ene= 0.837300
Spin=Alpha
Occup=0
     1    4.143943906145e-03
     2    7.486605005004e-03
     3    2.388563308429e-02
     4   -5.676066191138e-02
     5    9.031397676180e-15
     6   -3.035073725450e-02
     7    3.489514663369e-02
     8   -7.784370500127e-02
     9    1.106769587450e-14
    10   -2.972226721777e-02
    11    1.425827891477e-02
    12   -4.324688376345e-02
    13    2.536117402505e-14
    14   -4.173595884882e-01
    15    2.231995967158e-01
    16    2.770991441075e-02
    17    4.458967661179e-14
    18    1.831604249120e-03
    19    1.198078931073e-15
    20    4.017625696995e-15
    21   -2.646905108812e-03
    22    2.720481880935e-03
    23   -1.502331816611e-03
    24   -3.509193502745e-03
    25   -2.293922441215e-02
    26    2.113535957204e-02
    27    3.861119212718e-14
    28    3.293564697182e-02
    29   -3.372690789387e-02
    30    3.280778628677e-02
    31    3.447517513910e-14
    32   -2.857179165496e-01
    33   -9.279893383287e-02
    34   -2.767526930800e-02
    35    2.655881788703e-13
    36   -8.839213138581e+00
    37   -1.313240492215e+00
    38    6.128060102886e-01
    39   -4.124306850619e-13
    40    9.794976161625e-03
    41   -2.138593721219e-15
    42    4.844983141497e-15
    43   -4.717854322642e-03
    44    1.937015832933e-02
    45    8.616258634500e-03
    46    1.470831516115e-02
    47    2.967351552509e-02
    48   -1.440564426217e-02
    49   -4.082728972107e-14
    50   -5.156613637549e-02
    51    2.319178419528e-02
    52   -3.780727429836e-02
    53   -6.815109875236e-14
    54   -6.593593388611e-02
    55    1.339640610898e-01
    56    1.506916949649e-01
    57   -2.053158877340e-13
    58    7.362042180825e+00
    59   -3.516413045239e+00
    60    3.618238719369e+00
    61    3.108772409359e-13
    62    7.145662652326e-03
    63   -5.957737220902e-15
    64   -9.772785484694e-16
    65    5.846633791213e-04
    66    3.241408640474e-03
    67    3.347024167603e-03
    68   -2.650320442509e-02
    69    4.832126143439e-01
    70    2.857489112704e+00
    71   -1.107715831059e-02
    72   -3.857253986736e-04
    73   -3.938843245994e-15
    74    4.967258317993e-03
    75    2.034998596331e-02
    76    9.003877492958e-02
    77   -1.580472381536e+00
    78    1.032263125696e-02
    79   -1.099792421760e-02
    80    3.525329826469e-15
    81    1.048416581386e-02
    82   -1.146592848139e-02
    83    1.721833007494e-01
    84   -3.379873235269e-01
    85    5.471043677124e-03
    86   -3.706112254003e-03
    87    4.343177688485e-15
[5D]
