[Molden Format]
[Atoms] (Angs)
  F      1    9      1.15290231      0.22477664     -0.00000000
  C      2    6     -1.17935012      0.19972949     -0.00000000
  C      3    6     -0.01631886     -0.43556811      0.00000000
  H      4    1      0.11895302     -1.50789969      0.00000000
  H      5    1     -1.23082549      1.27856114     -0.00000000
  H      6    1     -2.09023450     -0.37861944      0.00000000
[GTO]
1    0
S    6    1.000000
   1.14271000E+04    1.80093000E-03 
   1.72235000E+03    1.37419000E-02 
   3.95746000E+02    6.81334000E-02 
   1.15139000E+02    2.33325000E-01 
   3.36026000E+01    5.89086000E-01 
   4.91901000E+00    2.99505000E-01 
SP   3    1.000000
   5.54441000E+01    1.14536000E-01   3.54609000E-02 
   1.26323000E+01    9.20512000E-01   2.37451000E-01 
   3.71756000E+00   -3.37804000E-03   8.20458000E-01 
SP   1    1.000000
   1.16545000E+00    1.00000000E+00   1.00000000E+00 
SP   1    1.000000
   3.21892000E-01    1.00000000E+00   1.00000000E+00 
SP   1    1.000000
   1.07600000E-01    1.00000000E+00   1.00000000E+00 
D    1    1.000000
   1.75000000E+00    1.00000000E+00 

2    0
S    6    1.000000
   4.56324000E+03    1.96665000E-03 
   6.82024000E+02    1.52306000E-02 
   1.54973000E+02    7.61269000E-02 
   4.44553000E+01    2.60801000E-01 
   1.30290000E+01    6.16462000E-01 
   1.82773000E+00    2.21006000E-01 
SP   3    1.000000
   2.09642000E+01    1.14660000E-01   4.02487000E-02 
   4.80331000E+00    9.19999000E-01   2.37594000E-01 
   1.45933000E+00   -3.03068000E-03   8.15854000E-01 
SP   1    1.000000
   4.83456000E-01    1.00000000E+00   1.00000000E+00 
SP   1    1.000000
   1.45585000E-01    1.00000000E+00   1.00000000E+00 
SP   1    1.000000
   4.38000000E-02    1.00000000E+00   1.00000000E+00 
D    1    1.000000
   6.26000000E-01    1.00000000E+00 

3    0
S    6    1.000000
   4.56324000E+03    1.96665000E-03 
   6.82024000E+02    1.52306000E-02 
   1.54973000E+02    7.61269000E-02 
   4.44553000E+01    2.60801000E-01 
   1.30290000E+01    6.16462000E-01 
   1.82773000E+00    2.21006000E-01 
SP   3    1.000000
   2.09642000E+01    1.14660000E-01   4.02487000E-02 
   4.80331000E+00    9.19999000E-01   2.37594000E-01 
   1.45933000E+00   -3.03068000E-03   8.15854000E-01 
SP   1    1.000000
   4.83456000E-01    1.00000000E+00   1.00000000E+00 
SP   1    1.000000
   1.45585000E-01    1.00000000E+00   1.00000000E+00 
SP   1    1.000000
   4.38000000E-02    1.00000000E+00   1.00000000E+00 
D    1    1.000000
   6.26000000E-01    1.00000000E+00 

4    0
S    3    1.000000
   3.38650000E+01    2.54938000E-02 
   5.09479000E+00    1.90373000E-01 
   1.15879000E+00    8.52161000E-01 
S    1    1.000000
   3.25840000E-01    1.00000000E+00 
S    1    1.000000
   1.02741000E-01    1.00000000E+00 
S    1    1.000000
   3.60000000E-02    1.00000000E+00 
P    1    1.000000
   7.50000000E-01    1.00000000E+00 

5    0
S    3    1.000000
   3.38650000E+01    2.54938000E-02 
   5.09479000E+00    1.90373000E-01 
   1.15879000E+00    8.52161000E-01 
S    1    1.000000
   3.25840000E-01    1.00000000E+00 
S    1    1.000000
   1.02741000E-01    1.00000000E+00 
S    1    1.000000
   3.60000000E-02    1.00000000E+00 
P    1    1.000000
   7.50000000E-01    1.00000000E+00 

6    0
S    3    1.000000
   3.38650000E+01    2.54938000E-02 
   5.09479000E+00    1.90373000E-01 
   1.15879000E+00    8.52161000E-01 
S    1    1.000000
   3.25840000E-01    1.00000000E+00 
S    1    1.000000
   1.02741000E-01    1.00000000E+00 
S    1    1.000000
   3.60000000E-02    1.00000000E+00 
P    1    1.000000
   7.50000000E-01    1.00000000E+00 

[MO]
Sym=X
Ene= -0.837032
Spin=Alpha
Occup=1
     1   -5.476692104265e-01
     2   -4.734894082380e-01
     3    1.030220565640e-03
     4    5.755772439268e-04
     5   -6.363417446054e-16
     6   -6.213213906788e-03
     7   -3.904992934297e-04
     8   -2.192700920729e-04
     9    2.291105141485e-16
    10    9.431691569313e-04
    11    1.066602269238e-04
    12    7.637817816740e-05
    13   -1.426756881709e-15
    14   -9.773234587250e-04
    15    7.198416156285e-05
    16    1.742811713772e-05
    17   -2.950023883826e-16
    18   -5.254933133360e-05
    19   -2.613194065917e-16
    20    7.397597719040e-16
    21    6.170577331648e-05
    22    9.969409141327e-05
    23   -1.700617293984e-06
    24    6.875902836175e-07
    25    4.183910310906e-06
    26   -6.244531085571e-06
    27   -1.234689094952e-15
    28   -2.054968101162e-05
    29   -3.004230855475e-05
    30    2.772696104802e-05
    31    1.985297979754e-15
    32    1.133224553474e-04
    33    1.475412481237e-04
    34    6.069027873494e-05
    35   -3.423720457565e-15
    36   -1.248458417198e-03
    37   -3.004405791030e-04
    38    3.877219887314e-05
    39   -2.283053501027e-16
    40   -6.476841028896e-06
    41   -3.883046478526e-16
    42   -1.274610558792e-15
    43   -1.876304979253e-05
    44    1.066855291611e-05
    45    5.152176377329e-06
    46    2.816792292832e-05
    47   -1.939493537250e-05
    48   -1.276724130741e-05
    49    2.091371226357e-15
    50   -8.951338307674e-05
    51   -1.925200605581e-04
    52   -1.026125375999e-04
    53   -3.644476735558e-15
    54    2.788540446593e-05
    55    8.315031905440e-05
    56   -7.248481058846e-05
    57    5.640603594794e-15
    58    1.409193657084e-03
    59   -8.442265698144e-05
    60    3.663426201765e-04
    61   -7.819873443218e-16
    62    3.893164820321e-05
    63    5.458734373502e-16
    64    6.096810824976e-16
    65   -4.960965959261e-05
    66   -9.341109259532e-05
    67    8.224500986129e-07
    68   -5.129392265101e-05
    69    3.720742624127e-05
    70    2.475776768391e-05
    71    1.143082002406e-05
    72   -1.396896145252e-05
    73   -6.507256383531e-16
    74    2.448921464475e-06
    75   -8.265202439547e-05
    76    8.150945140433e-05
    77   -1.590806860371e-05
    78   -7.532871300848e-07
    79    1.304342476770e-05
    80    1.152530119306e-15
    81   -6.807430757640e-06
    82    3.073486269350e-05
    83    9.607226179247e-05
    84    2.213595745034e-05
    85    2.197033381145e-07
    86    1.669227139714e-06
    87    2.054236171353e-17
Sym=X
Ene= 0.837032
Spin=Alpha
Occup=0
     1    4.368459512610e-02
     2    7.799319698867e-02
     3    1.078772049808e-01
     4    6.493422079602e-02
     5    2.616524949056e-14
     6   -2.861894667433e-01
     7    1.424402936171e-01
     8    8.554837754514e-02
     9    3.229842489579e-14
    10   -4.446772282151e-01
    11    1.815448035421e-01
    12    1.085501359528e-01
    13    1.036654477704e-13
    14   -6.137375001560e-01
    15    1.603815594984e-01
    16    6.042432927054e-02
    17   -1.311410519313e-13
    18   -2.160184723715e-03
    19    3.416453608287e-15
    20    1.789116408155e-15
    21    3.889278603077e-03
    22    4.294072113744e-03
    23    1.172065649753e-02
    24    2.069833707968e-02
    25   -1.471362809476e-02
    26    8.156678498163e-03
    27    6.082697132783e-14
    28   -6.753024674575e-02
    29   -2.708664607725e-02
    30    1.278906639259e-02
    31    4.798971855799e-14
    32   -5.326521614049e-02
    33   -6.462118266741e-02
    34   -4.444755292458e-02
    35    4.497064009789e-13
    36    1.539169042232e-01
    37   -2.910149895226e-01
    38   -6.969710305230e-01
    39   -7.142294928622e-13
    40    5.017719317725e-03
    41   -9.480784830783e-15
    42    6.523771328929e-15
    43    2.432766884885e-02
    44    1.729601506571e-02
    45   -2.594355585298e-02
    46   -4.566532639352e-02
    47    1.171886742092e-01
    48    8.465796034844e-02
    49   -7.130631028353e-14
    50    1.136080688051e-01
    51    2.080632496408e-01
    52    1.464495157477e-01
    53   -1.120890127189e-13
    54    5.904911448349e-01
    55    4.757817760503e-01
    56    3.266383948889e-01
    57   -3.186156114802e-13
    58   -2.842457523296e-03
    59    7.198458520633e-01
    60    8.060833365007e-01
    61    6.480058869520e-13
    62    1.626382740444e-02
    63   -8.730327021603e-15
    64    4.529558563161e-15
    65   -1.042591431833e-02
    66   -1.455367123211e-02
    67   -2.659199241933e-02
    68   -7.704300515856e-02
    69   -9.464424595622e-04
    70    6.307901328009e-01
    71    1.462918133789e-02
    72   -3.700576579324e-03
    73   -8.203502090746e-15
    74   -3.573077654301e-02
    75   -8.669215743188e-02
    76   -6.603912274203e-02
    77    5.072093605400e-01
    78    2.001153917900e-03
    79    6.252004196748e-04
    80    5.344230053254e-15
    81    3.265838529305e-02
    82    7.934704940387e-02
    83    1.677002528106e-02
    84   -3.267444360441e-01
    85   -7.029058967789e-03
    86    9.199836199205e-04
    87    4.525490104765e-15
[5D]
