[Molden Format]
[Atoms] (Angs)
  F      1    9      1.15290231      0.22477664     -0.00000000
  C      2    6     -1.17935012      0.19972949     -0.00000000
  C      3    6     -0.01631886     -0.43556811      0.00000000
  H      4    1      0.11895302     -1.50789969      0.00000000
  H      5    1     -1.23082549      1.27856114     -0.00000000
  H      6    1     -2.09023450     -0.37861944      0.00000000
[GTO]
1    0
S    6    1.000000
   1.14271000E+04    1.80093000E-03 
   1.72235000E+03    1.37419000E-02 
   3.95746000E+02    6.81334000E-02 
   1.15139000E+02    2.33325000E-01 
   3.36026000E+01    5.89086000E-01 
   4.91901000E+00    2.99505000E-01 
SP   3    1.000000
   5.54441000E+01    1.14536000E-01   3.54609000E-02 
   1.26323000E+01    9.20512000E-01   2.37451000E-01 
   3.71756000E+00   -3.37804000E-03   8.20458000E-01 
SP   1    1.000000
   1.16545000E+00    1.00000000E+00   1.00000000E+00 
SP   1    1.000000
   3.21892000E-01    1.00000000E+00   1.00000000E+00 
SP   1    1.000000
   1.07600000E-01    1.00000000E+00   1.00000000E+00 
D    1    1.000000
   1.75000000E+00    1.00000000E+00 

2    0
S    6    1.000000
   4.56324000E+03    1.96665000E-03 
   6.82024000E+02    1.52306000E-02 
   1.54973000E+02    7.61269000E-02 
   4.44553000E+01    2.60801000E-01 
   1.30290000E+01    6.16462000E-01 
   1.82773000E+00    2.21006000E-01 
SP   3    1.000000
   2.09642000E+01    1.14660000E-01   4.02487000E-02 
   4.80331000E+00    9.19999000E-01   2.37594000E-01 
   1.45933000E+00   -3.03068000E-03   8.15854000E-01 
SP   1    1.000000
   4.83456000E-01    1.00000000E+00   1.00000000E+00 
SP   1    1.000000
   1.45585000E-01    1.00000000E+00   1.00000000E+00 
SP   1    1.000000
   4.38000000E-02    1.00000000E+00   1.00000000E+00 
D    1    1.000000
   6.26000000E-01    1.00000000E+00 

3    0
S    6    1.000000
   4.56324000E+03    1.96665000E-03 
   6.82024000E+02    1.52306000E-02 
   1.54973000E+02    7.61269000E-02 
   4.44553000E+01    2.60801000E-01 
   1.30290000E+01    6.16462000E-01 
   1.82773000E+00    2.21006000E-01 
SP   3    1.000000
   2.09642000E+01    1.14660000E-01   4.02487000E-02 
   4.80331000E+00    9.19999000E-01   2.37594000E-01 
   1.45933000E+00   -3.03068000E-03   8.15854000E-01 
SP   1    1.000000
   4.83456000E-01    1.00000000E+00   1.00000000E+00 
SP   1    1.000000
   1.45585000E-01    1.00000000E+00   1.00000000E+00 
SP   1    1.000000
   4.38000000E-02    1.00000000E+00   1.00000000E+00 
D    1    1.000000
   6.26000000E-01    1.00000000E+00 

4    0
S    3    1.000000
   3.38650000E+01    2.54938000E-02 
   5.09479000E+00    1.90373000E-01 
   1.15879000E+00    8.52161000E-01 
S    1    1.000000
   3.25840000E-01    1.00000000E+00 
S    1    1.000000
   1.02741000E-01    1.00000000E+00 
S    1    1.000000
   3.60000000E-02    1.00000000E+00 
P    1    1.000000
   7.50000000E-01    1.00000000E+00 

5    0
S    3    1.000000
   3.38650000E+01    2.54938000E-02 
   5.09479000E+00    1.90373000E-01 
   1.15879000E+00    8.52161000E-01 
S    1    1.000000
   3.25840000E-01    1.00000000E+00 
S    1    1.000000
   1.02741000E-01    1.00000000E+00 
S    1    1.000000
   3.60000000E-02    1.00000000E+00 
P    1    1.000000
   7.50000000E-01    1.00000000E+00 

6    0
S    3    1.000000
   3.38650000E+01    2.54938000E-02 
   5.09479000E+00    1.90373000E-01 
   1.15879000E+00    8.52161000E-01 
S    1    1.000000
   3.25840000E-01    1.00000000E+00 
S    1    1.000000
   1.02741000E-01    1.00000000E+00 
S    1    1.000000
   3.60000000E-02    1.00000000E+00 
P    1    1.000000
   7.50000000E-01    1.00000000E+00 

[MO]
Sym=X
Ene= -0.834832
Spin=Alpha
Occup=1
     1   -5.476689835888e-01
     2   -4.734890598247e-01
     3    1.032199444361e-03
     4    5.764510497690e-04
     5   -6.360676428699e-16
     6   -6.217231610056e-03
     7   -3.881817931579e-04
     8   -2.184276230750e-04
     9    2.293839421238e-16
    10    9.463950531428e-04
    11    1.065954697326e-04
    12    7.551854598742e-05
    13   -1.425209861066e-15
    14   -9.808439047601e-04
    15    7.289789184208e-05
    16    1.788623048666e-05
    17   -2.977323265952e-16
    18   -5.280277871037e-05
    19   -2.612863584120e-16
    20    7.397845612612e-16
    21    6.193937432666e-05
    22    1.000949856311e-04
    23   -1.447443962487e-06
    24    1.125524899653e-06
    25    4.572534995684e-06
    26   -4.000048550697e-06
    27   -1.234725623995e-15
    28   -2.270363714958e-05
    29   -2.912327547484e-05
    30    3.109510611287e-05
    31    1.984050265050e-15
    32    1.141970005832e-04
    33    1.488662188850e-04
    34    6.329950186587e-05
    35   -3.418789265748e-15
    36   -1.249087258044e-03
    37   -3.000986096689e-04
    38    3.990141163614e-05
    39   -2.342346024358e-16
    40   -6.193524922023e-06
    41   -3.883658633775e-16
    42   -1.274515722121e-15
    43   -1.778981479473e-05
    44    1.123624189969e-05
    45    4.192824674785e-06
    46    2.650339375006e-05
    47   -1.642340191394e-05
    48   -1.111191069721e-05
    49    2.090931977654e-15
    50   -8.395461008011e-05
    51   -1.866698833864e-04
    52   -9.909893766202e-05
    53   -3.645690072614e-15
    54    3.241080034782e-05
    55    8.532125404369e-05
    56   -7.198961964075e-05
    57    5.639683588404e-15
    58    1.411950360570e-03
    59   -8.436268494049e-05
    60    3.656404038874e-04
    61   -7.768234285721e-16
    62    3.923459560660e-05
    63    5.458782013761e-16
    64    6.096834013218e-16
    65   -4.961111427773e-05
    66   -9.339888564256e-05
    67    6.249386424695e-07
    68   -5.134753874928e-05
    69    3.675066951765e-05
    70    2.368880923844e-05
    71    1.194996943600e-05
    72   -1.384429281260e-05
    73   -6.507101806363e-16
    74    3.012825406773e-06
    75   -8.170904785322e-05
    76    8.168465939298e-05
    77   -1.663962753026e-05
    78   -6.530520552674e-07
    79    1.290600883816e-05
    80    1.152578105957e-15
    81   -7.246891789507e-06
    82    3.005989242143e-05
    83    9.589854225576e-05
    84    2.293600720496e-05
    85    1.484988324866e-08
    86    1.771695213037e-06
    87    2.046199559627e-17
Sym=X
Ene= 0.834832
Spin=Alpha
Occup=0
     1    2.966196102619e-03
     2    5.083498571156e-03
     3    1.017743231598e-01
     4    2.031935939606e-02
     5   -7.442146093461e-15
     6   -1.129694164070e-02
     7    1.349162554232e-01
     8    2.465375140091e-02
     9   -3.085527245381e-14
    10   -1.038331820879e-01
    11    1.237331965624e-01
    12    4.472234346387e-02
    13   -8.538648852273e-15
    14    1.130479611076e-01
    15    5.555626569391e-02
    16   -2.442096691323e-02
    17   -4.916176627595e-14
    18   -1.611642197538e-03
    19   -2.200132090505e-15
    20    1.042384897400e-16
    21    3.111859543703e-03
    22    2.308201379036e-03
    23    1.945543562904e-02
    24    3.405751074677e-02
    25    2.841651807041e-02
    26    3.024201776666e-02
    27   -5.007103998893e-14
    28   -1.099810236274e-01
    29    4.468281350136e-02
    30    3.398284646172e-02
    31   -9.299345184993e-14
    32   -2.575203850926e-01
    33    2.971652606845e-02
    34    1.809589799023e-01
    35   -1.752490388751e-13
    36   -5.189510164024e+00
    37    6.007395473300e-01
    38    2.669090423823e+00
    39    3.546616420494e-13
    40    6.711997295295e-04
    41    7.773497523107e-15
    42   -2.453742728773e-16
    43    1.773051966205e-02
    44    9.990895881472e-03
    45   -1.277869101877e-02
    46   -2.281029969041e-02
    47    4.692235431043e-02
    48    5.407220526655e-02
    49    4.582230846007e-14
    50    6.446878811574e-02
    51    9.568936841639e-02
    52    1.062607392835e-01
    53    4.150679404418e-14
    54    3.264360468496e-01
    55    9.591514917659e-02
    56    1.448052969625e-01
    57    2.466371230158e-13
    58    4.405246261348e+00
    59   -2.040172455546e+00
    60   -8.219314553914e-01
    61   -3.395207310986e-13
    62    9.832021021405e-03
    63    6.446861475272e-15
    64   -8.426119361736e-15
    65   -1.442296955273e-02
    66   -2.675617270082e-04
    67   -8.232514250528e-03
    68    2.941102193583e-02
    69   -2.871512231216e-01
    70   -7.596943680584e-01
    71    1.976233347510e-04
    72   -3.739760664645e-03
    73    5.020943192411e-15
    74   -1.340133821570e-02
    75   -6.998961377842e-03
    76   -4.654686618042e-01
    77   -1.897191952353e+00
    78    1.480676098152e-03
    79    2.658070676063e-04
    80   -3.145566744331e-15
    81    4.115881974078e-03
    82    1.410497508669e-02
    83    4.617248204033e-01
    84    3.844600144642e+00
    85   -1.367467045680e-02
    86   -8.320164105119e-03
    87   -5.927821371182e-15
[5D]
