[Molden Format]
[Atoms] (Angs)
  F      1    9      1.15290231      0.22477664     -0.00000000
  C      2    6     -1.17935012      0.19972949     -0.00000000
  C      3    6     -0.01631886     -0.43556811      0.00000000
  H      4    1      0.11895302     -1.50789969      0.00000000
  H      5    1     -1.23082549      1.27856114     -0.00000000
  H      6    1     -2.09023450     -0.37861944      0.00000000
[GTO]
1    0
S    6    1.000000
   1.14271000E+04    1.80093000E-03 
   1.72235000E+03    1.37419000E-02 
   3.95746000E+02    6.81334000E-02 
   1.15139000E+02    2.33325000E-01 
   3.36026000E+01    5.89086000E-01 
   4.91901000E+00    2.99505000E-01 
SP   3    1.000000
   5.54441000E+01    1.14536000E-01   3.54609000E-02 
   1.26323000E+01    9.20512000E-01   2.37451000E-01 
   3.71756000E+00   -3.37804000E-03   8.20458000E-01 
SP   1    1.000000
   1.16545000E+00    1.00000000E+00   1.00000000E+00 
SP   1    1.000000
   3.21892000E-01    1.00000000E+00   1.00000000E+00 
SP   1    1.000000
   1.07600000E-01    1.00000000E+00   1.00000000E+00 
D    1    1.000000
   1.75000000E+00    1.00000000E+00 

2    0
S    6    1.000000
   4.56324000E+03    1.96665000E-03 
   6.82024000E+02    1.52306000E-02 
   1.54973000E+02    7.61269000E-02 
   4.44553000E+01    2.60801000E-01 
   1.30290000E+01    6.16462000E-01 
   1.82773000E+00    2.21006000E-01 
SP   3    1.000000
   2.09642000E+01    1.14660000E-01   4.02487000E-02 
   4.80331000E+00    9.19999000E-01   2.37594000E-01 
   1.45933000E+00   -3.03068000E-03   8.15854000E-01 
SP   1    1.000000
   4.83456000E-01    1.00000000E+00   1.00000000E+00 
SP   1    1.000000
   1.45585000E-01    1.00000000E+00   1.00000000E+00 
SP   1    1.000000
   4.38000000E-02    1.00000000E+00   1.00000000E+00 
D    1    1.000000
   6.26000000E-01    1.00000000E+00 

3    0
S    6    1.000000
   4.56324000E+03    1.96665000E-03 
   6.82024000E+02    1.52306000E-02 
   1.54973000E+02    7.61269000E-02 
   4.44553000E+01    2.60801000E-01 
   1.30290000E+01    6.16462000E-01 
   1.82773000E+00    2.21006000E-01 
SP   3    1.000000
   2.09642000E+01    1.14660000E-01   4.02487000E-02 
   4.80331000E+00    9.19999000E-01   2.37594000E-01 
   1.45933000E+00   -3.03068000E-03   8.15854000E-01 
SP   1    1.000000
   4.83456000E-01    1.00000000E+00   1.00000000E+00 
SP   1    1.000000
   1.45585000E-01    1.00000000E+00   1.00000000E+00 
SP   1    1.000000
   4.38000000E-02    1.00000000E+00   1.00000000E+00 
D    1    1.000000
   6.26000000E-01    1.00000000E+00 

4    0
S    3    1.000000
   3.38650000E+01    2.54938000E-02 
   5.09479000E+00    1.90373000E-01 
   1.15879000E+00    8.52161000E-01 
S    1    1.000000
   3.25840000E-01    1.00000000E+00 
S    1    1.000000
   1.02741000E-01    1.00000000E+00 
S    1    1.000000
   3.60000000E-02    1.00000000E+00 
P    1    1.000000
   7.50000000E-01    1.00000000E+00 

5    0
S    3    1.000000
   3.38650000E+01    2.54938000E-02 
   5.09479000E+00    1.90373000E-01 
   1.15879000E+00    8.52161000E-01 
S    1    1.000000
   3.25840000E-01    1.00000000E+00 
S    1    1.000000
   1.02741000E-01    1.00000000E+00 
S    1    1.000000
   3.60000000E-02    1.00000000E+00 
P    1    1.000000
   7.50000000E-01    1.00000000E+00 

6    0
S    3    1.000000
   3.38650000E+01    2.54938000E-02 
   5.09479000E+00    1.90373000E-01 
   1.15879000E+00    8.52161000E-01 
S    1    1.000000
   3.25840000E-01    1.00000000E+00 
S    1    1.000000
   1.02741000E-01    1.00000000E+00 
S    1    1.000000
   3.60000000E-02    1.00000000E+00 
P    1    1.000000
   7.50000000E-01    1.00000000E+00 

[MO]
Sym=X
Ene= -0.837752
Spin=Alpha
Occup=1
     1    5.476689526454e-01
     2    4.734890065596e-01
     3   -1.032188261707e-03
     4   -5.765590498808e-04
     5    6.360731563055e-16
     6    6.217388678849e-03
     7    3.882602022637e-04
     8    2.182625396912e-04
     9   -2.293698616139e-16
    10   -9.461671639127e-04
    11   -1.063347468462e-04
    12   -7.567495519249e-05
    13    1.425183956834e-15
    14    9.809083689437e-04
    15   -7.288102102878e-05
    16   -1.791253172280e-05
    17    2.978018014976e-16
    18    5.281149873295e-05
    19    2.612855485272e-16
    20   -7.397851417459e-16
    21   -6.195478336374e-05
    22   -1.001049980430e-04
    23    1.425444409047e-06
    24   -1.164138869570e-06
    25   -4.567422019030e-06
    26    3.922834055738e-06
    27    1.234749924561e-15
    28    2.292855429018e-05
    29    2.910050318475e-05
    30   -3.121449662221e-05
    31   -1.984000874993e-15
    32   -1.141517211589e-04
    33   -1.487814518070e-04
    34   -6.334186713538e-05
    35    3.418850149019e-15
    36    1.249156332414e-03
    37    3.000868724282e-04
    38   -3.993549501224e-05
    39    2.340348146411e-16
    40    6.185720549920e-06
    41    3.883573135822e-16
    42    1.274512657712e-15
    43    1.775761904901e-05
    44   -1.124402218658e-05
    45   -4.161459000865e-06
    46   -2.644805743354e-05
    47    1.631032665681e-05
    48    1.104535288266e-05
    49   -2.090948698880e-15
    50    8.377652361460e-05
    51    1.864365866188e-04
    52    9.895856159203e-05
    53    3.645692556845e-15
    54   -3.259219867125e-05
    55   -8.536059078719e-05
    56    7.195872175253e-05
    57   -5.639837935085e-15
    58   -1.411997345324e-03
    59    8.439893565227e-05
    60   -3.656421247065e-04
    61    7.770197686049e-16
    62   -3.923671774618e-05
    63   -5.458798994082e-16
    64   -6.096806461078e-16
    65    4.963369661039e-05
    66    9.336067092308e-05
    67   -6.521922761849e-07
    68    5.127964732249e-05
    69   -3.677048828561e-05
    70   -2.369838663724e-05
    71   -1.195796696860e-05
    72    1.384047929465e-05
    73    6.507059192191e-16
    74   -3.016968173635e-06
    75    8.169500409027e-05
    76   -8.166854040602e-05
    77    1.665727178262e-05
    78    6.506065431824e-07
    79   -1.289946395555e-05
    80   -1.152576582564e-15
    81    7.174433982669e-06
    82   -3.024159338593e-05
    83   -9.597034432165e-05
    84   -2.296896063670e-05
    85   -5.704079790262e-09
    86   -1.771700353896e-06
    87   -2.044950059286e-17
Sym=X
Ene= 0.837752
Spin=Alpha
Occup=0
     1    2.219586550905e-16
     2   -1.005986295872e-15
     3   -3.620920820683e-15
     4    1.316168124276e-15
     5   -3.939583914202e-02
     6    1.120049905143e-14
     7   -1.024785697371e-14
     8    7.316830763888e-15
     9   -5.341474126087e-02
    10   -8.364928870794e-14
    11    2.942305273021e-14
    12    3.887951348522e-15
    13   -3.456325371495e-02
    14    1.936292872743e-13
    15   -1.013510643970e-13
    16    6.632317171653e-14
    17    1.090198094371e-01
    18   -9.344099160028e-16
    19    7.349885909040e-03
    20    3.433383337902e-03
    21    9.496947023825e-16
    22    1.019150414930e-15
    23    5.151962009189e-15
    24    8.854102177129e-15
    25    1.972296739626e-14
    26    2.252806888826e-14
    27   -3.529928405473e-02
    28    4.061402194863e-15
    29    5.388297416336e-14
    30    5.219843950562e-14
    31   -3.484824680832e-02
    32   -2.692590074280e-13
    33   -5.691168655155e-14
    34    4.832902709619e-15
    35   -1.211253933555e-01
    36    7.634327713177e-12
    37   -1.633032190510e-12
    38   -5.761953449159e-12
    39   -8.617647781814e-02
    40    3.819570436958e-15
    41   -1.141002041030e-02
    42    5.741977442419e-03
    43   -1.047675791017e-14
    44   -9.222611031213e-15
    45   -6.113156206796e-15
    46   -1.049438840174e-14
    47    2.363699313203e-15
    48    1.234043747767e-15
    49   -8.925823889345e-02
    50    3.635613329779e-14
    51   -1.879155888754e-14
    52    2.617307453087e-16
    53   -1.195878788564e-01
    54    1.623605428747e-13
    55    7.813315037148e-14
    56    1.153087413329e-13
    57   -3.419717738676e-01
    58   -8.046578896776e-12
    59    2.163841524061e-12
    60    1.816093479124e-12
    61    1.224774408461e+00
    62   -1.454423866844e-14
    63   -5.374332845682e-03
    64   -1.662664537890e-02
    65   -5.005882518257e-15
    66    6.998457925046e-15
    67    7.304255283454e-15
    68   -3.984758140303e-14
    69    5.589652563885e-13
    70    1.764788816419e-12
    71   -2.355012141753e-15
    72    4.255311638251e-15
    73    5.279034498440e-03
    74    1.668794822455e-14
    75    1.789230586057e-14
    76    7.566482377944e-13
    77    3.955611549619e-12
    78    5.027725501366e-15
    79   -4.467744391963e-15
    80    3.325711041590e-03
    81   -2.047985516710e-14
    82    1.444332262621e-13
    83   -1.345115858004e-12
    84   -5.393960781065e-12
    85    6.386960134798e-15
    86    3.075644785802e-15
    87    2.549612649464e-03
[5D]
