[Molden Format]
[Atoms] (Angs)
  F      1    9      1.15290231      0.22477664     -0.00000000
  C      2    6     -1.17935012      0.19972949     -0.00000000
  C      3    6     -0.01631886     -0.43556811      0.00000000
  H      4    1      0.11895302     -1.50789969      0.00000000
  H      5    1     -1.23082549      1.27856114     -0.00000000
  H      6    1     -2.09023450     -0.37861944      0.00000000
[GTO]
1    0
S    6    1.000000
   1.14271000E+04    1.80093000E-03 
   1.72235000E+03    1.37419000E-02 
   3.95746000E+02    6.81334000E-02 
   1.15139000E+02    2.33325000E-01 
   3.36026000E+01    5.89086000E-01 
   4.91901000E+00    2.99505000E-01 
SP   3    1.000000
   5.54441000E+01    1.14536000E-01   3.54609000E-02 
   1.26323000E+01    9.20512000E-01   2.37451000E-01 
   3.71756000E+00   -3.37804000E-03   8.20458000E-01 
SP   1    1.000000
   1.16545000E+00    1.00000000E+00   1.00000000E+00 
SP   1    1.000000
   3.21892000E-01    1.00000000E+00   1.00000000E+00 
SP   1    1.000000
   1.07600000E-01    1.00000000E+00   1.00000000E+00 
D    1    1.000000
   1.75000000E+00    1.00000000E+00 

2    0
S    6    1.000000
   4.56324000E+03    1.96665000E-03 
   6.82024000E+02    1.52306000E-02 
   1.54973000E+02    7.61269000E-02 
   4.44553000E+01    2.60801000E-01 
   1.30290000E+01    6.16462000E-01 
   1.82773000E+00    2.21006000E-01 
SP   3    1.000000
   2.09642000E+01    1.14660000E-01   4.02487000E-02 
   4.80331000E+00    9.19999000E-01   2.37594000E-01 
   1.45933000E+00   -3.03068000E-03   8.15854000E-01 
SP   1    1.000000
   4.83456000E-01    1.00000000E+00   1.00000000E+00 
SP   1    1.000000
   1.45585000E-01    1.00000000E+00   1.00000000E+00 
SP   1    1.000000
   4.38000000E-02    1.00000000E+00   1.00000000E+00 
D    1    1.000000
   6.26000000E-01    1.00000000E+00 

3    0
S    6    1.000000
   4.56324000E+03    1.96665000E-03 
   6.82024000E+02    1.52306000E-02 
   1.54973000E+02    7.61269000E-02 
   4.44553000E+01    2.60801000E-01 
   1.30290000E+01    6.16462000E-01 
   1.82773000E+00    2.21006000E-01 
SP   3    1.000000
   2.09642000E+01    1.14660000E-01   4.02487000E-02 
   4.80331000E+00    9.19999000E-01   2.37594000E-01 
   1.45933000E+00   -3.03068000E-03   8.15854000E-01 
SP   1    1.000000
   4.83456000E-01    1.00000000E+00   1.00000000E+00 
SP   1    1.000000
   1.45585000E-01    1.00000000E+00   1.00000000E+00 
SP   1    1.000000
   4.38000000E-02    1.00000000E+00   1.00000000E+00 
D    1    1.000000
   6.26000000E-01    1.00000000E+00 

4    0
S    3    1.000000
   3.38650000E+01    2.54938000E-02 
   5.09479000E+00    1.90373000E-01 
   1.15879000E+00    8.52161000E-01 
S    1    1.000000
   3.25840000E-01    1.00000000E+00 
S    1    1.000000
   1.02741000E-01    1.00000000E+00 
S    1    1.000000
   3.60000000E-02    1.00000000E+00 
P    1    1.000000
   7.50000000E-01    1.00000000E+00 

5    0
S    3    1.000000
   3.38650000E+01    2.54938000E-02 
   5.09479000E+00    1.90373000E-01 
   1.15879000E+00    8.52161000E-01 
S    1    1.000000
   3.25840000E-01    1.00000000E+00 
S    1    1.000000
   1.02741000E-01    1.00000000E+00 
S    1    1.000000
   3.60000000E-02    1.00000000E+00 
P    1    1.000000
   7.50000000E-01    1.00000000E+00 

6    0
S    3    1.000000
   3.38650000E+01    2.54938000E-02 
   5.09479000E+00    1.90373000E-01 
   1.15879000E+00    8.52161000E-01 
S    1    1.000000
   3.25840000E-01    1.00000000E+00 
S    1    1.000000
   1.02741000E-01    1.00000000E+00 
S    1    1.000000
   3.60000000E-02    1.00000000E+00 
P    1    1.000000
   7.50000000E-01    1.00000000E+00 

[MO]
Sym=X
Ene= -0.002074
Spin=Alpha
Occup=1
     1   -5.476689526454e-01
     2   -4.734890065596e-01
     3    1.032188261707e-03
     4    5.765590498808e-04
     5   -6.360731563055e-16
     6   -6.217388678849e-03
     7   -3.882602022637e-04
     8   -2.182625396912e-04
     9    2.293698616139e-16
    10    9.461671639127e-04
    11    1.063347468462e-04
    12    7.567495519249e-05
    13   -1.425183956834e-15
    14   -9.809083689437e-04
    15    7.288102102878e-05
    16    1.791253172280e-05
    17   -2.978018014976e-16
    18   -5.281149873295e-05
    19   -2.612855485272e-16
    20    7.397851417459e-16
    21    6.195478336374e-05
    22    1.001049980430e-04
    23   -1.425444409047e-06
    24    1.164138869570e-06
    25    4.567422019030e-06
    26   -3.922834055738e-06
    27   -1.234749924561e-15
    28   -2.292855429018e-05
    29   -2.910050318475e-05
    30    3.121449662221e-05
    31    1.984000874993e-15
    32    1.141517211589e-04
    33    1.487814518070e-04
    34    6.334186713537e-05
    35   -3.418850149019e-15
    36   -1.249156332414e-03
    37   -3.000868724282e-04
    38    3.993549501224e-05
    39   -2.340348146411e-16
    40   -6.185720549920e-06
    41   -3.883573135822e-16
    42   -1.274512657712e-15
    43   -1.775761904901e-05
    44    1.124402218658e-05
    45    4.161459000865e-06
    46    2.644805743354e-05
    47   -1.631032665681e-05
    48   -1.104535288266e-05
    49    2.090948698880e-15
    50   -8.377652361460e-05
    51   -1.864365866188e-04
    52   -9.895856159203e-05
    53   -3.645692556845e-15
    54    3.259219867124e-05
    55    8.536059078719e-05
    56   -7.195872175252e-05
    57    5.639837935085e-15
    58    1.411997345324e-03
    59   -8.439893565227e-05
    60    3.656421247065e-04
    61   -7.770197686049e-16
    62    3.923671774618e-05
    63    5.458798994082e-16
    64    6.096806461078e-16
    65   -4.963369661039e-05
    66   -9.336067092308e-05
    67    6.521922761847e-07
    68   -5.127964732249e-05
    69    3.677048828562e-05
    70    2.369838663724e-05
    71    1.195796696860e-05
    72   -1.384047929465e-05
    73   -6.507059192191e-16
    74    3.016968173635e-06
    75   -8.169500409027e-05
    76    8.166854040602e-05
    77   -1.665727178262e-05
    78   -6.506065431825e-07
    79    1.289946395555e-05
    80    1.152576582564e-15
    81   -7.174433982669e-06
    82    3.024159338593e-05
    83    9.597034432165e-05
    84    2.296896063670e-05
    85    5.704079790141e-09
    86    1.771700353896e-06
    87    2.044950059286e-17
Sym=X
Ene= 0.002074
Spin=Alpha
Occup=0
     1    8.355674711663e-15
     2    1.114478351491e-14
     3   -4.591291942783e-15
     4   -1.039932714002e-14
     5    6.013918180784e-02
     6   -4.184662462267e-14
     7    6.874634582911e-15
     8   -1.761657328635e-14
     9    1.961565723817e-01
    10   -1.108123692202e-13
    11   -9.672569316147e-14
    12    1.089853196480e-14
    13   -3.872346393144e-01
    14   -2.909868425172e-13
    15    4.379259915045e-13
    16    2.311195949266e-13
    17    7.657454816578e-01
    18   -9.409838561012e-16
    19   -2.953379404800e-03
    20   -5.796894719825e-03
    21   -4.267782646044e-16
    22   -9.620835164029e-16
    23    2.474375006185e-15
    24    1.124728544798e-15
    25   -3.338255529627e-14
    26   -4.093735325220e-14
    27   -1.899536001397e-01
    28   -1.283128431223e-15
    29    7.191733739338e-14
    30   -1.604458389303e-13
    31   -5.379326814191e-01
    32    6.364531236808e-13
    33   -1.592122744408e-13
    34   -4.227373400004e-14
    35    7.715024973435e-01
    36   -4.924443561845e-12
    37    3.933714342632e-12
    38    8.105636081356e-12
    39   -2.659683520205e-01
    40   -4.144336108795e-14
    41   -3.306003484220e-02
    42   -5.231825582668e-02
    43    3.257959013972e-14
    44   -3.638532768601e-15
    45   -7.786077478999e-15
    46   -1.822088079351e-14
    47   -4.173501587026e-14
    48    2.188074079967e-14
    49    2.500644324528e-01
    50    1.586752449074e-13
    51   -1.192678632971e-13
    52    3.662437410894e-14
    53    4.142732097454e-01
    54   -1.060256553527e-13
    55    5.578980613500e-13
    56   -3.120610716750e-13
    57   -8.414544323827e-01
    58    6.883847468149e-12
    59   -2.153311519167e-12
    60   -3.774902284389e-12
    61   -2.727179053476e-02
    62   -5.983975432851e-15
    63   -2.268467759208e-01
    64   -5.009665194913e-01
    65   -2.615949327238e-14
    66    2.172006052082e-14
    67   -1.439435501404e-14
    68   -3.941591295086e-15
    69   -8.832797881599e-13
    70   -3.270007664880e-12
    71    4.952915990054e-15
    72   -3.478675945541e-15
    73    1.993246704527e-01
    74   -5.255612199445e-15
    75    3.209612750550e-13
    76   -1.668300169396e-12
    77   -6.380725352732e-12
    78    3.809616852476e-16
    79   -2.015525472993e-15
    80   -1.870642640474e-02
    81    6.067386687831e-14
    82    7.740056168130e-14
    83    1.223482102353e-12
    84    8.377494688055e-12
    85    1.453832137153e-14
    86   -5.919802276357e-17
    87   -3.467142242992e-02
[5D]
