[Molden Format]
[Atoms] (Angs)
  F      1    9      1.15290231      0.22477664     -0.00000000
  C      2    6     -1.17935012      0.19972949     -0.00000000
  C      3    6     -0.01631886     -0.43556811      0.00000000
  H      4    1      0.11895302     -1.50789969      0.00000000
  H      5    1     -1.23082549      1.27856114     -0.00000000
  H      6    1     -2.09023450     -0.37861944      0.00000000
[GTO]
1    0
S    6    1.000000
   1.14271000E+04    1.80093000E-03 
   1.72235000E+03    1.37419000E-02 
   3.95746000E+02    6.81334000E-02 
   1.15139000E+02    2.33325000E-01 
   3.36026000E+01    5.89086000E-01 
   4.91901000E+00    2.99505000E-01 
SP   3    1.000000
   5.54441000E+01    1.14536000E-01   3.54609000E-02 
   1.26323000E+01    9.20512000E-01   2.37451000E-01 
   3.71756000E+00   -3.37804000E-03   8.20458000E-01 
SP   1    1.000000
   1.16545000E+00    1.00000000E+00   1.00000000E+00 
SP   1    1.000000
   3.21892000E-01    1.00000000E+00   1.00000000E+00 
SP   1    1.000000
   1.07600000E-01    1.00000000E+00   1.00000000E+00 
D    1    1.000000
   1.75000000E+00    1.00000000E+00 

2    0
S    6    1.000000
   4.56324000E+03    1.96665000E-03 
   6.82024000E+02    1.52306000E-02 
   1.54973000E+02    7.61269000E-02 
   4.44553000E+01    2.60801000E-01 
   1.30290000E+01    6.16462000E-01 
   1.82773000E+00    2.21006000E-01 
SP   3    1.000000
   2.09642000E+01    1.14660000E-01   4.02487000E-02 
   4.80331000E+00    9.19999000E-01   2.37594000E-01 
   1.45933000E+00   -3.03068000E-03   8.15854000E-01 
SP   1    1.000000
   4.83456000E-01    1.00000000E+00   1.00000000E+00 
SP   1    1.000000
   1.45585000E-01    1.00000000E+00   1.00000000E+00 
SP   1    1.000000
   4.38000000E-02    1.00000000E+00   1.00000000E+00 
D    1    1.000000
   6.26000000E-01    1.00000000E+00 

3    0
S    6    1.000000
   4.56324000E+03    1.96665000E-03 
   6.82024000E+02    1.52306000E-02 
   1.54973000E+02    7.61269000E-02 
   4.44553000E+01    2.60801000E-01 
   1.30290000E+01    6.16462000E-01 
   1.82773000E+00    2.21006000E-01 
SP   3    1.000000
   2.09642000E+01    1.14660000E-01   4.02487000E-02 
   4.80331000E+00    9.19999000E-01   2.37594000E-01 
   1.45933000E+00   -3.03068000E-03   8.15854000E-01 
SP   1    1.000000
   4.83456000E-01    1.00000000E+00   1.00000000E+00 
SP   1    1.000000
   1.45585000E-01    1.00000000E+00   1.00000000E+00 
SP   1    1.000000
   4.38000000E-02    1.00000000E+00   1.00000000E+00 
D    1    1.000000
   6.26000000E-01    1.00000000E+00 

4    0
S    3    1.000000
   3.38650000E+01    2.54938000E-02 
   5.09479000E+00    1.90373000E-01 
   1.15879000E+00    8.52161000E-01 
S    1    1.000000
   3.25840000E-01    1.00000000E+00 
S    1    1.000000
   1.02741000E-01    1.00000000E+00 
S    1    1.000000
   3.60000000E-02    1.00000000E+00 
P    1    1.000000
   7.50000000E-01    1.00000000E+00 

5    0
S    3    1.000000
   3.38650000E+01    2.54938000E-02 
   5.09479000E+00    1.90373000E-01 
   1.15879000E+00    8.52161000E-01 
S    1    1.000000
   3.25840000E-01    1.00000000E+00 
S    1    1.000000
   1.02741000E-01    1.00000000E+00 
S    1    1.000000
   3.60000000E-02    1.00000000E+00 
P    1    1.000000
   7.50000000E-01    1.00000000E+00 

6    0
S    3    1.000000
   3.38650000E+01    2.54938000E-02 
   5.09479000E+00    1.90373000E-01 
   1.15879000E+00    8.52161000E-01 
S    1    1.000000
   3.25840000E-01    1.00000000E+00 
S    1    1.000000
   1.02741000E-01    1.00000000E+00 
S    1    1.000000
   3.60000000E-02    1.00000000E+00 
P    1    1.000000
   7.50000000E-01    1.00000000E+00 

[MO]
Sym=X
Ene= -0.837732
Spin=Alpha
Occup=1
     1   -5.476690167087e-01
     2   -4.734891168078e-01
     3    1.032088665018e-03
     4    5.764158242996e-04
     5   -6.360888051442e-16
     6   -6.217047646423e-03
     7   -3.882954284464e-04
     8   -2.184620279605e-04
     9    2.293562537955e-16
    10    9.466278950472e-04
    11    1.066590778044e-04
    12    7.554569045991e-05
    13   -1.425287198086e-15
    14   -9.807093724129e-04
    15    7.285887799056e-05
    16    1.786718424354e-05
    17   -2.976593648615e-16
    18   -5.279127404607e-05
    19   -2.612892436162e-16
    20    7.397824124038e-16
    21    6.193261394533e-05
    22    1.000803224353e-04
    23   -1.447638835164e-06
    24    1.126707956075e-06
    25    4.590704358957e-06
    26   -4.012174111443e-06
    27   -1.234768112317e-15
    28   -2.282324765065e-05
    29   -2.908264086117e-05
    30    3.110648076617e-05
    31    1.984061352999e-15
    32    1.142786629195e-04
    33    1.487523723496e-04
    34    6.313706813095e-05
    35   -3.419306439788e-15
    36   -1.249126705616e-03
    37   -3.001378240548e-04
    38    3.984836648434e-05
    39   -2.334439835689e-16
    40   -6.185821739045e-06
    41   -3.883543436396e-16
    42   -1.274522489529e-15
    43   -1.784061028174e-05
    44    1.120593121148e-05
    45    4.231247820273e-06
    46    2.657048229586e-05
    47   -1.653172985013e-05
    48   -1.119583558240e-05
    49    2.090994665415e-15
    50   -8.418512624581e-05
    51   -1.869015411716e-04
    52   -9.927258173818e-05
    53   -3.645587147537e-15
    54    3.220644392193e-05
    55    8.521016925093e-05
    56   -7.203604713646e-05
    57    5.640010612104e-15
    58    1.411927771179e-03
    59   -8.436094349104e-05
    60    3.656935146069e-04
    61   -7.775332206919e-16
    62    3.924621159921e-05
    63    5.458758572034e-16
    64    6.096812306161e-16
    65   -4.961852882638e-05
    66   -9.339708175907e-05
    67    6.065973175785e-07
    68   -5.140644525785e-05
    69    3.674835148541e-05
    70    2.372866116827e-05
    71    1.192926509285e-05
    72   -1.385068753255e-05
    73   -6.507044076690e-16
    74    2.991769204941e-06
    75   -8.178268401637e-05
    76    8.165556611259e-05
    77   -1.661409844954e-05
    78   -6.533557786381e-07
    79    1.290362888528e-05
    80    1.152577241136e-15
    81   -7.143301300075e-06
    82    3.031846418607e-05
    83    9.597318578430e-05
    84    2.291438942122e-05
    85    6.134546574340e-09
    86    1.760988367091e-06
    87    2.045883652446e-17
Sym=X
Ene= 0.837732
Spin=Alpha
Occup=0
     1    5.170880516422e-03
     2    8.731615796793e-03
     3    1.203622707372e-01
     4    3.874170424365e-02
     5    1.937634547467e-14
     6   -1.718764579469e-02
     7    1.533943806761e-01
     8    4.643227951888e-02
     9    2.944257690644e-14
    10   -1.984599504053e-01
    11    1.868570103019e-01
    12    8.835056619695e-02
    13    8.492935536109e-14
    14    6.023955509694e-01
    15   -2.860399711828e-01
    16   -1.301181765489e-01
    17   -1.895661538863e-14
    18   -3.063515698803e-03
    19    5.360287849644e-15
    20    3.400137958641e-15
    21    1.983330545008e-03
    22    3.438328800421e-03
    23    1.333840083568e-03
    24    2.254254588178e-03
    25   -2.050703613144e-02
    26   -1.321134610271e-02
    27    7.687819420818e-14
    28   -9.384581622742e-03
    29   -3.747532257802e-02
    30   -5.200628656580e-02
    31    5.999557207244e-14
    32    1.773164315571e-01
    33    1.052282924938e-01
    34    1.105687611375e-01
    35    6.322448169510e-13
    36   -2.562186828744e+00
    37   -8.886613466596e-01
    38    5.184877234036e-01
    39   -1.143814183314e-12
    40   -1.562839998730e-03
    41   -8.821995251739e-15
    42    9.470564639512e-15
    43    2.076205923502e-02
    44    6.752637729331e-03
    45   -1.703140689808e-02
    46   -3.185054147462e-02
    47    7.043932999308e-02
    48    6.537435718692e-02
    49   -1.025944674276e-13
    50    1.187037883370e-01
    51    1.478562581431e-01
    52    1.317741942529e-01
    53   -1.462412950027e-13
    54   -7.405776520482e-03
    55    2.538860426130e-01
    56    1.842351575227e-02
    57   -5.229979303974e-13
    58    6.254647893035e-01
    59   -1.940175364459e+00
    60    3.888939861552e-01
    61    1.098320514445e-12
    62    5.128088766126e-03
    63   -9.105125880685e-15
    64    3.410580019082e-15
    65   -6.259889694783e-03
    66    1.187637814833e-03
    67   -4.656485756633e-03
    68   -3.272098067217e-02
    69    2.408900296605e-02
    70    2.684086987293e+00
    71    9.263415328309e-03
    72   -5.576514546928e-03
    73   -9.295677376421e-15
    74   -2.712416631063e-02
    75   -5.586689365943e-02
    76   -5.148269260260e-01
    77    1.772662188762e+00
    78   -4.177341776179e-03
    79    3.943005233993e-03
    80    6.325115436436e-15
    81    3.022985473036e-02
    82    5.450606035699e-02
    83    4.487077648736e-01
    84   -3.046444566614e+00
    85    3.346778331745e-03
    86    3.442168981070e-03
    87    3.659914065755e-15
[5D]
