[Molden Format]
[Atoms] (Angs)
  F      1    9      1.15290231      0.22477664     -0.00000000
  C      2    6     -1.17935012      0.19972949     -0.00000000
  C      3    6     -0.01631886     -0.43556811      0.00000000
  H      4    1      0.11895302     -1.50789969      0.00000000
  H      5    1     -1.23082549      1.27856114     -0.00000000
  H      6    1     -2.09023450     -0.37861944      0.00000000
[GTO]
1    0
S    6    1.000000
   1.14271000E+04    1.80093000E-03 
   1.72235000E+03    1.37419000E-02 
   3.95746000E+02    6.81334000E-02 
   1.15139000E+02    2.33325000E-01 
   3.36026000E+01    5.89086000E-01 
   4.91901000E+00    2.99505000E-01 
SP   3    1.000000
   5.54441000E+01    1.14536000E-01   3.54609000E-02 
   1.26323000E+01    9.20512000E-01   2.37451000E-01 
   3.71756000E+00   -3.37804000E-03   8.20458000E-01 
SP   1    1.000000
   1.16545000E+00    1.00000000E+00   1.00000000E+00 
SP   1    1.000000
   3.21892000E-01    1.00000000E+00   1.00000000E+00 
SP   1    1.000000
   1.07600000E-01    1.00000000E+00   1.00000000E+00 
D    1    1.000000
   1.75000000E+00    1.00000000E+00 

2    0
S    6    1.000000
   4.56324000E+03    1.96665000E-03 
   6.82024000E+02    1.52306000E-02 
   1.54973000E+02    7.61269000E-02 
   4.44553000E+01    2.60801000E-01 
   1.30290000E+01    6.16462000E-01 
   1.82773000E+00    2.21006000E-01 
SP   3    1.000000
   2.09642000E+01    1.14660000E-01   4.02487000E-02 
   4.80331000E+00    9.19999000E-01   2.37594000E-01 
   1.45933000E+00   -3.03068000E-03   8.15854000E-01 
SP   1    1.000000
   4.83456000E-01    1.00000000E+00   1.00000000E+00 
SP   1    1.000000
   1.45585000E-01    1.00000000E+00   1.00000000E+00 
SP   1    1.000000
   4.38000000E-02    1.00000000E+00   1.00000000E+00 
D    1    1.000000
   6.26000000E-01    1.00000000E+00 

3    0
S    6    1.000000
   4.56324000E+03    1.96665000E-03 
   6.82024000E+02    1.52306000E-02 
   1.54973000E+02    7.61269000E-02 
   4.44553000E+01    2.60801000E-01 
   1.30290000E+01    6.16462000E-01 
   1.82773000E+00    2.21006000E-01 
SP   3    1.000000
   2.09642000E+01    1.14660000E-01   4.02487000E-02 
   4.80331000E+00    9.19999000E-01   2.37594000E-01 
   1.45933000E+00   -3.03068000E-03   8.15854000E-01 
SP   1    1.000000
   4.83456000E-01    1.00000000E+00   1.00000000E+00 
SP   1    1.000000
   1.45585000E-01    1.00000000E+00   1.00000000E+00 
SP   1    1.000000
   4.38000000E-02    1.00000000E+00   1.00000000E+00 
D    1    1.000000
   6.26000000E-01    1.00000000E+00 

4    0
S    3    1.000000
   3.38650000E+01    2.54938000E-02 
   5.09479000E+00    1.90373000E-01 
   1.15879000E+00    8.52161000E-01 
S    1    1.000000
   3.25840000E-01    1.00000000E+00 
S    1    1.000000
   1.02741000E-01    1.00000000E+00 
S    1    1.000000
   3.60000000E-02    1.00000000E+00 
P    1    1.000000
   7.50000000E-01    1.00000000E+00 

5    0
S    3    1.000000
   3.38650000E+01    2.54938000E-02 
   5.09479000E+00    1.90373000E-01 
   1.15879000E+00    8.52161000E-01 
S    1    1.000000
   3.25840000E-01    1.00000000E+00 
S    1    1.000000
   1.02741000E-01    1.00000000E+00 
S    1    1.000000
   3.60000000E-02    1.00000000E+00 
P    1    1.000000
   7.50000000E-01    1.00000000E+00 

6    0
S    3    1.000000
   3.38650000E+01    2.54938000E-02 
   5.09479000E+00    1.90373000E-01 
   1.15879000E+00    8.52161000E-01 
S    1    1.000000
   3.25840000E-01    1.00000000E+00 
S    1    1.000000
   1.02741000E-01    1.00000000E+00 
S    1    1.000000
   3.60000000E-02    1.00000000E+00 
P    1    1.000000
   7.50000000E-01    1.00000000E+00 

[MO]
Sym=X
Ene= -0.828311
Spin=Alpha
Occup=1
     1   -5.476689526454e-01
     2   -4.734890065596e-01
     3    1.032188261707e-03
     4    5.765590498808e-04
     5   -6.360731563055e-16
     6   -6.217388678849e-03
     7   -3.882602022637e-04
     8   -2.182625396912e-04
     9    2.293698616139e-16
    10    9.461671639127e-04
    11    1.063347468462e-04
    12    7.567495519249e-05
    13   -1.425183956834e-15
    14   -9.809083689437e-04
    15    7.288102102878e-05
    16    1.791253172280e-05
    17   -2.978018014976e-16
    18   -5.281149873295e-05
    19   -2.612855485272e-16
    20    7.397851417459e-16
    21    6.195478336374e-05
    22    1.001049980430e-04
    23   -1.425444409047e-06
    24    1.164138869570e-06
    25    4.567422019030e-06
    26   -3.922834055738e-06
    27   -1.234749924561e-15
    28   -2.292855429018e-05
    29   -2.910050318476e-05
    30    3.121449662221e-05
    31    1.984000874993e-15
    32    1.141517211589e-04
    33    1.487814518070e-04
    34    6.334186713537e-05
    35   -3.418850149019e-15
    36   -1.249156332414e-03
    37   -3.000868724282e-04
    38    3.993549501224e-05
    39   -2.340348146411e-16
    40   -6.185720549920e-06
    41   -3.883573135822e-16
    42   -1.274512657712e-15
    43   -1.775761904901e-05
    44    1.124402218658e-05
    45    4.161459000865e-06
    46    2.644805743354e-05
    47   -1.631032665681e-05
    48   -1.104535288266e-05
    49    2.090948698880e-15
    50   -8.377652361460e-05
    51   -1.864365866188e-04
    52   -9.895856159203e-05
    53   -3.645692556845e-15
    54    3.259219867125e-05
    55    8.536059078719e-05
    56   -7.195872175252e-05
    57    5.639837935085e-15
    58    1.411997345324e-03
    59   -8.439893565227e-05
    60    3.656421247065e-04
    61   -7.770197686049e-16
    62    3.923671774618e-05
    63    5.458798994082e-16
    64    6.096806461078e-16
    65   -4.963369661039e-05
    66   -9.336067092308e-05
    67    6.521922761850e-07
    68   -5.127964732249e-05
    69    3.677048828562e-05
    70    2.369838663724e-05
    71    1.195796696860e-05
    72   -1.384047929465e-05
    73   -6.507059192191e-16
    74    3.016968173635e-06
    75   -8.169500409027e-05
    76    8.166854040602e-05
    77   -1.665727178261e-05
    78   -6.506065431824e-07
    79    1.289946395555e-05
    80    1.152576582564e-15
    81   -7.174433982669e-06
    82    3.024159338593e-05
    83    9.597034432165e-05
    84    2.296896063670e-05
    85    5.704079789951e-09
    86    1.771700353896e-06
    87    2.044950059286e-17
Sym=X
Ene= 0.828311
Spin=Alpha
Occup=0
     1   -9.994651108811e-16
     2   -1.190841171065e-15
     3    2.760600866425e-14
     4    6.723931071313e-15
     5    1.050191498920e-02
     6   -1.227161827935e-14
     7    3.933016216103e-14
     8    7.043106256698e-15
     9    8.553213079314e-03
    10    2.695416218310e-13
    11    4.914277240327e-14
    12    9.667270208363e-15
    13    1.026456355273e-01
    14   -2.826341593748e-13
    15    6.733412035627e-14
    16   -3.627537845238e-13
    17    1.642427262806e-01
    18   -3.235051623089e-15
    19   -4.907327792161e-03
    20   -1.948063297287e-03
    21    5.431442303458e-15
    22   -3.340871125195e-16
    23   -1.955976095388e-15
    24   -1.459323639139e-15
    25   -2.697877793152e-14
    26    4.801946896009e-14
    27    5.835086962134e-02
    28   -2.081583945782e-13
    29   -2.540804586743e-13
    30    2.631914436309e-13
    31    2.982871018748e-01
    32    3.595671177309e-13
    33    4.994179882708e-13
    34   -2.133931136354e-13
    35   -1.115380189675e-01
    36   -7.173400713275e-12
    37   -2.075598962359e-12
    38   -9.257101324990e-13
    39   -8.358646786255e-02
    40    3.206360024616e-14
    41    5.035125855832e-02
    42   -1.396682568787e-02
    43   -1.128678810585e-14
    44    2.141379126294e-14
    45    1.119198521862e-14
    46    2.360209802642e-14
    47    7.383269723931e-14
    48   -7.258445445392e-15
    49    2.070584195197e-01
    50   -2.120497397749e-13
    51    2.927585567768e-13
    52   -4.139955116962e-14
    53    8.624571611566e-01
    54   -2.333896874993e-13
    55   -7.046352888134e-13
    56    3.180405304351e-13
    57   -1.730266861795e+00
    58    4.570818304380e-12
    59   -7.714287032585e-13
    60    1.931028036672e-12
    61    7.723961842975e-01
    62    2.804467659520e-14
    63    3.270709070308e-03
    64    6.066168258628e-02
    65   -4.610620433616e-15
    66   -2.368235202615e-14
    67   -4.925499389545e-16
    68    1.356079905617e-13
    69    2.825787819420e-13
    70    1.095185542633e-12
    71   -1.812453445987e-14
    72    5.158456735474e-16
    73   -1.307753962149e-02
    74   -4.627003171201e-14
    75   -9.248952661685e-13
    76    1.717336992232e-12
    77    1.392316530888e-12
    78   -3.093737188527e-15
    79    2.739208662073e-14
    80    9.576960276718e-04
    81   -3.563112219354e-14
    82   -5.201422738099e-13
    83    6.471722141569e-13
    84   -1.034706700608e-12
    85   -2.330968526714e-14
    86   -7.992703072185e-15
    87   -5.562111219451e-03
[5D]
