[Molden Format]
[Atoms] (Angs)
  F      1    9      1.15290231      0.22477664     -0.00000000
  C      2    6     -1.17935012      0.19972949     -0.00000000
  C      3    6     -0.01631886     -0.43556811      0.00000000
  H      4    1      0.11895302     -1.50789969      0.00000000
  H      5    1     -1.23082549      1.27856114     -0.00000000
  H      6    1     -2.09023450     -0.37861944      0.00000000
[GTO]
1    0
S    6    1.000000
   1.14271000E+04    1.80093000E-03 
   1.72235000E+03    1.37419000E-02 
   3.95746000E+02    6.81334000E-02 
   1.15139000E+02    2.33325000E-01 
   3.36026000E+01    5.89086000E-01 
   4.91901000E+00    2.99505000E-01 
SP   3    1.000000
   5.54441000E+01    1.14536000E-01   3.54609000E-02 
   1.26323000E+01    9.20512000E-01   2.37451000E-01 
   3.71756000E+00   -3.37804000E-03   8.20458000E-01 
SP   1    1.000000
   1.16545000E+00    1.00000000E+00   1.00000000E+00 
SP   1    1.000000
   3.21892000E-01    1.00000000E+00   1.00000000E+00 
SP   1    1.000000
   1.07600000E-01    1.00000000E+00   1.00000000E+00 
D    1    1.000000
   1.75000000E+00    1.00000000E+00 

2    0
S    6    1.000000
   4.56324000E+03    1.96665000E-03 
   6.82024000E+02    1.52306000E-02 
   1.54973000E+02    7.61269000E-02 
   4.44553000E+01    2.60801000E-01 
   1.30290000E+01    6.16462000E-01 
   1.82773000E+00    2.21006000E-01 
SP   3    1.000000
   2.09642000E+01    1.14660000E-01   4.02487000E-02 
   4.80331000E+00    9.19999000E-01   2.37594000E-01 
   1.45933000E+00   -3.03068000E-03   8.15854000E-01 
SP   1    1.000000
   4.83456000E-01    1.00000000E+00   1.00000000E+00 
SP   1    1.000000
   1.45585000E-01    1.00000000E+00   1.00000000E+00 
SP   1    1.000000
   4.38000000E-02    1.00000000E+00   1.00000000E+00 
D    1    1.000000
   6.26000000E-01    1.00000000E+00 

3    0
S    6    1.000000
   4.56324000E+03    1.96665000E-03 
   6.82024000E+02    1.52306000E-02 
   1.54973000E+02    7.61269000E-02 
   4.44553000E+01    2.60801000E-01 
   1.30290000E+01    6.16462000E-01 
   1.82773000E+00    2.21006000E-01 
SP   3    1.000000
   2.09642000E+01    1.14660000E-01   4.02487000E-02 
   4.80331000E+00    9.19999000E-01   2.37594000E-01 
   1.45933000E+00   -3.03068000E-03   8.15854000E-01 
SP   1    1.000000
   4.83456000E-01    1.00000000E+00   1.00000000E+00 
SP   1    1.000000
   1.45585000E-01    1.00000000E+00   1.00000000E+00 
SP   1    1.000000
   4.38000000E-02    1.00000000E+00   1.00000000E+00 
D    1    1.000000
   6.26000000E-01    1.00000000E+00 

4    0
S    3    1.000000
   3.38650000E+01    2.54938000E-02 
   5.09479000E+00    1.90373000E-01 
   1.15879000E+00    8.52161000E-01 
S    1    1.000000
   3.25840000E-01    1.00000000E+00 
S    1    1.000000
   1.02741000E-01    1.00000000E+00 
S    1    1.000000
   3.60000000E-02    1.00000000E+00 
P    1    1.000000
   7.50000000E-01    1.00000000E+00 

5    0
S    3    1.000000
   3.38650000E+01    2.54938000E-02 
   5.09479000E+00    1.90373000E-01 
   1.15879000E+00    8.52161000E-01 
S    1    1.000000
   3.25840000E-01    1.00000000E+00 
S    1    1.000000
   1.02741000E-01    1.00000000E+00 
S    1    1.000000
   3.60000000E-02    1.00000000E+00 
P    1    1.000000
   7.50000000E-01    1.00000000E+00 

6    0
S    3    1.000000
   3.38650000E+01    2.54938000E-02 
   5.09479000E+00    1.90373000E-01 
   1.15879000E+00    8.52161000E-01 
S    1    1.000000
   3.25840000E-01    1.00000000E+00 
S    1    1.000000
   1.02741000E-01    1.00000000E+00 
S    1    1.000000
   3.60000000E-02    1.00000000E+00 
P    1    1.000000
   7.50000000E-01    1.00000000E+00 

[MO]
Sym=X
Ene= -0.837299
Spin=Alpha
Occup=1
     1   -5.476689666882e-01
     2   -4.734890295515e-01
     3    1.032197050600e-03
     4    5.764799663515e-04
     5   -6.360789475406e-16
     6   -6.217268969042e-03
     7   -3.882143745696e-04
     8   -2.184228680879e-04
     9    2.293421800723e-16
    10    9.461475333400e-04
    11    1.065105932193e-04
    12    7.540321655304e-05
    13   -1.425115536413e-15
    14   -9.810631041290e-04
    15    7.295488364759e-05
    16    1.792061749420e-05
    17   -2.977959509792e-16
    18   -5.278801102909e-05
    19   -2.612851319142e-16
    20    7.397876075800e-16
    21    6.193345983269e-05
    22    1.000844346512e-04
    23   -1.437342595687e-06
    24    1.143098458904e-06
    25    4.491785261631e-06
    26   -3.990552512088e-06
    27   -1.234756489708e-15
    28   -2.295400704055e-05
    29   -2.924581380739e-05
    30    3.109735446303e-05
    31    1.983911416105e-15
    32    1.145054146664e-04
    33    1.487704614784e-04
    34    6.326417435809e-05
    35   -3.418555156521e-15
    36   -1.248943235337e-03
    37   -3.000228442173e-04
    38    4.000250834576e-05
    39   -2.343148856215e-16
    40   -6.091962562334e-06
    41   -3.883592857079e-16
    42   -1.274517225441e-15
    43   -1.779255264550e-05
    44    1.122809982970e-05
    45    4.184738429785e-06
    46    2.648819951782e-05
    47   -1.635046904497e-05
    48   -1.113147206106e-05
    49    2.090921255988e-15
    50   -8.410374014596e-05
    51   -1.865719449114e-04
    52   -9.911595614046e-05
    53   -3.645753808000e-15
    54    3.286437500586e-05
    55    8.544172697679e-05
    56   -7.198722280238e-05
    57    5.639739468829e-15
    58    1.412011259304e-03
    59   -8.435812152586e-05
    60    3.655333210891e-04
    61   -7.768216637358e-16
    62    3.933425167007e-05
    63    5.458648534615e-16
    64    6.096622182189e-16
    65   -4.958225985594e-05
    66   -9.336898299055e-05
    67    6.160500457836e-07
    68   -5.133027732347e-05
    69    3.671267986946e-05
    70    2.359394411345e-05
    71    1.195065740046e-05
    72   -1.385092199203e-05
    73   -6.506940502542e-16
    74    3.006543666307e-06
    75   -8.169799031991e-05
    76    8.165280453497e-05
    77   -1.673708974710e-05
    78   -6.678560894557e-07
    79    1.291428091370e-05
    80    1.152575081181e-15
    81   -7.246326575828e-06
    82    3.003928465147e-05
    83    9.590335421116e-05
    84    2.303017750588e-05
    85    7.963057564505e-10
    86    1.768939841866e-06
    87    2.044548333016e-17
Sym=X
Ene= 0.837299
Spin=Alpha
Occup=0
     1   -5.977810748832e-03
     2   -1.037005387277e-02
     3   -2.887540738457e-02
     4    1.630919006076e-02
     5    1.897442390404e-14
     6    3.062756693289e-02
     7   -3.863800833630e-02
     8    2.082463442924e-02
     9    1.067857320211e-14
    10    1.034724746864e-01
    11   -4.637309330788e-02
    12    9.034667854785e-03
    13    4.585299402227e-14
    14   -1.386856574998e-01
    15   -2.045930293035e-01
    16   -1.768021267799e-01
    17    1.322233593470e-13
    18    8.475051581819e-03
    19    1.772950243319e-15
    20    4.553412810134e-15
    21   -3.086206759659e-03
    22   -7.078264514959e-03
    23    5.933737350799e-03
    24    1.023032478645e-02
    25   -1.769225255902e-02
    26   -1.321702182154e-02
    27    9.075516396292e-14
    28   -1.903942248824e-02
    29   -1.353237259332e-02
    30   -4.709363358612e-02
    31    8.301119259691e-14
    32   -1.937420484334e-01
    33   -1.652077392074e-01
    34    8.605218881661e-02
    35    5.468056262197e-13
    36    3.061131979064e+00
    37    5.708984763969e-01
    38    2.730505357380e+00
    39   -9.993131966718e-13
    40    3.087179272796e-02
    41   -1.166942279834e-14
    42    5.734563185737e-15
    43   -6.407448318711e-03
    44   -7.494831722923e-03
    45    2.327619048376e-02
    46    4.271185128896e-02
    47   -2.837497131916e-02
    48   -2.289150838076e-02
    49   -9.094587610503e-14
    50   -1.540038044451e-01
    51   -9.131904135609e-02
    52   -1.757439331855e-02
    53   -1.211520090604e-13
    54   -3.944500343907e-01
    55   -1.325589582475e-01
    56   -1.983802684029e-01
    57   -5.355134021203e-13
    58    6.957809579976e+00
    59   -3.671086335387e-01
    60   -3.553415061598e+00
    61    9.127298282281e-13
    62    3.828956654807e-02
    63   -1.542303452824e-14
    64    6.932611780431e-15
    65    1.551014407084e-02
    66    6.036910239988e-03
    67   -4.002645946755e-02
    68    7.111113898632e-02
    69   -1.821152893804e+00
    70   -5.051450880159e+00
    71   -2.009143930496e-03
    72    4.153858854374e-03
    73   -6.140634905843e-15
    74   -1.922039619201e-02
    75    9.063311450157e-02
    76   -1.085953671824e+00
    77   -2.698970103175e+00
    78   -4.439243247267e-03
    79   -3.529178517505e-03
    80    9.441557710800e-15
    81   -3.025338990344e-02
    82   -2.893073468339e-02
    83   -5.823677412755e-01
    84    4.860980907733e-01
    85    8.277874247105e-03
    86    2.986259449676e-03
    87    7.172226257075e-15
[5D]
