[Molden Format]
[Atoms] (Angs)
  F      1    9      1.15290231      0.22477664     -0.00000000
  C      2    6     -1.17935012      0.19972949     -0.00000000
  C      3    6     -0.01631886     -0.43556811      0.00000000
  H      4    1      0.11895302     -1.50789969      0.00000000
  H      5    1     -1.23082549      1.27856114     -0.00000000
  H      6    1     -2.09023450     -0.37861944      0.00000000
[GTO]
1    0
S    6    1.000000
   1.14271000E+04    1.80093000E-03 
   1.72235000E+03    1.37419000E-02 
   3.95746000E+02    6.81334000E-02 
   1.15139000E+02    2.33325000E-01 
   3.36026000E+01    5.89086000E-01 
   4.91901000E+00    2.99505000E-01 
SP   3    1.000000
   5.54441000E+01    1.14536000E-01   3.54609000E-02 
   1.26323000E+01    9.20512000E-01   2.37451000E-01 
   3.71756000E+00   -3.37804000E-03   8.20458000E-01 
SP   1    1.000000
   1.16545000E+00    1.00000000E+00   1.00000000E+00 
SP   1    1.000000
   3.21892000E-01    1.00000000E+00   1.00000000E+00 
SP   1    1.000000
   1.07600000E-01    1.00000000E+00   1.00000000E+00 
D    1    1.000000
   1.75000000E+00    1.00000000E+00 

2    0
S    6    1.000000
   4.56324000E+03    1.96665000E-03 
   6.82024000E+02    1.52306000E-02 
   1.54973000E+02    7.61269000E-02 
   4.44553000E+01    2.60801000E-01 
   1.30290000E+01    6.16462000E-01 
   1.82773000E+00    2.21006000E-01 
SP   3    1.000000
   2.09642000E+01    1.14660000E-01   4.02487000E-02 
   4.80331000E+00    9.19999000E-01   2.37594000E-01 
   1.45933000E+00   -3.03068000E-03   8.15854000E-01 
SP   1    1.000000
   4.83456000E-01    1.00000000E+00   1.00000000E+00 
SP   1    1.000000
   1.45585000E-01    1.00000000E+00   1.00000000E+00 
SP   1    1.000000
   4.38000000E-02    1.00000000E+00   1.00000000E+00 
D    1    1.000000
   6.26000000E-01    1.00000000E+00 

3    0
S    6    1.000000
   4.56324000E+03    1.96665000E-03 
   6.82024000E+02    1.52306000E-02 
   1.54973000E+02    7.61269000E-02 
   4.44553000E+01    2.60801000E-01 
   1.30290000E+01    6.16462000E-01 
   1.82773000E+00    2.21006000E-01 
SP   3    1.000000
   2.09642000E+01    1.14660000E-01   4.02487000E-02 
   4.80331000E+00    9.19999000E-01   2.37594000E-01 
   1.45933000E+00   -3.03068000E-03   8.15854000E-01 
SP   1    1.000000
   4.83456000E-01    1.00000000E+00   1.00000000E+00 
SP   1    1.000000
   1.45585000E-01    1.00000000E+00   1.00000000E+00 
SP   1    1.000000
   4.38000000E-02    1.00000000E+00   1.00000000E+00 
D    1    1.000000
   6.26000000E-01    1.00000000E+00 

4    0
S    3    1.000000
   3.38650000E+01    2.54938000E-02 
   5.09479000E+00    1.90373000E-01 
   1.15879000E+00    8.52161000E-01 
S    1    1.000000
   3.25840000E-01    1.00000000E+00 
S    1    1.000000
   1.02741000E-01    1.00000000E+00 
S    1    1.000000
   3.60000000E-02    1.00000000E+00 
P    1    1.000000
   7.50000000E-01    1.00000000E+00 

5    0
S    3    1.000000
   3.38650000E+01    2.54938000E-02 
   5.09479000E+00    1.90373000E-01 
   1.15879000E+00    8.52161000E-01 
S    1    1.000000
   3.25840000E-01    1.00000000E+00 
S    1    1.000000
   1.02741000E-01    1.00000000E+00 
S    1    1.000000
   3.60000000E-02    1.00000000E+00 
P    1    1.000000
   7.50000000E-01    1.00000000E+00 

6    0
S    3    1.000000
   3.38650000E+01    2.54938000E-02 
   5.09479000E+00    1.90373000E-01 
   1.15879000E+00    8.52161000E-01 
S    1    1.000000
   3.25840000E-01    1.00000000E+00 
S    1    1.000000
   1.02741000E-01    1.00000000E+00 
S    1    1.000000
   3.60000000E-02    1.00000000E+00 
P    1    1.000000
   7.50000000E-01    1.00000000E+00 

[MO]
Sym=X
Ene= -0.834693
Spin=Alpha
Occup=1
     1   -5.476689198627e-01
     2   -4.734889491983e-01
     3    1.032345420052e-03
     4    5.764617930195e-04
     5   -6.360438678731e-16
     6   -6.217482283073e-03
     7   -3.880220446080e-04
     8   -2.185459368398e-04
     9    2.293725819218e-16
    10    9.457863257725e-04
    11    1.066096082357e-04
    12    7.501113695709e-05
    13   -1.425096231496e-15
    14   -9.810768921218e-04
    15    7.294713947083e-05
    16    1.784636201578e-05
    17   -2.978689055268e-16
    18   -5.282036945278e-05
    19   -2.612885876677e-16
    20    7.397771222896e-16
    21    6.194430282197e-05
    22    1.001329108694e-04
    23   -1.435399576358e-06
    24    1.147798956742e-06
    25    4.538099793120e-06
    26   -3.975024991374e-06
    27   -1.234857566742e-15
    28   -2.289921116937e-05
    29   -2.916555773634e-05
    30    3.113864103742e-05
    31    1.983744826874e-15
    32    1.143854026595e-04
    33    1.487862300547e-04
    34    6.308896645759e-05
    35   -3.418847663930e-15
    36   -1.248693847530e-03
    37   -3.000104547836e-04
    38    3.991732502170e-05
    39   -2.338714515183e-16
    40   -6.136679962359e-06
    41   -3.883546250909e-16
    42   -1.274512682864e-15
    43   -1.781256651010e-05
    44    1.122408737990e-05
    45    4.095321762339e-06
    46    2.632888368429e-05
    47   -1.623204886750e-05
    48   -1.117475102929e-05
    49    2.091012674647e-15
    50   -8.316363723507e-05
    51   -1.863083610185e-04
    52   -9.915259532178e-05
    53   -3.645627399048e-15
    54    3.279183616624e-05
    55    8.548266166251e-05
    56   -7.183028994134e-05
    57    5.640006036733e-15
    58    1.411725795134e-03
    59   -8.427525189692e-05
    60    3.655239496765e-04
    61   -7.772260423227e-16
    62    3.925993452217e-05
    63    5.458929091926e-16
    64    6.096636726766e-16
    65   -4.954822900993e-05
    66   -9.336441069698e-05
    67    3.955055640152e-07
    68   -5.185618498618e-05
    69    3.655554493653e-05
    70    2.359036306587e-05
    71    1.195732868652e-05
    72   -1.382248033894e-05
    73   -6.506929961573e-16
    74    2.991185282468e-06
    75   -8.177104083508e-05
    76    8.160179404831e-05
    77   -1.670851787968e-05
    78   -6.676607488908e-07
    79    1.289612554330e-05
    80    1.152565735428e-15
    81   -7.217084382608e-06
    82    3.013326423341e-05
    83    9.591545066102e-05
    84    2.299118021222e-05
    85    5.201833989212e-09
    86    1.756222382163e-06
    87    2.042833485734e-17
Sym=X
Ene= 0.834693
Spin=Alpha
Occup=0
     1    5.830898842838e-03
     2    1.068405892651e-02
     3   -1.529225441641e-02
     4   -8.279349237016e-02
     5    6.119215711800e-14
     6   -4.936182530986e-02
     7   -1.228003173396e-02
     8   -9.850728290634e-02
     9    4.939029469979e-14
    10   -1.602228063201e-02
    11   -8.886772171865e-02
    12   -1.567773781019e-01
    13    1.886641072497e-13
    14   -3.664712982369e-01
    15    2.399864408239e-01
    16    3.658709042432e-01
    17    6.499187645804e-14
    18    1.509370543509e-03
    19    4.256478097310e-15
    20    1.798096557356e-14
    21   -8.548545002297e-05
    22   -4.270050621093e-03
    23   -1.514832104106e-03
    24   -3.348655051655e-03
    25    1.903381310451e-02
    26   -1.402983918394e-02
    27    2.269593937839e-13
    28    7.380883241336e-03
    29    5.120558479122e-03
    30   -4.233784432971e-02
    31    3.058485776745e-13
    32    1.902781361505e-01
    33    3.263638657503e-01
    34   -1.116258352115e-01
    35    1.181317223037e-12
    36   -2.885410608670e+01
    37   -6.302967750496e+00
    38    6.999197980901e+00
    39   -2.301904555784e-12
    40   -2.105639247523e-02
    41   -1.234311492170e-14
    42    1.898204761862e-14
    43    2.051608045398e-02
    44    1.270322007455e-02
    45    2.632996464287e-02
    46    4.605745961105e-02
    47   -3.940601265961e-02
    48    6.813819167619e-02
    49   -2.124103866666e-13
    50   -1.064052795972e-01
    51   -1.086896235755e-01
    52    7.429116411557e-02
    53   -3.055572028620e-13
    54   -1.211589296343e+00
    55    1.596018690854e-01
    56    3.476585401953e-01
    57   -1.197238871278e-12
    58    3.078872766754e+01
    59   -7.065646758427e+00
    60    2.941172638474e+00
    61    2.138396031396e-12
    62   -2.935530291521e-03
    63   -3.792841991978e-14
    64    1.340540953068e-14
    65   -3.006338657731e-02
    66   -3.396999065075e-03
    67    3.879470559370e-02
    68    1.574201484197e-01
    69    1.112714096703e+00
    70   -8.284488121888e-01
    71    5.064163131971e-04
    72   -1.495911700747e-02
    73   -2.113858740098e-14
    74   -2.044755567329e-02
    75   -4.511292336079e-02
    76   -5.512255184897e-02
    77   -3.784737131925e+00
    78   -5.913076799725e-04
    79    4.896863507773e-04
    80    2.252351353502e-14
    81    3.365759658600e-02
    82   -7.119321199059e-02
    83    1.512073459272e+00
    84    1.934977343927e+00
    85   -1.218976479274e-02
    86    2.323509911929e-03
    87    2.206717102338e-14
[5D]
