[Molden Format]
[Atoms] (Angs)
  F      1    9      1.15290231      0.22477664     -0.00000000
  C      2    6     -1.17935012      0.19972949     -0.00000000
  C      3    6     -0.01631886     -0.43556811      0.00000000
  H      4    1      0.11895302     -1.50789969      0.00000000
  H      5    1     -1.23082549      1.27856114     -0.00000000
  H      6    1     -2.09023450     -0.37861944      0.00000000
[GTO]
1    0
S    6    1.000000
   1.14271000E+04    1.80093000E-03 
   1.72235000E+03    1.37419000E-02 
   3.95746000E+02    6.81334000E-02 
   1.15139000E+02    2.33325000E-01 
   3.36026000E+01    5.89086000E-01 
   4.91901000E+00    2.99505000E-01 
SP   3    1.000000
   5.54441000E+01    1.14536000E-01   3.54609000E-02 
   1.26323000E+01    9.20512000E-01   2.37451000E-01 
   3.71756000E+00   -3.37804000E-03   8.20458000E-01 
SP   1    1.000000
   1.16545000E+00    1.00000000E+00   1.00000000E+00 
SP   1    1.000000
   3.21892000E-01    1.00000000E+00   1.00000000E+00 
SP   1    1.000000
   1.07600000E-01    1.00000000E+00   1.00000000E+00 
D    1    1.000000
   1.75000000E+00    1.00000000E+00 

2    0
S    6    1.000000
   4.56324000E+03    1.96665000E-03 
   6.82024000E+02    1.52306000E-02 
   1.54973000E+02    7.61269000E-02 
   4.44553000E+01    2.60801000E-01 
   1.30290000E+01    6.16462000E-01 
   1.82773000E+00    2.21006000E-01 
SP   3    1.000000
   2.09642000E+01    1.14660000E-01   4.02487000E-02 
   4.80331000E+00    9.19999000E-01   2.37594000E-01 
   1.45933000E+00   -3.03068000E-03   8.15854000E-01 
SP   1    1.000000
   4.83456000E-01    1.00000000E+00   1.00000000E+00 
SP   1    1.000000
   1.45585000E-01    1.00000000E+00   1.00000000E+00 
SP   1    1.000000
   4.38000000E-02    1.00000000E+00   1.00000000E+00 
D    1    1.000000
   6.26000000E-01    1.00000000E+00 

3    0
S    6    1.000000
   4.56324000E+03    1.96665000E-03 
   6.82024000E+02    1.52306000E-02 
   1.54973000E+02    7.61269000E-02 
   4.44553000E+01    2.60801000E-01 
   1.30290000E+01    6.16462000E-01 
   1.82773000E+00    2.21006000E-01 
SP   3    1.000000
   2.09642000E+01    1.14660000E-01   4.02487000E-02 
   4.80331000E+00    9.19999000E-01   2.37594000E-01 
   1.45933000E+00   -3.03068000E-03   8.15854000E-01 
SP   1    1.000000
   4.83456000E-01    1.00000000E+00   1.00000000E+00 
SP   1    1.000000
   1.45585000E-01    1.00000000E+00   1.00000000E+00 
SP   1    1.000000
   4.38000000E-02    1.00000000E+00   1.00000000E+00 
D    1    1.000000
   6.26000000E-01    1.00000000E+00 

4    0
S    3    1.000000
   3.38650000E+01    2.54938000E-02 
   5.09479000E+00    1.90373000E-01 
   1.15879000E+00    8.52161000E-01 
S    1    1.000000
   3.25840000E-01    1.00000000E+00 
S    1    1.000000
   1.02741000E-01    1.00000000E+00 
S    1    1.000000
   3.60000000E-02    1.00000000E+00 
P    1    1.000000
   7.50000000E-01    1.00000000E+00 

5    0
S    3    1.000000
   3.38650000E+01    2.54938000E-02 
   5.09479000E+00    1.90373000E-01 
   1.15879000E+00    8.52161000E-01 
S    1    1.000000
   3.25840000E-01    1.00000000E+00 
S    1    1.000000
   1.02741000E-01    1.00000000E+00 
S    1    1.000000
   3.60000000E-02    1.00000000E+00 
P    1    1.000000
   7.50000000E-01    1.00000000E+00 

6    0
S    3    1.000000
   3.38650000E+01    2.54938000E-02 
   5.09479000E+00    1.90373000E-01 
   1.15879000E+00    8.52161000E-01 
S    1    1.000000
   3.25840000E-01    1.00000000E+00 
S    1    1.000000
   1.02741000E-01    1.00000000E+00 
S    1    1.000000
   3.60000000E-02    1.00000000E+00 
P    1    1.000000
   7.50000000E-01    1.00000000E+00 

[MO]
Sym=X
Ene= -0.828723
Spin=Alpha
Occup=1
     1   -5.476689526454e-01
     2   -4.734890065596e-01
     3    1.032188261707e-03
     4    5.765590498808e-04
     5   -6.360731563055e-16
     6   -6.217388678849e-03
     7   -3.882602022637e-04
     8   -2.182625396912e-04
     9    2.293698616139e-16
    10    9.461671639127e-04
    11    1.063347468462e-04
    12    7.567495519249e-05
    13   -1.425183956834e-15
    14   -9.809083689437e-04
    15    7.288102102878e-05
    16    1.791253172280e-05
    17   -2.978018014976e-16
    18   -5.281149873295e-05
    19   -2.612855485272e-16
    20    7.397851417459e-16
    21    6.195478336374e-05
    22    1.001049980430e-04
    23   -1.425444409047e-06
    24    1.164138869570e-06
    25    4.567422019030e-06
    26   -3.922834055738e-06
    27   -1.234749924561e-15
    28   -2.292855429018e-05
    29   -2.910050318476e-05
    30    3.121449662221e-05
    31    1.984000874993e-15
    32    1.141517211589e-04
    33    1.487814518070e-04
    34    6.334186713537e-05
    35   -3.418850149019e-15
    36   -1.249156332414e-03
    37   -3.000868724282e-04
    38    3.993549501224e-05
    39   -2.340348146411e-16
    40   -6.185720549920e-06
    41   -3.883573135822e-16
    42   -1.274512657712e-15
    43   -1.775761904901e-05
    44    1.124402218658e-05
    45    4.161459000865e-06
    46    2.644805743354e-05
    47   -1.631032665681e-05
    48   -1.104535288266e-05
    49    2.090948698880e-15
    50   -8.377652361460e-05
    51   -1.864365866188e-04
    52   -9.895856159203e-05
    53   -3.645692556845e-15
    54    3.259219867124e-05
    55    8.536059078719e-05
    56   -7.195872175252e-05
    57    5.639837935085e-15
    58    1.411997345324e-03
    59   -8.439893565227e-05
    60    3.656421247066e-04
    61   -7.770197686049e-16
    62    3.923671774618e-05
    63    5.458798994082e-16
    64    6.096806461078e-16
    65   -4.963369661039e-05
    66   -9.336067092308e-05
    67    6.521922761844e-07
    68   -5.127964732249e-05
    69    3.677048828562e-05
    70    2.369838663725e-05
    71    1.195796696860e-05
    72   -1.384047929465e-05
    73   -6.507059192191e-16
    74    3.016968173634e-06
    75   -8.169500409027e-05
    76    8.166854040602e-05
    77   -1.665727178262e-05
    78   -6.506065431824e-07
    79    1.289946395555e-05
    80    1.152576582564e-15
    81   -7.174433982669e-06
    82    3.024159338593e-05
    83    9.597034432165e-05
    84    2.296896063670e-05
    85    5.704079790275e-09
    86    1.771700353896e-06
    87    2.044950059286e-17
Sym=X
Ene= 0.828723
Spin=Alpha
Occup=0
     1    1.343790348581e-14
     2    2.123547194329e-14
     3    9.806663276563e-15
     4   -1.083521656251e-14
     5   -6.032260549440e-03
     6   -9.300667445974e-14
     7    3.599308528086e-14
     8   -1.902663632321e-14
     9   -5.958085784956e-03
    10    3.203409204721e-14
    11   -1.083955063357e-13
    12   -7.809761236888e-15
    13   -1.525481426062e-02
    14   -1.602626449179e-12
    15    1.153953555446e-12
    16    1.242177621479e-13
    17   -8.110510895368e-02
    18    3.537631533063e-15
    19   -7.939325548894e-03
    20   -3.369103598732e-03
    21   -5.646165922759e-15
    22   -3.755307383632e-15
    23   -2.217198297039e-14
    24   -3.787430483052e-14
    25   -9.171516351768e-14
    26   -1.273530774268e-13
    27   -1.179895590376e-01
    28    5.634454744294e-14
    29   -1.756091187078e-13
    30   -2.942383625363e-13
    31   -1.401530190157e-01
    32    7.271413762780e-13
    33   -3.343397270060e-13
    34   -1.485994349107e-13
    35   -6.339497258414e-01
    36   -2.716435829140e-11
    37    9.874308851134e-12
    38    2.594448339195e-11
    39    2.254171782919e+00
    40   -1.806928695600e-14
    41   -3.655655193738e-03
    42   -1.250796038579e-03
    43    4.684447059043e-14
    44    6.281667011496e-14
    45    1.401740914268e-14
    46    2.632994772714e-14
    47   -4.423117906813e-16
    48    8.163968122130e-15
    49    8.026748441649e-02
    50   -1.117502500845e-13
    51   -2.740175575321e-14
    52    2.751349869646e-14
    53    1.126319192600e-01
    54    6.328349997526e-13
    55    2.610661302015e-13
    56   -6.195558800218e-14
    57    4.465894373437e-01
    58    2.986066427458e-11
    59   -8.343273299812e-12
    60   -9.343033953095e-12
    61   -1.791519343321e+00
    62    1.961092618581e-14
    63    3.046609370542e-02
    64   -3.349927835303e-03
    65    1.923735868578e-14
    66   -2.951683290271e-14
    67   -2.638955984250e-14
    68    9.635346510342e-14
    69   -2.177425207805e-12
    70   -8.797571874556e-12
    71    1.819468188483e-14
    72   -7.755229643598e-15
    73    3.569213687557e-03
    74   -7.566591703777e-14
    75    2.846320570521e-13
    76   -3.785997243066e-12
    77   -1.931917184599e-11
    78    4.039543265391e-15
    79    3.491044217987e-15
    80   -1.238592656560e-03
    81    1.108758634882e-13
    82   -4.799352930911e-13
    83    5.470297912861e-12
    84    2.620037014976e-11
    85   -8.421806053877e-15
    86   -4.446396211690e-15
    87   -9.400825561189e-04
[5D]
