[Molden Format]
[Atoms] (Angs)
  F      1    9      1.15290231      0.22477664     -0.00000000
  C      2    6     -1.17935012      0.19972949     -0.00000000
  C      3    6     -0.01631886     -0.43556811      0.00000000
  H      4    1      0.11895302     -1.50789969      0.00000000
  H      5    1     -1.23082549      1.27856114     -0.00000000
  H      6    1     -2.09023450     -0.37861944      0.00000000
[GTO]
1    0
S    6    1.000000
   1.14271000E+04    1.80093000E-03 
   1.72235000E+03    1.37419000E-02 
   3.95746000E+02    6.81334000E-02 
   1.15139000E+02    2.33325000E-01 
   3.36026000E+01    5.89086000E-01 
   4.91901000E+00    2.99505000E-01 
SP   3    1.000000
   5.54441000E+01    1.14536000E-01   3.54609000E-02 
   1.26323000E+01    9.20512000E-01   2.37451000E-01 
   3.71756000E+00   -3.37804000E-03   8.20458000E-01 
SP   1    1.000000
   1.16545000E+00    1.00000000E+00   1.00000000E+00 
SP   1    1.000000
   3.21892000E-01    1.00000000E+00   1.00000000E+00 
SP   1    1.000000
   1.07600000E-01    1.00000000E+00   1.00000000E+00 
D    1    1.000000
   1.75000000E+00    1.00000000E+00 

2    0
S    6    1.000000
   4.56324000E+03    1.96665000E-03 
   6.82024000E+02    1.52306000E-02 
   1.54973000E+02    7.61269000E-02 
   4.44553000E+01    2.60801000E-01 
   1.30290000E+01    6.16462000E-01 
   1.82773000E+00    2.21006000E-01 
SP   3    1.000000
   2.09642000E+01    1.14660000E-01   4.02487000E-02 
   4.80331000E+00    9.19999000E-01   2.37594000E-01 
   1.45933000E+00   -3.03068000E-03   8.15854000E-01 
SP   1    1.000000
   4.83456000E-01    1.00000000E+00   1.00000000E+00 
SP   1    1.000000
   1.45585000E-01    1.00000000E+00   1.00000000E+00 
SP   1    1.000000
   4.38000000E-02    1.00000000E+00   1.00000000E+00 
D    1    1.000000
   6.26000000E-01    1.00000000E+00 

3    0
S    6    1.000000
   4.56324000E+03    1.96665000E-03 
   6.82024000E+02    1.52306000E-02 
   1.54973000E+02    7.61269000E-02 
   4.44553000E+01    2.60801000E-01 
   1.30290000E+01    6.16462000E-01 
   1.82773000E+00    2.21006000E-01 
SP   3    1.000000
   2.09642000E+01    1.14660000E-01   4.02487000E-02 
   4.80331000E+00    9.19999000E-01   2.37594000E-01 
   1.45933000E+00   -3.03068000E-03   8.15854000E-01 
SP   1    1.000000
   4.83456000E-01    1.00000000E+00   1.00000000E+00 
SP   1    1.000000
   1.45585000E-01    1.00000000E+00   1.00000000E+00 
SP   1    1.000000
   4.38000000E-02    1.00000000E+00   1.00000000E+00 
D    1    1.000000
   6.26000000E-01    1.00000000E+00 

4    0
S    3    1.000000
   3.38650000E+01    2.54938000E-02 
   5.09479000E+00    1.90373000E-01 
   1.15879000E+00    8.52161000E-01 
S    1    1.000000
   3.25840000E-01    1.00000000E+00 
S    1    1.000000
   1.02741000E-01    1.00000000E+00 
S    1    1.000000
   3.60000000E-02    1.00000000E+00 
P    1    1.000000
   7.50000000E-01    1.00000000E+00 

5    0
S    3    1.000000
   3.38650000E+01    2.54938000E-02 
   5.09479000E+00    1.90373000E-01 
   1.15879000E+00    8.52161000E-01 
S    1    1.000000
   3.25840000E-01    1.00000000E+00 
S    1    1.000000
   1.02741000E-01    1.00000000E+00 
S    1    1.000000
   3.60000000E-02    1.00000000E+00 
P    1    1.000000
   7.50000000E-01    1.00000000E+00 

6    0
S    3    1.000000
   3.38650000E+01    2.54938000E-02 
   5.09479000E+00    1.90373000E-01 
   1.15879000E+00    8.52161000E-01 
S    1    1.000000
   3.25840000E-01    1.00000000E+00 
S    1    1.000000
   1.02741000E-01    1.00000000E+00 
S    1    1.000000
   3.60000000E-02    1.00000000E+00 
P    1    1.000000
   7.50000000E-01    1.00000000E+00 

[MO]
Sym=X
Ene= -0.836678
Spin=Alpha
Occup=1
     1   -5.476689521072e-01
     2   -4.734890056287e-01
     3    1.032190597603e-03
     4    5.765546868150e-04
     5   -6.360729542979e-16
     6   -6.217391212524e-03
     7   -3.882565167579e-04
     8   -2.182712477237e-04
     9    2.293697475969e-16
    10    9.461622513881e-04
    11    1.063392330511e-04
    12    7.566037682027e-05
    13   -1.425182436268e-15
    14   -9.809109355160e-04
    15    7.288196110017e-05
    16    1.791189042615e-05
    17   -2.978034389862e-16
    18   -5.281169061145e-05
    19   -2.612855525980e-16
    20    7.397851271333e-16
    21    6.195480530040e-05
    22    1.001053115752e-04
    23   -1.425902683283e-06
    24    1.163293710820e-06
    25    4.568464691882e-06
    26   -3.920180404911e-06
    27   -1.234750886204e-15
    28   -2.292128761333e-05
    29   -2.909874693011e-05
    30    3.121939099369e-05
    31    1.983998009701e-15
    32    1.141523748070e-04
    33    1.487821333584e-04
    34    6.334032258007e-05
    35   -3.418848477590e-15
    36   -1.249145762748e-03
    37   -3.000844817893e-04
    38    3.993517738903e-05
    39   -2.340335777024e-16
    40   -6.185859029452e-06
    41   -3.883574593874e-16
    42   -1.274512851592e-15
    43   -1.775672421563e-05
    44    1.124441734265e-05
    45    4.161362412204e-06
    46    2.644788647295e-05
    47   -1.630822691226e-05
    48   -1.104203548417e-05
    49    2.090948937260e-15
    50   -8.377835882978e-05
    51   -1.864320932872e-04
    52   -9.895229970139e-05
    53   -3.645692912225e-15
    54    3.259452924796e-05
    55    8.536419833483e-05
    56   -7.195854745448e-05
    57    5.639840761907e-15
    58    1.411990606608e-03
    59   -8.439582430938e-05
    60    3.656380254203e-04
    61   -7.770220596375e-16
    62    3.923620208507e-05
    63    5.458799360015e-16
    64    6.096801085668e-16
    65   -4.963222494083e-05
    66   -9.336137305529e-05
    67    6.535681970588e-07
    68   -5.127614203380e-05
    69    3.676811200428e-05
    70    2.369541547850e-05
    71    1.195834912502e-05
    72   -1.384047433298e-05
    73   -6.507056149018e-16
    74    3.014640803639e-06
    75   -8.170071553823e-05
    76    8.166701960856e-05
    77   -1.665780788598e-05
    78   -6.507133967678e-07
    79    1.289897410634e-05
    80    1.152576340683e-15
    81   -7.175135215208e-06
    82    3.023997412333e-05
    83    9.596960508293e-05
    84    2.296962912707e-05
    85    5.450160983559e-09
    86    1.771719089744e-06
    87    2.044950771499e-17
Sym=X
Ene= 0.836678
Spin=Alpha
Occup=0
     1   -6.482399667185e-05
     2   -2.471739754825e-04
     3    8.689998159053e-03
     4    5.590814902798e-02
     5   -1.057884096524e-14
     6    4.590803342196e-03
     7    1.112273923842e-02
     8    7.234513040645e-02
     9   -1.238913287892e-14
    10   -3.740602662753e-02
    11    1.530172773294e-02
    12    6.745932599845e-02
    13   -3.280691652131e-14
    14    1.586495064154e-01
    15   -1.463028799172e-02
    16   -8.932574047219e-02
    17   -2.889923254715e-14
    18   -1.467870331798e-03
    19   -2.327882781966e-15
    20   -2.879871225057e-15
    21    4.197670620650e-03
    22   -2.223119815800e-03
    23   -1.720280618061e-02
    24   -2.966950061527e-02
    25    3.998098525075e-03
    26    3.677812232775e-02
    27   -4.235535677230e-14
    28    8.577451105132e-02
    29    1.185416190377e-03
    30    6.278631379737e-02
    31   -6.313865986217e-14
    32    3.257007405224e-01
    33    1.148268520939e-01
    34    8.055696143040e-02
    35   -2.115138610166e-13
    36    5.101489767703e+00
    37    6.040270878921e-01
    38    8.589351124725e-01
    39    3.563598654957e-13
    40   -1.009678814851e-03
    41    1.585387556103e-15
    42   -3.687507136509e-15
    43    1.102877449440e-02
    44    3.462037512268e-03
    45    6.600599724848e-03
    46    1.151435772953e-02
    47    1.685094316813e-02
    48    5.172057399710e-02
    49    4.176194538986e-14
    50   -3.807135085945e-02
    51    3.082851380812e-02
    52    1.034303064717e-01
    53    5.786789263157e-14
    54   -1.601523206740e-01
    55    9.245189309258e-02
    56    4.788232715011e-02
    57    2.250029369392e-13
    58   -3.254137728554e+00
    59    9.047686860207e-01
    60   -1.240746654481e+00
    61   -3.251519954721e-13
    62   -5.150985279372e-03
    63    5.830249747215e-15
    64   -3.273886779305e-15
    65   -1.340827904473e-02
    66   -8.571547489393e-03
    67    3.279261485164e-03
    68    5.995925522217e-02
    69   -8.171021613579e-02
    70    5.642021713163e-01
    71    1.069411601198e-02
    72   -9.746974916559e-03
    73    3.439761015764e-15
    74   -2.657207808509e-03
    75   -2.053380364009e-02
    76   -2.906835310508e-01
    77   -2.756551938296e+00
    78   -2.682038581424e-03
    79   -1.262560154015e-02
    80   -2.573989767924e-15
    81    2.851721264059e-03
    82    2.799359266514e-02
    83    2.444369444014e-02
    84    2.382868115420e-01
    85   -3.016287165797e-04
    86    4.118340251591e-03
    87   -3.464401983929e-15
[5D]
