[Molden Format]
[Atoms] (Angs)
  F      1    9      1.15290231      0.22477664     -0.00000000
  C      2    6     -1.17935012      0.19972949     -0.00000000
  C      3    6     -0.01631886     -0.43556811      0.00000000
  H      4    1      0.11895302     -1.50789969      0.00000000
  H      5    1     -1.23082549      1.27856114     -0.00000000
  H      6    1     -2.09023450     -0.37861944      0.00000000
[GTO]
1    0
S    6    1.000000
   1.14271000E+04    1.80093000E-03 
   1.72235000E+03    1.37419000E-02 
   3.95746000E+02    6.81334000E-02 
   1.15139000E+02    2.33325000E-01 
   3.36026000E+01    5.89086000E-01 
   4.91901000E+00    2.99505000E-01 
SP   3    1.000000
   5.54441000E+01    1.14536000E-01   3.54609000E-02 
   1.26323000E+01    9.20512000E-01   2.37451000E-01 
   3.71756000E+00   -3.37804000E-03   8.20458000E-01 
SP   1    1.000000
   1.16545000E+00    1.00000000E+00   1.00000000E+00 
SP   1    1.000000
   3.21892000E-01    1.00000000E+00   1.00000000E+00 
SP   1    1.000000
   1.07600000E-01    1.00000000E+00   1.00000000E+00 
D    1    1.000000
   1.75000000E+00    1.00000000E+00 

2    0
S    6    1.000000
   4.56324000E+03    1.96665000E-03 
   6.82024000E+02    1.52306000E-02 
   1.54973000E+02    7.61269000E-02 
   4.44553000E+01    2.60801000E-01 
   1.30290000E+01    6.16462000E-01 
   1.82773000E+00    2.21006000E-01 
SP   3    1.000000
   2.09642000E+01    1.14660000E-01   4.02487000E-02 
   4.80331000E+00    9.19999000E-01   2.37594000E-01 
   1.45933000E+00   -3.03068000E-03   8.15854000E-01 
SP   1    1.000000
   4.83456000E-01    1.00000000E+00   1.00000000E+00 
SP   1    1.000000
   1.45585000E-01    1.00000000E+00   1.00000000E+00 
SP   1    1.000000
   4.38000000E-02    1.00000000E+00   1.00000000E+00 
D    1    1.000000
   6.26000000E-01    1.00000000E+00 

3    0
S    6    1.000000
   4.56324000E+03    1.96665000E-03 
   6.82024000E+02    1.52306000E-02 
   1.54973000E+02    7.61269000E-02 
   4.44553000E+01    2.60801000E-01 
   1.30290000E+01    6.16462000E-01 
   1.82773000E+00    2.21006000E-01 
SP   3    1.000000
   2.09642000E+01    1.14660000E-01   4.02487000E-02 
   4.80331000E+00    9.19999000E-01   2.37594000E-01 
   1.45933000E+00   -3.03068000E-03   8.15854000E-01 
SP   1    1.000000
   4.83456000E-01    1.00000000E+00   1.00000000E+00 
SP   1    1.000000
   1.45585000E-01    1.00000000E+00   1.00000000E+00 
SP   1    1.000000
   4.38000000E-02    1.00000000E+00   1.00000000E+00 
D    1    1.000000
   6.26000000E-01    1.00000000E+00 

4    0
S    3    1.000000
   3.38650000E+01    2.54938000E-02 
   5.09479000E+00    1.90373000E-01 
   1.15879000E+00    8.52161000E-01 
S    1    1.000000
   3.25840000E-01    1.00000000E+00 
S    1    1.000000
   1.02741000E-01    1.00000000E+00 
S    1    1.000000
   3.60000000E-02    1.00000000E+00 
P    1    1.000000
   7.50000000E-01    1.00000000E+00 

5    0
S    3    1.000000
   3.38650000E+01    2.54938000E-02 
   5.09479000E+00    1.90373000E-01 
   1.15879000E+00    8.52161000E-01 
S    1    1.000000
   3.25840000E-01    1.00000000E+00 
S    1    1.000000
   1.02741000E-01    1.00000000E+00 
S    1    1.000000
   3.60000000E-02    1.00000000E+00 
P    1    1.000000
   7.50000000E-01    1.00000000E+00 

6    0
S    3    1.000000
   3.38650000E+01    2.54938000E-02 
   5.09479000E+00    1.90373000E-01 
   1.15879000E+00    8.52161000E-01 
S    1    1.000000
   3.25840000E-01    1.00000000E+00 
S    1    1.000000
   1.02741000E-01    1.00000000E+00 
S    1    1.000000
   3.60000000E-02    1.00000000E+00 
P    1    1.000000
   7.50000000E-01    1.00000000E+00 

[MO]
Sym=X
Ene= -0.835191
Spin=Alpha
Occup=1
     1   -5.476689535667e-01
     2   -4.734890080724e-01
     3    1.032190995978e-03
     4    5.765609688489e-04
     5   -6.360671274517e-16
     6   -6.217383019152e-03
     7   -3.882571684980e-04
     8   -2.182564911500e-04
     9    2.293785757099e-16
    10    9.461729963943e-04
    11    1.063265163258e-04
    12    7.568891328392e-05
    13   -1.425177434226e-15
    14   -9.809110541216e-04
    15    7.288264515602e-05
    16    1.791327673120e-05
    17   -2.977957104112e-16
    18   -5.281043635150e-05
    19   -2.612856625800e-16
    20    7.397847213506e-16
    21    6.195141320787e-05
    22    1.001028347493e-04
    23   -1.424485782792e-06
    24    1.165981057955e-06
    25    4.559897796250e-06
    26   -3.944685283497e-06
    27   -1.234741479398e-15
    28   -2.294301250262e-05
    29   -2.911609460308e-05
    30    3.117673311939e-05
    31    1.984016141455e-15
    32    1.141672785817e-04
    33    1.487917017048e-04
    34    6.335818198824e-05
    35   -3.418816294946e-15
    36   -1.249171996889e-03
    37   -3.000899127496e-04
    38    3.993826747862e-05
    39   -2.341195729719e-16
    40   -6.184222865831e-06
    41   -3.883582553676e-16
    42   -1.274511925350e-15
    43   -1.775811572882e-05
    44    1.124499225118e-05
    45    4.161202488539e-06
    46    2.644762663480e-05
    47   -1.631219811033e-05
    48   -1.106574668283e-05
    49    2.090942507971e-15
    50   -8.375873337082e-05
    51   -1.864460315484e-04
    52   -9.899528175923e-05
    53   -3.645696132736e-15
    54    3.257369693211e-05
    55    8.537151169314e-05
    56   -7.195541887603e-05
    57    5.639783105901e-15
    58    1.412011703843e-03
    59   -8.440447304475e-05
    60    3.656465839095e-04
    61   -7.769342274556e-16
    62    3.923695650907e-05
    63    5.458795649010e-16
    64    6.096829169325e-16
    65   -4.963390318143e-05
    66   -9.336586942898e-05
    67    6.387711448048e-07
    68   -5.131158111950e-05
    69    3.677164229764e-05
    70    2.369951558452e-05
    71    1.195979065414e-05
    72   -1.383908893093e-05
    73   -6.507073661165e-16
    74    3.028825386910e-06
    75   -8.166301512338e-05
    76    8.167802570415e-05
    77   -1.665574396078e-05
    78   -6.496006487780e-07
    79    1.290372187647e-05
    80    1.152577495464e-15
    81   -7.179651930442e-06
    82    3.022498461361e-05
    83    9.596614480124e-05
    84    2.296649455359e-05
    85    7.217216619831e-09
    86    1.773894050306e-06
    87    2.045022297233e-17
Sym=X
Ene= 0.835191
Spin=Alpha
Occup=0
     1    1.000938622926e-03
     2    1.797092976014e-03
     3   -4.321065541209e-03
     4    1.101180484517e-02
     5   -8.360140546328e-14
     6   -6.745135130024e-03
     7   -8.753463870328e-03
     8    1.559891241994e-02
     9   -1.082937930527e-13
    10    1.040612151401e-02
    11    2.554664668342e-02
    12    1.207622151779e-02
    13   -2.087212101652e-13
    14   -7.897062068146e-01
    15    3.982072997553e-01
    16    1.781497884481e-01
    17   -1.912328574232e-13
    18   -1.721618496774e-03
    19   -1.644790818099e-14
    20   -5.003199725203e-15
    21    8.074861727116e-03
    22    2.953924538016e-03
    23   -4.783373649456e-03
    24   -8.620210855079e-03
    25    1.540220114894e-02
    26    6.420192404244e-02
    27   -3.339338815574e-13
    28    1.808208481680e-02
    29    4.272878858797e-02
    30    1.125249274481e-01
    31   -3.842142456322e-13
    32    1.239872953999e-02
    33   -1.179115485554e-01
    34    1.890316634957e-01
    35   -1.891488937159e-12
    36   -1.258371510126e+01
    37   -5.252903762356e+00
    38   -4.878184806921e+00
    39    3.485346266110e-12
    40   -7.047194086820e-03
    41    4.087867000927e-14
    42   -2.377641680192e-14
    43   -5.915348407318e-03
    44   -1.682963710998e-03
    45    6.873695120508e-03
    46    1.183954298423e-02
    47    2.120891601136e-02
    48    6.637196728319e-02
    49    3.401038463973e-13
    50   -3.894428521812e-02
    51    3.571506648118e-02
    52    9.706958594987e-02
    53    4.342059284752e-13
    54    2.263407800374e-01
    55    1.476437185719e-01
    56    5.601131175468e-01
    57    1.825989735964e-12
    58    1.235713743223e+01
    59   -1.865103218728e+00
    60    2.584775026915e+00
    61   -3.198464230902e-12
    62   -1.443999347422e-03
    63    4.467178858903e-14
    64   -3.396147264371e-14
    65   -1.603292755138e-02
    66    1.491231353011e-02
    67    4.408700031666e-03
    68    1.081325993361e-01
    69    2.720988304154e-01
    70   -1.264745295440e+00
    71   -7.157428829029e-03
    72   -7.499772263759e-03
    73    3.886799123876e-14
    74    1.881982985539e-02
    75   -1.406050401549e-01
    76    1.214843346049e+00
    77    7.462317547539e+00
    78   -1.044439257612e-03
    79   -4.735560541477e-03
    80   -2.987506247131e-14
    81   -1.103523022447e-02
    82    6.730681710273e-02
    83   -7.610438425633e-01
    84   -6.105896670941e+00
    85   -1.000490904933e-03
    86   -4.902427772383e-03
    87   -2.395768787712e-14
[5D]
