[Molden Format]
[Atoms] (Angs)
  F      1    9      1.15290231      0.22477664     -0.00000000
  C      2    6     -1.17935012      0.19972949     -0.00000000
  C      3    6     -0.01631886     -0.43556811      0.00000000
  H      4    1      0.11895302     -1.50789969      0.00000000
  H      5    1     -1.23082549      1.27856114     -0.00000000
  H      6    1     -2.09023450     -0.37861944      0.00000000
[GTO]
1    0
S    6    1.000000
   1.14271000E+04    1.80093000E-03 
   1.72235000E+03    1.37419000E-02 
   3.95746000E+02    6.81334000E-02 
   1.15139000E+02    2.33325000E-01 
   3.36026000E+01    5.89086000E-01 
   4.91901000E+00    2.99505000E-01 
SP   3    1.000000
   5.54441000E+01    1.14536000E-01   3.54609000E-02 
   1.26323000E+01    9.20512000E-01   2.37451000E-01 
   3.71756000E+00   -3.37804000E-03   8.20458000E-01 
SP   1    1.000000
   1.16545000E+00    1.00000000E+00   1.00000000E+00 
SP   1    1.000000
   3.21892000E-01    1.00000000E+00   1.00000000E+00 
SP   1    1.000000
   1.07600000E-01    1.00000000E+00   1.00000000E+00 
D    1    1.000000
   1.75000000E+00    1.00000000E+00 

2    0
S    6    1.000000
   4.56324000E+03    1.96665000E-03 
   6.82024000E+02    1.52306000E-02 
   1.54973000E+02    7.61269000E-02 
   4.44553000E+01    2.60801000E-01 
   1.30290000E+01    6.16462000E-01 
   1.82773000E+00    2.21006000E-01 
SP   3    1.000000
   2.09642000E+01    1.14660000E-01   4.02487000E-02 
   4.80331000E+00    9.19999000E-01   2.37594000E-01 
   1.45933000E+00   -3.03068000E-03   8.15854000E-01 
SP   1    1.000000
   4.83456000E-01    1.00000000E+00   1.00000000E+00 
SP   1    1.000000
   1.45585000E-01    1.00000000E+00   1.00000000E+00 
SP   1    1.000000
   4.38000000E-02    1.00000000E+00   1.00000000E+00 
D    1    1.000000
   6.26000000E-01    1.00000000E+00 

3    0
S    6    1.000000
   4.56324000E+03    1.96665000E-03 
   6.82024000E+02    1.52306000E-02 
   1.54973000E+02    7.61269000E-02 
   4.44553000E+01    2.60801000E-01 
   1.30290000E+01    6.16462000E-01 
   1.82773000E+00    2.21006000E-01 
SP   3    1.000000
   2.09642000E+01    1.14660000E-01   4.02487000E-02 
   4.80331000E+00    9.19999000E-01   2.37594000E-01 
   1.45933000E+00   -3.03068000E-03   8.15854000E-01 
SP   1    1.000000
   4.83456000E-01    1.00000000E+00   1.00000000E+00 
SP   1    1.000000
   1.45585000E-01    1.00000000E+00   1.00000000E+00 
SP   1    1.000000
   4.38000000E-02    1.00000000E+00   1.00000000E+00 
D    1    1.000000
   6.26000000E-01    1.00000000E+00 

4    0
S    3    1.000000
   3.38650000E+01    2.54938000E-02 
   5.09479000E+00    1.90373000E-01 
   1.15879000E+00    8.52161000E-01 
S    1    1.000000
   3.25840000E-01    1.00000000E+00 
S    1    1.000000
   1.02741000E-01    1.00000000E+00 
S    1    1.000000
   3.60000000E-02    1.00000000E+00 
P    1    1.000000
   7.50000000E-01    1.00000000E+00 

5    0
S    3    1.000000
   3.38650000E+01    2.54938000E-02 
   5.09479000E+00    1.90373000E-01 
   1.15879000E+00    8.52161000E-01 
S    1    1.000000
   3.25840000E-01    1.00000000E+00 
S    1    1.000000
   1.02741000E-01    1.00000000E+00 
S    1    1.000000
   3.60000000E-02    1.00000000E+00 
P    1    1.000000
   7.50000000E-01    1.00000000E+00 

6    0
S    3    1.000000
   3.38650000E+01    2.54938000E-02 
   5.09479000E+00    1.90373000E-01 
   1.15879000E+00    8.52161000E-01 
S    1    1.000000
   3.25840000E-01    1.00000000E+00 
S    1    1.000000
   1.02741000E-01    1.00000000E+00 
S    1    1.000000
   3.60000000E-02    1.00000000E+00 
P    1    1.000000
   7.50000000E-01    1.00000000E+00 

[MO]
Sym=X
Ene= -0.790227
Spin=Alpha
Occup=1
     1    5.476689526454e-01
     2    4.734890065596e-01
     3   -1.032188261707e-03
     4   -5.765590498808e-04
     5    6.360731563055e-16
     6    6.217388678849e-03
     7    3.882602022637e-04
     8    2.182625396912e-04
     9   -2.293698616139e-16
    10   -9.461671639127e-04
    11   -1.063347468462e-04
    12   -7.567495519249e-05
    13    1.425183956834e-15
    14    9.809083689437e-04
    15   -7.288102102878e-05
    16   -1.791253172280e-05
    17    2.978018014976e-16
    18    5.281149873295e-05
    19    2.612855485272e-16
    20   -7.397851417459e-16
    21   -6.195478336374e-05
    22   -1.001049980430e-04
    23    1.425444409047e-06
    24   -1.164138869570e-06
    25   -4.567422019030e-06
    26    3.922834055738e-06
    27    1.234749924561e-15
    28    2.292855429018e-05
    29    2.910050318475e-05
    30   -3.121449662221e-05
    31   -1.984000874993e-15
    32   -1.141517211589e-04
    33   -1.487814518070e-04
    34   -6.334186713537e-05
    35    3.418850149019e-15
    36    1.249156332414e-03
    37    3.000868724282e-04
    38   -3.993549501224e-05
    39    2.340348146411e-16
    40    6.185720549920e-06
    41    3.883573135822e-16
    42    1.274512657712e-15
    43    1.775761904901e-05
    44   -1.124402218658e-05
    45   -4.161459000865e-06
    46   -2.644805743354e-05
    47    1.631032665681e-05
    48    1.104535288266e-05
    49   -2.090948698880e-15
    50    8.377652361460e-05
    51    1.864365866188e-04
    52    9.895856159203e-05
    53    3.645692556845e-15
    54   -3.259219867125e-05
    55   -8.536059078719e-05
    56    7.195872175252e-05
    57   -5.639837935085e-15
    58   -1.411997345324e-03
    59    8.439893565227e-05
    60   -3.656421247065e-04
    61    7.770197686049e-16
    62   -3.923671774618e-05
    63   -5.458798994082e-16
    64   -6.096806461078e-16
    65    4.963369661039e-05
    66    9.336067092308e-05
    67   -6.521922761848e-07
    68    5.127964732249e-05
    69   -3.677048828562e-05
    70   -2.369838663724e-05
    71   -1.195796696860e-05
    72    1.384047929465e-05
    73    6.507059192191e-16
    74   -3.016968173635e-06
    75    8.169500409027e-05
    76   -8.166854040602e-05
    77    1.665727178262e-05
    78    6.506065431826e-07
    79   -1.289946395555e-05
    80   -1.152576582564e-15
    81    7.174433982669e-06
    82   -3.024159338593e-05
    83   -9.597034432165e-05
    84   -2.296896063670e-05
    85   -5.704079790091e-09
    86   -1.771700353896e-06
    87   -2.044950059286e-17
Sym=X
Ene= 0.790227
Spin=Alpha
Occup=0
     1    1.182278555822e-14
     2    1.761850251785e-14
     3    6.611629560416e-15
     4   -7.790060844289e-15
     5   -1.177156588677e-01
     6   -7.757258686126e-14
     7    2.813722036726e-14
     8   -7.522758778498e-15
     9   -1.533887226771e-01
    10   -9.915691477835e-15
    11   -7.059247753136e-14
    12   -2.884700184010e-15
    13   -1.200870465804e-01
    14   -1.261583338677e-12
    15    9.280769632142e-13
    16    1.566295869671e-13
    17   -3.400178101638e-02
    18    9.426968105953e-16
    19   -9.458033337185e-03
    20   -8.090205625131e-03
    21   -2.539727665583e-15
    22   -1.284746005466e-15
    23   -1.390525359857e-14
    24   -2.436847470459e-14
    25   -6.245219225486e-14
    26   -8.216274019627e-14
    27   -1.518180724632e-01
    28    3.102535012154e-14
    29   -1.299857670297e-13
    30   -1.846984472427e-13
    31   -2.368292616028e-01
    32    4.625077331164e-13
    33   -2.556796835813e-13
    34   -1.188348887367e-13
    35   -5.059302090329e-01
    36   -1.670604090193e-11
    37    6.847627793451e-12
    38    1.686316375715e-11
    39   -5.339027104674e-01
    40   -1.253866723272e-14
    41    1.857081904695e-02
    42   -1.458505103498e-02
    43    3.081088156061e-14
    44    4.935408624252e-14
    45    6.370872429477e-15
    46    1.379364970879e-14
    47    8.597256414198e-15
    48    5.578165279976e-15
    49    1.932523230112e-01
    50   -7.878353880379e-14
    51   -9.532416169516e-15
    52    2.335007215309e-14
    53    3.225293182356e-01
    54    6.668805467573e-13
    55    2.490957836383e-13
    56    4.594430936991e-14
    57    5.303515854491e-01
    58    1.859725330718e-11
    59   -5.131601951755e-12
    60   -6.327330995900e-12
    61    4.877158733347e-01
    62    5.641607806689e-15
    63    5.567885441742e-02
    64   -1.238824793775e-02
    65    6.702133274544e-15
    66   -2.021484389648e-14
    67   -1.775801102567e-14
    68    5.536944836446e-14
    69   -1.381993314826e-12
    70   -6.061042642394e-12
    71    1.170890710165e-14
    72   -4.684567397216e-15
    73    2.304708298822e-02
    74   -5.263562159851e-14
    75    1.593575672554e-13
    76   -2.422383092848e-12
    77   -1.273506333657e-11
    78    7.886996127242e-15
    79    4.932657592863e-15
    80   -1.942880276487e-02
    81    7.695758813344e-14
    82   -3.505259784000e-13
    83    3.572506717187e-12
    84    1.742504232839e-11
    85   -1.924255711381e-15
    86   -3.744463024138e-15
    87   -1.740482087795e-02
[5D]
