[Molden Format]
[Atoms] (Angs)
  F      1    9      1.15290231      0.22477664     -0.00000000
  C      2    6     -1.17935012      0.19972949     -0.00000000
  C      3    6     -0.01631886     -0.43556811      0.00000000
  H      4    1      0.11895302     -1.50789969      0.00000000
  H      5    1     -1.23082549      1.27856114     -0.00000000
  H      6    1     -2.09023450     -0.37861944      0.00000000
[GTO]
1    0
S    6    1.000000
   1.14271000E+04    1.80093000E-03 
   1.72235000E+03    1.37419000E-02 
   3.95746000E+02    6.81334000E-02 
   1.15139000E+02    2.33325000E-01 
   3.36026000E+01    5.89086000E-01 
   4.91901000E+00    2.99505000E-01 
SP   3    1.000000
   5.54441000E+01    1.14536000E-01   3.54609000E-02 
   1.26323000E+01    9.20512000E-01   2.37451000E-01 
   3.71756000E+00   -3.37804000E-03   8.20458000E-01 
SP   1    1.000000
   1.16545000E+00    1.00000000E+00   1.00000000E+00 
SP   1    1.000000
   3.21892000E-01    1.00000000E+00   1.00000000E+00 
SP   1    1.000000
   1.07600000E-01    1.00000000E+00   1.00000000E+00 
D    1    1.000000
   1.75000000E+00    1.00000000E+00 

2    0
S    6    1.000000
   4.56324000E+03    1.96665000E-03 
   6.82024000E+02    1.52306000E-02 
   1.54973000E+02    7.61269000E-02 
   4.44553000E+01    2.60801000E-01 
   1.30290000E+01    6.16462000E-01 
   1.82773000E+00    2.21006000E-01 
SP   3    1.000000
   2.09642000E+01    1.14660000E-01   4.02487000E-02 
   4.80331000E+00    9.19999000E-01   2.37594000E-01 
   1.45933000E+00   -3.03068000E-03   8.15854000E-01 
SP   1    1.000000
   4.83456000E-01    1.00000000E+00   1.00000000E+00 
SP   1    1.000000
   1.45585000E-01    1.00000000E+00   1.00000000E+00 
SP   1    1.000000
   4.38000000E-02    1.00000000E+00   1.00000000E+00 
D    1    1.000000
   6.26000000E-01    1.00000000E+00 

3    0
S    6    1.000000
   4.56324000E+03    1.96665000E-03 
   6.82024000E+02    1.52306000E-02 
   1.54973000E+02    7.61269000E-02 
   4.44553000E+01    2.60801000E-01 
   1.30290000E+01    6.16462000E-01 
   1.82773000E+00    2.21006000E-01 
SP   3    1.000000
   2.09642000E+01    1.14660000E-01   4.02487000E-02 
   4.80331000E+00    9.19999000E-01   2.37594000E-01 
   1.45933000E+00   -3.03068000E-03   8.15854000E-01 
SP   1    1.000000
   4.83456000E-01    1.00000000E+00   1.00000000E+00 
SP   1    1.000000
   1.45585000E-01    1.00000000E+00   1.00000000E+00 
SP   1    1.000000
   4.38000000E-02    1.00000000E+00   1.00000000E+00 
D    1    1.000000
   6.26000000E-01    1.00000000E+00 

4    0
S    3    1.000000
   3.38650000E+01    2.54938000E-02 
   5.09479000E+00    1.90373000E-01 
   1.15879000E+00    8.52161000E-01 
S    1    1.000000
   3.25840000E-01    1.00000000E+00 
S    1    1.000000
   1.02741000E-01    1.00000000E+00 
S    1    1.000000
   3.60000000E-02    1.00000000E+00 
P    1    1.000000
   7.50000000E-01    1.00000000E+00 

5    0
S    3    1.000000
   3.38650000E+01    2.54938000E-02 
   5.09479000E+00    1.90373000E-01 
   1.15879000E+00    8.52161000E-01 
S    1    1.000000
   3.25840000E-01    1.00000000E+00 
S    1    1.000000
   1.02741000E-01    1.00000000E+00 
S    1    1.000000
   3.60000000E-02    1.00000000E+00 
P    1    1.000000
   7.50000000E-01    1.00000000E+00 

6    0
S    3    1.000000
   3.38650000E+01    2.54938000E-02 
   5.09479000E+00    1.90373000E-01 
   1.15879000E+00    8.52161000E-01 
S    1    1.000000
   3.25840000E-01    1.00000000E+00 
S    1    1.000000
   1.02741000E-01    1.00000000E+00 
S    1    1.000000
   3.60000000E-02    1.00000000E+00 
P    1    1.000000
   7.50000000E-01    1.00000000E+00 

[MO]
Sym=X
Ene= -0.814610
Spin=Alpha
Occup=1
     1    5.476689526454e-01
     2    4.734890065596e-01
     3   -1.032188261707e-03
     4   -5.765590498808e-04
     5    6.360731563055e-16
     6    6.217388678849e-03
     7    3.882602022637e-04
     8    2.182625396912e-04
     9   -2.293698616139e-16
    10   -9.461671639127e-04
    11   -1.063347468462e-04
    12   -7.567495519249e-05
    13    1.425183956834e-15
    14    9.809083689437e-04
    15   -7.288102102878e-05
    16   -1.791253172280e-05
    17    2.978018014976e-16
    18    5.281149873295e-05
    19    2.612855485272e-16
    20   -7.397851417459e-16
    21   -6.195478336374e-05
    22   -1.001049980430e-04
    23    1.425444409047e-06
    24   -1.164138869570e-06
    25   -4.567422019030e-06
    26    3.922834055738e-06
    27    1.234749924561e-15
    28    2.292855429018e-05
    29    2.910050318475e-05
    30   -3.121449662221e-05
    31   -1.984000874993e-15
    32   -1.141517211589e-04
    33   -1.487814518070e-04
    34   -6.334186713537e-05
    35    3.418850149019e-15
    36    1.249156332414e-03
    37    3.000868724282e-04
    38   -3.993549501224e-05
    39    2.340348146411e-16
    40    6.185720549920e-06
    41    3.883573135822e-16
    42    1.274512657712e-15
    43    1.775761904901e-05
    44   -1.124402218658e-05
    45   -4.161459000865e-06
    46   -2.644805743354e-05
    47    1.631032665681e-05
    48    1.104535288266e-05
    49   -2.090948698880e-15
    50    8.377652361460e-05
    51    1.864365866188e-04
    52    9.895856159203e-05
    53    3.645692556845e-15
    54   -3.259219867125e-05
    55   -8.536059078719e-05
    56    7.195872175252e-05
    57   -5.639837935085e-15
    58   -1.411997345324e-03
    59    8.439893565227e-05
    60   -3.656421247065e-04
    61    7.770197686049e-16
    62   -3.923671774618e-05
    63   -5.458798994082e-16
    64   -6.096806461078e-16
    65    4.963369661039e-05
    66    9.336067092308e-05
    67   -6.521922761846e-07
    68    5.127964732249e-05
    69   -3.677048828562e-05
    70   -2.369838663725e-05
    71   -1.195796696860e-05
    72    1.384047929465e-05
    73    6.507059192191e-16
    74   -3.016968173635e-06
    75    8.169500409027e-05
    76   -8.166854040602e-05
    77    1.665727178261e-05
    78    6.506065431827e-07
    79   -1.289946395555e-05
    80   -1.152576582564e-15
    81    7.174433982669e-06
    82   -3.024159338593e-05
    83   -9.597034432165e-05
    84   -2.296896063670e-05
    85   -5.704079789878e-09
    86   -1.771700353896e-06
    87   -2.044950059286e-17
Sym=X
Ene= 0.814610
Spin=Alpha
Occup=0
     1   -1.265403180396e-15
     2   -5.161396256249e-15
     3   -3.358439446719e-14
     4   -1.334744230374e-14
     5    1.339188120195e-03
     6    3.832300096227e-14
     7   -4.908251347843e-14
     8   -6.212367690558e-15
     9   -4.914014907071e-03
    10   -2.795041874029e-13
    11   -7.205296982646e-14
    12   -7.918276038162e-14
    13    8.173014238413e-02
    14    9.777166644331e-13
    15   -4.121394285389e-13
    16    3.725350919177e-13
    17    1.286391301626e-02
    18    4.281310780592e-15
    19   -8.554510197910e-03
    20    4.922448604683e-04
    21   -6.741322351199e-15
    22   -2.354667981306e-16
    23    9.808366728117e-15
    24    1.039426781003e-14
    25    5.598953264216e-14
    26   -8.914941857019e-15
    27   -2.202959560599e-01
    28    2.147509016216e-13
    29    3.301860779528e-13
    30   -1.614848964051e-13
    31   -9.115575637026e-01
    32   -8.999069498413e-13
    33   -6.960214504847e-13
    34    3.873692531119e-13
    35    1.919457341981e+00
    36    1.460121123655e-11
    37    8.952626585042e-13
    38   -4.137296326315e-12
    39   -1.183735672457e+00
    40   -2.381058833245e-14
    41   -1.550484617289e-02
    42    1.564574212227e-02
    43    1.991512708305e-15
    44   -3.420313658993e-14
    45   -1.154840797102e-14
    46   -2.474912808295e-14
    47   -8.852713702840e-14
    48    8.394296805200e-15
    49    1.005624360884e-01
    50    2.095381713206e-13
    51   -3.385916204762e-13
    52    7.198428501023e-14
    53    3.456957439866e-01
    54    3.241302975997e-13
    55    3.206618201690e-13
    56   -3.347342119947e-13
    57   -1.112549974716e+00
    58   -1.204536014443e-11
    59    2.909722817977e-12
    60   -9.670710345228e-13
    61    8.459070949916e-01
    62   -2.512961171144e-14
    63    7.118818851427e-02
    64    6.671392220589e-03
    65    7.827753773187e-15
    66    1.834163139065e-14
    67    5.652238772050e-15
    68   -2.071626847041e-14
    69   -2.162942564036e-13
    70    8.916190690789e-15
    71    1.689704087226e-14
    72    5.289189468890e-15
    73   -4.243805803268e-03
    74    5.658027829915e-14
    75    8.441405839417e-13
    76   -1.028712196365e-12
    77    2.277860559045e-12
    78    1.670294799266e-15
    79   -2.864144658723e-14
    80   -5.448777041845e-03
    81    2.017514888786e-14
    82    7.595843320374e-13
    83   -1.916623097807e-12
    84   -3.663206867024e-12
    85    1.531462466218e-14
    86    9.321359332080e-15
    87   -1.429524968660e-02
[5D]
