[Molden Format]
[Atoms] (Angs)
  C      1    6     -0.00754183     -1.75895763      0.00000000
  H      2    1     -2.09769850     -1.41880678     -0.00000000
  H      3    1     -0.13527422     -2.83956838     -0.00000000
  H      4    1      0.04053511      2.02026369      0.00000000
  C      5    6     -1.22066484      0.39918184     -0.00000000
  O      6    8     -2.25210141      1.05663720     -0.00000000
  C      7    6      1.24009552      0.27789184      0.00000000
  O      8    8      2.33767996      1.06122493      0.00000000
  N      9    7      0.03634586      1.00852936      0.00000000
  N     10    7     -1.18738304     -0.97903470     -0.00000000
  C     11    6      1.22288875     -1.12258096      0.00000000
  H     12    1      2.15640383     -1.68445878      0.00000000
[GTO]
1    0
S    6    1.000000
   4.56324000E+03    1.96665000E-03 
   6.82024000E+02    1.52306000E-02 
   1.54973000E+02    7.61269000E-02 
   4.44553000E+01    2.60801000E-01 
   1.30290000E+01    6.16462000E-01 
   1.82773000E+00    2.21006000E-01 
SP   3    1.000000
   2.09642000E+01    1.14660000E-01   4.02487000E-02 
   4.80331000E+00    9.19999000E-01   2.37594000E-01 
   1.45933000E+00   -3.03068000E-03   8.15854000E-01 
SP   1    1.000000
   4.83456000E-01    1.00000000E+00   1.00000000E+00 
SP   1    1.000000
   1.45585000E-01    1.00000000E+00   1.00000000E+00 
SP   1    1.000000
   4.38000000E-02    1.00000000E+00   1.00000000E+00 
D    1    1.000000
   6.26000000E-01    1.00000000E+00 

2    0
S    3    1.000000
   3.38650000E+01    2.54938000E-02 
   5.09479000E+00    1.90373000E-01 
   1.15879000E+00    8.52161000E-01 
S    1    1.000000
   3.25840000E-01    1.00000000E+00 
S    1    1.000000
   1.02741000E-01    1.00000000E+00 
S    1    1.000000
   3.60000000E-02    1.00000000E+00 
P    1    1.000000
   7.50000000E-01    1.00000000E+00 

3    0
S    3    1.000000
   3.38650000E+01    2.54938000E-02 
   5.09479000E+00    1.90373000E-01 
   1.15879000E+00    8.52161000E-01 
S    1    1.000000
   3.25840000E-01    1.00000000E+00 
S    1    1.000000
   1.02741000E-01    1.00000000E+00 
S    1    1.000000
   3.60000000E-02    1.00000000E+00 
P    1    1.000000
   7.50000000E-01    1.00000000E+00 

4    0
S    3    1.000000
   3.38650000E+01    2.54938000E-02 
   5.09479000E+00    1.90373000E-01 
   1.15879000E+00    8.52161000E-01 
S    1    1.000000
   3.25840000E-01    1.00000000E+00 
S    1    1.000000
   1.02741000E-01    1.00000000E+00 
S    1    1.000000
   3.60000000E-02    1.00000000E+00 
P    1    1.000000
   7.50000000E-01    1.00000000E+00 

5    0
S    6    1.000000
   4.56324000E+03    1.96665000E-03 
   6.82024000E+02    1.52306000E-02 
   1.54973000E+02    7.61269000E-02 
   4.44553000E+01    2.60801000E-01 
   1.30290000E+01    6.16462000E-01 
   1.82773000E+00    2.21006000E-01 
SP   3    1.000000
   2.09642000E+01    1.14660000E-01   4.02487000E-02 
   4.80331000E+00    9.19999000E-01   2.37594000E-01 
   1.45933000E+00   -3.03068000E-03   8.15854000E-01 
SP   1    1.000000
   4.83456000E-01    1.00000000E+00   1.00000000E+00 
SP   1    1.000000
   1.45585000E-01    1.00000000E+00   1.00000000E+00 
SP   1    1.000000
   4.38000000E-02    1.00000000E+00   1.00000000E+00 
D    1    1.000000
   6.26000000E-01    1.00000000E+00 

6    0
S    6    1.000000
   8.58850000E+03    1.89515000E-03 
   1.29723000E+03    1.43859000E-02 
   2.99296000E+02    7.07320000E-02 
   8.73771000E+01    2.40001000E-01 
   2.56789000E+01    5.94797000E-01 
   3.74004000E+00    2.80802000E-01 
SP   3    1.000000
   4.21175000E+01    1.13889000E-01   3.65114000E-02 
   9.62837000E+00    9.20811000E-01   2.37153000E-01 
   2.85332000E+00   -3.27447000E-03   8.19702000E-01 
SP   1    1.000000
   9.05661000E-01    1.00000000E+00   1.00000000E+00 
SP   1    1.000000
   2.55611000E-01    1.00000000E+00   1.00000000E+00 
SP   1    1.000000
   8.45000000E-02    1.00000000E+00   1.00000000E+00 
D    1    1.000000
   1.29200000E+00    1.00000000E+00 

7    0
S    6    1.000000
   4.56324000E+03    1.96665000E-03 
   6.82024000E+02    1.52306000E-02 
   1.54973000E+02    7.61269000E-02 
   4.44553000E+01    2.60801000E-01 
   1.30290000E+01    6.16462000E-01 
   1.82773000E+00    2.21006000E-01 
SP   3    1.000000
   2.09642000E+01    1.14660000E-01   4.02487000E-02 
   4.80331000E+00    9.19999000E-01   2.37594000E-01 
   1.45933000E+00   -3.03068000E-03   8.15854000E-01 
SP   1    1.000000
   4.83456000E-01    1.00000000E+00   1.00000000E+00 
SP   1    1.000000
   1.45585000E-01    1.00000000E+00   1.00000000E+00 
SP   1    1.000000
   4.38000000E-02    1.00000000E+00   1.00000000E+00 
D    1    1.000000
   6.26000000E-01    1.00000000E+00 

8    0
S    6    1.000000
   8.58850000E+03    1.89515000E-03 
   1.29723000E+03    1.43859000E-02 
   2.99296000E+02    7.07320000E-02 
   8.73771000E+01    2.40001000E-01 
   2.56789000E+01    5.94797000E-01 
   3.74004000E+00    2.80802000E-01 
SP   3    1.000000
   4.21175000E+01    1.13889000E-01   3.65114000E-02 
   9.62837000E+00    9.20811000E-01   2.37153000E-01 
   2.85332000E+00   -3.27447000E-03   8.19702000E-01 
SP   1    1.000000
   9.05661000E-01    1.00000000E+00   1.00000000E+00 
SP   1    1.000000
   2.55611000E-01    1.00000000E+00   1.00000000E+00 
SP   1    1.000000
   8.45000000E-02    1.00000000E+00   1.00000000E+00 
D    1    1.000000
   1.29200000E+00    1.00000000E+00 

9    0
S    6    1.000000
   6.29348000E+03    1.96979000E-03 
   9.49044000E+02    1.49613000E-02 
   2.18776000E+02    7.35006000E-02 
   6.36916000E+01    2.48937000E-01 
   1.88282000E+01    6.02460000E-01 
   2.72023000E+00    2.56202000E-01 
SP   3    1.000000
   3.06331000E+01    1.11906000E-01   3.83119000E-02 
   7.02614000E+00    9.21666000E-01   2.37403000E-01 
   2.11205000E+00   -2.56919000E-03   8.17592000E-01 
SP   1    1.000000
   6.84009000E-01    1.00000000E+00   1.00000000E+00 
SP   1    1.000000
   2.00878000E-01    1.00000000E+00   1.00000000E+00 
SP   1    1.000000
   6.39000000E-02    1.00000000E+00   1.00000000E+00 
D    1    1.000000
   9.13000000E-01    1.00000000E+00 

10    0
S    6    1.000000
   6.29348000E+03    1.96979000E-03 
   9.49044000E+02    1.49613000E-02 
   2.18776000E+02    7.35006000E-02 
   6.36916000E+01    2.48937000E-01 
   1.88282000E+01    6.02460000E-01 
   2.72023000E+00    2.56202000E-01 
SP   3    1.000000
   3.06331000E+01    1.11906000E-01   3.83119000E-02 
   7.02614000E+00    9.21666000E-01   2.37403000E-01 
   2.11205000E+00   -2.56919000E-03   8.17592000E-01 
SP   1    1.000000
   6.84009000E-01    1.00000000E+00   1.00000000E+00 
SP   1    1.000000
   2.00878000E-01    1.00000000E+00   1.00000000E+00 
SP   1    1.000000
   6.39000000E-02    1.00000000E+00   1.00000000E+00 
D    1    1.000000
   9.13000000E-01    1.00000000E+00 

11    0
S    6    1.000000
   4.56324000E+03    1.96665000E-03 
   6.82024000E+02    1.52306000E-02 
   1.54973000E+02    7.61269000E-02 
   4.44553000E+01    2.60801000E-01 
   1.30290000E+01    6.16462000E-01 
   1.82773000E+00    2.21006000E-01 
SP   3    1.000000
   2.09642000E+01    1.14660000E-01   4.02487000E-02 
   4.80331000E+00    9.19999000E-01   2.37594000E-01 
   1.45933000E+00   -3.03068000E-03   8.15854000E-01 
SP   1    1.000000
   4.83456000E-01    1.00000000E+00   1.00000000E+00 
SP   1    1.000000
   1.45585000E-01    1.00000000E+00   1.00000000E+00 
SP   1    1.000000
   4.38000000E-02    1.00000000E+00   1.00000000E+00 
D    1    1.000000
   6.26000000E-01    1.00000000E+00 

12    0
S    3    1.000000
   3.38650000E+01    2.54938000E-02 
   5.09479000E+00    1.90373000E-01 
   1.15879000E+00    8.52161000E-01 
S    1    1.000000
   3.25840000E-01    1.00000000E+00 
S    1    1.000000
   1.02741000E-01    1.00000000E+00 
S    1    1.000000
   3.60000000E-02    1.00000000E+00 
P    1    1.000000
   7.50000000E-01    1.00000000E+00 

[MO]
Sym=X
Ene= 2.006846
Spin=Alpha
Occup=1
     1   -5.613489681244e-14
     2   -3.824873882784e-14
     3   -9.502514097918e-15
     4   -1.155556020152e-14
     5   -7.998007459406e-02
     6   -4.522085996138e-14
     7   -1.905469789899e-14
     8   -8.691908585493e-15
     9   -1.388498353506e-01
    10    1.061749488579e-13
    11    1.014394610117e-13
    12    4.083678299417e-15
    13   -1.197343956771e-01
    14    8.278546166391e-13
    15   -7.102245785680e-14
    16   -3.573865950038e-13
    17   -1.290277120999e-02
    18   -6.934908292226e-15
    19   -1.226462508091e-02
    20   -1.058466409769e-02
    21   -1.596082122316e-16
    22   -3.203565967047e-15
    23    1.820213389370e-14
    24   -3.221410532450e-14
    25    6.209916909723e-13
    26   -1.162255078095e-13
    27    1.057008309177e-15
    28    8.225813113760e-17
    29    4.823293471986e-04
    30   -5.225188391857e-15
    31    2.764680662288e-14
    32   -2.544191683424e-13
    33   -2.419880260228e-13
    34   -1.506549115950e-15
    35   -1.308909914978e-15
    36   -5.840152489233e-03
    37   -1.964137930295e-14
    38   -3.686290823340e-15
    39    3.065619542726e-13
    40    2.098166661829e-14
    41    8.391742460066e-15
    42    6.943816061866e-15
    43    4.939988602493e-03
    44   -8.564061398760e-15
    45   -8.228125246791e-16
    46   -2.905327167963e-14
    47   -1.336077414847e-15
    48    9.826465510882e-02
    49   -2.773236393668e-14
    50   -4.271715135809e-14
    51   -7.297978348498e-15
    52    1.739963528831e-01
    53   -8.955831040835e-14
    54    9.146794325172e-14
    55    7.996676265745e-14
    56    1.016907952013e-01
    57   -1.636891819244e-13
    58   -2.569595377212e-13
    59   -3.138470362641e-13
    60    2.130301003015e-02
    61    3.020130110658e-15
    62   -1.877264264383e-02
    63    2.007967564910e-02
    64   -1.007718121297e-14
    65   -1.532011904382e-14
    66    7.325000575742e-15
    67    1.054903755578e-14
    68    5.418907605904e-14
    69    5.098535994959e-15
    70    2.346961303222e-01
    71   -4.081575836146e-14
    72    6.853330797882e-14
    73    1.212164101604e-14
    74    2.739321080998e-01
    75   -3.911513600423e-15
    76    4.266877806866e-14
    77    7.630201324692e-15
    78    1.696921325813e-01
    79    9.345506927286e-14
    80   -1.083398112967e-13
    81   -2.925275092918e-13
    82   -8.613612495313e-03
    83   -7.809337552722e-16
    84    1.804822797623e-02
    85   -1.165218382753e-02
    86    4.495369819141e-15
    87    6.211320611169e-17
    88    1.399060877617e-13
    89    1.103571194435e-13
    90   -1.530193767551e-14
    91    4.900678456375e-15
    92   -6.480885488979e-02
    93    1.552414361197e-14
    94   -1.330378628352e-14
    95   -5.030423212755e-16
    96   -1.149145037094e-01
    97    3.654055947254e-13
    98    1.087852009372e-14
    99    1.251946499059e-13
   100   -8.549563064936e-02
   101    3.661972527729e-13
   102   -1.033485391542e-12
   103    5.473171649814e-13
   104   -2.050224970623e-02
   105    5.157458207644e-15
   106   -1.300806368176e-02
   107    7.978601652221e-03
   108   -7.889097549464e-15
   109    6.249131372485e-15
   110    4.880223069910e-14
   111    5.089495961071e-14
   112   -2.227696458806e-14
   113    3.017379152647e-14
   114   -7.718094101107e-02
   115   -4.626963637145e-14
   116   -1.601329346605e-14
   117    3.152370283087e-14
   118   -1.216763936832e-01
   119   -1.254523917221e-13
   120   -6.305759901225e-15
   121    4.910753531284e-14
   122   -1.090150722617e-01
   123    2.006248858884e-13
   124    1.286813460735e-13
   125    6.202145684844e-15
   126    1.207791371075e-03
   127   -8.814913571320e-16
   128    7.444069547709e-03
   129    5.547649603757e-03
   130    2.714589494460e-15
   131    2.574976075950e-16
   132    3.156372986223e-14
   133    4.868606250449e-14
   134    3.350170501315e-14
   135   -4.702846378390e-15
   136    5.529705877007e-02
   137   -1.210690481329e-13
   138    3.961691258543e-14
   139    4.683507516001e-15
   140    9.215108518326e-02
   141   -2.984748075404e-13
   142    6.967577968802e-14
   143   -6.909899648792e-14
   144    9.143961542352e-02
   145   -5.380534900235e-13
   146   -8.298194412370e-13
   147   -2.726712425335e-13
   148    7.619634544013e-03
   149    5.457368397488e-15
   150   -1.226110439029e-02
   151   -1.419484197378e-03
   152    9.445923863713e-16
   153   -1.785978283547e-15
   154   -5.391163602447e-14
   155   -5.418963979628e-14
   156    2.597670440977e-15
   157   -4.591806556739e-15
   158   -2.476226532111e-03
   159    4.773180438177e-14
   160    1.806474149417e-14
   161   -7.528384588988e-15
   162   -2.905933139338e-03
   163    1.302850134799e-13
   164   -7.613647239960e-14
   165   -9.211745243420e-15
   166   -3.113741363238e-03
   167   -1.200444202929e-12
   168    6.365560854529e-13
   169   -2.997408350701e-13
   170    2.272582353275e-03
   171    3.975116804169e-16
   172   -6.324254209276e-03
   173    1.110957341857e-02
   174    7.409794267805e-15
   175    2.819723570400e-15
   176   -1.184275115162e-14
   177    4.314975865397e-15
   178   -3.659236361525e-15
   179    1.509318701749e-14
   180   -9.784553890074e-02
   181   -6.110532051926e-14
   182    5.792895781696e-15
   183    2.979615857809e-14
   184   -1.716316103856e-01
   185   -1.121698321815e-13
   186    5.768380783772e-14
   187   -4.486366063447e-14
   188   -1.383579136195e-01
   189    9.034522657541e-15
   190    7.510418538102e-13
   191    4.485177643639e-13
   192    3.202208504550e-03
   193    6.357055017524e-15
   194    1.499248666373e-02
   195   -4.283002769110e-03
   196   -1.036854704456e-14
   197    4.245273258189e-15
   198   -2.802115342874e-14
   199   -4.493613084559e-14
   200   -8.211343584061e-14
   201    6.510712539096e-14
   202    2.103963822905e-15
   203    2.788584286980e-15
   204   -7.857715468071e-03
Sym=X
Ene= 2.004063
Spin=Alpha
Occup=1
     1   -8.075490521526e-03
     2   -1.347253818634e-02
     3   -1.493508308231e-02
     4    2.481753537733e-02
     5   -1.950967498823e-14
     6    3.607542841726e-02
     7   -2.564362841996e-02
     8    4.173264084579e-02
     9   -7.354888389362e-14
    10    4.338961076537e-02
    11    8.882450212428e-04
    12    3.760296243748e-02
    13   -4.231556920396e-14
    14    1.195278507344e-01
    15   -3.196701015922e-03
    16    1.351578193249e-02
    17   -1.227155555733e-13
    18   -1.962983665170e-03
    19   -1.838311632124e-14
    20   -6.607154259540e-15
    21    8.441733495726e-03
    22   -4.728391893073e-03
    23   -4.362425674516e-03
    24    7.706641033264e-03
    25    3.353058777786e-02
    26   -2.643814921386e-02
    27    3.307469427095e-04
    28   -5.387144144224e-04
    29    1.209969430194e-14
    30   -1.613239656543e-02
    31   -2.683632059751e-02
    32   -1.316924868161e-02
    33   -7.049590492717e-03
    34   -8.479565565247e-04
    35   -2.569899696112e-04
    36    3.806177812416e-15
    37    6.059644866694e-04
    38   -1.055092856738e-02
    39   -3.439949625631e-02
    40    4.605547836638e-02
    41   -1.297856379878e-03
    42    2.974264901666e-04
    43   -1.505016797972e-14
    44    5.866649916533e-03
    45    9.756103046381e-03
    46    3.334050536558e-02
    47    1.798186517620e-02
    48    2.560166151291e-14
    49   -2.892660405600e-02
    50    5.704042809845e-02
    51    3.567525676079e-02
    52    1.550507514084e-13
    53   -3.553273960615e-02
    54   -4.012935547958e-02
    55   -6.718949702130e-02
    56   -1.588439603149e-13
    57   -3.924797600392e-02
    58   -6.493185891545e-02
    59   -7.939124078556e-02
    60   -5.234651401421e-15
    61    1.799484112879e-03
    62    2.684647539458e-14
    63    4.151458629104e-15
    64    5.495800225914e-02
    65    3.037302054630e-02
    66    2.108535336499e-03
    67    2.986344359618e-03
    68   -2.162986082291e-01
    69   -2.646226887073e-01
    70    1.226077952345e-14
    71   -9.071148277063e-03
    72   -2.485262831049e-01
    73   -3.037651464062e-01
    74    3.304233593474e-14
    75    1.519753670371e-02
    76   -1.582889467002e-01
    77   -2.168188206195e-01
    78    8.032290758419e-15
    79    1.994906834808e-02
    80    4.823391311574e-03
    81   -4.258584271636e-03
    82    4.257152063245e-14
    83    1.584495840864e-03
    84    6.415833118298e-15
    85   -3.078189001285e-15
    86   -1.428878787181e-02
    87   -2.365640447285e-03
    88    1.263145474621e-02
    89    2.112144256070e-02
    90    2.665784366951e-02
    91   -6.254092445707e-03
    92    1.693596103220e-14
    93   -5.810802032296e-02
    94    4.636943370954e-02
    95   -9.261504553716e-03
    96    5.065204218269e-14
    97   -5.343548247976e-02
    98    5.290235015686e-02
    99   -2.218809519403e-02
   100   -5.299607839177e-14
   101    2.328126291022e-01
   102    1.243167757350e-02
   103   -1.213011303389e-01
   104   -2.382507254702e-13
   105    2.208570941179e-03
   106   -1.106470621355e-14
   107    1.062627272720e-14
   108    2.297462002303e-02
   109   -1.721479245385e-03
   110   -2.908217909989e-03
   111   -4.921153978703e-03
   112    5.880963425143e-02
   113   -9.297176919541e-02
   114    3.983605984534e-14
   115    1.485942968230e-02
   116    9.086264440033e-02
   117   -1.430208548612e-01
   118    4.640291374364e-14
   119    1.184689213802e-02
   120    8.274614171069e-02
   121   -1.321041345703e-01
   122    4.498546934946e-14
   123   -2.641836565280e-02
   124    1.476602201515e-02
   125   -2.209341334499e-03
   126    1.049395055584e-13
   127   -6.378083864779e-06
   128   -1.659287706928e-15
   129    7.793068246465e-16
   130   -6.587219606913e-03
   131    2.666067928581e-03
   132   -2.166137084899e-02
   133   -3.584083255620e-02
   134   -5.676993287013e-02
   135   -1.863915739808e-02
   136    3.886027499254e-14
   137    9.499836149459e-02
   138   -8.451911904167e-02
   139   -2.011704721469e-02
   140    7.214560956761e-14
   141    1.931245499090e-01
   142   -8.279128595981e-02
   143   -4.036664297891e-02
   144    7.180422448859e-14
   145    1.905211974192e-01
   146    1.075118498925e-02
   147    3.207686939641e-03
   148    1.563935949165e-13
   149    8.458825635989e-04
   150    5.442612913235e-15
   151   -6.347127482563e-15
   152    1.589419743054e-04
   153    3.195250058619e-03
   154    1.349930442733e-02
   155    2.213322733657e-02
   156    2.436199940389e-02
   157   -5.764965445967e-02
   158    2.413647381910e-14
   159   -5.826731976958e-02
   160    4.301404168971e-02
   161   -8.274317515027e-02
   162    3.882887360777e-14
   163   -1.141084973831e-01
   164    3.732186165691e-02
   165   -8.981804060027e-02
   166    6.016653374584e-14
   167   -1.286942511242e-01
   168    1.151643416687e-02
   169    1.123041596260e-03
   170    7.941541616930e-14
   171   -7.319883585581e-04
   172   -4.408952839149e-15
   173   -4.161567423952e-15
   174    1.523944262328e-03
   175    3.075978800897e-04
   176    3.806466086346e-03
   177    6.158043396739e-03
   178   -2.734952065350e-04
   179   -1.605987754953e-02
   180   -3.650574936514e-14
   181   -1.527423504303e-02
   182   -3.033352434819e-03
   183   -2.071868745249e-02
   184   -6.300924399154e-14
   185   -5.293265937547e-02
   186    8.998622147867e-03
   187   -2.373301228625e-02
   188   -6.880815336006e-14
   189   -3.407072700129e-01
   190    3.544590303757e-02
   191   -5.810825785731e-02
   192    1.920646674633e-13
   193   -5.159213171623e-04
   194    7.110778715957e-15
   195   -2.288523940621e-15
   196    3.150757804753e-03
   197    7.611299160816e-04
   198    2.950154965859e-03
   199    6.266980369742e-03
   200    3.689501412838e-04
   201   -1.429750986907e-02
   202   -7.277270499733e-04
   203    4.712074769850e-04
   204    1.319667524798e-15
Sym=X
Ene= 2.001747
Spin=Alpha
Occup=1
     1   -2.988421858299e-13
     2   -3.419148726082e-13
     3   -1.240230156575e-13
     4    7.053492053749e-16
     5   -1.003304567187e-01
     6    4.909714714792e-13
     7   -2.211876701376e-13
     8    2.367942028827e-14
     9   -1.731610380283e-01
    10    1.506425766347e-13
    11   -6.848444890088e-14
    12   -1.307360194015e-13
    13   -1.319620708827e-01
    14   -3.997235229939e-12
    15   -1.397258927432e-12
    16   -4.660956818550e-13
    17   -1.984962225592e-02
    18   -2.407668645288e-14
    19    5.720613160692e-03
    20   -1.611105412544e-02
    21   -9.851957301397e-15
    22   -1.150025979825e-14
    23   -1.546575993214e-15
    24   -8.841174774864e-14
    25    5.612488420043e-13
    26   -2.016442146572e-13
    27    3.588056232867e-15
    28   -5.645747022116e-15
    29   -1.083719745259e-02
    30    1.114544446205e-13
    31    1.339385372840e-13
    32    2.037430109418e-14
    33   -1.040174710718e-13
    34   -3.954518420106e-15
    35    2.229687964975e-14
    36   -7.928537503982e-03
    37    9.246083139771e-14
    38    1.211526870965e-13
    39   -4.169144823438e-13
    40    2.534707057739e-13
    41    6.247122053767e-15
    42   -1.387912956015e-14
    43    4.183343673055e-03
    44   -2.168562727825e-13
    45   -1.859977980177e-13
    46   -1.319470129655e-13
    47    1.173622649536e-13
    48   -2.658302709246e-02
    49    4.825194700036e-14
    50   -2.302669843303e-13
    51    2.051224484788e-13
    52   -4.550414857892e-02
    53    1.317568637602e-13
    54   -1.295137982492e-14
    55   -6.949615496709e-15
    56   -1.744964638096e-02
    57    4.529927849725e-13
    58   -1.413081290088e-13
    59   -6.369041764760e-13
    60   -1.545971180372e-02
    61   -6.385868081749e-15
    62    3.593723075132e-03
    63    2.255594762920e-02
    64    4.025985573194e-14
    65   -2.850874502668e-14
    66    8.729063326154e-14
    67    1.286212395396e-13
    68    2.428485239402e-13
    69   -4.021332407487e-13
    70    1.158207436246e-02
    71   -4.628669319482e-13
    72    2.604960459818e-13
    73   -4.480677754045e-13
    74    1.205674823614e-02
    75   -3.643973810736e-13
    76    1.027503787929e-13
    77   -2.799416813540e-13
    78    1.084677833310e-02
    79    6.249440377506e-14
    80    8.996028914207e-15
    81   -7.726519710200e-15
    82    1.305725535740e-02
    83   -1.408900064817e-14
    84   -1.357159067724e-03
    85    1.316320784219e-03
    86    3.200389585051e-15
    87   -2.667476130134e-14
    88   -1.298529464262e-13
    89   -2.387408460657e-13
    90    6.660797294261e-14
    91   -1.257964343247e-14
    92    7.114778987930e-02
    93    7.186390430392e-13
    94    1.154370748746e-13
    95    7.263865644203e-15
    96    1.275067314218e-01
    97    6.180395731426e-13
    98    4.083904437205e-14
    99    1.487114395868e-13
   100    1.049621870755e-01
   101    4.795668586188e-12
   102    2.889967231650e-13
   103   -1.712957467377e-12
   104    2.818950529159e-02
   105   -3.084574878635e-14
   106    2.023719871895e-02
   107    2.788510659853e-02
   108   -8.037601746927e-14
   109    5.138673059711e-14
   110    2.939703927948e-13
   111    3.358289060615e-13
   112   -4.299586179013e-13
   113    1.127154611813e-13
   114    1.606904797460e-01
   115   -5.013810457921e-13
   116   -6.642462318697e-13
   117    1.784084207894e-13
   118    2.510510365714e-01
   119   -5.943397915696e-13
   120   -4.963455072937e-13
   121    2.315186113741e-13
   122    2.380901269823e-01
   123   -3.531557707365e-13
   124    3.678885368626e-14
   125    1.468492164284e-13
   126    2.956491012222e-02
   127   -1.327028053394e-14
   128   -1.271957184776e-02
   129   -8.565910926416e-03
   130    2.531973261530e-14
   131    1.924956822696e-14
   132    1.765324290745e-13
   133    1.224080281289e-13
   134    4.176394164825e-14
   135    1.027675186013e-13
   136    4.312759193066e-02
   137    1.353928168426e-13
   138    6.967045068525e-14
   139    1.546907282042e-13
   140    7.285163998632e-02
   141   -1.657483812317e-14
   142   -5.980783467875e-14
   143    1.785945229759e-13
   144    5.634740338051e-02
   145   -1.301745534121e-14
   146    8.589915566792e-14
   147    8.503116269681e-13
   148   -6.318889910787e-03
   149   -1.049629203921e-14
   150    5.881820725365e-03
   151   -1.970669006343e-03
   152    5.549286869269e-15
   153   -2.247464363682e-14
   154    3.568682272649e-13
   155    2.718086095775e-13
   156    1.226740636455e-13
   157   -1.566563535618e-13
   158   -1.409244653249e-01
   159    1.536282772315e-13
   160    1.962353307994e-13
   161   -2.529541767256e-13
   162   -2.321706951420e-01
   163    5.261320584526e-14
   164    1.309457730604e-13
   165   -1.663537030630e-13
   166   -2.083355555395e-01
   167   -6.327649884838e-13
   168    7.528450820284e-13
   169    3.297687096668e-13
   170    9.014184546380e-03
   171   -9.252421159855e-15
   172   -8.411637748600e-03
   173   -6.041327626911e-04
   174    1.037397482274e-14
   175   -2.502967092948e-14
   176    1.800577346753e-13
   177    1.209463166020e-13
   178   -7.059386773917e-14
   179    1.810843320503e-13
   180   -5.430536494182e-02
   181    1.372189520844e-13
   182   -1.202800854204e-13
   183    2.741835687711e-13
   184   -9.228275792933e-02
   185    2.031718345220e-13
   186   -1.362429370524e-13
   187    2.308853801131e-13
   188   -1.046999553048e-01
   189   -8.684861998731e-13
   190   -1.101914916808e-12
   191   -2.047973814632e-12
   192   -8.736252097238e-03
   193   -6.395584283177e-15
   194    1.579275494998e-02
   195    1.230444307061e-02
   196   -2.189635655162e-14
   197    2.289554866324e-14
   198   -1.028803359752e-13
   199   -1.381377386446e-13
   200    1.218970183991e-14
   201   -1.356327676042e-14
   202    6.385211573856e-15
   203    3.820244464548e-16
   204   -3.511237746069e-03
Sym=X
Ene= 2.001484
Spin=Alpha
Occup=1
     1   -8.514505330407e-03
     2   -1.389559670918e-02
     3   -1.997255526782e-02
     4    4.214154439126e-03
     5    1.918709720051e-13
     6    3.747514675263e-02
     7   -3.703308939117e-02
     8    8.446098612662e-03
     9    3.180333379908e-13
    10    1.793316906780e-02
    11   -2.302251120208e-02
    12   -1.037193355433e-02
    13    3.170929731584e-13
    14   -2.760474366245e-01
    15   -7.175660304806e-02
    16   -1.068816157763e-01
    17   -1.586950882273e-14
    18   -1.470098343248e-03
    19    1.431848798184e-14
    20    1.435210834140e-14
    21   -9.842187815142e-05
    22    1.329882744938e-03
    23    7.111908798981e-03
    24    8.658019213832e-03
    25    1.777056957245e-02
    26    2.493607118357e-03
    27    1.477958766863e-03
    28   -1.111241805636e-03
    29    6.685269575203e-15
    30    5.305387067670e-03
    31    3.691304765742e-03
    32   -8.333692918759e-03
    33   -5.137918305523e-02
    34   -5.202697529303e-04
    35    6.821173744435e-04
    36    1.329138175216e-14
    37    1.288891480785e-02
    38    8.090277713362e-03
    39   -6.083964812365e-03
    40   -1.711605109108e-02
    41    2.585138060790e-03
    42   -1.246052485410e-03
    43   -2.442658914341e-14
    44   -2.133673004648e-02
    45   -3.320488687113e-02
    46   -8.197525277699e-02
    47    7.341092534607e-02
    48   -1.438861753082e-13
    49    9.377043714395e-02
    50   -1.286447340189e-01
    51    1.210622826030e-01
    52   -2.145589222778e-13
    53    9.662682224239e-02
    54   -1.389632972287e-02
    55   -4.299441593108e-03
    56   -1.896910419992e-13
    57    1.518706334406e-02
    58   -9.308928731398e-03
    59   -2.678275352384e-02
    60   -2.729897481249e-14
    61   -6.490516427100e-03
    62   -3.399973277746e-14
    63   -4.156360944138e-14
    64    3.138438232283e-02
    65   -1.094630796923e-02
    66   -4.583131735630e-03
    67   -6.095551651502e-03
    68    1.086469118508e-01
    69   -2.308676133405e-01
    70   -3.472175298676e-14
    71    1.085604692053e-02
    72    1.232512969705e-01
    73   -2.635976411498e-01
    74   -4.314528473059e-14
    75   -8.257383071207e-02
    76    2.758621689371e-02
    77   -1.491103670437e-01
    78   -8.840820396853e-15
    79   -2.456877051241e-02
    80    1.422928740956e-03
    81    4.169655189001e-03
    82    5.765689078906e-14
    83   -9.997086151523e-03
    84   -1.234457396501e-14
    85    7.754969607912e-15
    86    2.409255745365e-03
    87   -1.801513957689e-02
    88   -1.665734383928e-02
    89   -2.806994573606e-02
    90    1.663012997628e-02
    91    1.880620635293e-03
    92   -3.010579072495e-13
    93    8.003825456137e-02
    94    2.877627429978e-02
    95    1.401449385319e-03
    96   -5.310225549710e-13
    97    8.286392436026e-02
    98   -3.249833111577e-02
    99    7.450087425212e-02
   100   -4.358232104187e-13
   101   -2.521653416708e-01
   102   -6.559574872057e-02
   103    1.277974116409e-01
   104   -2.201197662282e-13
   105   -3.449151312581e-03
   106   -3.519047113186e-14
   107   -1.023430152856e-13
   108   -3.438832798467e-02
   109    2.069362565754e-02
   110    1.212533316250e-02
   111    2.049878741896e-02
   112   -1.348921291722e-01
   113    1.114527434268e-01
   114   -5.487563281420e-13
   115   -6.155758302106e-02
   116   -2.065574219095e-01
   117    1.718206711523e-01
   118   -8.673362305961e-13
   119   -7.914158120866e-02
   120   -1.797942132285e-01
   121    1.727379598067e-01
   122   -7.853659204333e-13
   123   -2.192266871180e-02
   124    2.413320094474e-03
   125    1.259060352606e-02
   126   -6.810775110931e-14
   127   -2.092364843370e-03
   128    4.894481278854e-14
   129    2.781601770539e-14
   130    9.904737133944e-03
   131    3.954092242047e-04
   132    7.656260790842e-03
   133    1.333178600013e-02
   134   -1.501124884223e-02
   135    2.997322061071e-02
   136   -3.777486797413e-13
   137   -3.695111644519e-02
   138   -2.245283375154e-02
   139    4.606794214062e-02
   140   -6.223215966937e-13
   141   -9.773223549776e-02
   142   -5.223648914807e-02
   143    6.216105347024e-02
   144   -5.294956056139e-13