[Molden Format]
[Atoms] (Angs)
  C      1    6     -0.00754183     -1.75895763      0.00000000
  H      2    1     -2.09769850     -1.41880678     -0.00000000
  H      3    1     -0.13527422     -2.83956838     -0.00000000
  H      4    1      0.04053511      2.02026369      0.00000000
  C      5    6     -1.22066484      0.39918184     -0.00000000
  O      6    8     -2.25210141      1.05663720     -0.00000000
  C      7    6      1.24009552      0.27789184      0.00000000
  O      8    8      2.33767996      1.06122493      0.00000000
  N      9    7      0.03634586      1.00852936      0.00000000
  N     10    7     -1.18738304     -0.97903470     -0.00000000
  C     11    6      1.22288875     -1.12258096      0.00000000
  H     12    1      2.15640383     -1.68445878      0.00000000
[GTO]
1    0
S    6    1.000000
   4.56324000E+03    1.96665000E-03 
   6.82024000E+02    1.52306000E-02 
   1.54973000E+02    7.61269000E-02 
   4.44553000E+01    2.60801000E-01 
   1.30290000E+01    6.16462000E-01 
   1.82773000E+00    2.21006000E-01 
SP   3    1.000000
   2.09642000E+01    1.14660000E-01   4.02487000E-02 
   4.80331000E+00    9.19999000E-01   2.37594000E-01 
   1.45933000E+00   -3.03068000E-03   8.15854000E-01 
SP   1    1.000000
   4.83456000E-01    1.00000000E+00   1.00000000E+00 
SP   1    1.000000
   1.45585000E-01    1.00000000E+00   1.00000000E+00 
SP   1    1.000000
   4.38000000E-02    1.00000000E+00   1.00000000E+00 
D    1    1.000000
   6.26000000E-01    1.00000000E+00 

2    0
S    3    1.000000
   3.38650000E+01    2.54938000E-02 
   5.09479000E+00    1.90373000E-01 
   1.15879000E+00    8.52161000E-01 
S    1    1.000000
   3.25840000E-01    1.00000000E+00 
S    1    1.000000
   1.02741000E-01    1.00000000E+00 
S    1    1.000000
   3.60000000E-02    1.00000000E+00 
P    1    1.000000
   7.50000000E-01    1.00000000E+00 

3    0
S    3    1.000000
   3.38650000E+01    2.54938000E-02 
   5.09479000E+00    1.90373000E-01 
   1.15879000E+00    8.52161000E-01 
S    1    1.000000
   3.25840000E-01    1.00000000E+00 
S    1    1.000000
   1.02741000E-01    1.00000000E+00 
S    1    1.000000
   3.60000000E-02    1.00000000E+00 
P    1    1.000000
   7.50000000E-01    1.00000000E+00 

4    0
S    3    1.000000
   3.38650000E+01    2.54938000E-02 
   5.09479000E+00    1.90373000E-01 
   1.15879000E+00    8.52161000E-01 
S    1    1.000000
   3.25840000E-01    1.00000000E+00 
S    1    1.000000
   1.02741000E-01    1.00000000E+00 
S    1    1.000000
   3.60000000E-02    1.00000000E+00 
P    1    1.000000
   7.50000000E-01    1.00000000E+00 

5    0
S    6    1.000000
   4.56324000E+03    1.96665000E-03 
   6.82024000E+02    1.52306000E-02 
   1.54973000E+02    7.61269000E-02 
   4.44553000E+01    2.60801000E-01 
   1.30290000E+01    6.16462000E-01 
   1.82773000E+00    2.21006000E-01 
SP   3    1.000000
   2.09642000E+01    1.14660000E-01   4.02487000E-02 
   4.80331000E+00    9.19999000E-01   2.37594000E-01 
   1.45933000E+00   -3.03068000E-03   8.15854000E-01 
SP   1    1.000000
   4.83456000E-01    1.00000000E+00   1.00000000E+00 
SP   1    1.000000
   1.45585000E-01    1.00000000E+00   1.00000000E+00 
SP   1    1.000000
   4.38000000E-02    1.00000000E+00   1.00000000E+00 
D    1    1.000000
   6.26000000E-01    1.00000000E+00 

6    0
S    6    1.000000
   8.58850000E+03    1.89515000E-03 
   1.29723000E+03    1.43859000E-02 
   2.99296000E+02    7.07320000E-02 
   8.73771000E+01    2.40001000E-01 
   2.56789000E+01    5.94797000E-01 
   3.74004000E+00    2.80802000E-01 
SP   3    1.000000
   4.21175000E+01    1.13889000E-01   3.65114000E-02 
   9.62837000E+00    9.20811000E-01   2.37153000E-01 
   2.85332000E+00   -3.27447000E-03   8.19702000E-01 
SP   1    1.000000
   9.05661000E-01    1.00000000E+00   1.00000000E+00 
SP   1    1.000000
   2.55611000E-01    1.00000000E+00   1.00000000E+00 
SP   1    1.000000
   8.45000000E-02    1.00000000E+00   1.00000000E+00 
D    1    1.000000
   1.29200000E+00    1.00000000E+00 

7    0
S    6    1.000000
   4.56324000E+03    1.96665000E-03 
   6.82024000E+02    1.52306000E-02 
   1.54973000E+02    7.61269000E-02 
   4.44553000E+01    2.60801000E-01 
   1.30290000E+01    6.16462000E-01 
   1.82773000E+00    2.21006000E-01 
SP   3    1.000000
   2.09642000E+01    1.14660000E-01   4.02487000E-02 
   4.80331000E+00    9.19999000E-01   2.37594000E-01 
   1.45933000E+00   -3.03068000E-03   8.15854000E-01 
SP   1    1.000000
   4.83456000E-01    1.00000000E+00   1.00000000E+00 
SP   1    1.000000
   1.45585000E-01    1.00000000E+00   1.00000000E+00 
SP   1    1.000000
   4.38000000E-02    1.00000000E+00   1.00000000E+00 
D    1    1.000000
   6.26000000E-01    1.00000000E+00 

8    0
S    6    1.000000
   8.58850000E+03    1.89515000E-03 
   1.29723000E+03    1.43859000E-02 
   2.99296000E+02    7.07320000E-02 
   8.73771000E+01    2.40001000E-01 
   2.56789000E+01    5.94797000E-01 
   3.74004000E+00    2.80802000E-01 
SP   3    1.000000
   4.21175000E+01    1.13889000E-01   3.65114000E-02 
   9.62837000E+00    9.20811000E-01   2.37153000E-01 
   2.85332000E+00   -3.27447000E-03   8.19702000E-01 
SP   1    1.000000
   9.05661000E-01    1.00000000E+00   1.00000000E+00 
SP   1    1.000000
   2.55611000E-01    1.00000000E+00   1.00000000E+00 
SP   1    1.000000
   8.45000000E-02    1.00000000E+00   1.00000000E+00 
D    1    1.000000
   1.29200000E+00    1.00000000E+00 

9    0
S    6    1.000000
   6.29348000E+03    1.96979000E-03 
   9.49044000E+02    1.49613000E-02 
   2.18776000E+02    7.35006000E-02 
   6.36916000E+01    2.48937000E-01 
   1.88282000E+01    6.02460000E-01 
   2.72023000E+00    2.56202000E-01 
SP   3    1.000000
   3.06331000E+01    1.11906000E-01   3.83119000E-02 
   7.02614000E+00    9.21666000E-01   2.37403000E-01 
   2.11205000E+00   -2.56919000E-03   8.17592000E-01 
SP   1    1.000000
   6.84009000E-01    1.00000000E+00   1.00000000E+00 
SP   1    1.000000
   2.00878000E-01    1.00000000E+00   1.00000000E+00 
SP   1    1.000000
   6.39000000E-02    1.00000000E+00   1.00000000E+00 
D    1    1.000000
   9.13000000E-01    1.00000000E+00 

10    0
S    6    1.000000
   6.29348000E+03    1.96979000E-03 
   9.49044000E+02    1.49613000E-02 
   2.18776000E+02    7.35006000E-02 
   6.36916000E+01    2.48937000E-01 
   1.88282000E+01    6.02460000E-01 
   2.72023000E+00    2.56202000E-01 
SP   3    1.000000
   3.06331000E+01    1.11906000E-01   3.83119000E-02 
   7.02614000E+00    9.21666000E-01   2.37403000E-01 
   2.11205000E+00   -2.56919000E-03   8.17592000E-01 
SP   1    1.000000
   6.84009000E-01    1.00000000E+00   1.00000000E+00 
SP   1    1.000000
   2.00878000E-01    1.00000000E+00   1.00000000E+00 
SP   1    1.000000
   6.39000000E-02    1.00000000E+00   1.00000000E+00 
D    1    1.000000
   9.13000000E-01    1.00000000E+00 

11    0
S    6    1.000000
   4.56324000E+03    1.96665000E-03 
   6.82024000E+02    1.52306000E-02 
   1.54973000E+02    7.61269000E-02 
   4.44553000E+01    2.60801000E-01 
   1.30290000E+01    6.16462000E-01 
   1.82773000E+00    2.21006000E-01 
SP   3    1.000000
   2.09642000E+01    1.14660000E-01   4.02487000E-02 
   4.80331000E+00    9.19999000E-01   2.37594000E-01 
   1.45933000E+00   -3.03068000E-03   8.15854000E-01 
SP   1    1.000000
   4.83456000E-01    1.00000000E+00   1.00000000E+00 
SP   1    1.000000
   1.45585000E-01    1.00000000E+00   1.00000000E+00 
SP   1    1.000000
   4.38000000E-02    1.00000000E+00   1.00000000E+00 
D    1    1.000000
   6.26000000E-01    1.00000000E+00 

12    0
S    3    1.000000
   3.38650000E+01    2.54938000E-02 
   5.09479000E+00    1.90373000E-01 
   1.15879000E+00    8.52161000E-01 
S    1    1.000000
   3.25840000E-01    1.00000000E+00 
S    1    1.000000
   1.02741000E-01    1.00000000E+00 
S    1    1.000000
   3.60000000E-02    1.00000000E+00 
P    1    1.000000
   7.50000000E-01    1.00000000E+00 

[MO]
Sym=X
Ene= 2.013659
Spin=Alpha
Occup=1
     1   -1.400932347176e-14
     2   -1.338206335869e-14
     3    1.886908023272e-14
     4   -1.024017147659e-14
     5   -5.947764545857e-02
     6   -4.885779235726e-15
     7    4.170819660054e-14
     8   -2.769531755017e-14
     9   -1.014898322011e-01
    10   -6.005191333747e-14
    11   -2.361518648597e-13
    12    3.523098471868e-14
    13   -1.025689861320e-01
    14    8.910935967578e-12
    15    2.285927954818e-12
    16    2.170833573791e-12
    17   -1.267473323333e-02
    18   -3.318743367909e-15
    19   -1.539295934502e-02
    20   -6.398215232005e-03
    21    8.311963284683e-15
    22    1.958280040939e-15
    23   -6.019370763916e-15
    24   -1.082434840772e-14
    25   -4.787607156147e-13
    26   -9.344135281608e-13
    27   -8.371200222894e-15
    28   -5.054184412461e-15
    29    3.878879116850e-03
    30    1.796156457754e-15
    31    5.923256746350e-14
    32   -1.468731890495e-13
    33    1.000336806143e-12
    34    3.843377010617e-15
    35    7.388551474688e-15
    36   -4.565450764099e-03
    37    3.911232826457e-15
    38   -4.871157676955e-15
    39   -8.556481218313e-13
    40    8.948964303836e-13
    41   -1.520739606546e-15
    42   -7.608686765055e-15
    43   -3.117791637268e-03
    44   -1.021853748087e-14
    45   -7.890512561832e-15
    46    2.008660950483e-14
    47   -3.382429789396e-14
    48    4.244826068827e-03
    49   -1.676225753321e-14
    50    4.573986278591e-14
    51   -2.424429096258e-14
    52    1.015954603236e-02
    53    6.369826437116e-13
    54   -3.874810452935e-13
    55   -4.208493116641e-13
    56    4.079922834470e-04
    57    5.660221235673e-13
    58   -5.892397109438e-13
    59   -1.222492217726e-12
    60   -1.713251658553e-02
    61   -1.216038768874e-14
    62   -7.611211526468e-03
    63   -7.750826447372e-03
    64   -2.185512483473e-16
    65    5.930110037577e-15
    66   -3.349314554536e-14
    67   -1.665690919023e-14
    68   -2.669495878046e-14
    69   -2.728260462993e-15
    70    5.475673005583e-03
    71   -6.705729051274e-14
    72   -4.898693130864e-14
    73   -2.406710513606e-14
    74    8.749361094053e-03
    75   -1.037803985848e-13
    76   -1.207640460075e-13
    77    4.255886443394e-14
    78    5.637485997400e-03
    79   -3.799712549811e-13
    80    1.807231428211e-14
    81    4.080037534744e-13
    82    9.299833504427e-03
    83    2.286649728062e-15
    84    4.259356587271e-04
    85   -6.325324177879e-04
    86   -3.668107518692e-15
    87    1.286898663959e-15
    88   -5.082510379926e-14
    89   -4.303221448751e-14
    90    6.409302934148e-15
    91    1.239379699504e-15
    92    2.691496079336e-02
    93    1.776454712527e-14
    94   -6.676409347609e-15
    95    1.727856860304e-14
    96    4.956027378986e-02
    97   -1.233254985127e-13
    98    1.400748525001e-14
    99   -4.137109293668e-13
   100    5.161631521667e-02
   101   -6.312772631919e-12
   102    1.693414181128e-12
   103    8.354964353584e-14
   104    3.487920612480e-02
   105    1.559320739538e-14
   106    3.538195058364e-02
   107    2.925234607776e-02
   108   -3.292980875499e-15
   109    1.055632694614e-14
   110    1.229593413944e-14
   111    1.939684911228e-14
   112   -2.521916042002e-14
   113   -2.360880367546e-14
   114    3.573573725449e-01
   115   -7.058713394514e-14
   116   -5.309318088549e-14
   117    1.166094374780e-14
   118    4.084899703706e-01
   119    1.723069943613e-14
   120   -2.290648168015e-14
   121   -7.295775947079e-14
   122    2.859243336622e-01
   123    2.235560124049e-14
   124   -1.811375109056e-13
   125   -4.460585900116e-14
   126    2.988050789637e-02
   127    1.378924334131e-15
   128   -1.495012420516e-02
   129   -1.015316038626e-02
   130    3.399753464659e-15
   131   -4.468242889642e-17
   132    9.805697447366e-17
   133   -6.571397787287e-15
   134   -3.477308933705e-14
   135    1.368833370572e-14
   136   -4.613307185573e-02
   137    3.684834588940e-14
   138   -2.563186565652e-14
   139    1.663754417932e-14
   140   -7.386238238867e-02
   141   -1.055442711256e-13
   142   -1.524170054638e-13
   143    4.525606546946e-14
   144   -8.875358299353e-02
   145    6.192774250325e-12
   146    3.612263077138e-13
   147   -6.654896177351e-13
   148   -2.113813796038e-02
   149    8.501040088737e-15
   150    1.600287039333e-03
   151    9.558670216959e-04
   152   -1.787680336516e-15
   153   -3.105596027145e-15
   154    6.998728601270e-14
   155    5.605331504263e-14
   156   -4.374033834225e-15
   157    9.956962738174e-15
   158    3.530336569295e-02
   159    7.610009563332e-15
   160   -1.779452520390e-14
   161    3.390159454536e-14
   162    5.617612347619e-02
   163    1.513878348667e-13
   164    3.463189263309e-14
   165   -1.719568677369e-13
   166    8.042404130872e-02
   167   -4.042287082024e-12
   168   -1.733356889313e-12
   169   -1.223084220306e-12
   170    3.398083103227e-02
   171   -7.625219233951e-15
   172   -4.205555870665e-03
   173    3.572551471080e-03
   174   -8.578215944667e-15
   175    5.359932968942e-15
   176    8.974278846258e-16
   177   -3.085833731469e-15
   178   -2.393067181541e-14
   179   -3.445813578499e-14
   180   -7.657579528680e-02
   181    1.966410654516e-14
   182   -1.409931627355e-14
   183   -3.888134011495e-14
   184   -1.301375261637e-01
   185   -2.577808069896e-13
   186   -4.080422163708e-13
   187   -3.930338166835e-13
   188   -1.474745656775e-01
   189   -5.523536735294e-12
   190    8.504813136713e-13
   191    2.088111455044e-12
   192   -2.165865540856e-02
   193   -4.799089377906e-15
   194    1.237062523778e-02
   195    3.969324959877e-03
   196    5.341067805610e-16
   197   -4.722140429521e-15
   198    2.473532085821e-14
   199    2.289646343332e-14
   200    6.626055458155e-13
   201    2.017614350023e-13
   202    5.936104903068e-15
   203   -4.551680319700e-15
   204   -5.092718878535e-03
Sym=X
Ene= 2.003787
Spin=Alpha
Occup=1
     1    7.923924264373e-14
     2    8.337915790344e-14
     3    1.109912668270e-13
     4    1.381080199504e-14
     5    2.976772095080e-02
     6   -1.017245347310e-13
     7    1.763608359887e-13
     8   -1.803523894303e-16
     9    5.320721767756e-02
    10    3.690535486648e-13
    11    1.321627273179e-14
    12    4.612529775630e-13
    13    1.916485415672e-02
    14    1.473550349272e-11
    15    3.195122241198e-12
    16    3.267344373698e-12
    17   -6.182071391055e-04
    18    5.273158235196e-15
    19   -2.098736504657e-02
    20    7.759289560549e-03
    21    1.502638380761e-14
    22    9.840262039950e-15
    23   -6.407878306388e-15
    24    3.143168989560e-14
    25   -7.228913851328e-13
    26    2.760301608353e-13
    27   -5.590012263347e-15
    28   -2.692436295114e-15
    29    1.301414128951e-02
    30   -4.188847697204e-14
    31   -5.557083015410e-15
    32    2.104826202424e-13
    33    1.013047464198e-12
    34    9.168028202307e-15
    35   -2.778608773536e-15
    36    2.279605558172e-03
    37    1.549449748317e-14
    38   -1.169179576353e-13
    39    9.113905140943e-13
    40   -2.994010206252e-13
    41   -2.171213000579e-15
    42   -3.903970334865e-15
    43   -1.397630506137e-02
    44    7.023757424339e-14
    45    3.517649471567e-14
    46   -2.707648658387e-14
    47    1.273775270093e-14
    48    1.287190653203e-02
    49    1.153100609993e-13
    50   -2.650854350049e-14
    51    1.863491879315e-14
    52    2.363331766399e-02
    53    1.916807661787e-13
    54    3.043243713093e-13
    55   -1.589669894787e-13
    56    1.344892092944e-02
    57   -2.908398578808e-12
    58   -3.198993209391e-13
    59    1.316531919378e-12
    60   -1.631530729736e-03
    61   -1.562922378945e-14
    62   -2.360143194652e-02
    63   -2.599924836810e-02
    64   -1.636872809634e-14
    65   -1.355949696362e-14
    66    6.402249567612e-14
    67    9.618501234393e-15
    68    4.919670116748e-14
    69    6.408835628243e-14
    70    2.560774352318e-02
    71    2.594589324124e-13
    72    7.940129013623e-14
    73    9.038756007832e-14
    74    4.021473768097e-02
    75    2.724063188539e-13
    76    7.719694363561e-14
    77    1.143303827901e-13
    78    3.613740923559e-02
    79    3.177249768800e-13
    80    1.369364168096e-13
    81   -1.616073969970e-13
    82    3.183496122427e-03
    83   -2.463291874898e-15
    84    2.154158916267e-03
    85   -1.997957370920e-03
    86    7.806592892152e-15
    87   -1.451987726056e-15
    88    2.283011600756e-14
    89    5.216362121602e-14
    90    2.296757568880e-14
    91    9.087711859654e-14
    92   -9.688480058542e-02
    93   -1.808645161257e-13
    94    1.722640486606e-14
    95    1.489495794377e-13
    96   -1.740707352514e-01
    97    2.236029944284e-13
    98   -4.049948282696e-14
    99   -1.096011383323e-13
   100   -9.756733407353e-02
   101    9.830911922036e-13
   102   -1.694805501246e-12
   103    1.118908436372e-12
   104   -2.096570380042e-02
   105    3.150625888181e-15
   106    1.589571201337e-02
   107   -1.305875612903e-02
   108    3.614444319814e-14
   109   -1.030887572170e-14
   110    7.136675420428e-15
   111    9.883992682280e-15
   112    7.292285998524e-14
   113   -1.918770311350e-13
   114   -5.218664226715e-02
   115   -3.651960327464e-14
   116    8.644693857531e-14
   117   -2.239840203765e-13
   118   -6.446475610191e-02
   119   -2.507682337255e-15
   120    6.134173940531e-14
   121   -1.439375167519e-13
   122   -3.468015908640e-02
   123    5.740240909845e-14
   124    1.673779795765e-14
   125    1.695056675187e-14
   126    2.055270408378e-02
   127   -1.538255380504e-15
   128    8.588763161019e-03
   129    5.478349758189e-03
   130   -3.297922004713e-15
   131    4.052940425156e-15
   132   -7.512125277009e-14
   133   -7.129394198671e-14
   134    1.506863569025e-14
   135    3.840630825909e-15
   136   -1.774671260963e-01
   137    6.047426672244e-14
   138    1.101388042134e-14
   139    7.950349255183e-15
   140   -2.914593035749e-01
   141   -2.159665435846e-13
   142    1.172519805034e-13
   143    1.226562436386e-13
   144   -2.875189997057e-01
   145   -1.004252522858e-12
   146   -4.078789990540e-13
   147   -1.395113051411e-12
   148   -1.263861844627e-02
   149    2.196408415920e-15
   150   -8.294862764901e-03
   151    8.010861600458e-03
   152    1.090999767520e-15
   153    4.764132676162e-15
   154   -3.220446225005e-14
   155   -8.998943594618e-15
   156   -6.145599098623e-14
   157    6.180232868665e-14
   158    1.528214793469e-01
   159   -8.469152593048e-14
   160   -8.347030418591e-14
   161    1.098888716711e-13
   162    2.506302848563e-01
   163   -3.063939021560e-13
   164   -2.669808302035e-13
   165   -1.330910408145e-14
   166    2.552937935599e-01
   167   -2.949277647051e-13
   168   -1.321122507251e-12
   169   -5.364072791377e-13
   170    2.899347617037e-02
   171    1.053118758559e-14
   172    4.351890110322e-03
   173    2.061411581930e-03
   174    1.947322267671e-15
   175    8.418428926075e-15
   176   -1.211496334568e-13
   177   -1.127858361102e-13
   178    1.286460932596e-14
   179   -1.443735151028e-13
   180   -3.651417950578e-02
   181    6.331159357334e-14
   182    3.035519154093e-14
   183   -1.998389291594e-13
   184   -6.379732034475e-02
   185   -1.604659454140e-13
   186    3.153239800096e-13
   187   -4.125660123418e-13
   188   -5.389614133441e-02
   189   -1.201422143295e-11
   190    4.981525042300e-12
   191    1.340020571245e-12
   192    4.316326449874e-03
   193   -2.681953710123e-15
   194   -7.670576163270e-04
   195   -1.257962311229e-02
   196    2.085921203798e-14
   197   -3.795360666531e-15
   198    8.905819474065e-14
   199    3.812866625812e-14
   200   -2.892705547488e-13
   201   -1.163787379488e-12
   202   -1.223116553592e-15
   203   -3.459898026741e-15
   204   -2.909369680280e-03
Sym=X
Ene= 2.002658
Spin=Alpha
Occup=1
     1    9.357376046703e-03
     2    1.564926596884e-02
     3   -3.412695456507e-02
     4   -1.940805071622e-02
     5    3.745894954938e-15
     6   -4.306330092274e-02
     7   -5.668086034329e-02
     8   -3.164136788589e-02
     9    4.629101617572e-15
    10   -6.814269038667e-02
    11   -4.041290067021e-02
    12   -5.107942923224e-02
    13   -2.042494325611e-14
    14   -2.560820562987e-01
    15   -7.030326866695e-02
    16   -6.652776052059e-02
    17   -8.637135580554e-14
    18    5.620785316511e-04
    19   -2.545741139454e-14
    20    1.662742092832e-15
    21   -5.375341161737e-03
    22   -6.757283295237e-04
    23    3.408178651454e-03
    24    5.604584311156e-03
    25    8.510975517530e-03
    26    3.400225144411e-03
    27    7.408005042421e-04
    28    4.261317684189e-04
    29    1.753814930870e-14
    30    1.240381842230e-02
    31    1.568658254410e-02
    32    3.407202321258e-03
    33   -3.251711085392e-02
    34   -1.483351928168e-03
    35   -4.128068200684e-05
    36    9.724729698632e-15
    37   -3.204949318723e-03
    38    4.290718950628e-04
    39    1.014136974591e-02
    40   -4.064716912181e-02
    41   -3.008129726734e-04
    42    1.454016026944e-03
    43   -9.293912352759e-16
    44   -8.181714082788e-03
    45   -1.353391970532e-02
    46    2.822908482105e-02
    47    1.397133216071e-02
    48    2.058895471907e-15
    49    3.698345670536e-02
    50    4.794725583770e-02
    51    2.417316111420e-02
    52    5.955456425812e-14
    53    5.482331636905e-02
    54    2.697509278089e-02
    55   -1.751507402792e-02
    56   -1.800565450811e-13
    57    4.843574336977e-02
    58    5.218458782259e-03
    59    9.714087614009e-03
    60   -1.315023130814e-13
    61   -9.552623782803e-04
    62    1.346992596016e-14
    63   -5.481713275557e-14
    64    9.937231768412e-03
    65    1.221288924932e-02
    66    1.368990648791e-03
    67    2.293591478503e-03
    68   -2.526057389669e-02
    69   -2.241804355253e-02
    70   -6.608136795433e-14
    71   -6.537937410772e-03
    72   -3.790035737831e-02
    73   -3.504089132288e-02
    74   -7.934837386574e-14
    75   -4.260468471764e-04
    76   -3.732660026073e-02
    77   -3.862559137344e-02
    78   -4.999054191123e-14
    79    1.914509253370e-02
    80    6.175049614231e-03
    81   -2.887547684452e-03
    82    1.325757557593e-13
    83    3.492344690903e-04
    84   -5.794711483863e-15
    85   -4.845369898255e-16
    86   -9.674460673545e-04
    87    7.730196631863e-05
    88   -1.512275421879e-03
    89   -3.160422771382e-03
    90    1.116156673316e-02
    91   -6.343590747806e-02
    92   -6.177317088563e-14
    93    1.064847102453e-02
    94    1.603066827662e-02
    95   -1.112284912236e-01
    96   -1.097866792170e-13
    97   -2.381205879152e-03
    98   -2.736990672858e-02
    99    3.533480096351e-02
   100   -1.246351771858e-13
   101   -4.035498101789e-01
   102   -3.293235099113e-02
   103    1.842141695451e-01
   104    1.187530304766e-13
   105    1.618328366940e-03
   106   -1.599057435765e-15
   107   -1.546125464978e-15
   108   -4.630745349048e-02
   109    1.662068835885e-02
   110   -1.691727306331e-03
   111   -2.535466768748e-03
   112   -1.820325150734e-01
   113    3.192850015296e-01
   114   -4.174245285670e-14
   115    8.628057825683e-03
   116   -2.084073895631e-01
   117    3.658906996753e-01
   118   -9.310790337499e-14
   119    1.721263965944e-02
   120   -1.615912605535e-01
   121    2.601240673449e-01
   122    3.492014544133e-14
   123   -2.679791273472e-03
   124    2.905413089137e-03
   125    1.743454627656e-03
   126   -1.121416737656e-13
   127    1.259454928017e-03
   128    6.394946005428e-15
   129    6.891858918284e-15
   130    1.010346626503e-02
   131   -6.668804553463e-03
   132    1.209765128361e-02
   133    1.988056874527e-02
   134   -6.949876485775e-02
   135    6.665023800027e-03
   136   -6.919554297648e-14
   137   -5.353333268972e-02
   138   -1.121328126351e-01
   139    6.842227051266e-03
   140   -1.160300633262e-13
   141   -9.949278348899e-02
   142   -9.586488492300e-02
   143    2.344851391586e-02
   144   -4.657978718936e-14
   145   -1.076989239095e-01
   146    5.184423797928e-02
   147    1.553914111201e-02
   148   -8.290855232003e-16
   149   -2.570238347806e-05
   150   -5.089004932464e-15
   151    6.242555611896e-15
   152   -2.206701943199e-03
   153    3.806028252047e-03
   154    2.296187813261e-03
   155    3.762932186264e-03
   156    7.834043319913e-05
   157   -1.538630546912e-02
   158    1.334175677637e-13
   159   -9.764859705479e-03
   160    2.454240401990e-04
   161   -2.314806662537e-02
   162    2.114295304410e-13
   163   -2.934835420057e-02
   164    7.380627913765e-03
   165   -3.168795595182e-02
   166    2.685293584479e-13
   167    5.352699452173e-03
   168    6.295877985209e-03
   169    2.926549370428e-02
   170    1.246561547975e-13
   171   -3.244490963128e-04
   172    2.468696059012e-15
   173    4.419466306278e-15
   174   -2.266965959925e-03
   175    5.808516981481e-04
   176   -1.764971716471e-02
   177   -2.854875828898e-02
   178    3.503497229863e-02
   179    6.024436829472e-02
   180   -5.976764476375e-14
   181    6.984841630026e-02
   182    5.917473140928e-02
   183    8.510776737544e-02
   184   -1.075594351582e-13
   185    1.677276115556e-01
   186   -1.181513389080e-03
   187    8.415990707559e-02
   188   -9.598307780990e-14
   189    6.941242101185e-01
   190   -9.448556036577e-02
   191    7.978611999117e-02
   192    3.634724228075e-14
   193   -1.226782245278e-03
   194    5.228296404630e-15
   195    2.500967068756e-15
   196   -5.103433097080e-03
   197   -1.484553551557e-03
   198    1.421509878351e-02
   199    1.924969655526e-02
   200    8.875744391689e-03
   201    4.018147814486e-02
   202   -1.379818778842e-03
   203    1.798676518848e-03
   204   -8.983537416239e-15
Sym=X
Ene= 2.001619
Spin=Alpha
Occup=1
     1   -3.811096957158e-03
     2   -6.454094418366e-03
     3   -7.083907689635e-03
     4    2.570570910531e-02
     5   -2.541040269625e-14
     6    1.579571692117e-02
     7   -1.220476266768e-02
     8    4.138429796577e-02
     9   -5.423721871111e-14
    10    2.415140150891e-02
    11   -1.115574332393e-02
    12    3.718837654592e-02
    13   -1.382017573939e-13
    14    8.574660699306e-03
    15   -1.824409877146e-02
    16    1.781461033442e-02
    17   -9.060206010941e-15
    18   -1.741295615025e-03
    19   -6.553779057483e-14
    20    9.018727892042e-15
    21    5.687942760999e-03
    22    1.868022725318e-03
    23    1.206733066469e-02
    24    3.028645990502e-02
    25    2.031622878198e-02
    26   -4.221938306528e-02
    27    3.015531563694e-03
    28    2.427626629184e-03
    29    2.873651886837e-14
    30   -1.769444330027e-02
    31   -2.717383947494e-02
    32   -6.800607377817e-04
    33    1.284433923403e-02
    34   -3.942890648910e-04
    35   -1.771477104012e-03
    36   -2.310137385868e-15
    37   -1.380090784299e-02
    38   -2.287922780424e-02
    39   -2.324647686586e-02
    40    2.799137255792e-02
    41    4.100007701402e-03
    42    3.834219771978e-03
    43    1.146999991154e-14
    44    1.522957125991e-02
    45    2.419266561616e-02
    46   -3.100742866926e-02
    47   -9.349940827483e-03
    48   -3.051859409916e-15
    49   -6.537623215837e-02
    50   -5.176371581984e-02
    51   -9.764373495901e-03
    52    3.614111401422e-14
    53   -4.299482507795e-02
    54   -9.117305846359e-02
    55   -1.046704885342e-01
    56   -6.777594850002e-14
    57   -3.292783751657e-03
    58   -6.425919456926e-02
    59   -9.364333777608e-02
    60   -6.819783677269e-14
    61    2.464593037914e-03
    62    1.024560684513e-13
    63   -8.622991770212e-14
    64    6.092892800055e-02
    65    2.123243316512e-02
    66   -6.053614513090e-03
    67   -1.006464641212e-02
    68   -1.188799359841e-01
    69   -1.904052346475e-01
    70   -3.184002463683e-13
    71    2.906036961116e-02
    72   -1.849725081802e-01
    73   -2.939552947373e-01
    74   -4.973308892333e-13
    75    2.047169586285e-02
    76   -1.657457828592e-01
    77   -2.636531967425e-01
    78   -4.994258461550e-13
    79   -6.638780892361e-03
    80   -5.703552187449e-03
    81   -1.117171336311e-02
    82   -6.179852201145e-14
    83    1.717728789786e-04
    84   -1.890059606753e-14
    85    1.204957703225e-14
    86   -1.442951187533e-02
    87   -7.018499714770e-03
    88    1.082509115137e-02
    89    1.611812697974e-02
    90   -7.553336766929e-02
    91   -3.714693670336e-02
    92   -5.102830216955e-14
    93   -3.924825814132e-02
    94   -1.310084990786e-01
    95   -6.705607063482e-02
    96   -8.884488964572e-14
    97   -8.307698068876e-02
    98   -1.533354758454e-02
    99   -2.591088941916e-02
   100   -7.740045611729e-14
   101   -9.153799872436e-02
   102    2.887406500144e-02
   103    1.602911756244e-02
   104    2.773915688987e-17
   105    3.999975785420e-03
   106   -3.347206750776e-14
   107    3.634244022192e-14
   108    2.618855064149e-03
   109   -2.263025065134e-02
   110    8.866297463391e-03
   111    1.248635033809e-02
   112    1.513670502479e-01
   113    5.675284446390e-02
   114   -9.002520618264e-14
   115   -3.853806456713e-02
   116    1.751250547104e-01
   117    6.574690388771e-02
   118   -1.031702577301e-13
   119    3.524611096310e-02
   120    8.880428323080e-02
   121    2.219040713087e-02
   122   -6.592851451837e-14
   123    2.862179986502e-02
   124   -2.797549228679e-03
   125   -6.451164954778e-03
   126    1.438688529052e-14
   127    6.227145343067e-03
   128    6.930465067281e-15
   129    5.779324917347e-15
   130   -4.876130841531e-03
   131   -9.978216100928e-03
   132   -1.706203843042e-02
   133   -2.880481348851e-02
   134    1.929197352629e-02
   135   -3.960788423111e-02
   136    2.086867728310e-13
   137    7.728023718593e-02
   138    3.563394462200e-02
   139   -5.328922524724e-02
   140    3.350231208491e-13
   141    1.889572390694e-01
   142   -2.376297428626e-02
   143   -6.566532767253e-02
   144    3.890703923779e-13