[Molden Format]
[Atoms] (Angs)
  C      1    6     -0.00754183     -1.75895763      0.00000000
  H      2    1     -2.09769850     -1.41880678     -0.00000000
  H      3    1     -0.13527422     -2.83956838     -0.00000000
  H      4    1      0.04053511      2.02026369      0.00000000
  C      5    6     -1.22066484      0.39918184     -0.00000000
  O      6    8     -2.25210141      1.05663720     -0.00000000
  C      7    6      1.24009552      0.27789184      0.00000000
  O      8    8      2.33767996      1.06122493      0.00000000
  N      9    7      0.03634586      1.00852936      0.00000000
  N     10    7     -1.18738304     -0.97903470     -0.00000000
  C     11    6      1.22288875     -1.12258096      0.00000000
  H     12    1      2.15640383     -1.68445878      0.00000000
[GTO]
1    0
S    6    1.000000
   4.56324000E+03    1.96665000E-03 
   6.82024000E+02    1.52306000E-02 
   1.54973000E+02    7.61269000E-02 
   4.44553000E+01    2.60801000E-01 
   1.30290000E+01    6.16462000E-01 
   1.82773000E+00    2.21006000E-01 
SP   3    1.000000
   2.09642000E+01    1.14660000E-01   4.02487000E-02 
   4.80331000E+00    9.19999000E-01   2.37594000E-01 
   1.45933000E+00   -3.03068000E-03   8.15854000E-01 
SP   1    1.000000
   4.83456000E-01    1.00000000E+00   1.00000000E+00 
SP   1    1.000000
   1.45585000E-01    1.00000000E+00   1.00000000E+00 
SP   1    1.000000
   4.38000000E-02    1.00000000E+00   1.00000000E+00 
D    1    1.000000
   6.26000000E-01    1.00000000E+00 

2    0
S    3    1.000000
   3.38650000E+01    2.54938000E-02 
   5.09479000E+00    1.90373000E-01 
   1.15879000E+00    8.52161000E-01 
S    1    1.000000
   3.25840000E-01    1.00000000E+00 
S    1    1.000000
   1.02741000E-01    1.00000000E+00 
S    1    1.000000
   3.60000000E-02    1.00000000E+00 
P    1    1.000000
   7.50000000E-01    1.00000000E+00 

3    0
S    3    1.000000
   3.38650000E+01    2.54938000E-02 
   5.09479000E+00    1.90373000E-01 
   1.15879000E+00    8.52161000E-01 
S    1    1.000000
   3.25840000E-01    1.00000000E+00 
S    1    1.000000
   1.02741000E-01    1.00000000E+00 
S    1    1.000000
   3.60000000E-02    1.00000000E+00 
P    1    1.000000
   7.50000000E-01    1.00000000E+00 

4    0
S    3    1.000000
   3.38650000E+01    2.54938000E-02 
   5.09479000E+00    1.90373000E-01 
   1.15879000E+00    8.52161000E-01 
S    1    1.000000
   3.25840000E-01    1.00000000E+00 
S    1    1.000000
   1.02741000E-01    1.00000000E+00 
S    1    1.000000
   3.60000000E-02    1.00000000E+00 
P    1    1.000000
   7.50000000E-01    1.00000000E+00 

5    0
S    6    1.000000
   4.56324000E+03    1.96665000E-03 
   6.82024000E+02    1.52306000E-02 
   1.54973000E+02    7.61269000E-02 
   4.44553000E+01    2.60801000E-01 
   1.30290000E+01    6.16462000E-01 
   1.82773000E+00    2.21006000E-01 
SP   3    1.000000
   2.09642000E+01    1.14660000E-01   4.02487000E-02 
   4.80331000E+00    9.19999000E-01   2.37594000E-01 
   1.45933000E+00   -3.03068000E-03   8.15854000E-01 
SP   1    1.000000
   4.83456000E-01    1.00000000E+00   1.00000000E+00 
SP   1    1.000000
   1.45585000E-01    1.00000000E+00   1.00000000E+00 
SP   1    1.000000
   4.38000000E-02    1.00000000E+00   1.00000000E+00 
D    1    1.000000
   6.26000000E-01    1.00000000E+00 

6    0
S    6    1.000000
   8.58850000E+03    1.89515000E-03 
   1.29723000E+03    1.43859000E-02 
   2.99296000E+02    7.07320000E-02 
   8.73771000E+01    2.40001000E-01 
   2.56789000E+01    5.94797000E-01 
   3.74004000E+00    2.80802000E-01 
SP   3    1.000000
   4.21175000E+01    1.13889000E-01   3.65114000E-02 
   9.62837000E+00    9.20811000E-01   2.37153000E-01 
   2.85332000E+00   -3.27447000E-03   8.19702000E-01 
SP   1    1.000000
   9.05661000E-01    1.00000000E+00   1.00000000E+00 
SP   1    1.000000
   2.55611000E-01    1.00000000E+00   1.00000000E+00 
SP   1    1.000000
   8.45000000E-02    1.00000000E+00   1.00000000E+00 
D    1    1.000000
   1.29200000E+00    1.00000000E+00 

7    0
S    6    1.000000
   4.56324000E+03    1.96665000E-03 
   6.82024000E+02    1.52306000E-02 
   1.54973000E+02    7.61269000E-02 
   4.44553000E+01    2.60801000E-01 
   1.30290000E+01    6.16462000E-01 
   1.82773000E+00    2.21006000E-01 
SP   3    1.000000
   2.09642000E+01    1.14660000E-01   4.02487000E-02 
   4.80331000E+00    9.19999000E-01   2.37594000E-01 
   1.45933000E+00   -3.03068000E-03   8.15854000E-01 
SP   1    1.000000
   4.83456000E-01    1.00000000E+00   1.00000000E+00 
SP   1    1.000000
   1.45585000E-01    1.00000000E+00   1.00000000E+00 
SP   1    1.000000
   4.38000000E-02    1.00000000E+00   1.00000000E+00 
D    1    1.000000
   6.26000000E-01    1.00000000E+00 

8    0
S    6    1.000000
   8.58850000E+03    1.89515000E-03 
   1.29723000E+03    1.43859000E-02 
   2.99296000E+02    7.07320000E-02 
   8.73771000E+01    2.40001000E-01 
   2.56789000E+01    5.94797000E-01 
   3.74004000E+00    2.80802000E-01 
SP   3    1.000000
   4.21175000E+01    1.13889000E-01   3.65114000E-02 
   9.62837000E+00    9.20811000E-01   2.37153000E-01 
   2.85332000E+00   -3.27447000E-03   8.19702000E-01 
SP   1    1.000000
   9.05661000E-01    1.00000000E+00   1.00000000E+00 
SP   1    1.000000
   2.55611000E-01    1.00000000E+00   1.00000000E+00 
SP   1    1.000000
   8.45000000E-02    1.00000000E+00   1.00000000E+00 
D    1    1.000000
   1.29200000E+00    1.00000000E+00 

9    0
S    6    1.000000
   6.29348000E+03    1.96979000E-03 
   9.49044000E+02    1.49613000E-02 
   2.18776000E+02    7.35006000E-02 
   6.36916000E+01    2.48937000E-01 
   1.88282000E+01    6.02460000E-01 
   2.72023000E+00    2.56202000E-01 
SP   3    1.000000
   3.06331000E+01    1.11906000E-01   3.83119000E-02 
   7.02614000E+00    9.21666000E-01   2.37403000E-01 
   2.11205000E+00   -2.56919000E-03   8.17592000E-01 
SP   1    1.000000
   6.84009000E-01    1.00000000E+00   1.00000000E+00 
SP   1    1.000000
   2.00878000E-01    1.00000000E+00   1.00000000E+00 
SP   1    1.000000
   6.39000000E-02    1.00000000E+00   1.00000000E+00 
D    1    1.000000
   9.13000000E-01    1.00000000E+00 

10    0
S    6    1.000000
   6.29348000E+03    1.96979000E-03 
   9.49044000E+02    1.49613000E-02 
   2.18776000E+02    7.35006000E-02 
   6.36916000E+01    2.48937000E-01 
   1.88282000E+01    6.02460000E-01 
   2.72023000E+00    2.56202000E-01 
SP   3    1.000000
   3.06331000E+01    1.11906000E-01   3.83119000E-02 
   7.02614000E+00    9.21666000E-01   2.37403000E-01 
   2.11205000E+00   -2.56919000E-03   8.17592000E-01 
SP   1    1.000000
   6.84009000E-01    1.00000000E+00   1.00000000E+00 
SP   1    1.000000
   2.00878000E-01    1.00000000E+00   1.00000000E+00 
SP   1    1.000000
   6.39000000E-02    1.00000000E+00   1.00000000E+00 
D    1    1.000000
   9.13000000E-01    1.00000000E+00 

11    0
S    6    1.000000
   4.56324000E+03    1.96665000E-03 
   6.82024000E+02    1.52306000E-02 
   1.54973000E+02    7.61269000E-02 
   4.44553000E+01    2.60801000E-01 
   1.30290000E+01    6.16462000E-01 
   1.82773000E+00    2.21006000E-01 
SP   3    1.000000
   2.09642000E+01    1.14660000E-01   4.02487000E-02 
   4.80331000E+00    9.19999000E-01   2.37594000E-01 
   1.45933000E+00   -3.03068000E-03   8.15854000E-01 
SP   1    1.000000
   4.83456000E-01    1.00000000E+00   1.00000000E+00 
SP   1    1.000000
   1.45585000E-01    1.00000000E+00   1.00000000E+00 
SP   1    1.000000
   4.38000000E-02    1.00000000E+00   1.00000000E+00 
D    1    1.000000
   6.26000000E-01    1.00000000E+00 

12    0
S    3    1.000000
   3.38650000E+01    2.54938000E-02 
   5.09479000E+00    1.90373000E-01 
   1.15879000E+00    8.52161000E-01 
S    1    1.000000
   3.25840000E-01    1.00000000E+00 
S    1    1.000000
   1.02741000E-01    1.00000000E+00 
S    1    1.000000
   3.60000000E-02    1.00000000E+00 
P    1    1.000000
   7.50000000E-01    1.00000000E+00 

[MO]
Sym=X
Ene= 2.006899
Spin=Alpha
Occup=1
     1    5.348828933596e-14
     2    3.212128188742e-14
     3    1.726828541719e-15
     4    6.411188701374e-15
     5    8.807361264230e-02
     6    6.596451353894e-14
     7    6.134520742386e-15
     8    1.082933497025e-15
     9    1.529262630234e-01
    10   -9.941587801106e-14
    11   -1.097003278156e-13
    12   -1.924561597256e-14
    13    1.314506105804e-01
    14   -8.154222092315e-13
    15    1.066872179404e-13
    16    2.963402597445e-13
    17    1.382103695945e-02
    18    5.347232955104e-15
    19    1.294520256734e-02
    20    1.218857337241e-02
    21   -9.537741451390e-16
    22    2.804136298723e-15
    23   -1.698136336789e-14
    24    4.009767389920e-14
    25   -6.341522496243e-13
    26    1.205549294368e-13
    27    1.041471660105e-15
    28    3.930550165178e-16
    29   -1.231316340052e-04
    30    1.448379490889e-14
    31   -1.319132815249e-14
    32    2.396935030050e-13
    33    2.135970523692e-13
    34    1.719659306645e-15
    35    2.561594251630e-15
    36    6.295879291862e-03
    37    2.213374232538e-14
    38    7.441787293913e-15
    39   -2.846973293067e-13
    40   -3.832186526324e-14
    41   -8.512239139088e-15
    42   -7.182134075096e-15
    43   -5.043738806518e-03
    44    1.192207432375e-14
    45    1.710772415396e-15
    46    2.720114868087e-14
    47    1.284885017689e-15
    48   -9.631438027804e-02
    49    3.785192635705e-14
    50    3.941669024238e-14
    51    7.516013973487e-15
    52   -1.712618750289e-01
    53    8.944910694482e-14
    54   -9.669580214253e-14
    55   -7.109085200721e-14
    56   -1.003347450783e-01
    57    1.961677161453e-13
    58    2.723875965041e-13
    59    3.213517213278e-13
    60   -1.971342523694e-02
    61   -3.822066132196e-15
    62    1.824955449686e-02
    63   -2.045160296471e-02
    64    6.906628555541e-15
    65    1.337290586836e-14
    66   -9.682957254647e-15
    67   -1.403011928405e-14
    68   -4.067183961686e-14
    69    6.451589579374e-15
    70   -2.299022641650e-01
    71    5.270507774743e-14
    72   -5.250314113330e-14
    73    1.100489600472e-15
    74   -2.683158079619e-01
    75    5.444578758149e-15
    76   -3.451526669595e-14
    77    3.342183913709e-15
    78   -1.651225937987e-01
    79   -1.113536156242e-13
    80    1.001455667956e-13
    81    2.916812665082e-13
    82    7.752118940457e-03
    83    3.914655039597e-16
    84   -1.771960686628e-02
    85    1.186676119440e-02
    86   -3.353638303485e-15
    87    6.835722632987e-18
    88   -1.321291750243e-13
    89   -1.009082929062e-13
    90    1.132159756528e-14
    91   -1.329608409231e-14
    92    6.107511276285e-02
    93   -3.103149571865e-14
    94    7.489153892414e-15
    95   -1.454576780351e-14
    96    1.081329541979e-01
    97   -3.794859933420e-13
    98   -1.122191043765e-14
    99   -1.253380627996e-13
   100    7.903221968670e-02
   101   -8.360740521937e-13
   102    1.004219380179e-12
   103   -3.912499914766e-13
   104    1.851469093741e-02
   105   -3.870020156744e-15
   106    1.093204394870e-02
   107   -1.061310235854e-02
   108    6.411848636319e-15
   109   -6.671271718897e-15
   110   -5.219516890242e-14
   111   -5.339334107983e-14
   112    3.073348954447e-14
   113   -2.327334925723e-14
   114    6.385154839460e-02
   115    4.413899389048e-14
   116    3.003516330656e-14
   117   -2.173931554247e-14
   118    1.009257677544e-01
   119    1.238903168610e-13
   120    1.403556039661e-14
   121   -3.976941062619e-14
   122    8.880863190013e-02
   123   -1.700503845845e-13
   124   -1.278149155305e-13
   125   -1.755291087811e-14
   126   -4.607973423635e-03
   127    1.594184960005e-15
   128   -6.513915562645e-03
   129   -4.940978003203e-03
   130   -3.595463872412e-15
   131   -1.195952253287e-15
   132   -2.934093951281e-14
   133   -4.517637403456e-14
   134   -3.564931845356e-14
   135    8.932740963040e-15
   136   -5.662335508875e-02
   137    1.131201184974e-13
   138   -4.381039780336e-14
   139    2.280611442940e-15
   140   -9.454758200977e-02
   141    2.875782322068e-13
   142   -6.885824090377e-14
   143    6.980250482608e-14
   144   -9.264061975819e-02
   145    5.274099258595e-13
   146    8.091017424222e-13
   147    2.329785432977e-13
   148   -7.005769193605e-03
   149   -5.338584407164e-15
   150    1.180158660526e-02
   151    1.671789337873e-03
   152   -1.572953966398e-15
   153    2.343276664196e-15
   154    4.595262606021e-14
   155    4.275049532765e-14
   156    1.392463425818e-15
   157    3.472900241328e-15
   158    8.107529171908e-03
   159   -2.195972254088e-14
   160   -1.075297384997e-14
   161    5.627008515690e-15
   162    1.237386827678e-02
   163   -1.037518695900e-13
   164    8.506943998771e-14
   165    1.333866553653e-14
   166    1.001436722900e-02
   167    1.205005702577e-12
   168   -6.599182869662e-13
   169    2.839566253964e-13
   170   -3.828307898114e-03
   171   -5.359278140420e-16
   172    6.989356687571e-03
   173   -1.104467355867e-02
   174   -7.264997931504e-15
   175   -4.143960161751e-15
   176    1.328576355388e-14
   177   -7.896670718090e-16
   178    6.727654818918e-16
   179   -8.227312715417e-15
   180    1.052250929662e-01
   181    4.976423785356e-14
   182   -1.055015471836e-14
   183   -1.974488913214e-14
   184    1.841462371803e-01
   185    1.126188475220e-13
   186   -7.038647357829e-14
   187    5.177957973428e-14
   188    1.532761674849e-01
   189    4.080243846271e-13
   190   -7.651247104707e-13
   191   -2.678078837738e-13
   192   -2.551959091253e-03
   193   -6.064118562097e-15
   194   -1.668957027960e-02
   195    3.739948673406e-03
   196    9.365256537611e-15
   197   -3.733568469064e-15
   198    2.066179521578e-14
   199    3.450839982010e-14
   200    8.860853683359e-14
   201   -1.751861433975e-14
   202   -7.828850035771e-16
   203   -3.021959846765e-15
   204    8.255021013155e-03
Sym=X
Ene= 2.003704
Spin=Alpha
Occup=1
     1   -8.569378416264e-03
     2   -1.425176488521e-02
     3   -1.611149909419e-02
     4    2.675209792968e-02
     5   -1.513653874865e-14
     6    3.798866121268e-02
     7   -2.764369313783e-02
     8    4.506622334438e-02
     9   -6.554793426640e-14
    10    4.615103510458e-02
    11    8.419674825037e-04
    12    4.176338271532e-02
    13   -3.772170212008e-14
    14    1.355501556466e-01
    15   -3.968557250038e-03
    16    1.785748432535e-02
    17   -1.228027791714e-13
    18   -2.065514294835e-03
    19   -1.831232133675e-14
    20   -6.105279871028e-15
    21    8.762322811691e-03
    22   -4.934381587122e-03
    23   -4.823253123081e-03
    24    7.137033497944e-03
    25    2.975998469370e-02
    26   -3.591902295021e-02
    27    2.615243264646e-04
    28   -7.505610815024e-04
    29    1.232534712220e-14
    30   -1.736752648502e-02
    31   -2.811448826825e-02
    32   -1.307310738755e-02
    33   -8.058704789681e-03
    34   -9.364947072322e-04
    35   -3.220940287981e-04
    36    4.123414387979e-15
    37   -2.610565321006e-03
    38   -1.479552683175e-02
    39   -3.146305917263e-02
    40    4.859717211063e-02
    41   -1.345853515322e-03
    42    8.597016763399e-04
    43   -1.521513670031e-14
    44    4.719347581240e-03
    45    8.146177969543e-03
    46    3.226282107055e-02
    47    2.435493152665e-02
    48    2.023223162960e-14
    49   -2.546219462489e-02
    50    5.605818321588e-02
    51    4.541129111761e-02
    52    1.468097619839e-13
    53   -3.234623125212e-02
    54   -4.288548993732e-02
    55   -6.713555000287e-02
    56   -1.658122071005e-13
    57   -2.820601180889e-02
    58   -6.557104129340e-02
    59   -7.915371743638e-02
    60   -1.084331306582e-15
    61    1.601876903543e-03
    62    2.826353263602e-14
    63    2.022016882884e-15
    64    5.694429329729e-02
    65    2.975715380623e-02
    66   -2.156542787590e-03
    67   -3.197662009416e-03
    68   -2.116785185270e-01
    69   -2.665226141488e-01
    70   -2.491165165765e-15
    71    1.216598561454e-02
    72   -2.426365408988e-01
    73   -3.057905687161e-01
    74    1.581474476086e-14
    75    2.145619780235e-02
    76   -1.558042234719e-01
    77   -2.155879046926e-01
    78   -1.356708867002e-15
    79    1.687634582894e-02
    80    5.331416033006e-03
    81   -3.550124823716e-03
    82    3.766442842413e-14
    83    1.028584506382e-03
    84    5.389604469713e-15
    85   -2.314086174622e-15
    86   -1.414540839938e-02
    87   -2.597120808840e-03
    88    1.238222260299e-02
    89    2.067122564449e-02
    90    2.685071164291e-02
    91   -6.315183210651e-03
    92    1.905265023434e-14
    93   -5.673249611301e-02
    94    4.704347552001e-02
    95   -9.540784823054e-03
    96    5.423916949024e-14
    97   -5.331526738953e-02
    98    5.313834131178e-02
    99   -2.166460772553e-02
   100   -5.039482092532e-14
   101    2.415441699075e-01
   102    1.188079165972e-02
   103   -1.229266227592e-01
   104   -2.419243434300e-13
   105    2.196366580326e-03
   106   -1.015774746126e-14
   107    1.027943273764e-14
   108    2.285317122110e-02
   109   -1.105776294748e-03
   110   -2.924027231988e-03
   111   -4.948935326370e-03
   112    5.708138026521e-02
   113   -9.191248826659e-02
   114    4.396651611684e-14
   115    1.489481463437e-02
   116    8.825488205200e-02
   117   -1.413842251980e-01
   118    5.291897694434e-14
   119    1.165412669911e-02
   120    8.021236171401e-02
   121   -1.302260759283e-01
   122    5.130695902176e-14
   123   -2.700634834116e-02
   124    1.444251027198e-02
   125   -1.697812127720e-03
   126    1.059468037264e-13
   127   -2.817013271251e-05
   128   -1.844915879462e-15
   129    3.919745106862e-16
   130   -6.518660320121e-03
   131    2.702391601974e-03
   132   -2.112228651901e-02
   133   -3.490097858671e-02
   134   -5.899770272191e-02
   135   -2.210454976018e-02
   136    3.391634094038e-14
   137    9.219064743600e-02
   138   -8.794405093441e-02
   139   -2.566675077410e-02
   140    6.418492484311e-14
   141    1.916597530923e-01
   142   -8.517816947304e-02
   143   -4.521867394013e-02
   144    6.349461560297e-14
   145    1.864502510888e-01
   146    1.161062701164e-02
   147   -1.433176953574e-03
   148    1.572619874006e-13
   149    9.213489008771e-04
   150    6.129107918002e-15
   151   -6.117462765203e-15
   152    6.903712742797e-04
   153    3.369999912829e-03
   154    1.465692361311e-02
   155    2.397224248148e-02
   156    2.586685869546e-02
   157   -6.207319737898e-02
   158    2.777890134481e-14
   159   -6.273142727184e-02
   160    4.532012491490e-02
   161   -8.979632206522e-02
   162    4.489779981732e-14
   163   -1.194383591787e-01
   164    3.785161920424e-02
   165   -9.598991200870e-02
   166    6.697982891694e-14
   167   -1.351327380292e-01
   168    7.042150221626e-03
   169   -9.892829636577e-04
   170    7.907670956341e-14
   171   -5.493049823718e-04
   172   -3.785751234211e-15
   173   -4.991609996285e-15
   174    2.233829712536e-03
   175    5.199599860669e-05
   176    3.796336725328e-03
   177    6.145830430490e-03
   178   -1.116985398126e-03
   179   -1.551053999139e-02
   180   -3.291269611460e-14
   181   -1.520314694449e-02
   182   -4.224854578373e-03
   183   -1.988682291591e-02
   184   -5.650181437379e-14
   185   -5.473766944573e-02
   186    9.801111564249e-03
   187   -2.377079921019e-02
   188   -6.351744486892e-14
   189   -3.567037744418e-01
   190    3.868949636770e-02
   191   -6.200171873233e-02
   192    1.938966972514e-13
   193   -4.900043890805e-04
   194    6.386607765518e-15
   195   -1.968271842638e-15
   196    3.305841171916e-03
   197    7.696981178429e-04
   198    2.266343861390e-03
   199    5.058525542659e-03
   200   -4.854429362939e-04
   201   -1.510390052993e-02
   202   -6.213282635393e-04
   203    3.522493042864e-04
   204    1.925248012286e-15
Sym=X
Ene= 2.001754
Spin=Alpha
Occup=1
     1    3.176554532220e-13
     2    3.636699014378e-13
     3    1.318817334273e-13
     4   -3.286605588903e-15
     5    1.032971104240e-01
     6   -5.233506173969e-13
     7    2.396189452963e-13
     8   -2.914133128367e-14
     9    1.781742966610e-01
    10   -2.623735434081e-13
    11    7.593356730455e-14
    12    6.631616374014e-14
    13    1.327679897310e-01
    14    3.030850231494e-12
    15    1.189401287202e-12
    16    1.873420946181e-13
    17    2.239679872293e-02
    18    2.340100475613e-14
    19   -6.241480280649e-03
    20    1.828744050278e-02
    21    1.311278922488e-14
    22    8.347320278847e-15
    23    1.696773298840e-15
    24    9.332405486972e-14
    25   -4.650165847232e-13
    26    1.949956584540e-13
    27   -1.709402100454e-15
    28    7.076549237776e-15
    29    1.123654964012e-02
    30   -1.168617862787e-13
    31   -1.421219189032e-13
    32   -7.800497975417e-14
    33    9.288274680409e-15
    34    4.050174780256e-15
    35   -2.339626295703e-14
    36    7.871803950021e-03
    37   -1.492403933807e-13
    38   -1.544744546808e-13
    39    4.154215086994e-13
    40   -2.186121779058e-13
    41   -5.695528187889e-15
    42    2.250301912471e-14
    43   -1.219172577830e-03
    44    2.210799421232e-13
    45    2.188732123760e-13
    46    2.293771086053e-13
    47   -2.079268736206e-13
    48    5.491723328480e-02
    49   -2.191923420586e-13
    50    3.790357076246e-13
    51   -3.532292507225e-13
    52    9.517718829221e-02
    53   -3.375838883631e-13
    54   -1.690849881981e-14
    55    5.270804659786e-14
    56    4.423824946552e-02
    57   -3.288497549689e-13
    58    1.422729303060e-13
    59    5.557033827046e-13
    60    2.432316667873e-02
    61    1.888398496988e-14
    62   -1.742074930893e-03
    63   -2.040670552053e-02
    64   -7.009179257612e-14
    65    3.883418542306e-14
    66   -6.035603797183e-14
    67   -9.043040840310e-14
    68   -3.850476028318e-13
    69    6.351549460877e-13
    70    2.024623956764e-02
    71    3.434337791727e-13
    72   -4.240785215315e-13
    73    7.175543663601e-13
    74    2.611675576387e-02
    75    4.180972979463e-13
    76   -1.409566219327e-13
    77    4.179360956889e-13
    78    1.006310390631e-02
    79   -1.086806916612e-13
    80   -5.549359395616e-14
    81   -1.551009654324e-15
    82   -1.742578444224e-02
    83    2.742705513144e-14
    84    4.985636833973e-03
    85   -3.651012917058e-03
    86   -7.111817740196e-15
    87    4.958717992370e-14
    88    1.734958028347e-13
    89    2.979383791367e-13
    90   -1.449348022205e-13
    91    8.343822752341e-15
    92   -5.063869919043e-02
    93   -8.457855116835e-13
    94   -2.429327362790e-13
    95   -1.970692614516e-14
    96   -9.153003512957e-02
    97   -8.019630234928e-13
    98    8.447813677958e-15
    99   -1.287713724045e-13
   100   -8.447657154600e-02
   101   -5.241265271949e-12
   102   -1.839185584447e-13
   103    1.778890457486e-12
   104   -1.777798066676e-02
   105    3.759522688443e-14
   106   -2.258086068801e-02
   107   -2.450997757307e-02
   108    1.104218760989e-13
   109   -8.484657131357e-14
   110   -2.720194301217e-13
   111   -3.051432916917e-13
   112    5.743137130710e-13
   113   -1.621180665421e-13
   114   -1.424332998890e-01
   115    4.365748625981e-13
   116    8.890117614068e-13
   117   -2.560427732994e-13
   118   -2.221804523146e-01
   119    5.584932574825e-13
   120    6.826947361029e-13
   121   -3.248999299266e-13
   122   -2.126708461129e-01
   123    4.293671417690e-13
   124   -3.805029181767e-14
   125   -1.717466534922e-13
   126   -2.997522652028e-02
   127    1.837427543840e-14
   128    1.070995894464e-02
   129    7.267300820207e-03
   130   -3.414763479612e-14
   131   -2.605834670026e-14
   132   -1.103593394594e-13
   133   -6.595480914806e-14
   134    2.254373564726e-15
   135   -1.832600629159e-13
   136   -1.722194171800e-03
   137   -1.426934651552e-13
   138   -2.190563200592e-15
   139   -2.780391819722e-13
   140   -4.460398548199e-03
   141    1.125409940664e-13
   142    1.291297883655e-13
   143   -3.558977291291e-13
   144    5.032694415754e-03
   145    2.168285916214e-13
   146   -2.119021968794e-13
   147   -8.783998322748e-13
   148   -7.083453920244e-04
   149    1.212051876099e-14
   150   -7.120137461176e-03
   151   -9.910466233231e-04
   152   -7.759352556526e-15
   153    2.545528461350e-14
   154   -2.757959089259e-13
   155   -2.190302672205e-13
   156   -1.172078642377e-13
   157    1.981627778694e-13
   158    1.570994228992e-01
   159   -7.376748828169e-14
   160   -1.890481991244e-13
   161    3.142696532338e-13
   162    2.590968067338e-01
   163    1.181537110879e-13
   164   -9.297116420219e-14
   165    2.460193372828e-13
   166    2.317314357057e-01
   167    6.198645520883e-13
   168   -6.066114838668e-13
   169   -3.291917512995e-13
   170   -1.661921120350e-02
   171    7.692416382069e-15
   172    9.407556692981e-03
   173    3.707712534622e-03
   174   -1.258006650984e-14
   175    2.977073185976e-14
   176   -1.712491475319e-13
   177   -1.128831027753e-13
   178    9.616970113201e-14
   179   -2.258896783603e-13
   180    5.908426709345e-02
   181   -1.435829669179e-13
   182    1.598986772850e-13
   183   -3.408655588647e-13
   184    1.003829348825e-01
   185   -1.481865701978e-13
   186    1.056967944254e-13
   187   -2.502842974151e-13
   188    1.084641654309e-01
   189    2.081224158632e-12
   190    8.231138831890e-13
   191    2.076818108718e-12
   192   -1.098317934461e-04
   193    4.874943240746e-15
   194   -1.651912282369e-02
   195   -9.957854699331e-03
   196    2.433973161157e-14
   197   -3.213168775460e-14
   198    1.405519176074e-13
   199    2.143949853708e-13
   200    9.769936694905e-15
   201    6.071734735252e-14
   202   -1.176539341935e-14
   203    3.642611765920e-15
   204    3.651346397121e-03
Sym=X
Ene= 2.001544
Spin=Alpha
Occup=1
     1    8.409476998831e-03
     2    1.385063619072e-02
     3    2.091896915258e-02
     4    1.943527132707e-04
     5   -3.661191310314e-13
     6   -3.758926301483e-02
     7    3.843919182356e-02
     8   -1.655364233872e-03
     9   -6.208477501880e-13
    10   -2.404464440948e-02
    11    2.206309084179e-02
    12    1.222205732446e-02
    13   -5.280443813378e-13
    14    2.755733772878e-01
    15    7.092242729938e-02
    16    1.058417914263e-01
    17   -3.005035068656e-14
    18    1.287051731416e-03
    19   -4.292054341705e-15
    20   -4.970837137971e-14
    21    1.113001877495e-03
    22   -1.455607077252e-03
    23   -5.586324941739e-03
    24   -5.170578919820e-03
    25   -1.462336544907e-02
    26    4.505230748219e-03
    27   -1.174397843503e-03
    28    1.015179533930e-03
    29   -2.727809561973e-14
    30   -9.011655785189e-03
    31   -9.784716643184e-03
    32    7.715451811964e-03
    33    4.937997817015e-02
    34    4.761198252028e-04
    35   -1.186518473101e-03
    36   -2.563288357109e-14
    37   -1.434102567821e-02
    38   -9.490484182110e-03
    39    8.887601734229e-03
    40    2.306647939096e-02
    41   -2.437477164336e-03
    42    1.384086712031e-03
    43    1.574106184673e-14
    44    2.335510044151e-02
    45    3.644934206432e-02
    46    8.576356824619e-02
    47   -7.393923143387e-02
    48   -3.415771539738e-14
    49   -1.030388851408e-01
    50    1.347946503421e-01
    51   -1.215248256790e-01
    52   -9.196072855831e-14
    53   -1.059248096166e-01
    54    1.575803071632e-02
    55    4.372004302661e-03
    56    3.214023620263e-14
    57   -4.522140503554e-02
    58    2.864768769243e-03
    59    3.237064819551e-02
    60   -4.288976551925e-14
    61    6.780184325116e-03
    62    3.452502192732e-14
    63    6.383687940389e-14
    64   -3.008243133415e-02
    65    1.211571565216e-02
    66    7.488048992226e-03
    67    1.030992798476e-02
    68   -1.172831015121e-01
    69    2.251296297294e-01
    70   -1.170151044460e-13
    71   -2.493044467355e-02
    72   -1.334221474730e-01
    73    2.571959558153e-01
    74   -1.403449654637e-13
    75    8.032596863123e-02
    76   -3.185671450333e-02
    77    1.417540802265e-01
    78   -8.929637744829e-14
    79    2.836880609272e-02
    80   -8.892359491455e-04
    81   -4.923695351096e-03
    82   -1.453516270441e-14
    83    1.051459379829e-02
    84   -7.797541768928e-15
    85    5.795180343038e-15
    86   -2.638057189360e-03
    87    1.871505615204e-02
    88    1.725151444544e-02
    89    2.915470937965e-02
    90   -2.079860351881e-02
    91   -8.414621254885e-04
    92    2.890688771752e-13
    93   -8.347794621713e-02
    94   -3.598148275334e-02
    95   -3.383046918132e-04
    96    5.136912872025e-13
    97   -9.200665780245e-02
    98    3.180414933083e-02
    99   -7.155471233222e-02
   100    4.680383119629e-13
   101    2.555901235077e-01
   102    6.204094626733e-02
   103   -1.281447415553e-01
   104    2.028407209113e-13
   105    3.318779449438e-03
   106    7.180348451338e-14
   107    1.263973137692e-13
   108    3.406668195395e-02
   109   -2.128149925618e-02
   110   -1.261384658225e-02
   111   -2.136731256259e-02
   112    1.347806482291e-01
   113   -1.050914258096e-01
   114    6.697250184453e-13
   115    6.438209937116e-02
   116    2.063713191947e-01
   117   -1.620327656937e-01
   118    1.054065772264e-12
   119    8.355555196819e-02
   120    1.779479537424e-01
   121   -1.646876368230e-01
   122    9.731909366814e-13
   123    2.469202852572e-02
   124   -2.869133081673e-03
   125   -1.219371894071e-02
   126    1.096188407683e-13
   127    2.269342044840e-03
   128   -5.557804318990e-14
   129   -3.233111754435e-14
   130   -9.708833166308e-03
   131   -8.655451512432e-04
   132   -9.028953428298e-03
   133   -1.556421518921e-02
   134    1.555993550676e-02
   135   -3.350787758364e-02
   136    2.449239911612e-13
   137    4.278062384285e-02
   138    2.353142393789e-02
   139   -5.163985292616e-02
   140    4.049141631860e-13
   141    1.038206511430e-01
   142    5.178477762828e-02
   143   -6.819448530132e-02
   144    3.272517140449e-13