[Molden Format]
[Atoms] (Angs)
  C      1    6     -0.00754183     -1.75895763      0.00000000
  H      2    1     -2.09769850     -1.41880678     -0.00000000
  H      3    1     -0.13527422     -2.83956838     -0.00000000
  H      4    1      0.04053511      2.02026369      0.00000000
  C      5    6     -1.22066484      0.39918184     -0.00000000
  O      6    8     -2.25210141      1.05663720     -0.00000000
  C      7    6      1.24009552      0.27789184      0.00000000
  O      8    8      2.33767996      1.06122493      0.00000000
  N      9    7      0.03634586      1.00852936      0.00000000
  N     10    7     -1.18738304     -0.97903470     -0.00000000
  C     11    6      1.22288875     -1.12258096      0.00000000
  H     12    1      2.15640383     -1.68445878      0.00000000
[GTO]
1    0
S    6    1.000000
   4.56324000E+03    1.96665000E-03 
   6.82024000E+02    1.52306000E-02 
   1.54973000E+02    7.61269000E-02 
   4.44553000E+01    2.60801000E-01 
   1.30290000E+01    6.16462000E-01 
   1.82773000E+00    2.21006000E-01 
SP   3    1.000000
   2.09642000E+01    1.14660000E-01   4.02487000E-02 
   4.80331000E+00    9.19999000E-01   2.37594000E-01 
   1.45933000E+00   -3.03068000E-03   8.15854000E-01 
SP   1    1.000000
   4.83456000E-01    1.00000000E+00   1.00000000E+00 
SP   1    1.000000
   1.45585000E-01    1.00000000E+00   1.00000000E+00 
SP   1    1.000000
   4.38000000E-02    1.00000000E+00   1.00000000E+00 
D    1    1.000000
   6.26000000E-01    1.00000000E+00 

2    0
S    3    1.000000
   3.38650000E+01    2.54938000E-02 
   5.09479000E+00    1.90373000E-01 
   1.15879000E+00    8.52161000E-01 
S    1    1.000000
   3.25840000E-01    1.00000000E+00 
S    1    1.000000
   1.02741000E-01    1.00000000E+00 
S    1    1.000000
   3.60000000E-02    1.00000000E+00 
P    1    1.000000
   7.50000000E-01    1.00000000E+00 

3    0
S    3    1.000000
   3.38650000E+01    2.54938000E-02 
   5.09479000E+00    1.90373000E-01 
   1.15879000E+00    8.52161000E-01 
S    1    1.000000
   3.25840000E-01    1.00000000E+00 
S    1    1.000000
   1.02741000E-01    1.00000000E+00 
S    1    1.000000
   3.60000000E-02    1.00000000E+00 
P    1    1.000000
   7.50000000E-01    1.00000000E+00 

4    0
S    3    1.000000
   3.38650000E+01    2.54938000E-02 
   5.09479000E+00    1.90373000E-01 
   1.15879000E+00    8.52161000E-01 
S    1    1.000000
   3.25840000E-01    1.00000000E+00 
S    1    1.000000
   1.02741000E-01    1.00000000E+00 
S    1    1.000000
   3.60000000E-02    1.00000000E+00 
P    1    1.000000
   7.50000000E-01    1.00000000E+00 

5    0
S    6    1.000000
   4.56324000E+03    1.96665000E-03 
   6.82024000E+02    1.52306000E-02 
   1.54973000E+02    7.61269000E-02 
   4.44553000E+01    2.60801000E-01 
   1.30290000E+01    6.16462000E-01 
   1.82773000E+00    2.21006000E-01 
SP   3    1.000000
   2.09642000E+01    1.14660000E-01   4.02487000E-02 
   4.80331000E+00    9.19999000E-01   2.37594000E-01 
   1.45933000E+00   -3.03068000E-03   8.15854000E-01 
SP   1    1.000000
   4.83456000E-01    1.00000000E+00   1.00000000E+00 
SP   1    1.000000
   1.45585000E-01    1.00000000E+00   1.00000000E+00 
SP   1    1.000000
   4.38000000E-02    1.00000000E+00   1.00000000E+00 
D    1    1.000000
   6.26000000E-01    1.00000000E+00 

6    0
S    6    1.000000
   8.58850000E+03    1.89515000E-03 
   1.29723000E+03    1.43859000E-02 
   2.99296000E+02    7.07320000E-02 
   8.73771000E+01    2.40001000E-01 
   2.56789000E+01    5.94797000E-01 
   3.74004000E+00    2.80802000E-01 
SP   3    1.000000
   4.21175000E+01    1.13889000E-01   3.65114000E-02 
   9.62837000E+00    9.20811000E-01   2.37153000E-01 
   2.85332000E+00   -3.27447000E-03   8.19702000E-01 
SP   1    1.000000
   9.05661000E-01    1.00000000E+00   1.00000000E+00 
SP   1    1.000000
   2.55611000E-01    1.00000000E+00   1.00000000E+00 
SP   1    1.000000
   8.45000000E-02    1.00000000E+00   1.00000000E+00 
D    1    1.000000
   1.29200000E+00    1.00000000E+00 

7    0
S    6    1.000000
   4.56324000E+03    1.96665000E-03 
   6.82024000E+02    1.52306000E-02 
   1.54973000E+02    7.61269000E-02 
   4.44553000E+01    2.60801000E-01 
   1.30290000E+01    6.16462000E-01 
   1.82773000E+00    2.21006000E-01 
SP   3    1.000000
   2.09642000E+01    1.14660000E-01   4.02487000E-02 
   4.80331000E+00    9.19999000E-01   2.37594000E-01 
   1.45933000E+00   -3.03068000E-03   8.15854000E-01 
SP   1    1.000000
   4.83456000E-01    1.00000000E+00   1.00000000E+00 
SP   1    1.000000
   1.45585000E-01    1.00000000E+00   1.00000000E+00 
SP   1    1.000000
   4.38000000E-02    1.00000000E+00   1.00000000E+00 
D    1    1.000000
   6.26000000E-01    1.00000000E+00 

8    0
S    6    1.000000
   8.58850000E+03    1.89515000E-03 
   1.29723000E+03    1.43859000E-02 
   2.99296000E+02    7.07320000E-02 
   8.73771000E+01    2.40001000E-01 
   2.56789000E+01    5.94797000E-01 
   3.74004000E+00    2.80802000E-01 
SP   3    1.000000
   4.21175000E+01    1.13889000E-01   3.65114000E-02 
   9.62837000E+00    9.20811000E-01   2.37153000E-01 
   2.85332000E+00   -3.27447000E-03   8.19702000E-01 
SP   1    1.000000
   9.05661000E-01    1.00000000E+00   1.00000000E+00 
SP   1    1.000000
   2.55611000E-01    1.00000000E+00   1.00000000E+00 
SP   1    1.000000
   8.45000000E-02    1.00000000E+00   1.00000000E+00 
D    1    1.000000
   1.29200000E+00    1.00000000E+00 

9    0
S    6    1.000000
   6.29348000E+03    1.96979000E-03 
   9.49044000E+02    1.49613000E-02 
   2.18776000E+02    7.35006000E-02 
   6.36916000E+01    2.48937000E-01 
   1.88282000E+01    6.02460000E-01 
   2.72023000E+00    2.56202000E-01 
SP   3    1.000000
   3.06331000E+01    1.11906000E-01   3.83119000E-02 
   7.02614000E+00    9.21666000E-01   2.37403000E-01 
   2.11205000E+00   -2.56919000E-03   8.17592000E-01 
SP   1    1.000000
   6.84009000E-01    1.00000000E+00   1.00000000E+00 
SP   1    1.000000
   2.00878000E-01    1.00000000E+00   1.00000000E+00 
SP   1    1.000000
   6.39000000E-02    1.00000000E+00   1.00000000E+00 
D    1    1.000000
   9.13000000E-01    1.00000000E+00 

10    0
S    6    1.000000
   6.29348000E+03    1.96979000E-03 
   9.49044000E+02    1.49613000E-02 
   2.18776000E+02    7.35006000E-02 
   6.36916000E+01    2.48937000E-01 
   1.88282000E+01    6.02460000E-01 
   2.72023000E+00    2.56202000E-01 
SP   3    1.000000
   3.06331000E+01    1.11906000E-01   3.83119000E-02 
   7.02614000E+00    9.21666000E-01   2.37403000E-01 
   2.11205000E+00   -2.56919000E-03   8.17592000E-01 
SP   1    1.000000
   6.84009000E-01    1.00000000E+00   1.00000000E+00 
SP   1    1.000000
   2.00878000E-01    1.00000000E+00   1.00000000E+00 
SP   1    1.000000
   6.39000000E-02    1.00000000E+00   1.00000000E+00 
D    1    1.000000
   9.13000000E-01    1.00000000E+00 

11    0
S    6    1.000000
   4.56324000E+03    1.96665000E-03 
   6.82024000E+02    1.52306000E-02 
   1.54973000E+02    7.61269000E-02 
   4.44553000E+01    2.60801000E-01 
   1.30290000E+01    6.16462000E-01 
   1.82773000E+00    2.21006000E-01 
SP   3    1.000000
   2.09642000E+01    1.14660000E-01   4.02487000E-02 
   4.80331000E+00    9.19999000E-01   2.37594000E-01 
   1.45933000E+00   -3.03068000E-03   8.15854000E-01 
SP   1    1.000000
   4.83456000E-01    1.00000000E+00   1.00000000E+00 
SP   1    1.000000
   1.45585000E-01    1.00000000E+00   1.00000000E+00 
SP   1    1.000000
   4.38000000E-02    1.00000000E+00   1.00000000E+00 
D    1    1.000000
   6.26000000E-01    1.00000000E+00 

12    0
S    3    1.000000
   3.38650000E+01    2.54938000E-02 
   5.09479000E+00    1.90373000E-01 
   1.15879000E+00    8.52161000E-01 
S    1    1.000000
   3.25840000E-01    1.00000000E+00 
S    1    1.000000
   1.02741000E-01    1.00000000E+00 
S    1    1.000000
   3.60000000E-02    1.00000000E+00 
P    1    1.000000
   7.50000000E-01    1.00000000E+00 

[MO]
Sym=X
Ene= 2.005492
Spin=Alpha
Occup=1
     1   -7.290908660079e-14
     2   -5.281499893322e-14
     3   -6.802966566542e-15
     4   -1.272089957326e-14
     5   -8.851839650963e-02
     6   -4.239193715157e-14
     7   -1.512195515482e-14
     8   -1.128008343219e-14
     9   -1.512122341133e-01
    10    1.114961900233e-13
    11    9.250602040362e-14
    12    1.501228699823e-14
    13   -1.384915909506e-01
    14    1.566807230900e-12
    15    8.719576485155e-14
    16   -1.275069317947e-13
    17   -1.694472381529e-02
    18   -6.409296951121e-15
    19   -1.170154907993e-02
    20   -1.112152214871e-02
    21   -3.588308452439e-16
    22   -2.149699562845e-15
    23    2.381037405092e-14
    24   -2.088515750422e-14
    25    5.324120431184e-13
    26   -1.295685629856e-13
    27    1.537824567305e-15
    28    6.832410341709e-16
    29    3.576532961856e-04
    30   -2.802863214307e-15
    31    3.315850960262e-14
    32   -2.355787014841e-13
    33   -1.563303348465e-13
    34   -1.163836435444e-15
    35   -7.725629032849e-16
    36   -7.017837326657e-03
    37   -1.460670062453e-14
    38   -5.329420271756e-15
    39    2.859073397249e-13
    40    4.908600365340e-14
    41    8.048382705181e-15
    42    6.179280276920e-15
    43    5.323624534955e-03
    44   -2.737289969555e-14
    45   -1.169110255455e-14
    46   -3.633693727565e-14
    47   -5.773771187459e-15
    48    9.704655982755e-02
    49   -5.456514113580e-14
    50   -5.513212577225e-14
    51   -1.372630427920e-14
    52    1.720749858619e-01
    53   -6.283239453239e-14
    54    8.043168578485e-14
    55    5.208812530052e-14
    56    1.033707071086e-01
    57   -2.844764499653e-13
    58   -2.875266073265e-13
    59   -2.765748343083e-13
    60    1.846202659381e-02
    61    3.474566020905e-15
    62   -1.944326826648e-02
    63    2.133251924018e-02
    64   -1.306922413333e-14
    65   -1.555846828357e-14
    66    1.073995362279e-14
    67    1.567051326117e-14
    68    5.659085129597e-14
    69    1.481549607791e-14
    70    2.269118619943e-01
    71   -5.748402774104e-14
    72    7.025005199359e-14
    73    2.266341779723e-14
    74    2.662252881355e-01
    75   -1.218576586779e-14
    76    4.660818230313e-14
    77    1.759556030776e-14
    78    1.692886680579e-01
    79    8.791284994241e-14
    80   -8.891091547852e-14
    81   -2.583052928905e-13
    82   -5.370241516483e-03
    83   -5.829130809587e-16
    84    1.765703153112e-02
    85   -1.122611066244e-02
    86    3.792638322226e-15
    87    2.814350891243e-16
    88    1.846035974087e-13
    89    1.464500896129e-13
    90   -1.347980464983e-14
    91    8.166456294907e-15
    92   -6.230390157709e-02
    93    2.194737062903e-14
    94   -1.250959441166e-14
    95    6.625855366375e-15
    96   -1.091148424968e-01
    97    3.544747877137e-13
    98    2.009423996019e-15
    99    9.249744052051e-14
   100   -8.438255756129e-02
   101    4.634801191296e-13
   102   -9.425533588155e-13
   103    4.623923035150e-13
   104   -1.785481013127e-02
   105    4.490888290823e-15
   106   -8.035523070594e-03
   107    1.053089757873e-02
   108   -8.734916074714e-15
   109    5.701778303202e-15
   110    5.754102192638e-14
   111    6.091111699610e-14
   112   -2.921674309265e-14
   113    2.902744379140e-14
   114   -5.956146703779e-02
   115   -6.080551668352e-14
   116   -2.819753166436e-14
   117    3.137609404461e-14
   118   -9.407760924844e-02
   119   -1.272554294998e-13
   120   -1.768933752407e-14
   121    4.526191956466e-14
   122   -8.243444843123e-02
   123    1.730231402801e-13
   124    1.075113979890e-13
   125    1.265318519850e-14
   126    4.760428750804e-03
   127   -7.983232287233e-16
   128    6.017141082311e-03
   129    4.345981421482e-03
   130    3.182873806148e-15
   131    5.348781889169e-16
   132    4.115005385333e-14
   133    5.782679851165e-14
   134    4.242724023875e-14
   135    3.983452331604e-15
   136    5.181621615941e-02
   137   -1.247487705115e-13
   138    5.481010098134e-14
   139    1.710880213412e-14
   140    8.639022984381e-02
   141   -3.022997923890e-13
   142    7.667623651629e-14
   143   -4.404234955795e-14
   144    8.476990205622e-02
   145   -3.395986953481e-13
   146   -7.626074196487e-13
   147   -3.071131628531e-13
   148    8.392257789333e-03
   149    5.749531419806e-15
   150   -1.252368281319e-02
   151   -5.454266996734e-04
   152   -1.783619587532e-16
   153   -2.978299146713e-15
   154   -6.186490176870e-14
   155   -6.150489892785e-14
   156   -5.786762437157e-15
   157   -5.151572303742e-15
   158   -8.087561947376e-03
   159    5.178120437697e-14
   160    3.188588287970e-15
   161   -8.472140802519e-15
   162   -1.201740445338e-02
   163    1.223015087373e-13
   164   -8.432610984637e-14
   165   -1.676737753162e-14
   166   -1.058647861406e-02
   167   -1.218832992418e-12
   168    5.004309815318e-13
   169   -3.180484845302e-13
   170    6.160199139952e-03
   171    2.665489787918e-16
   172   -7.209868840064e-03
   173    1.097283507233e-02
   174    7.707415280793e-15
   175    2.459945469486e-15
   176   -1.304345560896e-14
   177    4.650062398277e-15
   178   -9.358337793354e-15
   179    1.611041377131e-14
   180   -1.050013210855e-01
   181   -6.683920881936e-14
   182   -3.651285075443e-15
   183    3.102268389751e-14
   184   -1.816420237399e-01
   185   -1.383564452160e-13
   186    4.908575159483e-14
   187   -5.771416120475e-14
   188   -1.545060713668e-01
   189   -7.868266218714e-13
   190    9.101332084751e-13
   191    4.144838374015e-13
   192   -2.900833850845e-04
   193    6.609784441285e-15
   194    1.528035732126e-02
   195   -3.436611300293e-03
   196   -9.495331659671e-15
   197    4.352041460932e-15
   198   -3.348285689529e-14
   199   -5.621502113687e-14
   200   -7.618173644070e-14
   201   -2.474568959135e-14
   202    2.941554464243e-15
   203    1.505660700320e-15
   204   -8.786803011963e-03
Sym=X
Ene= 2.003388
Spin=Alpha
Occup=1
     1   -1.121391621879e-02
     2   -1.780381608573e-02
     3   -2.224254412739e-02
     4    2.422205148979e-02
     5   -2.739742995628e-14
     6    4.406677419317e-02
     7   -3.710916812039e-02
     8    4.121387691096e-02
     9   -8.446348721963e-14
    10    4.579650425336e-02
    11   -1.029656796781e-03
    12    3.462464723343e-02
    13   -4.735366973021e-14
    14    1.110152408807e-01
    15   -9.869275099981e-03
    16    1.357333887068e-02
    17   -1.112301181283e-13
    18   -2.559088545829e-03
    19   -1.428980661609e-14
    20   -8.265182322788e-15
    21    7.569327626195e-03
    22   -5.795379870631e-03
    23   -1.156731729969e-02
    24   -1.754199760932e-03
    25    3.262203390167e-02
    26   -2.723963943616e-02
    27   -5.595176761870e-04
    28   -1.840767954020e-03
    29    9.195662630514e-15
    30   -1.346395051215e-02
    31   -2.312397080598e-02
    32   -1.505385558226e-02
    33   -8.003445266732e-03
    34   -1.147465807856e-03
    35    3.144731444332e-04
    36    2.772099312881e-15
    37    5.713087701997e-03
    38   -4.208564052199e-03
    39   -3.872486668010e-02
    40    4.366134427442e-02
    41   -2.551888824828e-03
    42   -6.264973669432e-04
    43   -1.269321061992e-14
    44    4.114739020947e-03
    45    6.835000119511e-03
    46    3.942003518810e-02
    47    3.070028470024e-02
    48    2.524133880695e-14
    49   -2.006179336480e-02
    50    6.655471928697e-02
    51    5.725179184889e-02
    52    1.468302676308e-13
    53   -2.830370256041e-02
    54   -3.614532884006e-02
    55   -6.097429962740e-02
    56   -1.488839812903e-13
    57   -2.855104879144e-02
    58   -5.763601287342e-02
    59   -7.472579533632e-02
    60   -4.351664232338e-14
    61    1.520525423598e-03
    62    2.100325424330e-14
    63    7.979741079462e-15
    64    5.245876760956e-02
    65    2.886522603001e-02
    66    4.594781393141e-03
    67    6.641807219859e-03
    68   -1.961857162697e-01
    69   -2.496151750565e-01
    70    3.522726704710e-14
    71   -2.156254784387e-02
    72   -2.268864155879e-01
    73   -2.878407173028e-01
    74    5.875315160735e-14
    75    4.594869069924e-03
    76   -1.502154391678e-01
    77   -2.104503420994e-01
    78    1.866260856063e-14
    79    1.478498588857e-02
    80    1.348318829353e-03
    81   -6.930846106324e-03
    82    8.497298817735e-14
    83    1.511056117007e-03
    84    6.803327851718e-15
    85   -3.459149497016e-15
    86   -1.183844570017e-02
    87   -2.125464175660e-03
    88    1.448673446996e-02
    89    2.289919390544e-02
    90    3.783324691387e-02
    91   -1.657894246757e-02
    92    1.923598022327e-14
    93   -5.786537579481e-02
    94    6.490028561619e-02
    95   -2.487969466002e-02
    96    5.412088794774e-14
    97   -4.496960364908e-02
    98    5.627855289014e-02
    99   -2.041546092643e-02
   100   -4.745282282224e-14
   101    2.656515594833e-01
   102    1.997570203661e-02
   103   -1.341884582351e-01
   104   -1.919066290454e-13
   105    2.818062336833e-03
   106   -8.097428497936e-15
   107    1.059411189254e-14
   108    2.136797962365e-02
   109    1.129745006087e-03
   110   -4.389442557238e-03
   111   -7.373164796795e-03
   112    6.114252624798e-02
   113   -1.006966019578e-01
   114    4.718046989580e-14
   115    2.204205392599e-02
   116    9.441006111602e-02
   117   -1.549743725763e-01
   118    5.798771284354e-14
   119    1.451807774786e-02
   120    9.027162059776e-02
   121   -1.450410226866e-01
   122    6.197292383194e-14
   123   -3.396100453764e-02
   124    1.770906094132e-02
   125   -4.585153155405e-03
   126    9.011196982520e-14
   127    4.889844995189e-05
   128   -2.195395957931e-15
   129    4.342166804594e-16
   130   -7.064371977039e-03
   131    3.294456668794e-03
   132   -2.064918780670e-02
   133   -3.406207957767e-02
   134   -7.299393576859e-02
   135   -9.972300360560e-03
   136    3.600503638437e-14
   137    8.952729928495e-02
   138   -1.105752961656e-01
   139   -6.377498393658e-03
   140    6.632773186722e-14
   141    1.826021381256e-01
   142   -1.032724341422e-01
   143   -2.703062200489e-02
   144    6.828042569027e-14
   145    1.856779692374e-01
   146    1.227929270511e-02
   147    8.885462310214e-03
   148    1.423335061071e-13
   149    6.788067015542e-04
   150    4.870890321591e-15
   151   -5.114199413804e-15
   152    6.812250342999e-04
   153    4.611333090981e-03
   154    1.529068893607e-02
   155    2.461865325311e-02
   156    3.576617512833e-02
   157   -6.306448733074e-02
   158    1.260162164785e-16
   159   -6.271106893466e-02
   160    6.121206343971e-02
   161   -9.184428260881e-02
   162   -5.280970373803e-16
   163   -1.138392483690e-01
   164    5.239680765961e-02
   165   -9.774866782782e-02
   166    2.115278179060e-14
   167   -1.243414346108e-01
   168    1.282342420256e-02
   169    4.657386974632e-03
   170    7.811239957804e-14
   171   -2.214006291590e-04
   172   -5.183071358507e-15
   173   -3.506369178738e-15
   174    2.059255289131e-03
   175   -2.233639117559e-04
   176    2.649368882077e-03
   177    4.192316389703e-03
   178    2.766629466919e-03
   179   -8.470386034799e-03
   180   -3.674943228153e-14
   181   -9.825384969209e-03
   182    1.181618167450e-03
   183   -8.404782024140e-03
   184   -6.124369707488e-14
   185   -4.934960597641e-02
   186    1.106955005545e-02
   187   -1.569351231338e-02
   188   -7.420903397482e-14
   189   -3.629029480598e-01
   190    3.073238397953e-02
   191   -7.287934402627e-02
   192    1.688688965206e-13
   193   -8.043723003927e-04
   194    7.501376694714e-15
   195   -7.329830800563e-16
   196    1.902830552126e-03
   197    1.404694676774e-03
   198    2.483667213272e-03
   199    6.084230691537e-03
   200   -9.795828234945e-04
   201   -1.568238441998e-02
   202   -8.143271823342e-04
   203    1.036014986365e-03
   204    5.777120369219e-16
Sym=X
Ene= 2.001168
Spin=Alpha
Occup=1
     1    2.554811444130e-13
     2    2.421753443400e-13
     3    5.030953725506e-14
     4   -6.867964377206e-14
     5    6.464953973650e-02
     6   -1.557894544797e-13
     7    9.167019492411e-14
     8   -1.138265158540e-13
     9    1.096884917687e-01
    10    1.402818356928e-13
    11   -6.863300246199e-15
    12    9.908291063854e-14
    13    9.492622135432e-02
    14    3.472598422527e-12
    15    1.177028739074e-12
    16    3.670905525724e-13
    17    1.044446328780e-02
    18    7.904545298668e-15
    19   -3.346433485953e-03
    20    8.167547963404e-03
    21    2.458926590212e-15
    22    1.941831580444e-14
    23    4.072875702412e-14
    24    1.164701187173e-13
    25   -5.713666513908e-13
    26    1.304052158937e-13
    27    3.694830398292e-15
    28    3.912138882263e-15
    29    6.558792554379e-03
    30    1.622268461021e-14
    31    5.994724007349e-14
    32    1.372211233394e-14
    33    4.321974176648e-14
    34    3.727075456762e-15
    35    5.212131907788e-16
    36    5.713484619569e-03
    37   -3.338822770315e-14
    38   -8.860433759776e-14
    39    3.056755117195e-13
    40   -1.809149894931e-13
    41   -7.503526028025e-15
    42    6.909326959440e-15
    43   -6.799066008559e-03
    44    2.086976275126e-13
    45    1.485977595422e-13
    46   -7.626284075272e-15
    47    5.742121106787e-14
    48   -7.773636111128e-03
    49    1.332023805797e-13
    50    1.629443525860e-14
    51    8.041518296937e-14
    52   -1.478691061422e-02
    53    1.453737526997e-13
    54    3.655712507096e-14
    55   -5.016621135747e-14
    56   -6.501221225123e-03
    57   -2.935378984266e-13
    58    1.237126983085e-13
    59    4.712300715421e-13
    60    3.840477420335e-03
    61   -8.728663692382e-15
    62   -5.606862396070e-03
    63   -1.817979037691e-02
    64    1.384411235324e-14
    65    1.195253258088e-14
    66   -1.091111678845e-13
    67   -1.591755221149e-13
    68   -1.756697580753e-14
    69    2.412926547963e-14
    70   -3.347739029552e-02
    71    5.473959707223e-13
    72   -2.947981346142e-15
    73    1.495416487142e-14
    74   -3.872244530036e-02
    75    2.457469464516e-13
    76   -3.662764549065e-14
    77    4.012019824071e-14
    78   -2.477651719473e-02
    79   -3.473960093871e-14
    80    3.327152891579e-14
    81    3.716727294446e-14
    82   -7.458599294309e-03
    83   -5.203630273312e-15
    84   -2.151080703554e-03
    85    9.953555083546e-04
    86    5.802315371991e-15
    87   -5.845544082479e-15
    88    3.404329753404e-13
    89    3.417120966346e-13
    90    3.807215798796e-14
    91   -5.531275476849e-14
    92   -1.030104258462e-01
    93   -3.161147241971e-13
    94    6.021473402621e-14
    95   -1.048611891613e-13
    96   -1.817170283672e-01
    97   -2.150150015621e-13
    98   -9.147749566104e-14
    99   -1.773489793197e-13
   100   -1.385714781943e-01
   101   -3.940810058478e-12
   102   -2.429013975536e-13
   103    1.313456926147e-12
   104   -4.472214167354e-02
   105    1.499552124647e-14
   106   -1.820749305054e-02
   107   -2.869325750732e-02
   108    2.129719880202e-14
   109   -3.497945155471e-15
   110   -2.252456067178e-13
   111   -2.547721356846e-13
   112    1.861147084876e-13
   113   -5.086905526031e-14
   114   -1.959440493246e-01
   115    3.599036957907e-13
   116    2.880428419180e-13
   117   -8.073391324623e-14
   118   -3.056926469810e-01
   119    4.183791203500e-13
   120    2.004598746860e-13
   121   -9.878247133956e-14
   122   -2.924950400372e-01
   123    2.283044500247e-13
   124   -2.872275045853e-14
   125   -8.710754927308e-14
   126   -3.793705412424e-02
   127    5.918866831247e-15
   128    1.562105915353e-02
   129    9.846691404681e-03
   130   -1.361231330285e-14
   131   -5.764822310549e-15
   132   -1.979273765900e-13
   133   -1.379414233568e-13
   134   -1.121872225993e-13
   135   -1.212914673720e-14
   136   -8.028022167196e-02
   137   -1.462181674143e-13
   138   -1.750443238086e-13
   139   -1.650958504950e-14
   140   -1.334035911560e-01
   141   -1.425010034223e-13
   142   -7.712853723762e-14
   143    3.208941090719e-14
   144   -1.094299768844e-01
   145    9.146263840800e-15
   146    7.545411646037e-14
   147   -6.396647142400e-13
   148    1.792287029193e-02
   149    7.214460940960e-15
   150   -4.841612821954e-03
   151    4.992857662592e-03
   152   -2.401957471957e-16
   153    1.255656083365e-14
   154   -6.442133741254e-13
   155   -5.079270517891e-13
   156   -1.181297656322e-13
   157    3.107113710637e-15
   158    7.882036128297e-02
   159   -1.798988347396e-13
   160   -1.823787849231e-13
   161    1.293551581611e-14
   162    1.294580275371e-01
   163   -2.345157648931e-13
   164   -1.862615130656e-13
   165   -3.710005090012e-14
   166    1.180787253936e-01
   167    3.905449181593e-13
   168   -8.003108351852e-13
   169   -2.733801256114e-13
   170   -4.934470617471e-04
   171    6.486764147700e-15
   172    4.553408944968e-03
   173   -1.271461796349e-03
   174   -1.682277446279e-15
   175    1.030611005096e-14
   176   -3.716345133900e-13
   177   -3.149375015734e-13
   178    5.610667921398e-14
   179   -5.114682891639e-14
   180    2.471583983440e-02
   181    4.267877645101e-14
   182    9.465030166882e-14
   183   -7.422730136849e-14
   184    3.926390335524e-02
   185   -1.407694225420e-13
   186    1.405017952077e-13
   187   -1.470384940246e-13
   188    6.986057441971e-02
   189    4.701179687267e-13
   190    8.524114734294e-13
   191    1.734443371935e-12
   192    2.489988279298e-02
   193    1.420581385812e-15
   194   -9.667454128042e-03
   195   -1.486296375460e-02
   196    8.745113834070e-16
   197   -8.067390893523e-15
   198    7.003051316791e-14
   199    6.801828299512e-14
   200   -9.407687625094e-15
   201    9.399699290355e-14
   202   -4.462917317474e-15
   203    2.509529656733e-15
   204    1.646400453181e-03
Sym=X
Ene= 2.000826
Spin=Alpha
Occup=1
     1   -9.155905599076e-03
     2   -1.324811517857e-02
     3   -1.985109608930e-02
     4    8.739045607198e-03
     5   -1.910975539480e-13
     6    3.106170614802e-02
     7   -3.635450315694e-02
     8    1.578285671203e-02
     9   -3.383124577681e-13
    10    2.957965208017e-02
    11   -1.635067699185e-02
    12    8.231488365331e-03
    13   -1.454901295447e-13
    14   -2.538835098530e-01
    15   -6.649118261785e-02
    16   -9.868575229259e-02
    17   -9.271697812871e-14
    18   -1.047959795215e-03
    19    4.121020439463e-14
    20   -5.017607612541e-14
    21    2.539453501756e-03
    22    1.957273506690e-04
    23    1.399053636032e-02
    24    1.775443548348e-02
    25    1.607985998967e-02
    26   -1.942503350912e-03
    27    2.318822172674e-03
    28   -1.546748688834e-03
    29   -4.788035090584e-14
    30   -1.121215840441e-03
    31   -4.801622364841e-03
    32   -7.759740031106e-03
    33   -4.583223124959e-02
    34   -5.792113639927e-04
    35    2.518001476098e-04
    36   -1.812297027684e-14
    37    2.958970212695e-02
    38    2.693210052212e-02
    39   -1.032747622673e-02
    40   -2.182621520795e-02
    41    2.840147626621e-03
    42   -4.203457452420e-03
    43   -3.150592482706e-14
    44   -7.618202201486e-03
    45   -7.885773826701e-03
    46   -9.242395925402e-02
    47    8.038602533700e-02
    48   -4.134240574523e-13
    49    1.452344406389e-02
    50   -1.455995946267e-01
    51    1.326722743409e-01
    52   -6.923483242962e-13
    53    6.211481770173e-02
    54   -1.839595930039e-02
    55    3.415790078434e-03
    56   -3.953384093524e-13
    57    2.191413875917e-02
    58   -5.510638105761e-03
    59   -2.885821256046e-02
    60   -1.191014124708e-13
    61   -2.892705500067e-03
    62   -3.687365068727e-14
    63    3.653809798030e-14
    64    3.083699919149e-02
    65   -1.236646742519e-02
    66    9.565090371664e-04
    67    1.927793569855e-03
    68    1.081084377212e-01
    69   -2.203856786714e-01
    70   -9.037139218755e-14
    71   -1.472033765762e-02
    72    1.221264669532e-01
    73   -2.521212089238e-01
    74   -1.237403490031e-13
    75   -9.160051685731e-02
    76    3.172820178247e-02
    77   -1.471851921976e-01
    78   -3.216215756847e-14
    79   -2.465064103088e-02
    80    1.573838089706e-03
    81    1.372750126662e-03
    82    1.241981233485e-13
    83   -9.205221948138e-03
    84   -3.551911972955e-14
    85    2.436971283801e-14
    86    2.501505200012e-03
    87   -1.645678402895e-02
    88   -1.859854522976e-02
    89   -2.826909695133e-02
    90    1.188389677327e-02
    91    1.909823757996e-02
    92   -2.120723662412e-13
    93    7.091913090386e-02
    94    2.076945209418e-02
    95    2.995856026278e-02
    96   -3.656533343579e-13
    97    9.321824767900e-02
    98   -3.315091084928e-02
    99    6.177309589278e-02
   100   -2.339154506000e-13
   101   -2.580643580547e-01
   102   -6.623297802321e-02
   103    1.279146757493e-01
   104   -1.723129067802e-13
   105   -3.564892747932e-03
   106    3.731501325542e-14
   107   -3.172165249681e-14
   108   -2.864846140497e-02
   109    1.500832769912e-02
   110    1.712063412174e-02
   111    2.859542354850e-02
   112   -1.270309827904e-01
   113    9.217207122229e-02
   114   -1.736429190295e-13
   115   -8.407823199789e-02
   116   -1.945509064349e-01
   117    1.421369647347e-01
   118   -2.810743474315e-13
   119   -9.926175405185e-02
   120   -1.719834982085e-01
   121    1.471836994713e-01
   122   -2.229601793547e-13
   123   -1.734808088306e-02
   124   -1.563900328554e-03
   125    1.236740493422e-02
   126    8.765852151606e-15
   127   -2.534062829143e-03
   128    2.220849767644e-14
   129    8.909519498671e-15
   130    9.127340731770e-03
   131    7.375138029349e-04
   132    1.267221054155e-03
   133    3.543744962269e-03
   134    7.911956287996e-03
   135    4.644031204682e-02
   136   -4.903088248230e-13
   137   -1.249728557769e-02
   138    1.413572747284e-02
   139    7.264365294929e-02
   140   -8.010534449025e-13
   141   -6.840554212716e-02
   142   -2.678856581545e-02
   143    7.906109860970e-02
   144   -7.238882394751e-13