[Molden Format]
[Atoms] (Angs)
  C      1    6     -0.00754183     -1.75895763      0.00000000
  H      2    1     -2.09769850     -1.41880678     -0.00000000
  H      3    1     -0.13527422     -2.83956838     -0.00000000
  H      4    1      0.04053511      2.02026369      0.00000000
  C      5    6     -1.22066484      0.39918184     -0.00000000
  O      6    8     -2.25210141      1.05663720     -0.00000000
  C      7    6      1.24009552      0.27789184      0.00000000
  O      8    8      2.33767996      1.06122493      0.00000000
  N      9    7      0.03634586      1.00852936      0.00000000
  N     10    7     -1.18738304     -0.97903470     -0.00000000
  C     11    6      1.22288875     -1.12258096      0.00000000
  H     12    1      2.15640383     -1.68445878      0.00000000
[GTO]
1    0
S    6    1.000000
   4.56324000E+03    1.96665000E-03 
   6.82024000E+02    1.52306000E-02 
   1.54973000E+02    7.61269000E-02 
   4.44553000E+01    2.60801000E-01 
   1.30290000E+01    6.16462000E-01 
   1.82773000E+00    2.21006000E-01 
SP   3    1.000000
   2.09642000E+01    1.14660000E-01   4.02487000E-02 
   4.80331000E+00    9.19999000E-01   2.37594000E-01 
   1.45933000E+00   -3.03068000E-03   8.15854000E-01 
SP   1    1.000000
   4.83456000E-01    1.00000000E+00   1.00000000E+00 
SP   1    1.000000
   1.45585000E-01    1.00000000E+00   1.00000000E+00 
SP   1    1.000000
   4.38000000E-02    1.00000000E+00   1.00000000E+00 
D    1    1.000000
   6.26000000E-01    1.00000000E+00 

2    0
S    3    1.000000
   3.38650000E+01    2.54938000E-02 
   5.09479000E+00    1.90373000E-01 
   1.15879000E+00    8.52161000E-01 
S    1    1.000000
   3.25840000E-01    1.00000000E+00 
S    1    1.000000
   1.02741000E-01    1.00000000E+00 
S    1    1.000000
   3.60000000E-02    1.00000000E+00 
P    1    1.000000
   7.50000000E-01    1.00000000E+00 

3    0
S    3    1.000000
   3.38650000E+01    2.54938000E-02 
   5.09479000E+00    1.90373000E-01 
   1.15879000E+00    8.52161000E-01 
S    1    1.000000
   3.25840000E-01    1.00000000E+00 
S    1    1.000000
   1.02741000E-01    1.00000000E+00 
S    1    1.000000
   3.60000000E-02    1.00000000E+00 
P    1    1.000000
   7.50000000E-01    1.00000000E+00 

4    0
S    3    1.000000
   3.38650000E+01    2.54938000E-02 
   5.09479000E+00    1.90373000E-01 
   1.15879000E+00    8.52161000E-01 
S    1    1.000000
   3.25840000E-01    1.00000000E+00 
S    1    1.000000
   1.02741000E-01    1.00000000E+00 
S    1    1.000000
   3.60000000E-02    1.00000000E+00 
P    1    1.000000
   7.50000000E-01    1.00000000E+00 

5    0
S    6    1.000000
   4.56324000E+03    1.96665000E-03 
   6.82024000E+02    1.52306000E-02 
   1.54973000E+02    7.61269000E-02 
   4.44553000E+01    2.60801000E-01 
   1.30290000E+01    6.16462000E-01 
   1.82773000E+00    2.21006000E-01 
SP   3    1.000000
   2.09642000E+01    1.14660000E-01   4.02487000E-02 
   4.80331000E+00    9.19999000E-01   2.37594000E-01 
   1.45933000E+00   -3.03068000E-03   8.15854000E-01 
SP   1    1.000000
   4.83456000E-01    1.00000000E+00   1.00000000E+00 
SP   1    1.000000
   1.45585000E-01    1.00000000E+00   1.00000000E+00 
SP   1    1.000000
   4.38000000E-02    1.00000000E+00   1.00000000E+00 
D    1    1.000000
   6.26000000E-01    1.00000000E+00 

6    0
S    6    1.000000
   8.58850000E+03    1.89515000E-03 
   1.29723000E+03    1.43859000E-02 
   2.99296000E+02    7.07320000E-02 
   8.73771000E+01    2.40001000E-01 
   2.56789000E+01    5.94797000E-01 
   3.74004000E+00    2.80802000E-01 
SP   3    1.000000
   4.21175000E+01    1.13889000E-01   3.65114000E-02 
   9.62837000E+00    9.20811000E-01   2.37153000E-01 
   2.85332000E+00   -3.27447000E-03   8.19702000E-01 
SP   1    1.000000
   9.05661000E-01    1.00000000E+00   1.00000000E+00 
SP   1    1.000000
   2.55611000E-01    1.00000000E+00   1.00000000E+00 
SP   1    1.000000
   8.45000000E-02    1.00000000E+00   1.00000000E+00 
D    1    1.000000
   1.29200000E+00    1.00000000E+00 

7    0
S    6    1.000000
   4.56324000E+03    1.96665000E-03 
   6.82024000E+02    1.52306000E-02 
   1.54973000E+02    7.61269000E-02 
   4.44553000E+01    2.60801000E-01 
   1.30290000E+01    6.16462000E-01 
   1.82773000E+00    2.21006000E-01 
SP   3    1.000000
   2.09642000E+01    1.14660000E-01   4.02487000E-02 
   4.80331000E+00    9.19999000E-01   2.37594000E-01 
   1.45933000E+00   -3.03068000E-03   8.15854000E-01 
SP   1    1.000000
   4.83456000E-01    1.00000000E+00   1.00000000E+00 
SP   1    1.000000
   1.45585000E-01    1.00000000E+00   1.00000000E+00 
SP   1    1.000000
   4.38000000E-02    1.00000000E+00   1.00000000E+00 
D    1    1.000000
   6.26000000E-01    1.00000000E+00 

8    0
S    6    1.000000
   8.58850000E+03    1.89515000E-03 
   1.29723000E+03    1.43859000E-02 
   2.99296000E+02    7.07320000E-02 
   8.73771000E+01    2.40001000E-01 
   2.56789000E+01    5.94797000E-01 
   3.74004000E+00    2.80802000E-01 
SP   3    1.000000
   4.21175000E+01    1.13889000E-01   3.65114000E-02 
   9.62837000E+00    9.20811000E-01   2.37153000E-01 
   2.85332000E+00   -3.27447000E-03   8.19702000E-01 
SP   1    1.000000
   9.05661000E-01    1.00000000E+00   1.00000000E+00 
SP   1    1.000000
   2.55611000E-01    1.00000000E+00   1.00000000E+00 
SP   1    1.000000
   8.45000000E-02    1.00000000E+00   1.00000000E+00 
D    1    1.000000
   1.29200000E+00    1.00000000E+00 

9    0
S    6    1.000000
   6.29348000E+03    1.96979000E-03 
   9.49044000E+02    1.49613000E-02 
   2.18776000E+02    7.35006000E-02 
   6.36916000E+01    2.48937000E-01 
   1.88282000E+01    6.02460000E-01 
   2.72023000E+00    2.56202000E-01 
SP   3    1.000000
   3.06331000E+01    1.11906000E-01   3.83119000E-02 
   7.02614000E+00    9.21666000E-01   2.37403000E-01 
   2.11205000E+00   -2.56919000E-03   8.17592000E-01 
SP   1    1.000000
   6.84009000E-01    1.00000000E+00   1.00000000E+00 
SP   1    1.000000
   2.00878000E-01    1.00000000E+00   1.00000000E+00 
SP   1    1.000000
   6.39000000E-02    1.00000000E+00   1.00000000E+00 
D    1    1.000000
   9.13000000E-01    1.00000000E+00 

10    0
S    6    1.000000
   6.29348000E+03    1.96979000E-03 
   9.49044000E+02    1.49613000E-02 
   2.18776000E+02    7.35006000E-02 
   6.36916000E+01    2.48937000E-01 
   1.88282000E+01    6.02460000E-01 
   2.72023000E+00    2.56202000E-01 
SP   3    1.000000
   3.06331000E+01    1.11906000E-01   3.83119000E-02 
   7.02614000E+00    9.21666000E-01   2.37403000E-01 
   2.11205000E+00   -2.56919000E-03   8.17592000E-01 
SP   1    1.000000
   6.84009000E-01    1.00000000E+00   1.00000000E+00 
SP   1    1.000000
   2.00878000E-01    1.00000000E+00   1.00000000E+00 
SP   1    1.000000
   6.39000000E-02    1.00000000E+00   1.00000000E+00 
D    1    1.000000
   9.13000000E-01    1.00000000E+00 

11    0
S    6    1.000000
   4.56324000E+03    1.96665000E-03 
   6.82024000E+02    1.52306000E-02 
   1.54973000E+02    7.61269000E-02 
   4.44553000E+01    2.60801000E-01 
   1.30290000E+01    6.16462000E-01 
   1.82773000E+00    2.21006000E-01 
SP   3    1.000000
   2.09642000E+01    1.14660000E-01   4.02487000E-02 
   4.80331000E+00    9.19999000E-01   2.37594000E-01 
   1.45933000E+00   -3.03068000E-03   8.15854000E-01 
SP   1    1.000000
   4.83456000E-01    1.00000000E+00   1.00000000E+00 
SP   1    1.000000
   1.45585000E-01    1.00000000E+00   1.00000000E+00 
SP   1    1.000000
   4.38000000E-02    1.00000000E+00   1.00000000E+00 
D    1    1.000000
   6.26000000E-01    1.00000000E+00 

12    0
S    3    1.000000
   3.38650000E+01    2.54938000E-02 
   5.09479000E+00    1.90373000E-01 
   1.15879000E+00    8.52161000E-01 
S    1    1.000000
   3.25840000E-01    1.00000000E+00 
S    1    1.000000
   1.02741000E-01    1.00000000E+00 
S    1    1.000000
   3.60000000E-02    1.00000000E+00 
P    1    1.000000
   7.50000000E-01    1.00000000E+00 

[MO]
Sym=X
Ene= 2.006426
Spin=Alpha
Occup=1
     1    5.463092182453e-14
     2    3.552081287949e-14
     3    4.077007845711e-15
     4    8.823281817951e-15
     5    7.904088584648e-02
     6    5.292673867543e-14
     7    9.009611189116e-15
     8    5.359662491140e-15
     9    1.371992396961e-01
    10   -9.616003336385e-14
    11   -1.033671215856e-13
    12    4.874341803308e-15
    13    1.210390165122e-01
    14   -8.039820208487e-13
    15    8.182837489183e-14
    16    3.537840544413e-13
    17    1.153685615248e-02
    18    5.683640007136e-15
    19    1.241436573994e-02
    20    1.053687810118e-02
    21    6.871786274197e-17
    22    1.745034675329e-15
    23   -1.850922570355e-14
    24    2.472892022475e-14
    25   -5.754396288969e-13
    26    9.845522672950e-14
    27   -1.380555518412e-15
    28   -2.193944976826e-16
    29   -8.653793814147e-04
    30    8.878727692191e-15
    31   -1.860055029219e-14
    32    2.520611982621e-13
    33    2.543606571327e-13
    34    1.196429271519e-15
    35    2.315832935796e-15
    36    5.730420322607e-03
    37    2.865288235072e-14
    38    9.586095046666e-15
    39   -2.771070415350e-13
    40   -1.149397569787e-14
    41   -8.603396915848e-15
    42   -7.930094590732e-15
    43   -5.983291785665e-03
    44    1.111241514606e-14
    45    1.938374765522e-15
    46    3.072455747243e-14
    47    3.552015793637e-15
    48   -1.018622816646e-01
    49    3.211452073161e-14
    50    4.494926177357e-14
    51    1.191965742855e-14
    52   -1.810712655938e-01
    53    9.862436318181e-14
    54   -6.801220254108e-14
    55   -8.472717947026e-14
    56   -1.058505170315e-01
    57    2.157903193182e-13
    58    2.517493639400e-13
    59    2.605249651293e-13
    60   -2.030602608687e-02
    61   -3.531945618619e-15
    62    1.668044721526e-02
    63   -1.993980999685e-02
    64    9.964971317260e-15
    65    1.583656412898e-14
    66   -7.130867651248e-15
    67   -1.010170360769e-14
    68   -5.408476121470e-14
    69   -9.496290420328e-15
    70   -2.237810773917e-01
    71    3.891732865919e-14
    72   -6.850484593812e-14
    73   -1.704944870046e-14
    74   -2.621575178044e-01
    75    5.849746699873e-15
    76   -4.240213861353e-14
    77   -1.249498934159e-14
    78   -1.616760407548e-01
    79   -5.488771279366e-14
    80    1.093309145692e-13
    81    2.669338278242e-13
    82    9.530451420872e-03
    83    7.476633835889e-16
    84   -1.816370862610e-02
    85    1.147952633062e-02
    86   -4.162832245699e-15
    87   -1.649857891758e-16
    88   -1.482122917935e-13
    89   -1.177481554223e-13
    90    2.170353974117e-14
    91   -6.567093707920e-15
    92    6.527086359718e-02
    93   -1.265958850837e-14
    94    2.355695330549e-14
    95   -7.980261292716e-16
    96    1.159180887389e-01
    97   -3.174898104272e-13
    98   -4.644457460851e-15
    99   -1.349168420650e-13
   100    8.897629600906e-02
   101   -2.680513475514e-13
   102    9.512113228412e-13
   103   -5.431152479730e-13
   104    1.860660964085e-02
   105   -4.560580277341e-15
   106    1.389079874775e-02
   107   -7.319415523271e-03
   108    7.435320738295e-15
   109   -5.909029158484e-15
   110   -5.360555178676e-14
   111   -5.403746571645e-14
   112    2.117103052743e-14
   113   -3.621895861681e-14
   114    8.251112279846e-02
   115    4.217819035807e-14
   116    1.470540873195e-14
   117   -4.192604285366e-14
   118    1.300765497333e-01
   119    1.140782330170e-13
   120    7.511712032677e-15
   121   -5.439605650787e-14
   122    1.167401251201e-01
   123   -1.835899400836e-13
   124   -1.176288291376e-13
   125   -7.083594369463e-15
   126    7.535344034631e-04
   127    2.950605868407e-16
   128   -7.826838787334e-03
   129   -5.607987398996e-03
   130   -3.194760619289e-15
   131    4.316543180755e-16
   132   -3.049613665293e-14
   133   -5.023757850019e-14
   134   -3.732384376345e-14
   135    1.321664044952e-14
   136   -6.425215383649e-02
   137    1.345914669637e-13
   138   -4.675552912725e-14
   139    9.967019161904e-15
   140   -1.069170266748e-01
   141    2.916847779256e-13
   142   -6.809788401292e-14
   143    8.206494870384e-14
   144   -1.052623995996e-01
   145    4.716151616396e-13
   146    7.842771638361e-13
   147    2.602815268921e-13
   148   -9.709086328858e-03
   149   -5.552109137846e-15
   150    1.321991845391e-02
   151    1.593776700480e-03
   152   -1.570816259350e-15
   153    2.394843861524e-15
   154    5.910796548961e-14
   155    5.684950902783e-14
   156    2.135774526044e-15
   157    2.624786750374e-15
   158   -2.020302052819e-03
   159   -3.761229926513e-14
   160   -8.855832511832e-15
   161    4.072641514922e-15
   162   -4.631904541399e-03
   163   -1.274012649198e-13
   164    6.883773175855e-14
   165    5.598977938199e-15
   166   -3.365423255460e-03
   167    1.065802362982e-12
   168   -5.897076844506e-13
   169    2.498010311936e-13
   170   -3.772023497690e-04
   171   -5.124300708534e-16
   172    6.246920647089e-03
   173   -1.144423280543e-02
   174   -7.008264213358e-15
   175   -2.752202987905e-15
   176    1.962655729987e-14
   177    1.554901452030e-15
   178    9.008044934128e-15
   179   -1.482839552684e-14
   180    9.652784017555e-02
   181    6.453211808703e-14
   182    3.270929674009e-15
   183   -2.776637968016e-14
   184    1.697767874727e-01
   185    9.745572266789e-14
   186   -4.928208009341e-14
   187    1.734542115262e-14
   188    1.333883171843e-01
   189   -1.546190551047e-13
   190   -7.016616838759e-13
   191   -4.297975878597e-13
   192   -3.139518478393e-03
   193   -6.520730948715e-15
   194   -1.531979873563e-02
   195    4.399075744468e-03
   196    9.250656921130e-15
   197   -3.766981772415e-15
   198    3.191332709930e-14
   199    4.690767785406e-14
   200    8.014276860685e-14
   201   -3.347647248282e-14
   202   -2.327773868419e-15
   203   -2.010993864956e-15
   204    7.858385539067e-03
Sym=X
Ene= 2.004020
Spin=Alpha
Occup=1
     1    7.944240836151e-03
     2    1.319197399847e-02
     3    1.801914795818e-02
     4   -2.715583981577e-02
     5    2.233690526729e-14
     6   -3.514032676012e-02
     7    3.046829359148e-02
     8   -4.569452990153e-02
     9    7.672218175484e-14
    10   -4.128010504406e-02
    11   -2.472492260784e-03
    12   -3.964725558698e-02
    13    4.332131552863e-14
    14   -1.238714344703e-01
    15    3.221340258007e-03
    16   -1.856331014297e-02
    17    1.154075404926e-13
    18    2.056511369268e-03
    19    1.532089743054e-14
    20    7.317862614100e-15
    21   -8.857718186844e-03
    22    5.576540421248e-03
    23    4.744566369858e-03
    24   -7.252911103149e-03
    25   -3.127435658703e-02
    26    2.789258420714e-02
    27   -3.440968327563e-04
    28    9.706234078016e-04
    29   -1.014269277186e-14
    30    1.814637927673e-02
    31    2.969782304322e-02
    32    1.385214450922e-02
    33    4.750558266307e-03
    34    9.730926459414e-04
    35    4.578481829381e-04
    36   -3.242470979082e-15
    37    5.204324172936e-04
    38    1.158298630098e-02
    39    3.770436910097e-02
    40   -4.526603899535e-02
    41    2.056147350210e-03
    42   -3.391349940177e-04
    43    1.323807198058e-14
    44   -3.873520885905e-03
    45   -6.469536003956e-03
    46   -3.779463367964e-02
    47   -2.629949267514e-02
    48   -2.876274846033e-14
    49    1.944639201653e-02
    50   -6.370995004912e-02
    51   -4.976824438362e-02
    52   -1.557445794589e-13
    53    2.894139266479e-02
    54    3.887713808607e-02
    55    6.354273696005e-02
    56    1.480401723182e-13
    57    2.889249777759e-02
    58    5.952733587008e-02
    59    7.717949697673e-02
    60    1.578072088017e-14
    61   -1.376979399660e-03
    62   -2.475977216544e-14
    63   -7.769681893387e-15
    64   -5.394453193644e-02
    65   -2.961841159005e-02
    66   -4.317877675046e-03
    67   -6.225879349042e-03
    68    2.016842850717e-01
    69    2.548439375024e-01
    70   -2.865792846015e-14
    71    2.014763869247e-02
    72    2.321424806359e-01
    73    2.925658533097e-01
    74   -5.156912712371e-14
    75   -5.654437515984e-03
    76    1.498790879362e-01
    77    2.092950277269e-01
    78   -1.786998831040e-14
    79   -1.556278803032e-02
    80   -3.011268504884e-03
    81    4.982096220492e-03
    82   -5.419316823042e-14
    83   -1.562297713580e-03
    84   -7.163058199467e-15
    85    3.581664041950e-15
    86    1.289650360993e-02
    87    2.428838851913e-03
    88   -1.346085482791e-02
    89   -2.207704660976e-02
    90   -3.395486720626e-02
    91    1.076149626768e-02
    92   -2.283755751326e-14
    93    5.902045073319e-02
    94   -5.915123149861e-02
    95    1.566299755746e-02
    96   -6.061389292738e-14
    97    4.630710039907e-02
    98   -5.807409880956e-02
    99    2.118478580277e-02
   100    4.499443835948e-14
   101   -2.679970072193e-01
   102   -1.995765321064e-02
   103    1.366180633699e-01
   104    2.168117409363e-13
   105   -2.627041699991e-03
   106    1.068789790168e-14
   107   -1.038339251176e-14
   108   -2.397899721241e-02
   109    5.109546642934e-04
   110    3.214516163422e-03
   111    5.441425132557e-03
   112   -6.292409555111e-02
   113    1.041738450672e-01
   114   -4.287550027482e-14
   115   -1.673353116914e-02
   116   -9.710689417223e-02
   117    1.602257883090e-01
   118   -5.176045015583e-14
   119   -9.053566087827e-03
   120   -9.088625596954e-02
   121    1.464732978441e-01
   122   -5.071637045458e-14
   123    3.410646592641e-02
   124   -1.592835505696e-02
   125    1.569653632450e-03
   126   -9.562656520094e-14
   127   -2.671159050268e-05
   128    2.303887673969e-15
   129   -4.768084171570e-16
   130    7.258185144085e-03
   131   -3.404913816234e-03
   132    2.049914299950e-02
   133    3.395672992800e-02
   134    6.659611683541e-02
   135    1.810993607534e-02
   136   -4.807118295249e-14
   137   -9.004095101234e-02
   138    1.003473053596e-01
   139    1.930653405723e-02
   140   -8.700347361937e-14
   141   -1.872014978003e-01
   142    9.353832999977e-02
   143    3.915657053632e-02
   144   -8.553749800836e-14
   145   -1.923600865644e-01
   146   -1.185541774467e-02
   147   -5.219691669653e-03
   148   -1.480525123187e-13
   149   -8.126094344315e-04
   150   -4.857433574750e-15
   151    6.534535335781e-15
   152   -1.071067438612e-03
   153   -4.446179422872e-03
   154   -1.329369332112e-02
   155   -2.168864499503e-02
   156   -2.757499553678e-02
   157    6.185621628888e-02
   158   -8.727619405499e-15
   159    5.661294128972e-02
   160   -4.800562954835e-02
   161    8.961459288526e-02
   162   -1.400990018595e-14
   163    1.099396019697e-01
   164   -4.135499190695e-02
   165    9.524650612664e-02
   166   -3.269508643903e-14
   167    1.270325684193e-01
   168   -1.032854761400e-02
   169    3.443962042166e-04
   170   -7.486756671472e-14
   171    5.646675983602e-04
   172    4.670085911006e-15
   173    3.582223379236e-15
   174   -2.189113922024e-03
   175   -3.033049299498e-04
   176   -3.623987644660e-03
   177   -5.825375546240e-03
   178   -1.431689249977e-03
   179    1.377776217084e-02
   180    3.212518990425e-14
   181    1.423381769115e-02
   182    6.061159905321e-04
   183    1.651608420317e-02
   184    5.551115827360e-14
   185    5.541581256979e-02
   186   -1.106945515575e-02
   187    2.234174089215e-02
   188    6.116228527206e-14
   189    3.838895926446e-01
   190   -3.581726251070e-02
   191    7.137991147672e-02
   192   -1.797590559714e-13
   193    6.205791517593e-04
   194   -7.349189166269e-15
   195    1.086255734125e-15
   196   -2.587012731512e-03
   197   -1.071371931770e-03
   198   -3.032033628307e-03
   199   -6.603082194697e-03
   200    7.811966947095e-04
   201    1.678972572878e-02
   202    8.344765990860e-04
   203   -7.664331876504e-04
   204   -1.317702407879e-15
Sym=X
Ene= 2.002197
Spin=Alpha
Occup=1
     1   -1.919247483857e-13
     2   -1.955981120607e-13
     3   -7.977294112101e-14
     4    2.200323939359e-14
     5   -8.192705464627e-02
     6    1.904602186304e-13
     7   -1.362658486956e-13
     8    4.833148828900e-14
     9   -1.416657939646e-01
    10   -1.139417506898e-13
    11   -1.139867301561e-14
    12   -1.702538940029e-13
    13   -1.103499451308e-01
    14   -5.662928262127e-12
    15   -1.629618376056e-12
    16   -8.732693270816e-13
    17   -1.320042870656e-02
    18   -1.039743573964e-14
    19    5.960120914652e-03
    20   -1.224314477757e-02
    21   -4.903344387476e-15
    22   -1.596548866028e-14
    23   -1.123510531772e-14
    24   -8.009794347179e-14
    25    5.763495217485e-13
    26   -2.054188171275e-13
    27    1.506312671401e-15
    28   -2.430981859973e-15
    29   -9.094081792701e-03
    30    2.969914400580e-14
    31    1.215132620056e-14
    32   -3.927568911914e-14
    33   -2.173895365966e-13
    34   -4.358585753823e-15
    35    6.041143178796e-15
    36   -6.658999634087e-03
    37    1.723662069528e-14
    38    7.801909958901e-14
    39   -4.777647598059e-13
    40    2.640038241606e-13
    41    5.020100588153e-15
    42   -1.644741438780e-15
    43    8.173267659505e-03
    44   -1.404152873559e-13
    45   -8.645969688764e-14
    46   -5.249215264689e-15
    47   -2.194816469861e-14
    48    2.091530142933e-03
    49   -1.612655728260e-13
    50   -3.178744326093e-14
    51   -2.685395581122e-14
    52    4.675889029127e-03
    53   -1.255896181918e-13
    54   -7.273933739775e-14
    55    5.401351082954e-14
    56    6.901877366443e-03
    57    8.270143578016e-13
    58   -6.196092509306e-14
    59   -6.954954142350e-13
    60   -6.302897087764e-03
    61    1.087477426817e-14
    62    9.547118899299e-03
    63    2.367807634447e-02
    64   -1.270736913833e-14
    65   -1.396917576046e-14
    66    8.806172734736e-14
    67    1.285180640585e-13
    68    4.129241619329e-14
    69   -2.567102471015e-15
    70    2.219413257900e-02
    71   -4.439357450703e-13
    72    3.294787970286e-14
    73    1.004286378779e-14
    74    2.575656021387e-02
    75   -2.079232608093e-13
    76    4.271772667118e-14
    77   -2.209540191090e-14
    78    1.551594787975e-02
    79   -2.486475108039e-14
    80   -3.825033350421e-14
    81    2.151310657074e-14
    82    6.388518495175e-03
    83    3.474499073841e-15
    84    1.419380570639e-03
    85   -2.920929580176e-04
    86   -2.438347604853e-15
    87    4.695873197875e-15
    88   -9.942495151411e-14
    89   -1.455163329239e-13
    90   -1.139131490580e-14
    91    1.247232510827e-14
    92    9.463197965169e-02
    93    3.413495043649e-13
    94   -1.419193545537e-14
    95    3.569359281664e-14
    96    1.694752537782e-01
    97    1.905907288749e-13
    98    5.623021851348e-14
    99    1.148675402091e-13
   100    1.210155187149e-01
   101    3.511849261304e-12
   102    6.510870311283e-13
   103   -1.554773762473e-12
   104    4.089471429786e-02
   105   -1.420252308060e-14
   106    1.345894086216e-02
   107    2.838332874847e-02
   108   -2.447597582749e-14
   109    9.960831947221e-15
   110    1.902703314823e-13
   111    2.074077992286e-13
   112   -1.573591994694e-13
   113    2.958356281312e-14
   114    1.653099071926e-01
   115   -2.609570120256e-13
   116   -2.445990990994e-13
   117    4.909948846044e-14
   118    2.588272093395e-01
   119   -3.013220181197e-13
   120   -1.613977748869e-13
   121    6.130345371397e-14
   122    2.418448823831e-01
   123   -2.163224332719e-13
   124    9.845882507688e-15
   125    8.174970681107e-14
   126    2.257852862115e-02
   127   -5.632772927552e-15
   128   -1.427812453928e-02
   129   -9.171873735113e-03
   130    1.018754103800e-14
   131    7.197429876466e-15
   132    1.387308194599e-13
   133    1.075165980086e-13
   134    8.243124867630e-14
   135    1.669039507340e-14
   136    9.841121926080e-02
   137    4.120555339953e-14
   138    1.315781643674e-13
   139    2.255964488931e-14
   140    1.634658525110e-01
   141    7.774055682046e-14
   142    3.063613255012e-14
   143   -1.631502934679e-14
   144    1.423266851378e-01
   145    3.917531594593e-13
   146    6.087420258155e-14
   147    8.368262671730e-13
   148   -1.113433760506e-02
   149   -4.608651610915e-15
   150    4.083320398893e-03
   151   -5.646037673737e-03
   152    4.734812163744e-16
   153   -1.191740430080e-14
   154    2.586606577116e-13
   155    1.857687108582e-13
   156    9.260787508347e-14
   157   -4.512202335020e-14
   158   -1.144158859153e-01
   159    1.678768322328e-13
   160    1.404930229867e-13
   161   -8.173659933162e-14
   162   -1.884111843612e-01
   163    2.361004278463e-13
   164    1.637892852874e-13
   165   -5.583424653346e-15
   166   -1.732821094848e-01
   167   -3.878306529453e-13
   168    8.601858439734e-13
   169    3.188956840775e-13
   170    2.574717981971e-05
   171   -6.974814626310e-15
   172   -6.693890636262e-03
   173    1.087304950880e-03
   174    4.329919262709e-15
   175   -1.143897507362e-14
   176    1.802769505170e-13
   177    1.505479041726e-13
   178   -2.868051722644e-14
   179    8.162939646374e-14
   180   -3.486949696417e-02
   181   -1.207341212170e-14
   182   -5.318468827013e-14
   183    1.200883038038e-13
   184   -5.850811145980e-02
   185    1.075600716216e-13
   186   -1.390699986555e-13
   187    1.793889551562e-13
   188   -7.643473735358e-02
   189    1.367885749866e-12
   190   -1.723010603407e-12
   191   -1.884996861131e-12
   192   -1.847562558493e-02
   193   -1.143689394872e-15
   194    1.233408820277e-02
   195    1.432131225391e-02
   196   -1.030293542589e-14
   197    6.546955214201e-15
   198   -5.764178113570e-14
   199   -4.523769696904e-14
   200    7.572669304041e-14
   201    1.322903477541e-13
   202    1.464539110842e-15
   203    1.783101138837e-15
   204   -2.286853502868e-03
Sym=X
Ene= 2.001459
Spin=Alpha
Occup=1
     1    1.029606953135e-02
     2    1.663331194982e-02
     3    1.702990311104e-02
     4   -1.290165044853e-02
     5    1.267241927042e-13
     6   -4.429598794131e-02
     7    3.288711471568e-02
     8   -2.235844393793e-02
     9    2.328616470061e-13
    10   -2.565345434139e-02
    11    1.729001259418e-02
    12   -3.450759790788e-03
    13    8.372696205559e-14
    14    2.679100441001e-01
    15    6.846887725659e-02
    16    1.048977231334e-01
    17    8.706381891870e-14
    18    1.698693493238e-03
    19   -3.251067026970e-14
    20    4.130500214367e-14
    21   -2.719682417426e-03
    22   -2.407224169320e-04
    23   -1.043198341761e-02
    24   -1.331331688845e-02
    25   -1.474719869897e-02
    26    3.818743988525e-03
    27   -2.047448886899e-03
    28    1.313821304604e-03
    29    3.045822292515e-14
    30    1.767014863222e-03
    31    7.061965761797e-03
    32    1.079141619792e-02
    33    4.803588130653e-02
    34    4.733571676218e-04
    35   -2.000023308439e-04
    36    1.152116910421e-14
    37   -1.784846575996e-02
    38   -1.195247529781e-02
    39    6.458993297268e-03
    40    2.484954986482e-02
    41   -2.684262475753e-03
    42    2.261281654237e-03
    43    2.505271372805e-14
    44    1.493556213097e-02
    45    2.256263857115e-02
    46    8.424550075470e-02
    47   -7.738016934109e-02
    48    3.058487093695e-13
    49   -6.330403228157e-02
    50    1.326398121383e-01
    51   -1.283371939754e-01
    52    4.971088504905e-13
    53   -8.776519925303e-02
    54    1.511612897449e-02
    55   -1.549933108951e-03
    56    3.135976196048e-13
    57   -3.956610881438e-02
    58    2.961204864379e-03
    59    3.071709892416e-02
    60    9.323614772527e-14
    61    5.114259311033e-03
    62    3.984356134676e-14
    63   -2.302158925346e-14
    64   -3.253405178896e-02
    65    1.097932367785e-02
    66    1.642561656273e-03
    67    1.842157089356e-03
    68   -1.041725144858e-01
    69    2.321090266945e-01
    70    2.617439372736e-14
    71    3.065218598324e-03
    72   -1.178191421645e-01
    73    2.649125187508e-01
    74    4.187960023662e-14
    75    8.866604357794e-02
    76   -2.500725529602e-02
    77    1.521134469365e-01
    78   -1.327576033399e-14
    79    2.640998577484e-02
    80   -9.377112591349e-04
    81   -3.400847329845e-03
    82   -1.081881816602e-13
    83    9.643071142979e-03
    84    2.417313556289e-14
    85   -1.649062015049e-14
    86   -2.295214849467e-03
    87    1.760803487598e-02
    88    1.473876206736e-02
    89    2.431764646207e-02
    90   -1.332349648360e-02
    91   -1.440397638026e-02
    92    2.148029027752e-13
    93   -6.788574732124e-02
    94   -2.307198592364e-02
    95   -2.117645170657e-02
    96    3.751880327073e-13
    97   -7.474743317816e-02
    98    3.427994624875e-02
    99   -7.391492072982e-02
   100    2.596696770749e-13
   101    3.028974943948e-01
   102    6.813742721307e-02
   103   -1.463469595289e-01
   104    1.930548056128e-13
   105    3.356562474827e-03
   106   -2.320020793823e-14
   107    3.888932400927e-14
   108    3.229292627370e-02
   109   -1.828589495304e-02
   110   -1.426294045073e-02
   111   -2.407212638241e-02
   112    1.345978680031e-01
   113   -1.072599458216e-01
   114    2.220439026490e-13
   115    7.236238746207e-02
   116    2.060555875940e-01
   117   -1.653409747172e-01
   118    3.581340568879e-13
   119    8.620412273731e-02
   120    1.794976682487e-01
   121   -1.651276129889e-01
   122    2.931236424423e-13
   123    1.565388564060e-02
   124   -1.541141921649e-03
   125   -8.962936679328e-03
   126   -1.036220411113e-14
   127    2.376586051875e-03
   128   -2.621115900558e-14
   129   -1.186351080476e-14
   130   -1.010137153755e-02
   131   -1.914596840368e-04
   132   -4.211992695960e-03
   133   -7.867283634560e-03
   134    6.479217608741e-03
   135   -3.399423910163e-02
   136    4.162661993956e-13
   137    2.283790045905e-02
   138    9.111743263453e-03
   139   -5.275628663602e-02
   140    6.806409751938e-13
   141    8.166771495808e-02
   142    4.026143797529e-02
   143   -6.607133819209e-02
   144    6.030619702341e-13