[Molden Format]
[Atoms] (Angs)
  C      1    6     -0.00754183     -1.75895763      0.00000000
  H      2    1     -2.09769850     -1.41880678     -0.00000000
  H      3    1     -0.13527422     -2.83956838     -0.00000000
  H      4    1      0.04053511      2.02026369      0.00000000
  C      5    6     -1.22066484      0.39918184     -0.00000000
  O      6    8     -2.25210141      1.05663720     -0.00000000
  C      7    6      1.24009552      0.27789184      0.00000000
  O      8    8      2.33767996      1.06122493      0.00000000
  N      9    7      0.03634586      1.00852936      0.00000000
  N     10    7     -1.18738304     -0.97903470     -0.00000000
  C     11    6      1.22288875     -1.12258096      0.00000000
  H     12    1      2.15640383     -1.68445878      0.00000000
[GTO]
1    0
S    6    1.000000
   4.56324000E+03    1.96665000E-03 
   6.82024000E+02    1.52306000E-02 
   1.54973000E+02    7.61269000E-02 
   4.44553000E+01    2.60801000E-01 
   1.30290000E+01    6.16462000E-01 
   1.82773000E+00    2.21006000E-01 
SP   3    1.000000
   2.09642000E+01    1.14660000E-01   4.02487000E-02 
   4.80331000E+00    9.19999000E-01   2.37594000E-01 
   1.45933000E+00   -3.03068000E-03   8.15854000E-01 
SP   1    1.000000
   4.83456000E-01    1.00000000E+00   1.00000000E+00 
SP   1    1.000000
   1.45585000E-01    1.00000000E+00   1.00000000E+00 
SP   1    1.000000
   4.38000000E-02    1.00000000E+00   1.00000000E+00 
D    1    1.000000
   6.26000000E-01    1.00000000E+00 

2    0
S    3    1.000000
   3.38650000E+01    2.54938000E-02 
   5.09479000E+00    1.90373000E-01 
   1.15879000E+00    8.52161000E-01 
S    1    1.000000
   3.25840000E-01    1.00000000E+00 
S    1    1.000000
   1.02741000E-01    1.00000000E+00 
S    1    1.000000
   3.60000000E-02    1.00000000E+00 
P    1    1.000000
   7.50000000E-01    1.00000000E+00 

3    0
S    3    1.000000
   3.38650000E+01    2.54938000E-02 
   5.09479000E+00    1.90373000E-01 
   1.15879000E+00    8.52161000E-01 
S    1    1.000000
   3.25840000E-01    1.00000000E+00 
S    1    1.000000
   1.02741000E-01    1.00000000E+00 
S    1    1.000000
   3.60000000E-02    1.00000000E+00 
P    1    1.000000
   7.50000000E-01    1.00000000E+00 

4    0
S    3    1.000000
   3.38650000E+01    2.54938000E-02 
   5.09479000E+00    1.90373000E-01 
   1.15879000E+00    8.52161000E-01 
S    1    1.000000
   3.25840000E-01    1.00000000E+00 
S    1    1.000000
   1.02741000E-01    1.00000000E+00 
S    1    1.000000
   3.60000000E-02    1.00000000E+00 
P    1    1.000000
   7.50000000E-01    1.00000000E+00 

5    0
S    6    1.000000
   4.56324000E+03    1.96665000E-03 
   6.82024000E+02    1.52306000E-02 
   1.54973000E+02    7.61269000E-02 
   4.44553000E+01    2.60801000E-01 
   1.30290000E+01    6.16462000E-01 
   1.82773000E+00    2.21006000E-01 
SP   3    1.000000
   2.09642000E+01    1.14660000E-01   4.02487000E-02 
   4.80331000E+00    9.19999000E-01   2.37594000E-01 
   1.45933000E+00   -3.03068000E-03   8.15854000E-01 
SP   1    1.000000
   4.83456000E-01    1.00000000E+00   1.00000000E+00 
SP   1    1.000000
   1.45585000E-01    1.00000000E+00   1.00000000E+00 
SP   1    1.000000
   4.38000000E-02    1.00000000E+00   1.00000000E+00 
D    1    1.000000
   6.26000000E-01    1.00000000E+00 

6    0
S    6    1.000000
   8.58850000E+03    1.89515000E-03 
   1.29723000E+03    1.43859000E-02 
   2.99296000E+02    7.07320000E-02 
   8.73771000E+01    2.40001000E-01 
   2.56789000E+01    5.94797000E-01 
   3.74004000E+00    2.80802000E-01 
SP   3    1.000000
   4.21175000E+01    1.13889000E-01   3.65114000E-02 
   9.62837000E+00    9.20811000E-01   2.37153000E-01 
   2.85332000E+00   -3.27447000E-03   8.19702000E-01 
SP   1    1.000000
   9.05661000E-01    1.00000000E+00   1.00000000E+00 
SP   1    1.000000
   2.55611000E-01    1.00000000E+00   1.00000000E+00 
SP   1    1.000000
   8.45000000E-02    1.00000000E+00   1.00000000E+00 
D    1    1.000000
   1.29200000E+00    1.00000000E+00 

7    0
S    6    1.000000
   4.56324000E+03    1.96665000E-03 
   6.82024000E+02    1.52306000E-02 
   1.54973000E+02    7.61269000E-02 
   4.44553000E+01    2.60801000E-01 
   1.30290000E+01    6.16462000E-01 
   1.82773000E+00    2.21006000E-01 
SP   3    1.000000
   2.09642000E+01    1.14660000E-01   4.02487000E-02 
   4.80331000E+00    9.19999000E-01   2.37594000E-01 
   1.45933000E+00   -3.03068000E-03   8.15854000E-01 
SP   1    1.000000
   4.83456000E-01    1.00000000E+00   1.00000000E+00 
SP   1    1.000000
   1.45585000E-01    1.00000000E+00   1.00000000E+00 
SP   1    1.000000
   4.38000000E-02    1.00000000E+00   1.00000000E+00 
D    1    1.000000
   6.26000000E-01    1.00000000E+00 

8    0
S    6    1.000000
   8.58850000E+03    1.89515000E-03 
   1.29723000E+03    1.43859000E-02 
   2.99296000E+02    7.07320000E-02 
   8.73771000E+01    2.40001000E-01 
   2.56789000E+01    5.94797000E-01 
   3.74004000E+00    2.80802000E-01 
SP   3    1.000000
   4.21175000E+01    1.13889000E-01   3.65114000E-02 
   9.62837000E+00    9.20811000E-01   2.37153000E-01 
   2.85332000E+00   -3.27447000E-03   8.19702000E-01 
SP   1    1.000000
   9.05661000E-01    1.00000000E+00   1.00000000E+00 
SP   1    1.000000
   2.55611000E-01    1.00000000E+00   1.00000000E+00 
SP   1    1.000000
   8.45000000E-02    1.00000000E+00   1.00000000E+00 
D    1    1.000000
   1.29200000E+00    1.00000000E+00 

9    0
S    6    1.000000
   6.29348000E+03    1.96979000E-03 
   9.49044000E+02    1.49613000E-02 
   2.18776000E+02    7.35006000E-02 
   6.36916000E+01    2.48937000E-01 
   1.88282000E+01    6.02460000E-01 
   2.72023000E+00    2.56202000E-01 
SP   3    1.000000
   3.06331000E+01    1.11906000E-01   3.83119000E-02 
   7.02614000E+00    9.21666000E-01   2.37403000E-01 
   2.11205000E+00   -2.56919000E-03   8.17592000E-01 
SP   1    1.000000
   6.84009000E-01    1.00000000E+00   1.00000000E+00 
SP   1    1.000000
   2.00878000E-01    1.00000000E+00   1.00000000E+00 
SP   1    1.000000
   6.39000000E-02    1.00000000E+00   1.00000000E+00 
D    1    1.000000
   9.13000000E-01    1.00000000E+00 

10    0
S    6    1.000000
   6.29348000E+03    1.96979000E-03 
   9.49044000E+02    1.49613000E-02 
   2.18776000E+02    7.35006000E-02 
   6.36916000E+01    2.48937000E-01 
   1.88282000E+01    6.02460000E-01 
   2.72023000E+00    2.56202000E-01 
SP   3    1.000000
   3.06331000E+01    1.11906000E-01   3.83119000E-02 
   7.02614000E+00    9.21666000E-01   2.37403000E-01 
   2.11205000E+00   -2.56919000E-03   8.17592000E-01 
SP   1    1.000000
   6.84009000E-01    1.00000000E+00   1.00000000E+00 
SP   1    1.000000
   2.00878000E-01    1.00000000E+00   1.00000000E+00 
SP   1    1.000000
   6.39000000E-02    1.00000000E+00   1.00000000E+00 
D    1    1.000000
   9.13000000E-01    1.00000000E+00 

11    0
S    6    1.000000
   4.56324000E+03    1.96665000E-03 
   6.82024000E+02    1.52306000E-02 
   1.54973000E+02    7.61269000E-02 
   4.44553000E+01    2.60801000E-01 
   1.30290000E+01    6.16462000E-01 
   1.82773000E+00    2.21006000E-01 
SP   3    1.000000
   2.09642000E+01    1.14660000E-01   4.02487000E-02 
   4.80331000E+00    9.19999000E-01   2.37594000E-01 
   1.45933000E+00   -3.03068000E-03   8.15854000E-01 
SP   1    1.000000
   4.83456000E-01    1.00000000E+00   1.00000000E+00 
SP   1    1.000000
   1.45585000E-01    1.00000000E+00   1.00000000E+00 
SP   1    1.000000
   4.38000000E-02    1.00000000E+00   1.00000000E+00 
D    1    1.000000
   6.26000000E-01    1.00000000E+00 

12    0
S    3    1.000000
   3.38650000E+01    2.54938000E-02 
   5.09479000E+00    1.90373000E-01 
   1.15879000E+00    8.52161000E-01 
S    1    1.000000
   3.25840000E-01    1.00000000E+00 
S    1    1.000000
   1.02741000E-01    1.00000000E+00 
S    1    1.000000
   3.60000000E-02    1.00000000E+00 
P    1    1.000000
   7.50000000E-01    1.00000000E+00 

[MO]
Sym=X
Ene= 2.013731
Spin=Alpha
Occup=1
     1   -1.260739911783e-14
     2   -1.265497023520e-14
     3    1.686506664133e-14
     4   -8.643571041205e-15
     5   -5.255567462791e-02
     6   -2.520449980170e-15
     7    3.784911196076e-14
     8   -2.482119479515e-14
     9   -8.929381502883e-02
    10   -7.077266004094e-14
    11   -2.396564442253e-13
    12    3.014720408794e-14
    13   -9.253691090332e-02
    14    8.822124049225e-12
    15    2.259727238366e-12
    16    2.151903802353e-12
    17   -1.218721650298e-02
    18   -3.098537805562e-15
    19   -1.369352573876e-02
    20   -5.198235256840e-03
    21    8.570230082223e-15
    22    7.760292542965e-16
    23   -8.041901544051e-15
    24   -1.375752362627e-14
    25   -4.655208168954e-13
    26   -9.309144056372e-13
    27   -8.672519966303e-15
    28   -5.282894446998e-15
    29    3.631493819628e-03
    30    8.626120889618e-16
    31    5.675884860559e-14
    32   -1.504072441919e-13
    33    9.876684502803e-13
    34    3.764642577992e-15
    35    7.479441906305e-15
    36   -4.174873754224e-03
    37    5.130206308809e-15
    38   -2.552889724419e-15
    39   -8.661394063266e-13
    40    8.981121367674e-13
    41   -1.331095069658e-15
    42   -7.942722249763e-15
    43   -3.265726183155e-03
    44   -9.102986799779e-15
    45   -7.931401950109e-15
    46    1.312241135492e-14
    47   -3.345718470645e-14
    48   -3.813123075995e-04
    49   -1.114128748747e-14
    50    3.502947807448e-14
    51   -2.257450560527e-14
    52    1.699543343508e-03
    53    6.351118757327e-13
    54   -3.970414735103e-13
    55   -4.170835879549e-13
    56   -4.618560711064e-03
    57    5.890309728053e-13
    58   -5.866300846339e-13
    59   -1.233308202522e-12
    60   -1.716425751074e-02
    61   -1.231860633119e-14
    62   -7.725726936720e-03
    63   -7.669654474625e-03
    64    3.993254893061e-16
    65    4.573653445384e-15
    66   -3.449925721223e-14
    67   -1.750969705456e-14
    68   -2.230438368477e-14
    69   -9.430154163976e-15
    70    2.901596312136e-03
    71   -6.778430557404e-14
    72   -4.281430833070e-14
    73   -3.430914538977e-14
    74    4.584818756279e-03
    75   -1.112594938594e-13
    76   -1.175883798422e-13
    77    3.496253349668e-14
    78    3.009776968218e-03
    79   -3.867659134200e-13
    80    1.554117015613e-14
    81    4.092327993596e-13
    82    1.016784809158e-02
    83    1.891191130011e-15
    84   -3.885572690506e-05
    85   -3.445452422065e-04
    86   -3.783844366946e-15
    87    4.730125814814e-16
    88   -5.209349537911e-14
    89   -4.322038214561e-14
    90    5.821447806329e-15
    91    5.804247084341e-15
    92    3.369691718284e-02
    93    1.348534949877e-14
    94   -8.179786458679e-15
    95    2.505600245590e-14
    96    6.137665876652e-02
    97   -1.299845239542e-13
    98    1.919196659373e-14
    99   -4.117879602324e-13
   100    5.948833734810e-02
   101   -6.310785801754e-12
   102    1.710861810635e-12
   103    6.364502812878e-14
   104    3.677061014725e-02
   105    1.565929982101e-14
   106    3.588680295947e-02
   107    2.738520370893e-02
   108   -2.290575986819e-15
   109    9.630511461994e-15
   110    1.225711618065e-14
   111    1.915453305881e-14
   112   -2.101123726086e-14
   113   -2.976775976357e-14
   114    3.629473401711e-01
   115   -6.979875392591e-14
   116   -4.875390782142e-14
   117    4.942249091211e-15
   118    4.159443419773e-01
   119    1.509451002537e-14
   120   -1.901394844343e-14
   121   -7.684399687236e-14
   122    2.927336439502e-01
   123    2.083788196439e-14
   124   -1.801720502328e-13
   125   -4.627948155269e-14
   126    2.908888370797e-02
   127    1.578978169308e-15
   128   -1.500872327814e-02
   129   -1.038476363945e-02
   130    3.135210962965e-15
   131   -5.000611541058e-17
   132    1.203423272635e-15
   133   -5.812797545703e-15
   134   -3.002485419236e-14
   135    1.597847281175e-14
   136   -4.889584778714e-02
   137    3.736925355523e-14
   138   -1.813175977484e-14
   139    2.045159247409e-14
   140   -7.832664341175e-02
   141   -9.862168442614e-14
   142   -1.472040894729e-13
   143    4.517692461615e-14
   144   -9.445231912482e-02
   145    6.218972008852e-12
   146    3.670286534090e-13
   147   -6.545025928298e-13
   148   -2.303128827038e-02
   149    8.761738760757e-15
   150    2.438206442430e-03
   151    8.935190703542e-04
   152   -1.744261978761e-15
   153   -3.606279940208e-15
   154    7.224802118668e-14
   155    5.752193475142e-14
   156   -8.331306047814e-16
   157    1.005582285369e-14
   158    3.241264981762e-02
   159    9.386360291639e-15
   160   -1.271974569097e-14
   161    3.381587269708e-14
   162    5.138246918047e-02
   163    1.584427798505e-13
   164    4.387848795753e-14
   165   -1.687854697659e-13
   166    7.455238155989e-02
   167   -4.055628468615e-12
   168   -1.716800276701e-12
   169   -1.216667217312e-12
   170    3.260012422816e-02
   171   -7.806754727658e-15
   172   -3.793687981933e-03
   173    2.786797457362e-03
   174   -8.733888291595e-15
   175    4.720757926533e-15
   176    6.630957049228e-15
   177    3.231189152630e-15
   178   -2.311093041233e-14
   179   -3.771263460105e-14
   180   -6.526390178159e-02
   181    1.141712354439e-14
   182   -1.320575403266e-14
   183   -4.459274499763e-14
   184   -1.103039484073e-01
   185   -2.572301624724e-13
   186   -4.133460919649e-13
   187   -3.973485876247e-13
   188   -1.296876597505e-01
   189   -5.470906281741e-12
   190    8.147515202682e-13
   191    2.073769709938e-12
   192   -2.182520954393e-02
   193   -4.852168635040e-15
   194    1.078303433664e-02
   195    5.119114574162e-03
   196    1.462519590812e-15
   197   -5.057752854463e-15
   198    2.520921186535e-14
   199    2.418721306948e-14
   200    6.680324382455e-13
   201    2.139414495276e-13
   202    6.225604392627e-15
   203   -4.782504349469e-15
   204   -4.331682585998e-03
Sym=X
Ene= 2.003651
Spin=Alpha
Occup=1
     1    6.875555505589e-14
     2    7.399805300000e-14
     3    1.126172458907e-13
     4    1.398188071332e-14
     5    2.805698561816e-02
     6   -9.768596830822e-14
     7    1.796323828509e-13
     8    4.633596917993e-16
     9    5.036247530648e-02
    10    3.772068175709e-13
    11    1.794196426441e-14
    12    4.629632755814e-13
    13    1.538700155899e-02
    14    1.482213227571e-11
    15    3.278707540090e-12
    16    3.234906356363e-12
    17   -1.047631009489e-04
    18    4.947906922551e-15
    19   -2.165174727750e-02
    20    7.344554031401e-03
    21    1.592669546738e-14
    22    1.045369909514e-14
    23   -1.698924170723e-15
    24    4.097693225332e-14
    25   -7.518494443894e-13
    26    2.554954786694e-13
    27   -5.527236901301e-15
    28   -3.395987283235e-15
    29    1.354818670480e-02
    30   -4.229777677848e-14
    31   -4.212423836732e-15
    32    1.954913587221e-13
    33    1.010624897519e-12
    34    9.346524882683e-15
    35   -2.362048705563e-15
    36    2.218165861842e-03
    37    1.537175004928e-14
    38   -1.187618802414e-13
    39    9.123299142075e-13
    40   -2.981832913133e-13
    41   -2.366809307431e-15
    42   -4.347864725887e-15
    43   -1.330322248675e-02
    44    8.170355687913e-14
    45    4.734176530177e-14
    46   -2.650661286028e-14
    47    2.394175377488e-14
    48    2.272770618170e-02
    49    1.013718456540e-13
    50   -2.477986801088e-14
    51    3.745459968077e-14
    52    4.096062243576e-02
    53    2.039194326254e-13
    54    2.878602318418e-13
    55   -1.642703902599e-13
    56    2.152721814607e-02
    57   -2.807647974454e-12
    58   -3.050924798103e-13
    59    1.279898525685e-12
    60    1.435486363526e-04
    61   -1.471836272090e-14
    62   -2.667426307317e-02
    63   -2.425291308142e-02
    64   -1.588332698171e-14
    65   -1.333833662029e-14
    66    8.193007735683e-14
    67    2.712697118125e-14
    68    5.739204095616e-14
    69    7.053779447348e-14
    70    4.224601803276e-02
    71    2.471468383306e-13
    72    9.196415412588e-14
    73    9.981345918146e-14
    74    6.629491535356e-02
    75    2.578450844331e-13
    76    8.480149630273e-14
    77    1.264078433081e-13
    78    5.983652037369e-02
    79    2.944815076953e-13
    80    1.311550443830e-13
    81   -1.540508782056e-13
    82    5.535749245428e-03
    83   -2.474247366480e-15
    84    3.776588385386e-03
    85   -3.094540632522e-03
    86    8.808661906113e-15
    87   -1.288835271705e-15
    88    8.333958392768e-15
    89    3.858258972068e-14
    90    2.523991260871e-14
    91    8.661367041902e-14
    92   -9.490999816272e-02
    93   -1.722257323204e-13
    94    2.202036980469e-14
    95    1.421311645203e-13
    96   -1.698875923189e-01
    97    2.312183460799e-13
    98   -4.852948683612e-14
    99   -1.206088531378e-13
   100   -9.689349934588e-02
   101    4.478994444677e-13
   102   -1.695382826149e-12
   103    1.255604257036e-12
   104   -2.121036457280e-02
   105    3.562756042501e-15
   106    1.586216724026e-02
   107   -1.195150855217e-02
   108    3.613305435226e-14
   109   -9.452492921922e-15
   110    8.715415339016e-15
   111    1.244474552959e-14
   112    7.353577358175e-14
   113   -2.027289419111e-13
   114   -4.539053905134e-02
   115   -4.514803878796e-14
   116    8.813441835049e-14
   117   -2.360428565064e-13
   118   -5.652665361200e-02
   119   -7.754760493966e-15
   120    6.108140665323e-14
   121   -1.541419063371e-13
   122   -2.946440457511e-02
   123    8.886949911676e-14
   124    1.149146989973e-14
   125    7.541241712750e-15
   126    2.233743167976e-02
   127   -1.651847646845e-15
   128    8.121399522246e-03
   129    5.143352497396e-03
   130   -3.417348854698e-15
   131    4.506636473151e-15
   132   -7.021772422337e-14
   133   -6.672590465918e-14
   134    1.130509094634e-14
   135    4.667197598608e-15
   136   -1.731844389216e-01
   137    5.778294599662e-14
   138    6.019197985700e-15
   139    8.857535327276e-15
   140   -2.841059581708e-01
   141   -2.221717823605e-13
   142    1.077963536493e-13
   143    1.250894242314e-13
   144   -2.833519843292e-01
   145   -9.216235936203e-13
   146   -4.222633014856e-13
   147   -1.436421597358e-12
   148   -1.501435932213e-02
   149    2.437351859380e-15
   150   -8.379426377588e-03
   151    7.625236339731e-03
   152    1.596442224236e-15
   153    4.435304320721e-15
   154   -2.586026750552e-14
   155   -1.349128858349e-15
   156   -6.537741188708e-14
   157    5.036334068232e-14
   158    1.555937950040e-01
   159   -9.756949660065e-14
   160   -9.010789015917e-14
   161    9.184317854334e-14
   162    2.551762064366e-01
   163   -3.092892212314e-13
   164   -2.687268652271e-13
   165   -2.952413219273e-14
   166    2.582860156425e-01
   167   -3.459082455392e-13
   168   -1.372248847393e-12
   169   -5.976196877134e-13
   170    2.864445278101e-02
   171    1.070296298823e-14
   172    3.930336323257e-03
   173    2.568851178652e-03
   174    3.663937481988e-15
   175    9.017852885521e-15
   176   -1.296453843647e-13
   177   -1.206354093388e-13
   178    9.449910071977e-15
   179   -1.425557033107e-13
   180   -3.849976221449e-02
   181    6.744800340907e-14
   182    2.607055291337e-14
   183   -1.963644685979e-13
   184   -6.695324378930e-02
   185   -1.751583009582e-13
   186    3.080059787291e-13
   187   -4.203418220234e-13
   188   -5.762668929497e-02
   189   -1.172275955366e-11
   190    4.977930620942e-12
   191    1.543640765625e-12
   192    3.520587045455e-03
   193   -2.952364401270e-15
   194   -4.449195192621e-04
   195   -1.224162647263e-02
   196    1.964278341383e-14
   197   -3.505269915911e-15
   198    8.675122985583e-14
   199    3.457304259867e-14
   200   -2.744671704792e-13
   201   -1.110424030485e-12
   202   -9.161899147936e-16
   203   -3.581361110688e-15
   204   -3.051821066850e-03
Sym=X
Ene= 2.002657
Spin=Alpha
Occup=1
     1    8.202039470472e-03
     2    1.374298941621e-02
     3   -2.739318104243e-02
     4   -1.666044376527e-02
     5    4.224848883753e-15
     6   -3.791093228002e-02
     7   -4.620489680299e-02
     8   -2.748703035887e-02
     9    6.908058843779e-15
    10   -6.633536401842e-02
    11   -3.630453940836e-02
    12   -4.722726619349e-02
    13   -1.464067919647e-14
    14   -2.460091187833e-01
    15   -6.715720389809e-02
    16   -5.621097827907e-02
    17   -8.416270641053e-14
    18    5.630142349833e-04
    19   -2.204743684545e-14
    20    1.357571058697e-15
    21   -5.241802532779e-03
    22   -2.282282867285e-04
    23    1.276458146954e-03
    24    2.461900567586e-03
    25    5.644152289499e-03
    26    3.794983768827e-03
    27    2.996762123159e-04
    28    2.510751061052e-04
    29    1.658458089471e-14
    30    1.083914404994e-02
    31    1.352782971403e-02
    32    4.681904167484e-03
    33   -2.084033287599e-02
    34   -1.242269251241e-03
    35   -2.870304867109e-04
    36    9.749814821124e-15
    37   -5.362267835968e-03
    38   -2.174842061103e-03
    39    1.200061997660e-02
    40   -4.655029311701e-02
    41    3.132607263079e-05
    42    1.690460313215e-03
    43   -1.280327602689e-15
    44   -8.674899786746e-03
    45   -1.441777676621e-02
    46    2.572818080007e-02
    47    1.175153567312e-02
    48    1.308050728249e-14
    49    3.998577455385e-02
    50    4.377916580628e-02
    51    2.027234895994e-02
    52    7.574982701766e-14
    53    5.729564623882e-02
    54    3.115842075265e-02
    55   -9.856374850700e-03
    56   -1.662285996389e-13
    57    3.728555734471e-02
    58    5.269675759710e-03
    59    1.737899642170e-02
    60   -1.278953114903e-13
    61   -9.414108092031e-04
    62    3.801437410901e-15
    63   -4.817710173726e-14
    64    5.529933408816e-03
    65    9.337783226101e-03
    66    1.494086061259e-03
    67    2.522357414927e-03
    68   -1.634794186572e-02
    69   -1.205946010252e-02
    70   -3.029452241084e-14
    71   -7.399475278365e-03
    72   -2.421853724530e-02
    73   -1.896232910158e-02
    74   -2.156172037347e-14
    75   -2.402119774589e-03
    76   -2.551182367688e-02
    77   -2.325358117497e-02
    78    4.087332888957e-15
    79    1.780845412565e-02
    80    6.613067874094e-03
    81   -2.123406633744e-03
    82    1.400678512620e-13
    83    2.243751941561e-04
    84   -2.922239471547e-15
    85   -2.509909054133e-15
    86   -1.998475954126e-04
    87    2.687389754268e-04
    88   -1.961444415334e-03
    89   -3.940355445548e-03
    90    1.290213972371e-02
    91   -4.971899525480e-02
    92   -5.523338160900e-14
    93    1.276718084751e-02
    94    1.986422014265e-02
    95   -8.826515090309e-02
    96   -9.820020697774e-14
    97    6.159517283116e-03
    98   -2.609365650149e-02
    99    4.310621467771e-02
   100   -1.154566613678e-13
   101   -3.821693389785e-01
   102   -4.235918513869e-02
   103    1.903144334370e-01
   104    1.300417229866e-13
   105    8.233137620156e-04
   106    1.344803962068e-15
   107   -2.450013358704e-15
   108   -4.581267014514e-02
   109    1.851144171008e-02
   110   -1.437471253299e-03
   111   -2.124151424189e-03
   112   -2.025595498736e-01
   113    3.186519310599e-01
   114   -2.077013270451e-14
   115    7.381198954653e-03
   116   -2.323808240009e-01
   117    3.657388267032e-01
   118   -6.877374099241e-14
   119    8.704768621741e-03
   120   -1.747345138044e-01
   121    2.640003764206e-01
   122    5.229738905107e-14
   123   -7.513966924723e-03
   124    3.566620646753e-03
   125    1.817790432360e-03
   126   -1.173161258799e-13
   127    7.126241673479e-04
   128    4.934171256192e-15
   129    6.189793208538e-15
   130    1.090260080398e-02
   131   -5.606276289806e-03
   132    1.425483590693e-02
   133    2.344984084622e-02
   134   -6.226168972579e-02
   135    6.620635286677e-03
   136   -7.993783251787e-14
   137   -6.299310316192e-02
   138   -1.004901926673e-01
   139    6.173114173631e-03
   140   -1.327311663683e-13
   141   -1.160642113586e-01
   142   -8.653253512658e-02
   143    2.514780450839e-02
   144   -7.016580045454e-14
   145   -1.267205944203e-01
   146    4.752848875846e-02
   147    1.488412929123e-02
   148   -1.156537983879e-14
   149   -1.686412454649e-04
   150   -5.890924822906e-15
   151    6.421194472653e-15
   152   -1.136543971166e-03
   153    3.521812168172e-03
   154    1.717297248342e-03
   155    2.831647048377e-03
   156    6.210558852264e-04
   157   -8.868870605748e-03
   158    1.183536929392e-13
   159   -7.433382369171e-03
   160    9.980092407482e-04
   161   -1.337602482604e-02
   162    1.869858118067e-13
   163   -2.120100131680e-02
   164    6.534226280719e-03
   165   -2.151756575147e-02
   166    2.382665568270e-13
   167    1.606791759922e-02
   168    4.315019527515e-03
   169    2.858827710280e-02
   170    1.165303278377e-13
   171   -2.010737559552e-04
   172    2.152055213762e-15
   173    4.889421839059e-15
   174   -2.251875132666e-03
   175    6.549884359749e-04
   176   -1.692353663031e-02
   177   -2.744085592727e-02
   178    3.043301911496e-02
   179    5.135848466321e-02
   180   -4.926829722956e-14
   181    6.738766487469e-02
   182    5.201228492571e-02
   183    7.104056155682e-02
   184   -9.003738481682e-14
   185    1.663431150609e-01
   186   -3.263321720380e-03
   187    7.684423789172e-02
   188   -7.984115280516e-14
   189    6.850410700576e-01
   190   -8.361567114559e-02
   191    7.685418579646e-02
   192    3.259917646977e-14
   193   -8.420863647313e-04
   194    4.969361967389e-15
   195    3.568591328084e-15
   196   -3.187395592465e-03
   197   -5.420161895471e-04
   198    1.414711936132e-02
   199    1.908698554341e-02
   200    6.311392384308e-03
   201    3.003598463893e-02
   202   -1.648687812507e-03
   203    1.344629815982e-03
   204   -8.001201033401e-15
Sym=X
Ene= 2.001915
Spin=Alpha
Occup=1
     1   -2.952712148437e-03
     2   -5.089895981461e-03
     3   -1.158337360556e-02
     4    1.966490643738e-02
     5   -2.968505456806e-15
     6    1.220165228926e-02
     7   -1.964759776060e-02
     8    3.169043072073e-02
     9   -1.578057958820e-14
    10    2.247052636020e-02
    11   -1.789464886743e-02
    12    2.918841197131e-02
    13   -9.315827205342e-14
    14    4.366633169392e-02
    15   -2.543808338753e-02
    16    2.124911320137e-02
    17   -7.417450949019e-15
    18   -1.562782102521e-03
    19   -5.040181337342e-14
    20    7.722557441712e-15
    21    5.148148362174e-03
    22    1.207322697232e-03
    23    9.386407463050e-03
    24    2.603218236016e-02
    25    2.789269331147e-02
    26   -3.172883276271e-02
    27    2.576555973879e-03
    28    2.349650086560e-03
    29    2.404599751169e-14
    30   -1.345596653230e-02
    31   -2.171677235849e-02
    32   -1.379147923739e-03
    33    3.483438198963e-03
    34   -6.420356739638e-04
    35   -1.154680701010e-03
    36   -4.541143947385e-17
    37   -4.595053786385e-03
    38   -1.185361746819e-02
    39   -2.610772077538e-02
    40    1.923157779818e-02
    41    3.701323649460e-03
    42    2.328288844891e-03
    43    3.632391657871e-15
    44    1.225803137944e-02
    45    1.987709455386e-02
    46   -2.404376703861e-02
    47   -9.890847518742e-03
    48   -1.825505426825e-14
    49   -5.566271167786e-02
    50   -3.926485228184e-02
    51   -1.085020666279e-02
    52    1.491758400044e-14
    53   -3.942022975017e-02
    54   -8.285174890603e-02
    55   -1.108517408028e-01
    56   -7.265621214587e-14
    57   -9.190753501635e-03
    58   -6.478781424330e-02
    59   -8.783281842274e-02
    60   -8.254473208245e-14
    61    2.066590066413e-03
    62    7.295021751626e-14
    63   -7.028931061854e-14
    64    6.113918481857e-02
    65    2.431060954449e-02
    66   -4.870918765333e-03
    67   -8.135045925494e-03
    68   -1.247793293554e-01
    69   -1.929607492525e-01
    70   -2.370252841109e-13
    71    2.313487708384e-02
    72   -1.937411179792e-01
    73   -2.981644682253e-01
    74   -3.694514223672e-13
    75    2.168878239173e-02
    76   -1.719383121667e-01
    77   -2.702788411942e-01
    78   -3.710133900758e-13
    79    3.115716008796e-03
    80   -3.676178214505e-03
    81   -1.362324490669e-02
    82   -1.776199622399e-14
    83    6.877131535342e-05
    84   -1.423156464623e-14
    85    9.596400818668e-15
    86   -1.473063162655e-02
    87   -6.534057632428e-03
    88    1.613229304179e-02
    89    2.511266546207e-02
    90   -6.809230639028e-02
    91   -4.457092506027e-02
    92   -4.524197633403e-14
    93   -6.467962643805e-02
    94   -1.189929437071e-01
    95   -8.020125755105e-02
    96   -7.672884650641e-14
    97   -9.290725605113e-02
    98   -1.251250571041e-02
    99   -2.103015334325e-02
   100   -6.665385491586e-14
   101   -2.763535585825e-02
   102    1.997750496749e-02
   103    9.332507206430e-04
   104    6.472066831377e-15
   105    5.358348085864e-03
   106   -1.765320151782e-14
   107    2.180638529789e-14
   108   -9.935500345603e-04
   109   -2.193451423442e-02
   110    9.535583557551e-03
   111    1.342221463466e-02
   112    1.476892678711e-01
   113    7.653400184719e-02
   114   -5.724363132278e-14
   115   -4.158537020119e-02
   116    1.711262809467e-01
   117    8.843272440702e-02
   118   -6.692248164091e-14
   119    3.557870943055e-02
   120    8.476062114382e-02
   121    3.828771908564e-02
   122   -3.399704531723e-14
   123    2.352951588798e-02
   124   -8.684140976992e-04
   125   -4.558318165522e-03
   126    7.336909923548e-15
   127    6.344123836787e-03
   128    5.663430951252e-15
   129    3.903001415253e-15
   130   -4.759281278218e-03
   131   -1.048797268976e-02
   132   -1.854548434807e-02
   133   -3.105640165696e-02
   134    4.670521886545e-03
   135   -2.874487522485e-02
   136    1.034595959762e-13
   137    8.262307161060e-02
   138    1.219870998461e-02
   139   -3.609064465073e-02
   140    1.643332544292e-13
   141    1.907349750971e-01
   142   -4.016291286492e-02
   143   -5.177160967638e-02
   144    2.064229485915e-13