[Molden Format]
[Atoms] (Angs)
  C      1    6     -0.00754183     -1.75895763      0.00000000
  H      2    1     -2.09769850     -1.41880678     -0.00000000
  H      3    1     -0.13527422     -2.83956838     -0.00000000
  H      4    1      0.04053511      2.02026369      0.00000000
  C      5    6     -1.22066484      0.39918184     -0.00000000
  O      6    8     -2.25210141      1.05663720     -0.00000000
  C      7    6      1.24009552      0.27789184      0.00000000
  O      8    8      2.33767996      1.06122493      0.00000000
  N      9    7      0.03634586      1.00852936      0.00000000
  N     10    7     -1.18738304     -0.97903470     -0.00000000
  C     11    6      1.22288875     -1.12258096      0.00000000
  H     12    1      2.15640383     -1.68445878      0.00000000
[GTO]
1    0
S    6    1.000000
   4.56324000E+03    1.96665000E-03 
   6.82024000E+02    1.52306000E-02 
   1.54973000E+02    7.61269000E-02 
   4.44553000E+01    2.60801000E-01 
   1.30290000E+01    6.16462000E-01 
   1.82773000E+00    2.21006000E-01 
SP   3    1.000000
   2.09642000E+01    1.14660000E-01   4.02487000E-02 
   4.80331000E+00    9.19999000E-01   2.37594000E-01 
   1.45933000E+00   -3.03068000E-03   8.15854000E-01 
SP   1    1.000000
   4.83456000E-01    1.00000000E+00   1.00000000E+00 
SP   1    1.000000
   1.45585000E-01    1.00000000E+00   1.00000000E+00 
SP   1    1.000000
   4.38000000E-02    1.00000000E+00   1.00000000E+00 
D    1    1.000000
   6.26000000E-01    1.00000000E+00 

2    0
S    3    1.000000
   3.38650000E+01    2.54938000E-02 
   5.09479000E+00    1.90373000E-01 
   1.15879000E+00    8.52161000E-01 
S    1    1.000000
   3.25840000E-01    1.00000000E+00 
S    1    1.000000
   1.02741000E-01    1.00000000E+00 
S    1    1.000000
   3.60000000E-02    1.00000000E+00 
P    1    1.000000
   7.50000000E-01    1.00000000E+00 

3    0
S    3    1.000000
   3.38650000E+01    2.54938000E-02 
   5.09479000E+00    1.90373000E-01 
   1.15879000E+00    8.52161000E-01 
S    1    1.000000
   3.25840000E-01    1.00000000E+00 
S    1    1.000000
   1.02741000E-01    1.00000000E+00 
S    1    1.000000
   3.60000000E-02    1.00000000E+00 
P    1    1.000000
   7.50000000E-01    1.00000000E+00 

4    0
S    3    1.000000
   3.38650000E+01    2.54938000E-02 
   5.09479000E+00    1.90373000E-01 
   1.15879000E+00    8.52161000E-01 
S    1    1.000000
   3.25840000E-01    1.00000000E+00 
S    1    1.000000
   1.02741000E-01    1.00000000E+00 
S    1    1.000000
   3.60000000E-02    1.00000000E+00 
P    1    1.000000
   7.50000000E-01    1.00000000E+00 

5    0
S    6    1.000000
   4.56324000E+03    1.96665000E-03 
   6.82024000E+02    1.52306000E-02 
   1.54973000E+02    7.61269000E-02 
   4.44553000E+01    2.60801000E-01 
   1.30290000E+01    6.16462000E-01 
   1.82773000E+00    2.21006000E-01 
SP   3    1.000000
   2.09642000E+01    1.14660000E-01   4.02487000E-02 
   4.80331000E+00    9.19999000E-01   2.37594000E-01 
   1.45933000E+00   -3.03068000E-03   8.15854000E-01 
SP   1    1.000000
   4.83456000E-01    1.00000000E+00   1.00000000E+00 
SP   1    1.000000
   1.45585000E-01    1.00000000E+00   1.00000000E+00 
SP   1    1.000000
   4.38000000E-02    1.00000000E+00   1.00000000E+00 
D    1    1.000000
   6.26000000E-01    1.00000000E+00 

6    0
S    6    1.000000
   8.58850000E+03    1.89515000E-03 
   1.29723000E+03    1.43859000E-02 
   2.99296000E+02    7.07320000E-02 
   8.73771000E+01    2.40001000E-01 
   2.56789000E+01    5.94797000E-01 
   3.74004000E+00    2.80802000E-01 
SP   3    1.000000
   4.21175000E+01    1.13889000E-01   3.65114000E-02 
   9.62837000E+00    9.20811000E-01   2.37153000E-01 
   2.85332000E+00   -3.27447000E-03   8.19702000E-01 
SP   1    1.000000
   9.05661000E-01    1.00000000E+00   1.00000000E+00 
SP   1    1.000000
   2.55611000E-01    1.00000000E+00   1.00000000E+00 
SP   1    1.000000
   8.45000000E-02    1.00000000E+00   1.00000000E+00 
D    1    1.000000
   1.29200000E+00    1.00000000E+00 

7    0
S    6    1.000000
   4.56324000E+03    1.96665000E-03 
   6.82024000E+02    1.52306000E-02 
   1.54973000E+02    7.61269000E-02 
   4.44553000E+01    2.60801000E-01 
   1.30290000E+01    6.16462000E-01 
   1.82773000E+00    2.21006000E-01 
SP   3    1.000000
   2.09642000E+01    1.14660000E-01   4.02487000E-02 
   4.80331000E+00    9.19999000E-01   2.37594000E-01 
   1.45933000E+00   -3.03068000E-03   8.15854000E-01 
SP   1    1.000000
   4.83456000E-01    1.00000000E+00   1.00000000E+00 
SP   1    1.000000
   1.45585000E-01    1.00000000E+00   1.00000000E+00 
SP   1    1.000000
   4.38000000E-02    1.00000000E+00   1.00000000E+00 
D    1    1.000000
   6.26000000E-01    1.00000000E+00 

8    0
S    6    1.000000
   8.58850000E+03    1.89515000E-03 
   1.29723000E+03    1.43859000E-02 
   2.99296000E+02    7.07320000E-02 
   8.73771000E+01    2.40001000E-01 
   2.56789000E+01    5.94797000E-01 
   3.74004000E+00    2.80802000E-01 
SP   3    1.000000
   4.21175000E+01    1.13889000E-01   3.65114000E-02 
   9.62837000E+00    9.20811000E-01   2.37153000E-01 
   2.85332000E+00   -3.27447000E-03   8.19702000E-01 
SP   1    1.000000
   9.05661000E-01    1.00000000E+00   1.00000000E+00 
SP   1    1.000000
   2.55611000E-01    1.00000000E+00   1.00000000E+00 
SP   1    1.000000
   8.45000000E-02    1.00000000E+00   1.00000000E+00 
D    1    1.000000
   1.29200000E+00    1.00000000E+00 

9    0
S    6    1.000000
   6.29348000E+03    1.96979000E-03 
   9.49044000E+02    1.49613000E-02 
   2.18776000E+02    7.35006000E-02 
   6.36916000E+01    2.48937000E-01 
   1.88282000E+01    6.02460000E-01 
   2.72023000E+00    2.56202000E-01 
SP   3    1.000000
   3.06331000E+01    1.11906000E-01   3.83119000E-02 
   7.02614000E+00    9.21666000E-01   2.37403000E-01 
   2.11205000E+00   -2.56919000E-03   8.17592000E-01 
SP   1    1.000000
   6.84009000E-01    1.00000000E+00   1.00000000E+00 
SP   1    1.000000
   2.00878000E-01    1.00000000E+00   1.00000000E+00 
SP   1    1.000000
   6.39000000E-02    1.00000000E+00   1.00000000E+00 
D    1    1.000000
   9.13000000E-01    1.00000000E+00 

10    0
S    6    1.000000
   6.29348000E+03    1.96979000E-03 
   9.49044000E+02    1.49613000E-02 
   2.18776000E+02    7.35006000E-02 
   6.36916000E+01    2.48937000E-01 
   1.88282000E+01    6.02460000E-01 
   2.72023000E+00    2.56202000E-01 
SP   3    1.000000
   3.06331000E+01    1.11906000E-01   3.83119000E-02 
   7.02614000E+00    9.21666000E-01   2.37403000E-01 
   2.11205000E+00   -2.56919000E-03   8.17592000E-01 
SP   1    1.000000
   6.84009000E-01    1.00000000E+00   1.00000000E+00 
SP   1    1.000000
   2.00878000E-01    1.00000000E+00   1.00000000E+00 
SP   1    1.000000
   6.39000000E-02    1.00000000E+00   1.00000000E+00 
D    1    1.000000
   9.13000000E-01    1.00000000E+00 

11    0
S    6    1.000000
   4.56324000E+03    1.96665000E-03 
   6.82024000E+02    1.52306000E-02 
   1.54973000E+02    7.61269000E-02 
   4.44553000E+01    2.60801000E-01 
   1.30290000E+01    6.16462000E-01 
   1.82773000E+00    2.21006000E-01 
SP   3    1.000000
   2.09642000E+01    1.14660000E-01   4.02487000E-02 
   4.80331000E+00    9.19999000E-01   2.37594000E-01 
   1.45933000E+00   -3.03068000E-03   8.15854000E-01 
SP   1    1.000000
   4.83456000E-01    1.00000000E+00   1.00000000E+00 
SP   1    1.000000
   1.45585000E-01    1.00000000E+00   1.00000000E+00 
SP   1    1.000000
   4.38000000E-02    1.00000000E+00   1.00000000E+00 
D    1    1.000000
   6.26000000E-01    1.00000000E+00 

12    0
S    3    1.000000
   3.38650000E+01    2.54938000E-02 
   5.09479000E+00    1.90373000E-01 
   1.15879000E+00    8.52161000E-01 
S    1    1.000000
   3.25840000E-01    1.00000000E+00 
S    1    1.000000
   1.02741000E-01    1.00000000E+00 
S    1    1.000000
   3.60000000E-02    1.00000000E+00 
P    1    1.000000
   7.50000000E-01    1.00000000E+00 

[MO]
Sym=X
Ene= 2.013950
Spin=Alpha
Occup=1
     1    1.145645124031e-14
     2    1.096351497056e-14
     3   -1.872358042411e-14
     4    5.332574228553e-15
     5    5.352112090322e-02
     6    7.232979111523e-15
     7   -4.014297430685e-14
     8    1.950827716644e-14
     9    9.084593273809e-02
    10    5.652225069105e-14
    11    2.392023855518e-13
    12   -4.988046190581e-14
    13    9.511278568916e-02
    14   -9.309091151028e-12
    15   -2.374598059157e-12
    16   -2.267009120122e-12
    17    1.253637054278e-02
    18    3.449956455955e-15
    19    1.464305203145e-02
    20    5.387900552347e-03
    21   -9.053358017922e-15
    22   -8.126154291742e-16
    23    7.377796926762e-15
    24    1.265497265369e-14
    25    4.986248380880e-13
    26    9.300644518279e-13
    27    8.776743530610e-15
    28    5.504624035544e-15
    29   -4.010964791574e-03
    30    2.849267265376e-15
    31   -5.374421087040e-14
    32    1.399294439089e-13
    33   -1.029064531483e-12
    34   -3.943722454719e-15
    35   -7.149418824804e-15
    36    4.201606317136e-03
    37   -7.332694753289e-15
    38    2.276307724289e-15
    39    8.442381848306e-13
    40   -8.996430775501e-13
    41    1.851021779750e-15
    42    8.369772131308e-15
    43    3.705049048178e-03
    44    9.141106991809e-15
    45    8.635299887394e-15
    46   -1.798679977152e-14
    47    3.291416143552e-14
    48    7.442595127792e-04
    49    8.301059734179e-15
    50   -4.429556453082e-14
    51    2.164168258549e-14
    52   -1.278061987247e-03
    53   -6.491966145632e-13
    54    3.834565940276e-13
    55    4.267712539113e-13
    56    5.267898166557e-03
    57   -5.161607916964e-13
    58    5.927754916671e-13
    59    1.201206351853e-12
    60    1.823421874686e-02
    61    1.312996417465e-14
    62    8.835810787347e-03
    63    8.452800514156e-03
    64    5.259549237562e-16
    65   -5.563471458724e-15
    66    3.334258851785e-14
    67    1.720256704794e-14
    68    2.375364256772e-14
    69    4.053661138333e-15
    70   -3.677146012239e-03
    71    6.323336664796e-14
    72    4.474458070766e-14
    73    2.665468917960e-14
    74   -5.751758487457e-03
    75    1.031071504204e-13
    76    1.178361038613e-13
    77   -4.240440003920e-14
    78   -4.257684281050e-03
    79    3.708184234809e-13
    80   -2.202462333801e-14
    81   -4.055794158807e-13
    82   -1.081486202334e-02
    83   -2.323918570415e-15
    84    2.690105118183e-05
    85    3.798498149201e-04
    86    3.576424209074e-15
    87   -1.032244390665e-15
    88    5.080066786575e-14
    89    4.262786483769e-14
    90   -9.525484366537e-15
    91   -1.961144268746e-15
    92   -2.871412783435e-02
    93   -1.572208616706e-14
    94    3.133304700177e-15
    95   -1.923663382234e-14
    96   -5.280866107394e-02
    97    1.213040482201e-13
    98   -1.361524166256e-14
    99    4.203533010175e-13
   100   -5.500463144253e-02
   101    6.332822313839e-12
   102   -1.667978614486e-12
   103   -9.589824158991e-14
   104   -3.518601328492e-02
   105   -1.549753331091e-14
   106   -3.727644494047e-02
   107   -2.754822245011e-02
   108    3.323744476440e-15
   109   -1.102633532114e-14
   110   -1.151382582121e-14
   111   -1.820157975840e-14
   112    2.693516884063e-14
   113    2.731579725582e-14
   114   -3.602410255628e-01
   115    6.694918840564e-14
   116    5.546538589215e-14
   117   -7.444908866911e-15
   118   -4.120065103836e-01
   119   -1.986835187421e-14
   120    2.412186242730e-14
   121    7.638811782101e-14
   122   -2.881208501248e-01
   123   -2.558055041098e-14
   124    1.818718796106e-13
   125    4.360492884105e-14
   126   -2.935129823580e-02
   127   -8.011209129014e-16
   128    1.555363972455e-02
   129    1.013793423096e-02
   130   -3.181044848497e-15
   131    9.368232102678e-17
   132    2.901655010638e-16
   133    7.662386415044e-15
   134    3.616841507747e-14
   135   -1.776826988881e-14
   136    5.688928370949e-02
   137   -4.181194259847e-14
   138    2.826586971168e-14
   139   -2.265294202334e-14
   140    9.153264405484e-02
   141    1.118291904049e-13
   142    1.520113247643e-13
   143   -5.235731424904e-14
   144    1.072806912554e-01
   145   -6.216439811921e-12
   146   -3.642120356630e-13
   147    6.990835467730e-13
   148    2.237216032869e-02
   149   -8.694546648566e-15
   150   -1.980668679970e-03
   151   -1.558032477395e-03
   152    2.243466067876e-15
   153    2.689420095433e-15
   154   -6.898712067942e-14
   155   -5.410498662204e-14
   156    1.248970562599e-15
   157   -1.038113191984e-14
   158   -3.654584062410e-02
   159   -1.377294765866e-14
   160    1.249915653908e-14
   161   -3.462851231243e-14
   162   -5.817121346002e-02
   163   -1.525403185712e-13
   164   -3.418013333501e-14
   165    1.744287220016e-13
   166   -8.226946588386e-02
   167    4.086461072498e-12
   168    1.776918256294e-12
   169    1.246589831344e-12
   170   -3.438778032060e-02
   171    7.676262468788e-15
   172    3.808275623089e-03
   173   -2.841855684773e-03
   174    8.518622428271e-15
   175   -5.445296440145e-15
   176   -1.517797595604e-15
   177    3.948303371988e-15
   178    2.208091300831e-14
   179    3.683240687161e-14
   180    6.891027161209e-02
   181   -2.638440759458e-14
   182    1.052008689130e-14
   183    4.288396419827e-14
   184    1.167298743666e-01
   185    2.568286027141e-13
   186    4.023525498955e-13
   187    4.055224338073e-13
   188    1.347951760773e-01
   189    5.870052196809e-12
   190   -9.672414911806e-13
   191   -2.128197151000e-12
   192    2.066593721600e-02
   193    5.308039658842e-15
   194   -1.144034959142e-02
   195   -4.365268232605e-03
   196   -1.429330621394e-15
   197    4.710115938234e-15
   198   -2.959370416191e-14
   199   -2.622664661040e-14
   200   -6.644024660716e-13
   201   -1.846997866340e-13
   202   -5.680201248601e-15
   203    4.527144310672e-15
   204    4.540122672225e-03
Sym=X
Ene= 2.003845
Spin=Alpha
Occup=1
     1   -6.066276296570e-14
     2   -6.497375049557e-14
     3   -8.769641130588e-14
     4   -1.275924609766e-14
     5   -2.690757455077e-02
     6    8.525859749918e-14
     7   -1.376332656407e-13
     8    7.264211211832e-16
     9   -4.846684549634e-02
    10   -3.766911451742e-13
    11   -1.052472877048e-14
    12   -4.480582904173e-13
    13   -1.310506569348e-02
    14   -1.440255892668e-11
    15   -3.161911609533e-12
    16   -3.110568288819e-12
    17   -1.462913042328e-04
    18   -3.692442515914e-15
    19    2.208548738678e-02
    20   -7.365672524175e-03
    21   -1.478205773787e-14
    22   -6.127723467408e-15
    23    3.710938999931e-15
    24   -3.886566319239e-14
    25    7.194137298539e-13
    26   -2.948046933274e-13
    27    4.787883711219e-15
    28    3.776427396911e-15
    29   -1.359582749313e-02
    30    3.647559282044e-14
    31   -7.809510711098e-16
    32   -1.972589622267e-13
    33   -9.489575319947e-13
    34   -7.988833868158e-15
    35    1.645537660150e-15
    36   -2.161363234144e-03
    37   -9.712900095266e-15
    38    1.223235332872e-13
    39   -9.537660050125e-13
    40    3.446019170947e-13
    41    1.558155898824e-15
    42    3.235581986429e-15
    43    1.219807814156e-02
    44   -7.761337038841e-14
    45   -4.696438408089e-14
    46    1.713406433198e-14
    47   -2.952333441804e-14
    48   -2.886067026555e-02
    49   -8.506096096806e-14
    50    9.621288367785e-15
    51   -4.555725546837e-14
    52   -5.178397594490e-02
    53   -1.715750381234e-13
    54   -2.980033323329e-13
    55    1.532515764811e-13
    56   -2.668217955756e-02
    57    2.834314235134e-12
    58    2.848447439730e-13
    59   -1.328525625204e-12
    60   -1.517816185435e-03
    61    1.320657525992e-14
    62    2.623399895239e-02
    63    2.349325535083e-02
    64    8.105804574258e-15
    65    9.663328521339e-15
    66   -9.537581208428e-14
    67   -3.956661961033e-14
    68   -3.847247613865e-14
    69   -5.463809587383e-14
    70   -4.656367454972e-02
    71   -2.419356617304e-13
    72   -6.299975834501e-14
    73   -7.607639367460e-14
    74   -7.316254421331e-02
    75   -2.613459751944e-13
    76   -6.575506254665e-14
    77   -9.766358904717e-14
    78   -6.512345137243e-02
    79   -3.065307513708e-13
    80   -1.260497872378e-13
    81    1.725361996843e-13
    82   -4.561645730068e-03
    83    1.856052831605e-15
    84   -4.441685754235e-03
    85    3.550673054831e-03
    86   -7.534193556005e-15
    87    8.138910966699e-16
    88   -8.129176043090e-15
    89   -4.119265479418e-14
    90   -1.540399006576e-14
    91   -7.853407531184e-14
    92    9.789887419363e-02
    93    1.883886592340e-13
    94   -5.839012594515e-15
    95   -1.251501929519e-13
    96    1.755760548728e-01
    97   -2.189406183897e-13
    98    6.029114354590e-14
    99    8.850402105521e-14
   100    1.013560572158e-01
   101   -5.404174780065e-13
   102    1.790983981664e-12
   103   -1.337574406287e-12
   104    2.280367147225e-02
   105   -3.752791452507e-15
   106   -1.413564392900e-02
   107    1.191806298802e-02
   108   -2.723117770051e-14
   109    9.184050659428e-15
   110   -8.661466435690e-15
   111   -1.211270218756e-14
   112   -4.261942660613e-14
   113    1.112135942604e-13
   114    6.184558149751e-02
   115    4.323581364899e-14
   116   -5.403837074319e-14
   117    1.323070495091e-13
   118    7.554622247480e-02
   119    9.092443882110e-16
   120   -2.831916213191e-14
   121    7.853713488506e-14
   122    4.210655877893e-02
   123   -9.804158558535e-14
   124   -1.938388294966e-14
   125   -5.491188829988e-15
   126   -2.147282238388e-02
   127    5.953388386949e-16
   128   -9.067170715185e-03
   129   -5.722904625444e-03
   130    1.122032005235e-15
   131   -1.775921401709e-15
   132    6.842058497476e-14
   133    6.465813899355e-14
   134   -1.930180475676e-15
   135    3.322258868761e-15
   136    1.634719776543e-01
   137   -5.451316250713e-14
   138    1.014871216718e-14
   139    3.780247832088e-15
   140    2.684803710729e-01
   141    2.210597999312e-13
   142   -9.183976075205e-14
   143   -1.126102151946e-13
   144    2.667994976798e-01
   145    1.207030207696e-12
   146    4.405718642708e-13
   147    1.416089811098e-12
   148    1.242423899200e-02
   149   -2.167450257028e-15
   150    9.175128398255e-03
   151   -7.907429956487e-03
   152   -1.356164379058e-15
   153   -4.373289437987e-15
   154    3.839846764966e-14
   155    1.346956851638e-14
   156    4.995560125652e-14
   157   -3.161758983272e-14
   158   -1.578619676413e-01
   159    8.855770033616e-14
   160    6.510358253335e-14
   161   -6.204251145351e-14
   162   -2.589793943396e-01
   163    3.156950014911e-13
   164    2.469977360256e-13
   165    4.565563584068e-14
   166   -2.617555353572e-01
   167    1.951433040568e-13
   168    1.297181202426e-12
   169    5.291961941380e-13
   170   -2.729862373152e-02
   171   -1.035692537754e-14
   172   -3.995889610132e-03
   173   -3.113067814080e-03
   174   -4.061052057641e-15
   175   -7.219198996170e-15
   176    1.233518643645e-13
   177    1.122891759531e-13
   178   -1.772680654194e-14
   179    1.280121138954e-13
   180    4.075626028811e-02
   181   -5.166813522291e-14
   182   -3.853385189084e-14
   183    1.778394852071e-13
   184    7.111334720948e-02
   185    1.395707734678e-13
   186   -3.259834807657e-13
   187    3.791609847916e-13
   188    5.986626394283e-02
   189    1.122525635731e-11
   190   -4.922835456803e-12
   191   -1.505316890255e-12
   192   -3.804348001927e-03
   193    2.212387305815e-15
   194   -1.359759284206e-05
   195    1.261861610610e-02
   196   -2.067098431695e-14
   197    4.366822053801e-15
   198   -8.287730016560e-14
   199   -3.127888412555e-14
   200    2.984539700230e-13
   201    1.110257730229e-12
   202    4.100001906524e-16
   203    4.262364332291e-15
   204    3.262940354505e-03
Sym=X
Ene= 2.002143
Spin=Alpha
Occup=1
     1   -8.798259691543e-03
     2   -1.473525878654e-02
     3    2.452868191540e-02
     4    2.811393734593e-02
     5   -1.906201237558e-15
     6    3.963566842089e-02
     7    4.095770750666e-02
     8    4.540363836792e-02
     9   -7.408723511728e-15
    10    6.770993260821e-02
    11    2.792634502082e-02
    12    6.184949968613e-02
    13   -2.850120039864e-14
    14    2.637138205941e-01
    15    5.273356912959e-02
    16    7.132424674991e-02
    17    8.022971454942e-14
    18   -1.212631477355e-03
    19   -5.606484676097e-15
    20    3.122697130238e-15
    21    8.180355219407e-03
    22    8.458012246368e-04
    23    4.231600404921e-03
    24    1.098627593516e-02
    25    6.094645892559e-03
    26   -1.566482712534e-02
    27    9.542135814334e-04
    28    6.042281755325e-04
    29   -2.043665478230e-15
    30   -1.979171936988e-02
    31   -2.770245756397e-02
    32   -4.004074867598e-03
    33    2.790863471144e-02
    34    9.573896416271e-04
    35   -7.312557734614e-04
    36   -8.523055822939e-15
    37   -1.588286147223e-03
    38   -8.140943604265e-03
    39   -1.535808143761e-02
    40    5.350862683903e-02
    41    2.093156155459e-03
    42   -8.721129708930e-05
    43    6.842297110843e-16
    44    1.444454892922e-02
    45    2.392293613778e-02
    46   -3.443835189039e-02
    47   -1.504491692848e-02
    48   -1.652537581867e-14
    49   -6.742736654189e-02
    50   -5.819932541440e-02
    51   -2.343708876501e-02
    52   -5.166996136218e-14
    53   -7.754519292238e-02
    54   -6.437269287096e-02
    55   -3.358159183626e-02
    56    1.276836917106e-13
    57   -5.099565321638e-02
    58   -3.442677009186e-02
    59   -4.910573152700e-02
    60    7.326033823431e-14
    61    1.912642653671e-03
    62    2.435411260239e-14
    63    8.929659331066e-15
    64    2.020222542455e-02
    65    2.638874416737e-04
    66   -4.380262918308e-03
    67   -7.377533736069e-03
    68   -3.542097651283e-02
    69   -6.468448526175e-02
    70   -6.278122454982e-14
    71    2.129935597289e-02
    72   -5.615120712741e-02
    73   -9.953432401834e-02
    74   -1.200001122395e-13
    75    1.654826231805e-02
    76   -4.475420784546e-02
    77   -8.478721615348e-02
    78   -1.466189134803e-13
    79   -1.409824127784e-02
    80   -6.489115890858e-03
    81   -3.556559304041e-03
    82   -1.274971040739e-13
    83   -1.331182489249e-04
    84   -2.416606122301e-15
    85    5.436924235784e-15
    86   -5.796029865803e-03
    87   -2.639659135379e-03
    88    1.065798163680e-02
    89    1.725575389933e-02
    90   -5.669321154158e-02
    91    3.426668812543e-02
    92    1.860636327920e-14
    93   -4.680729622417e-02
    94   -9.580937296711e-02
    95    5.823944581991e-02
    96    3.591820728341e-14
    97   -5.063113467744e-02
    98    1.166320106173e-02
    99   -4.597527032975e-02
   100    6.427766154880e-14
   101    3.384109077760e-01
   102    3.649933407811e-02
   103   -1.616234859000e-01
   104   -1.041111915280e-13
   105    1.640590997201e-03
   106   -5.509485836199e-15
   107    1.079576487636e-14
   108    4.150381302194e-02
   109   -3.018743124114e-02
   110    1.149203651079e-02
   111    1.651900994872e-02
   112    2.494629343810e-01
   113   -2.370919059730e-01
   114    1.916817602648e-15
   115   -5.456700376702e-02
   116    2.866863258658e-01
   117   -2.707185216276e-01
   118    4.085895142136e-14
   119   -1.830446639437e-03
   120    1.912422647956e-01
   121   -2.078059765565e-01
   122   -5.231980414302e-14
   123    2.208899424341e-02
   124   -5.150264759025e-03
   125   -4.089816509912e-03
   126    1.082414612436e-13
   127    3.041499713844e-03
   128   -1.776256754188e-15
   129   -3.089678544505e-15
   130   -1.167365844878e-02
   131   -3.863689804851e-04
   132   -2.315007705331e-02
   133   -3.819841447681e-02
   134    6.966877822662e-02
   135   -2.676429331939e-02
   136    8.848038916429e-14
   137    1.016309237947e-01
   138    1.141123711752e-01
   139   -3.479825659091e-02
   140    1.448750945689e-13
   141    1.921720854617e-01
   142    7.298506701280e-02
   143   -5.670355403606e-02
   144    1.038910238092e-13
   145    1.831516230365e-01
   146   -5.250466899646e-02
   147   -2.442766381606e-02
   148    3.027649226024e-14
   149    5.158638470082e-04
   150    6.950727480380e-15
   151   -6.579593688040e-15
   152   -8.597092594652e-04
   153   -7.237191612165e-03
   154    3.448565633768e-03
   155    5.692212569293e-03
   156   -1.915134974070e-03
   157   -1.373860862079e-02
   158    2.790335457994e-14
   159   -1.527402317843e-02
   160   -1.910188782507e-03
   161   -1.877123058640e-02
   162    5.055292433708e-14
   163   -3.854733780342e-02
   164   -2.381874685963e-03
   165   -1.849805458886e-02
   166    2.754137705340e-14
   167   -9.556882008032e-02
   168   -7.530136074496e-03
   169   -3.048344265445e-02
   170   -5.144809176598e-14
   171   -6.000013089708e-04
   172   -8.857804780256e-16
   173   -4.679423093147e-15
   174    2.761769102738e-03
   175   -1.121097286933e-03
   176    1.289414677054e-02
   177    2.076782003402e-02
   178   -3.608861693210e-02
   179   -4.657373441259e-02
   180   -1.322630069262e-14
   181   -5.102090442490e-02
   182   -5.989213977043e-02
   183   -6.538298170248e-02
   184   -2.178498907125e-14
   185   -1.396843221840e-01
   186   -1.012715883191e-03
   187   -6.920268541889e-02
   188   -2.200690588593e-14
   189   -6.220655979521e-01
   190    8.813225629088e-02
   191   -7.827908888375e-02
   192   -5.730908595684e-14
   193    1.978524805817e-04
   194   -2.543610699516e-15
   195   -6.557234606675e-15
   196    5.383130294982e-03
   197   -3.531830900494e-03
   198   -1.421258839936e-02
   199   -1.969134971842e-02
   200   -4.079305357882e-03
   201   -4.223470735595e-02
   202    2.524294159054e-03
   203   -1.958531390986e-03
   204    7.002131124664e-16
Sym=X
Ene= 2.001838
Spin=Alpha
Occup=1
     1   -1.631582654962e-03
     2   -2.632980292395e-03
     3    2.162244927570e-02
     4   -1.178862342761e-02
     5    1.482010147547e-14
     6    9.072157141564e-03
     7    3.646157194883e-02
     8   -1.849999176892e-02
     9    3.606356017171e-14
    10    1.307200800341e-02
    11    3.156423403386e-02
    12   -4.533735933557e-03
    13    1.081182384522e-13
    14    9.970527250283e-02
    15    4.925939894368e-02
    16    2.149847380365e-02
    17    5.046267210435e-14
    18    1.228370939611e-03
    19    5.413992774105e-14
    20   -5.552993331435e-15
    21   -1.937791855917e-03
    22   -1.718903749592e-03
    23   -1.107446397385e-02
    24   -2.747412348921e-02
    25   -2.406003305682e-02
    26    3.272290174342e-02
    27   -2.794105725452e-03
    28   -2.395691986210e-03
    29   -2.698941188619e-14
    30    8.650948233412e-03
    31    1.545805997081e-02
    32   -8.237345720808e-04
    33    1.721946725667e-02
    34    1.033998618289e-03
    35    1.587400235770e-03
    36   -3.201793831036e-15
    37    7.383622850517e-03
    38    1.156531507312e-02
    39    1.742722244480e-02
    40    1.675421942051e-04
    41   -2.965289463411e-03
    42   -3.064616715142e-03
    43   -6.221446183642e-15
    44   -6.773745690379e-03
    45   -1.109858671095e-02
    46    5.211591442704e-03
    47    4.248669973911e-03
    48    8.509454950644e-15
    49    3.263833089846e-02
    50    7.450772053045e-03
    51    2.168927110087e-03
    52   -4.978253230196e-14
    53    1.712051247378e-02
    54    5.848834009025e-02
    55    1.044784583438e-01
    56    1.412337673803e-13
    57   -1.651593733727e-02
    58    5.203045170947e-02
    59    7.399643686505e-02
    60    1.226291786374e-13
    61   -1.289164937610e-03
    62   -7.773185443939e-14
    63    8.170182320722e-14
    64   -5.625917119169e-02
    65   -2.690651469583e-02
    66    4.308141199618e-03
    67    7.245988116951e-03
    68    1.212680891777e-01
    69    1.721591672898e-01
    70    2.432968288072e-13
    71   -2.058841215219e-02
    72    1.875329266692e-01
    73    2.663679957498e-01
    74    3.678075356759e-13
    75   -2.641763053472e-02
    76    1.652540924871e-01
    77    2.455633534725e-01
    78    3.565668572158e-13
    79   -1.414978104149e-02
    80    7.590082875667e-04
    81    1.226886196266e-02
    82   -3.581789748166e-14
    83   -2.467067552479e-04
    84    1.491888621188e-14
    85   -8.555586631031e-15
    86    1.333041728094e-02
    87    5.042805533979e-03
    88   -1.208449832744e-02
    89   -1.864706090472e-02
    90    5.440986955496e-02
    91    7.252697836598e-02
    92    4.769145140513e-14
    93    4.784907921685e-02
    94    9.713851544882e-02
    95    1.285448502881e-01
    96    8.188604044972e-14
    97    8.328298519069e-02
    98    2.366240719313e-02
    99    4.242928031919e-03
   100    9.412350592073e-14
   101    2.535191605658e-01
   102   -1.500798330971e-02
   103   -8.926137148043e-02
   104   -5.596446435276e-14
   105   -5.312483428913e-03
   106    2.151697850597e-14
   107   -2.444509429040e-14
   108    2.196289504729e-02
   109    1.103212226583e-02
   110   -5.810584465745e-03
   111   -8.038471176394e-03
   112   -5.090090060677e-02
   113   -2.079958953000e-01
   114    5.885566737958e-14
   115    2.318715794586e-02
   116   -6.025107128000e-02
   117   -2.387527899671e-01
   118    8.695784381490e-14
   119   -4.356781677314e-02
   120   -3.221896473834e-03
   121   -1.471477220674e-01
   122    7.523653491631e-15
   123   -2.343691950646e-02
   124    1.276797298583e-03
   125    4.117373234190e-03
   126    4.372586684622e-14
   127   -6.317156225280e-03
   128   -6.170196065122e-15
   129   -5.449413283718e-15
   130    3.704559515687e-04
   131    1.255046384760e-02
   132    9.328710593631e-03
   133    1.587229082452e-02
   134    2.896672044793e-02
   135    2.364169378462e-02
   136   -1.145881083977e-13
   137   -4.189096081768e-02
   138    4.241117922041e-02
   139    3.097672619575e-02
   140   -1.820509935934e-13
   141   -1.164639567161e-01
   142    8.094849486949e-02
   143    3.683688095780e-02
   144   -2.504880476130e-13