[Molden Format]
[Atoms] (Angs)
  C      1    6     -0.00754183     -1.75895763      0.00000000
  H      2    1     -2.09769850     -1.41880678     -0.00000000
  H      3    1     -0.13527422     -2.83956838     -0.00000000
  H      4    1      0.04053511      2.02026369      0.00000000
  C      5    6     -1.22066484      0.39918184     -0.00000000
  O      6    8     -2.25210141      1.05663720     -0.00000000
  C      7    6      1.24009552      0.27789184      0.00000000
  O      8    8      2.33767996      1.06122493      0.00000000
  N      9    7      0.03634586      1.00852936      0.00000000
  N     10    7     -1.18738304     -0.97903470     -0.00000000
  C     11    6      1.22288875     -1.12258096      0.00000000
  H     12    1      2.15640383     -1.68445878      0.00000000
[GTO]
1    0
S    6    1.000000
   4.56324000E+03    1.96665000E-03 
   6.82024000E+02    1.52306000E-02 
   1.54973000E+02    7.61269000E-02 
   4.44553000E+01    2.60801000E-01 
   1.30290000E+01    6.16462000E-01 
   1.82773000E+00    2.21006000E-01 
SP   3    1.000000
   2.09642000E+01    1.14660000E-01   4.02487000E-02 
   4.80331000E+00    9.19999000E-01   2.37594000E-01 
   1.45933000E+00   -3.03068000E-03   8.15854000E-01 
SP   1    1.000000
   4.83456000E-01    1.00000000E+00   1.00000000E+00 
SP   1    1.000000
   1.45585000E-01    1.00000000E+00   1.00000000E+00 
SP   1    1.000000
   4.38000000E-02    1.00000000E+00   1.00000000E+00 
D    1    1.000000
   6.26000000E-01    1.00000000E+00 

2    0
S    3    1.000000
   3.38650000E+01    2.54938000E-02 
   5.09479000E+00    1.90373000E-01 
   1.15879000E+00    8.52161000E-01 
S    1    1.000000
   3.25840000E-01    1.00000000E+00 
S    1    1.000000
   1.02741000E-01    1.00000000E+00 
S    1    1.000000
   3.60000000E-02    1.00000000E+00 
P    1    1.000000
   7.50000000E-01    1.00000000E+00 

3    0
S    3    1.000000
   3.38650000E+01    2.54938000E-02 
   5.09479000E+00    1.90373000E-01 
   1.15879000E+00    8.52161000E-01 
S    1    1.000000
   3.25840000E-01    1.00000000E+00 
S    1    1.000000
   1.02741000E-01    1.00000000E+00 
S    1    1.000000
   3.60000000E-02    1.00000000E+00 
P    1    1.000000
   7.50000000E-01    1.00000000E+00 

4    0
S    3    1.000000
   3.38650000E+01    2.54938000E-02 
   5.09479000E+00    1.90373000E-01 
   1.15879000E+00    8.52161000E-01 
S    1    1.000000
   3.25840000E-01    1.00000000E+00 
S    1    1.000000
   1.02741000E-01    1.00000000E+00 
S    1    1.000000
   3.60000000E-02    1.00000000E+00 
P    1    1.000000
   7.50000000E-01    1.00000000E+00 

5    0
S    6    1.000000
   4.56324000E+03    1.96665000E-03 
   6.82024000E+02    1.52306000E-02 
   1.54973000E+02    7.61269000E-02 
   4.44553000E+01    2.60801000E-01 
   1.30290000E+01    6.16462000E-01 
   1.82773000E+00    2.21006000E-01 
SP   3    1.000000
   2.09642000E+01    1.14660000E-01   4.02487000E-02 
   4.80331000E+00    9.19999000E-01   2.37594000E-01 
   1.45933000E+00   -3.03068000E-03   8.15854000E-01 
SP   1    1.000000
   4.83456000E-01    1.00000000E+00   1.00000000E+00 
SP   1    1.000000
   1.45585000E-01    1.00000000E+00   1.00000000E+00 
SP   1    1.000000
   4.38000000E-02    1.00000000E+00   1.00000000E+00 
D    1    1.000000
   6.26000000E-01    1.00000000E+00 

6    0
S    6    1.000000
   8.58850000E+03    1.89515000E-03 
   1.29723000E+03    1.43859000E-02 
   2.99296000E+02    7.07320000E-02 
   8.73771000E+01    2.40001000E-01 
   2.56789000E+01    5.94797000E-01 
   3.74004000E+00    2.80802000E-01 
SP   3    1.000000
   4.21175000E+01    1.13889000E-01   3.65114000E-02 
   9.62837000E+00    9.20811000E-01   2.37153000E-01 
   2.85332000E+00   -3.27447000E-03   8.19702000E-01 
SP   1    1.000000
   9.05661000E-01    1.00000000E+00   1.00000000E+00 
SP   1    1.000000
   2.55611000E-01    1.00000000E+00   1.00000000E+00 
SP   1    1.000000
   8.45000000E-02    1.00000000E+00   1.00000000E+00 
D    1    1.000000
   1.29200000E+00    1.00000000E+00 

7    0
S    6    1.000000
   4.56324000E+03    1.96665000E-03 
   6.82024000E+02    1.52306000E-02 
   1.54973000E+02    7.61269000E-02 
   4.44553000E+01    2.60801000E-01 
   1.30290000E+01    6.16462000E-01 
   1.82773000E+00    2.21006000E-01 
SP   3    1.000000
   2.09642000E+01    1.14660000E-01   4.02487000E-02 
   4.80331000E+00    9.19999000E-01   2.37594000E-01 
   1.45933000E+00   -3.03068000E-03   8.15854000E-01 
SP   1    1.000000
   4.83456000E-01    1.00000000E+00   1.00000000E+00 
SP   1    1.000000
   1.45585000E-01    1.00000000E+00   1.00000000E+00 
SP   1    1.000000
   4.38000000E-02    1.00000000E+00   1.00000000E+00 
D    1    1.000000
   6.26000000E-01    1.00000000E+00 

8    0
S    6    1.000000
   8.58850000E+03    1.89515000E-03 
   1.29723000E+03    1.43859000E-02 
   2.99296000E+02    7.07320000E-02 
   8.73771000E+01    2.40001000E-01 
   2.56789000E+01    5.94797000E-01 
   3.74004000E+00    2.80802000E-01 
SP   3    1.000000
   4.21175000E+01    1.13889000E-01   3.65114000E-02 
   9.62837000E+00    9.20811000E-01   2.37153000E-01 
   2.85332000E+00   -3.27447000E-03   8.19702000E-01 
SP   1    1.000000
   9.05661000E-01    1.00000000E+00   1.00000000E+00 
SP   1    1.000000
   2.55611000E-01    1.00000000E+00   1.00000000E+00 
SP   1    1.000000
   8.45000000E-02    1.00000000E+00   1.00000000E+00 
D    1    1.000000
   1.29200000E+00    1.00000000E+00 

9    0
S    6    1.000000
   6.29348000E+03    1.96979000E-03 
   9.49044000E+02    1.49613000E-02 
   2.18776000E+02    7.35006000E-02 
   6.36916000E+01    2.48937000E-01 
   1.88282000E+01    6.02460000E-01 
   2.72023000E+00    2.56202000E-01 
SP   3    1.000000
   3.06331000E+01    1.11906000E-01   3.83119000E-02 
   7.02614000E+00    9.21666000E-01   2.37403000E-01 
   2.11205000E+00   -2.56919000E-03   8.17592000E-01 
SP   1    1.000000
   6.84009000E-01    1.00000000E+00   1.00000000E+00 
SP   1    1.000000
   2.00878000E-01    1.00000000E+00   1.00000000E+00 
SP   1    1.000000
   6.39000000E-02    1.00000000E+00   1.00000000E+00 
D    1    1.000000
   9.13000000E-01    1.00000000E+00 

10    0
S    6    1.000000
   6.29348000E+03    1.96979000E-03 
   9.49044000E+02    1.49613000E-02 
   2.18776000E+02    7.35006000E-02 
   6.36916000E+01    2.48937000E-01 
   1.88282000E+01    6.02460000E-01 
   2.72023000E+00    2.56202000E-01 
SP   3    1.000000
   3.06331000E+01    1.11906000E-01   3.83119000E-02 
   7.02614000E+00    9.21666000E-01   2.37403000E-01 
   2.11205000E+00   -2.56919000E-03   8.17592000E-01 
SP   1    1.000000
   6.84009000E-01    1.00000000E+00   1.00000000E+00 
SP   1    1.000000
   2.00878000E-01    1.00000000E+00   1.00000000E+00 
SP   1    1.000000
   6.39000000E-02    1.00000000E+00   1.00000000E+00 
D    1    1.000000
   9.13000000E-01    1.00000000E+00 

11    0
S    6    1.000000
   4.56324000E+03    1.96665000E-03 
   6.82024000E+02    1.52306000E-02 
   1.54973000E+02    7.61269000E-02 
   4.44553000E+01    2.60801000E-01 
   1.30290000E+01    6.16462000E-01 
   1.82773000E+00    2.21006000E-01 
SP   3    1.000000
   2.09642000E+01    1.14660000E-01   4.02487000E-02 
   4.80331000E+00    9.19999000E-01   2.37594000E-01 
   1.45933000E+00   -3.03068000E-03   8.15854000E-01 
SP   1    1.000000
   4.83456000E-01    1.00000000E+00   1.00000000E+00 
SP   1    1.000000
   1.45585000E-01    1.00000000E+00   1.00000000E+00 
SP   1    1.000000
   4.38000000E-02    1.00000000E+00   1.00000000E+00 
D    1    1.000000
   6.26000000E-01    1.00000000E+00 

12    0
S    3    1.000000
   3.38650000E+01    2.54938000E-02 
   5.09479000E+00    1.90373000E-01 
   1.15879000E+00    8.52161000E-01 
S    1    1.000000
   3.25840000E-01    1.00000000E+00 
S    1    1.000000
   1.02741000E-01    1.00000000E+00 
S    1    1.000000
   3.60000000E-02    1.00000000E+00 
P    1    1.000000
   7.50000000E-01    1.00000000E+00 

[MO]
Sym=X
Ene= 2.013286
Spin=Alpha
Occup=1
     1   -1.253418603053e-14
     2   -1.210301220392e-14
     3    2.046318710220e-14
     4   -7.495803923485e-15
     5   -5.587584519892e-02
     6   -6.729936102453e-15
     7    4.462830403331e-14
     8   -2.362970239973e-14
     9   -9.510845807584e-02
    10   -5.892368725474e-14
    11   -2.428807072586e-13
    12    4.270479704074e-14
    13   -9.843080679392e-02
    14    9.495863168988e-12
    15    2.393810788650e-12
    16    2.294570932789e-12
    17   -9.506520359070e-03
    18   -3.433599607553e-15
    19   -1.499576546185e-02
    20   -5.596562360315e-03
    21    8.971686851893e-15
    22    1.724012837504e-15
    23   -7.535438530912e-15
    24   -1.129467059549e-14
    25   -4.994310593927e-13
    26   -9.430102734693e-13
    27   -8.721119514889e-15
    28   -5.312773265322e-15
    29    4.078282660738e-03
    30   -1.010982242999e-15
    31    5.690365123156e-14
    32   -1.501604819704e-13
    33    1.024271818570e-12
    34    4.020164947383e-15
    35    7.289315121846e-15
    36   -4.478013150967e-03
    37    6.385063380628e-15
    38   -2.356955129882e-15
    39   -8.614463052353e-13
    40    9.104114199266e-13
    41   -1.806672707394e-15
    42   -8.243805361919e-15
    43   -3.800515066441e-03
    44   -9.698120890023e-15
    45   -8.504373400116e-15
    46    1.956866648889e-14
    47   -3.458717085889e-14
    48    2.195024183099e-03
    49   -1.152032162020e-14
    50    4.585957696343e-14
    51   -2.430136828779e-14
    52    6.430030627151e-03
    53    6.527738014859e-13
    54   -3.938377796976e-13
    55   -4.280512235334e-13
    56   -1.654632250043e-03
    57    4.725915680035e-13
    58   -6.175007207291e-13
    59   -1.207049992121e-12
    60   -1.141690248310e-02
    61   -1.289695236072e-14
    62   -8.650648517470e-03
    63   -8.072136403213e-03
    64   -5.408931025182e-16
    65    5.876433810925e-15
    66   -3.508178847032e-14
    67   -1.842883025675e-14
    68   -2.621829637549e-14
    69   -3.424471068328e-15
    70    5.866914141867e-03
    71   -6.427306839625e-14
    72   -4.833172056675e-14
    73   -2.553599922605e-14
    74    9.244497386061e-03
    75   -1.043486975407e-13
    76   -1.226491160021e-13
    77    4.313332273348e-14
    78    7.020842333927e-03
    79   -3.884331462825e-13
    80    1.926031233602e-14
    81    4.147470828182e-13
    82    8.477340191537e-03
    83    2.274216598412e-15
    84    3.115557108654e-04
    85   -5.777350086198e-04
    86   -3.666860158549e-15
    87    1.108704750970e-15
    88   -5.236007612226e-14
    89   -4.392740519201e-14
    90    8.731933766593e-15
    91    1.417444268820e-15
    92    2.691207422419e-02
    93    1.610704047241e-14
    94   -3.861479740792e-15
    95    1.785702799778e-14
    96    4.934862746535e-02
    97   -1.263312264800e-13
    98    1.686456759536e-14
    99   -4.245937186338e-13
   100    5.114751725462e-02
   101   -6.383370185736e-12
   102    1.696366302928e-12
   103    9.280118387699e-14
   104    3.667494885987e-02
   105    1.579077247414e-14
   106    3.640857041338e-02
   107    2.798124823992e-02
   108   -3.730177909138e-15
   109    1.111431598043e-14
   110    1.267286074309e-14
   111    2.014151828047e-14
   112   -2.911807187472e-14
   113   -2.464932286874e-14
   114    3.597488190932e-01
   115   -7.329120531577e-14
   116   -5.769332564889e-14
   117    1.062415786158e-14
   118    4.116477638612e-01
   119    1.747903119811e-14
   120   -2.615086135617e-14
   121   -7.404681917765e-14
   122    2.871009968537e-01
   123    1.877659913744e-14
   124   -1.838026921714e-13
   125   -4.417748631511e-14
   126    2.887528399106e-02
   127    1.025383982263e-15
   128   -1.522187157793e-02
   129   -1.009371113780e-02
   130    3.528678371206e-15
   131    5.635740356964e-17
   132    8.709601708919e-17
   133   -7.175775985536e-15
   134   -3.672807128475e-14
   135    1.691356333978e-14
   136   -5.388860938643e-02
   137    4.015290644354e-14
   138   -2.868612925676e-14
   139    2.152206569282e-14
   140   -8.669907390978e-02
   141   -1.107060544869e-13
   142   -1.539278076479e-13
   143    4.977469775031e-14
   144   -1.011806557900e-01
   145    6.325445804907e-12
   146    3.641080861069e-13
   147   -7.076689823929e-13
   148   -2.293763495067e-02
   149    8.680246568082e-15
   150    1.573023853593e-03
   151    1.216076049808e-03
   152   -2.182901524053e-15
   153   -2.794560123105e-15
   154    7.365484809667e-14
   155    5.878798967680e-14
   156   -3.015976179753e-15
   157    1.170889713214e-14
   158    3.649686218586e-02
   159    9.522824685057e-15
   160   -1.595470284473e-14
   161    3.743507383637e-14
   162    5.810974442959e-02
   163    1.554217756024e-13
   164    3.591105041416e-14
   165   -1.742824821358e-13
   166    8.183700866568e-02
   167   -4.136977626407e-12
   168   -1.799557589263e-12
   169   -1.241997074979e-12
   170    3.229234164367e-02
   171   -7.717869928678e-15
   172   -3.977264854687e-03
   173    3.172628937639e-03
   174   -8.554704190269e-15
   175    5.537254248312e-15
   176    6.341293604683e-16
   177   -4.912077324217e-15
   178   -2.304827495647e-14
   179   -3.700846141917e-14
   180   -7.164032811480e-02
   181    2.799556408600e-14
   182   -1.168755218587e-14
   183   -4.234530738930e-14
   184   -1.218640141767e-01
   185   -2.599652116255e-13
   186   -4.139909848367e-13
   187   -4.067075162234e-13
   188   -1.365499201389e-01
   189   -5.968258001193e-12
   190    9.841899695674e-13
   191    2.147813020314e-12
   192   -2.806586036864e-02
   193   -5.201928648276e-15
   194    1.159210656768e-02
   195    4.136607933597e-03
   196    1.024014536840e-15
   197   -4.944654430777e-15
   198    2.950597126112e-14
   199    2.829552341868e-14
   200    6.755379514007e-13
   201    1.800701907996e-13
   202    5.559052147382e-15
   203   -4.476176427221e-15
   204   -4.928470463387e-03
Sym=X
Ene= 2.003945
Spin=Alpha
Occup=1
     1   -6.254541967357e-14
     2   -6.655749391604e-14
     3   -1.011791095699e-13
     4   -1.642796945114e-14
     5   -2.579533519941e-02
     6    8.636540411937e-14
     7   -1.599369982816e-13
     8   -4.847836442566e-15
     9   -4.632151305405e-02
    10   -3.891314361442e-13
    11   -2.128780413787e-14
    12   -4.612096496151e-13
    13   -1.238387137245e-02
    14   -1.446100290217e-11
    15   -3.145279422044e-12
    16   -3.165934740740e-12
    17    3.024343787920e-04
    18   -4.277291045982e-15
    19    2.252978320374e-02
    20   -7.150988394413e-03
    21   -1.520882798046e-14
    22   -7.589496956414e-15
    23    4.526459770212e-15
    24   -3.547716481546e-14
    25    7.084967838595e-13
    26   -2.939830678625e-13
    27    4.781454868796e-15
    28    2.892951116096e-15
    29   -1.378842031159e-02
    30    4.065983825230e-14
    31    5.727673322576e-15
    32   -2.052588087006e-13
    33   -9.685194425870e-13
    34   -8.538103556131e-15
    35    2.165092154960e-15
    36   -2.059050224458e-03
    37   -1.067256467001e-14
    38    1.228495329579e-13
    39   -9.361401622812e-13
    40    3.253822403235e-13
    41    1.410532559505e-15
    42    2.659066148314e-15
    43    1.340177349544e-02
    44   -7.269060649178e-14
    45   -4.385381022145e-14
    46    2.890234362770e-14
    47   -1.250064783149e-14
    48   -2.109636567385e-02
    49   -8.028505684812e-14
    50    3.030442963726e-14
    51   -1.799777869256e-14
    52   -3.818019386306e-02
    53   -1.664548713693e-13
    54   -2.947512806129e-13
    55    1.529561994474e-13
    56   -1.987254007424e-02
    57    2.889063424059e-12
    58    3.020730693996e-13
    59   -1.327835575062e-12
    60    1.343994560833e-03
    61    1.333787156896e-14
    62    2.356571021585e-02
    63    2.487506336498e-02
    64    1.237768287769e-14
    65    1.220909308471e-14
    66   -8.339187624666e-14
    67   -3.118196346887e-14
    68   -3.870202180760e-14
    69   -5.112812568620e-14
    70   -3.285491962538e-02
    71   -2.309084118569e-13
    72   -6.319849381056e-14
    73   -7.103593724497e-14
    74   -5.170247359345e-02
    75   -2.500088328625e-13
    76   -6.521144464934e-14
    77   -9.501607986977e-14
    78   -4.552964327972e-02
    79   -3.116762946628e-13
    80   -1.301409267523e-13
    81    1.707094293401e-13
    82   -3.045004229146e-03
    83    1.930433191997e-15
    84   -3.109161063497e-03
    85    2.619494830363e-03
    86   -6.440565510338e-15
    87    1.182696458086e-15
    88   -1.470121183266e-15
    89   -3.522432729307e-14
    90   -1.383760171513e-14
    91   -8.693147286843e-14
    92    1.001794970109e-01
    93    1.864670626299e-13
    94   -2.208789690564e-15
    95   -1.406053965364e-13
    96    1.799962947186e-01
    97   -2.278756627773e-13
    98    5.234401589480e-14
    99    1.036352334398e-13
   100    1.022950528694e-01
   101   -9.441374089308e-13
   102    1.751695361878e-12
   103   -1.185175988586e-12
   104    2.147175195558e-02
   105   -3.332045271282e-15
   106   -1.400033988347e-02
   107    1.249869944925e-02
   108   -3.615383339476e-14
   109    1.261869637368e-14
   110   -7.991111990832e-15
   111   -1.115836339079e-14
   112   -9.084138089545e-14
   113    1.847928760526e-13
   114    6.286167846955e-02
   115    4.009167257403e-14
   116   -1.084326961950e-13
   117    2.165287019874e-13
   118    7.690994277328e-02
   119   -7.562112973567e-16
   120   -7.072212019292e-14
   121    1.391096396040e-13
   122    4.299835975672e-02
   123   -7.729105823346e-14
   124   -2.004898321346e-14
   125   -1.195178806411e-14
   126   -2.029435142550e-02
   127    8.265495169319e-16
   128   -9.305480020725e-03
   129   -5.972721910699e-03
   130    3.853153844811e-15
   131   -3.169411443935e-15
   132    7.218770159103e-14
   133    6.665443415435e-14
   134   -2.201018597595e-14
   135    9.899635135341e-16
   136    1.672508028519e-01
   137   -4.812259185563e-14
   138   -2.199779291262e-14
   139   -1.086810808179e-15
   140    2.748748930005e-01
   141    2.111317478129e-13
   142   -1.199568771580e-13
   143   -1.165239262742e-13
   144    2.693597269481e-01
   145    1.155998477588e-12
   146    4.364957578136e-13
   147    1.391072659972e-12
   148    1.096290125986e-02
   149   -2.722759128744e-15
   150    9.299268746415e-03
   151   -7.637739468936e-03
   152   -6.319515023994e-16
   153   -3.334539350163e-15
   154    4.445878318893e-14
   155    2.058485543800e-14
   156    5.530110103434e-14
   157   -4.824755528927e-14
   158   -1.566716566096e-01
   159    7.765116147864e-14
   160    7.322530176072e-14
   161   -8.826231467879e-14
   162   -2.569444226761e-01
   163    3.083725924951e-13
   164    2.552528181512e-13
   165    2.589327752957e-14
   166   -2.604109478282e-01
   167    2.076135703377e-13
   168    1.282203673793e-12
   169    5.144826299506e-13
   170   -2.904919425660e-02
   171   -1.036226650884e-14
   172   -3.958607893400e-03
   173   -2.410935502148e-03
   174   -3.475220481622e-15
   175   -7.554275797849e-15
   176    1.253104698571e-13
   177    1.131574298941e-13
   178   -8.908670576839e-15
   179    1.368810194739e-13
   180    4.274087023552e-02
   181   -4.815614188473e-14
   182   -2.348213917813e-14
   183    1.896316575250e-13
   184    7.474923462861e-02
   185    1.803574108760e-13
   186   -3.252456258856e-13
   187    3.947697423441e-13
   188    6.283332717371e-02
   189    1.165575464426e-11
   190   -4.938092594065e-12
   191   -1.365519618898e-12
   192   -3.579700935537e-03
   193    2.271792211789e-15
   194   -9.048437797018e-05
   195    1.283100200787e-02
   196   -2.061074658339e-14
   197    3.990520314577e-15
   198   -8.031560717793e-14
   199   -2.790841167815e-14
   200    3.010425630159e-13
   201    1.142631200912e-12
   202    3.516169462549e-16
   203    4.233911671218e-15
   204    3.475349580871e-03
Sym=X
Ene= 2.002903
Spin=Alpha
Occup=1
     1    8.544589657438e-03
     2    1.434378657113e-02
     3   -2.876295011237e-02
     4   -1.762917390629e-02
     5    1.377519677574e-15
     6   -3.978575194180e-02
     7   -4.830922280374e-02
     8   -2.904903564857e-02
     9    8.742390665152e-16
    10   -6.673946036005e-02
    11   -3.761197353762e-02
    12   -4.834724415279e-02
    13   -2.143338329289e-14
    14   -2.550182368911e-01
    15   -6.564647877050e-02
    16   -6.058247300771e-02
    17   -8.649741981137e-14
    18    5.435329214281e-04
    19   -2.433811244277e-14
    20    9.318314634528e-16
    21   -5.652269825682e-03
    22    2.235084198219e-04
    23    2.228962858417e-03
    24    4.225346204871e-03
    25    6.349574674848e-03
    26    1.414702812272e-03
    27    4.414426144037e-04
    28    3.631892309905e-04
    29    1.721500222844e-14
    30    1.165290696762e-02
    31    1.486455897354e-02
    32    5.351838407275e-03
    33   -2.365066581435e-02
    34   -1.285608759740e-03
    35   -2.881263410480e-04
    36    9.629828717703e-15
    37   -3.660035104098e-03
    38    1.069465793628e-04
    39    1.156830169054e-02
    40   -4.178084488897e-02
    41   -4.883099287848e-04
    42    1.548433075339e-03
    43   -5.404649812365e-16
    44   -9.030165796079e-03
    45   -1.496938503858e-02
    46    2.971661016549e-02
    47    1.260385510791e-02
    48    1.144760203789e-14
    49    4.112768026598e-02
    50    5.039378325865e-02
    51    2.174374761267e-02
    52    7.453013691144e-14
    53    5.640527446451e-02
    54    3.043689640161e-02
    55   -1.437585949302e-02
    56   -1.737666955835e-13
    57    4.876880854470e-02
    58    7.224407459164e-03
    59    1.224778925628e-02
    60   -1.261439920020e-13
    61   -1.126375202338e-03
    62    9.688633456055e-15
    63   -5.083066013843e-14
    64    7.650022171707e-03
    65    1.150087449281e-02
    66    1.637776721905e-03
    67    2.735007607826e-03
    68   -2.207749319671e-02
    69   -1.604885924510e-02
    70   -4.734570371399e-14
    71   -7.804560138613e-03
    72   -3.294543122734e-02
    73   -2.523191236043e-02
    74   -4.846861945426e-14
    75   -7.331011038072e-04
    76   -3.254882601244e-02
    77   -2.999649554102e-02
    78   -2.058940028454e-14
    79    2.015486556313e-02
    80    6.152566544758e-03
    81   -2.686233451381e-03
    82    1.334804428156e-13
    83    3.654391269662e-04
    84   -3.999898844342e-15
    85   -1.540212800929e-15
    86   -5.893419716211e-04
    87    3.623750188384e-04
    88   -8.884618689760e-04
    89   -2.153790189779e-03
    90    1.418079916385e-02
    91   -6.056981643500e-02
    92   -6.071483128242e-14
    93    8.068444220934e-03
    94    2.122508852094e-02
    95   -1.066294937417e-01
    96   -1.084573624831e-13
    97   -3.071200323986e-03
    98   -2.507320050876e-02
    99    3.555478283890e-02
   100   -1.247974466926e-13
   101   -4.144281806647e-01
   102   -3.307951350495e-02
   103    1.892689801374e-01
   104    1.185355396698e-13
   105    1.592499643165e-03
   106   -2.159994713489e-15
   107   -1.887041516298e-15
   108   -4.638229259937e-02
   109    1.846417352502e-02
   110   -2.571094354083e-03
   111   -3.805371862662e-03
   112   -1.906226426944e-01
   113    3.191108790665e-01
   114   -4.490843849952e-14
   115    1.299774335226e-02
   116   -2.179184392788e-01
   117    3.654898105250e-01
   118   -9.757233821703e-14
   119    1.716771675141e-02
   120   -1.663974567855e-01
   121    2.598546437372e-01
   122    3.279823075250e-14
   123   -1.956100125472e-03
   124    1.943352002129e-03
   125    1.597390004368e-03
   126   -1.127730884469e-13
   127    9.574127827910e-04
   128    6.615552148424e-15
   129    6.830965208091e-15
   130    1.035079688823e-02
   131   -6.545230203435e-03
   132    1.340571018148e-02
   133    2.203113133234e-02
   134   -7.050267416256e-02
   135    7.437208567759e-03
   136   -6.607373545192e-14
   137   -5.926940461986e-02
   138   -1.138963463495e-01
   139    7.833974908905e-03
   140   -1.107089177603e-13
   141   -1.069177302839e-01
   142   -9.473159012069e-02
   143    2.454010216293e-02
   144   -4.234947049612e-14
   145   -1.113254852928e-01
   146    5.109320509748e-02
   147    1.368429329187e-02
   148   -2.183149811170e-15
   149   -2.654768486869e-05
   150   -6.119090018599e-15
   151    5.991784948507e-15
   152   -2.006774457038e-03
   153    4.205172191970e-03
   154    2.367620536544e-03
   155    3.922782562192e-03
   156   -3.837588597555e-04
   157   -1.078059417160e-02
   158    1.253446072273e-13
   159   -1.041729872603e-02
   160   -4.620705090229e-04
   161   -1.617280008810e-02
   162    1.983189627921e-13
   163   -2.736592990641e-02
   164    5.479296422339e-03
   165   -2.513587578441e-02
   166    2.523178252960e-13
   167    9.287724439105e-03
   168    3.241269445247e-03
   169    2.619557043044e-02
   170    1.201206722982e-13
   171   -2.859234637281e-04
   172    2.157314620790e-15
   173    4.946932325611e-15
   174   -2.340623919172e-03
   175    8.445029759664e-04
   176   -1.766204469318e-02
   177   -2.842082854997e-02
   178    2.953633286148e-02
   179    5.741586516304e-02
   180   -5.827006699149e-14
   181    6.922009379467e-02
   182    5.064068134600e-02
   183    8.042855200760e-02
   184   -1.045170997897e-13
   185    1.651240547376e-01
   186   -6.416220797571e-03
   187    8.175953427322e-02
   188   -9.142053203732e-14
   189    6.973549850045e-01
   190   -9.261948432116e-02
   191    8.283578814625e-02
   192    3.698031792252e-14
   193   -1.081732200318e-03
   194    5.626434029717e-15
   195    2.879622370943e-15
   196   -4.383854545300e-03
   197   -4.702708556513e-04
   198    1.132358791955e-02
   199    1.498626224845e-02
   200    7.870522463399e-03
   201    3.796783201030e-02
   202   -1.211408121878e-03
   203    1.402475187050e-03
   204   -8.886041504071e-15
Sym=X
Ene= 2.001894
Spin=Alpha
Occup=1
     1   -3.261456917963e-03
     2   -5.610670729303e-03
     3    1.426507917331e-03
     4    2.810665090752e-02
     5   -2.918334904336e-14
     6    1.375393557716e-02
     7    1.352691988943e-03
     8    4.433682075279e-02
     9   -6.134607860837e-14
    10    2.152005868690e-02
    11   -8.405607126322e-03
    12    3.858510474148e-02
    13   -1.328071774714e-13
    14    3.185067807891e-02
    15   -1.464117378638e-02
    16    1.596804080894e-02
    17   -8.738713806984e-15
    18   -1.506822387432e-03
    19   -5.442675222558e-14
    20    5.163307963676e-15
    21    6.225162803499e-03
    22    3.443151011498e-03
    23    1.631316444962e-02
    24    3.680085764806e-02
    25    2.202991454326e-02
    26   -3.598007442189e-02
    27    3.391237509945e-03
    28    2.574250109955e-03
    29    2.398118482696e-14
    30   -2.079159616703e-02
    31   -3.259917411895e-02
    32   -2.164510184559e-03
    33    2.425847878997e-03
    34   -4.083940013663e-05
    35   -2.308774450007e-03
    36   -2.508595609383e-15
    37   -1.601856123245e-02
    38   -2.466309262522e-02
    39   -2.079543292597e-02
    40    2.598949809966e-02
    41    3.480081400271e-03
    42    4.023305651695e-03
    43    1.086637243949e-14
    44    1.358842982754e-02
    45    2.198619825533e-02
    46   -1.883411585477e-02
    47   -9.060223862917e-03
    48    4.705921534033e-15
    49   -6.196973406092e-02
    50   -3.140603043683e-02
    51   -9.723523887606e-03
    52    5.403357230230e-14
    53   -4.800481686424e-02
    54   -7.976419933974e-02
    55   -1.013380195029e-01
    56   -5.039527969988e-14
    57   -2.433589246667e-03
    58   -5.951749415597e-02
    59   -8.550269369799e-02
    60   -7.199480887638e-14
    61    2.175452875348e-03
    62    8.540069363861e-14
    63   -6.761850484082e-14
    64    5.919259972092e-02
    65    2.341966584030e-02
    66   -6.370149790854e-03
    67   -1.069708270120e-02
    68   -1.215444076943e-01
    69   -1.766690210619e-01
    70   -2.414285373213e-13
    71    3.105619469492e-02
    72   -1.885041910803e-01
    73   -2.729311728872e-01
    74   -3.761636206979e-13
    75    3.160408743184e-02
    76   -1.656298869304e-01
    77   -2.494415921896e-01
    78   -3.822672746709e-13
    79    2.028054340479e-03
    80   -4.819319646039e-03
    81   -1.288186518742e-02
    82   -3.238082002158e-14
    83    4.702610443755e-04
    84   -1.296209828446e-14
    85    8.824843053019e-15
    86   -1.392693695160e-02
    87   -5.543846248632e-03
    88    1.671999680063e-02
    89    2.635038255433e-02
    90   -7.955038072528e-02
    91   -4.153569801875e-02
    92   -3.218970865998e-14
    93   -6.884924861777e-02
    94   -1.387889963621e-01
    95   -7.580815466237e-02
    96   -5.382747236341e-14
    97   -1.023110767773e-01
    98   -1.635291899029e-02
    99   -2.214576402753e-02
   100   -5.589014888808e-14
   101   -1.024720079129e-01
   102    2.796577627095e-02
   103    1.594716942639e-02
   104    3.238947076872e-15
   105    5.711145476339e-03
   106   -2.831405950844e-14
   107    3.334227197595e-14
   108    1.092214027328e-03
   109   -2.312350854580e-02
   110    1.212925363798e-02
   111    1.718257251162e-02
   112    1.580352527026e-01
   113    7.555098699498e-02
   114   -6.032886424376e-14
   115   -5.376091035870e-02
   116    1.835421025159e-01
   117    8.794100310534e-02
   118   -6.965586521218e-14
   119    3.404443859899e-02
   120    8.969651535380e-02
   121    3.449123941636e-02
   122   -3.955333850427e-14
   123    3.386758638353e-02
   124   -4.222205967120e-03
   125   -7.215199842601e-03
   126    1.233224737649e-14
   127    7.194365899927e-03
   128    4.763293349456e-15
   129    3.944182627949e-15
   130   -5.149976048776e-03
   131   -1.170300914399e-02
   132   -1.761698520194e-02
   133   -2.965019938326e-02
   134    8.698182978742e-03
   135   -4.323229734312e-02
   136    1.906221344546e-13
   137    7.947209014656e-02
   138    1.841981124890e-02
   139   -5.932956210163e-02
   140    3.073142642097e-13
   141    1.854085508283e-01
   142   -3.325971236221e-02
   143   -7.082322920283e-02
   144    3.477167214661e-13