[Molden Format]
[Atoms] (Angs)
  C      1    6     -0.00754183     -1.75895763      0.00000000
  H      2    1     -2.09769850     -1.41880678     -0.00000000
  H      3    1     -0.13527422     -2.83956838     -0.00000000
  H      4    1      0.04053511      2.02026369      0.00000000
  C      5    6     -1.22066484      0.39918184     -0.00000000
  O      6    8     -2.25210141      1.05663720     -0.00000000
  C      7    6      1.24009552      0.27789184      0.00000000
  O      8    8      2.33767996      1.06122493      0.00000000
  N      9    7      0.03634586      1.00852936      0.00000000
  N     10    7     -1.18738304     -0.97903470     -0.00000000
  C     11    6      1.22288875     -1.12258096      0.00000000
  H     12    1      2.15640383     -1.68445878      0.00000000
[GTO]
1    0
S    6    1.000000
   4.56324000E+03    1.96665000E-03 
   6.82024000E+02    1.52306000E-02 
   1.54973000E+02    7.61269000E-02 
   4.44553000E+01    2.60801000E-01 
   1.30290000E+01    6.16462000E-01 
   1.82773000E+00    2.21006000E-01 
SP   3    1.000000
   2.09642000E+01    1.14660000E-01   4.02487000E-02 
   4.80331000E+00    9.19999000E-01   2.37594000E-01 
   1.45933000E+00   -3.03068000E-03   8.15854000E-01 
SP   1    1.000000
   4.83456000E-01    1.00000000E+00   1.00000000E+00 
SP   1    1.000000
   1.45585000E-01    1.00000000E+00   1.00000000E+00 
SP   1    1.000000
   4.38000000E-02    1.00000000E+00   1.00000000E+00 
D    1    1.000000
   6.26000000E-01    1.00000000E+00 

2    0
S    3    1.000000
   3.38650000E+01    2.54938000E-02 
   5.09479000E+00    1.90373000E-01 
   1.15879000E+00    8.52161000E-01 
S    1    1.000000
   3.25840000E-01    1.00000000E+00 
S    1    1.000000
   1.02741000E-01    1.00000000E+00 
S    1    1.000000
   3.60000000E-02    1.00000000E+00 
P    1    1.000000
   7.50000000E-01    1.00000000E+00 

3    0
S    3    1.000000
   3.38650000E+01    2.54938000E-02 
   5.09479000E+00    1.90373000E-01 
   1.15879000E+00    8.52161000E-01 
S    1    1.000000
   3.25840000E-01    1.00000000E+00 
S    1    1.000000
   1.02741000E-01    1.00000000E+00 
S    1    1.000000
   3.60000000E-02    1.00000000E+00 
P    1    1.000000
   7.50000000E-01    1.00000000E+00 

4    0
S    3    1.000000
   3.38650000E+01    2.54938000E-02 
   5.09479000E+00    1.90373000E-01 
   1.15879000E+00    8.52161000E-01 
S    1    1.000000
   3.25840000E-01    1.00000000E+00 
S    1    1.000000
   1.02741000E-01    1.00000000E+00 
S    1    1.000000
   3.60000000E-02    1.00000000E+00 
P    1    1.000000
   7.50000000E-01    1.00000000E+00 

5    0
S    6    1.000000
   4.56324000E+03    1.96665000E-03 
   6.82024000E+02    1.52306000E-02 
   1.54973000E+02    7.61269000E-02 
   4.44553000E+01    2.60801000E-01 
   1.30290000E+01    6.16462000E-01 
   1.82773000E+00    2.21006000E-01 
SP   3    1.000000
   2.09642000E+01    1.14660000E-01   4.02487000E-02 
   4.80331000E+00    9.19999000E-01   2.37594000E-01 
   1.45933000E+00   -3.03068000E-03   8.15854000E-01 
SP   1    1.000000
   4.83456000E-01    1.00000000E+00   1.00000000E+00 
SP   1    1.000000
   1.45585000E-01    1.00000000E+00   1.00000000E+00 
SP   1    1.000000
   4.38000000E-02    1.00000000E+00   1.00000000E+00 
D    1    1.000000
   6.26000000E-01    1.00000000E+00 

6    0
S    6    1.000000
   8.58850000E+03    1.89515000E-03 
   1.29723000E+03    1.43859000E-02 
   2.99296000E+02    7.07320000E-02 
   8.73771000E+01    2.40001000E-01 
   2.56789000E+01    5.94797000E-01 
   3.74004000E+00    2.80802000E-01 
SP   3    1.000000
   4.21175000E+01    1.13889000E-01   3.65114000E-02 
   9.62837000E+00    9.20811000E-01   2.37153000E-01 
   2.85332000E+00   -3.27447000E-03   8.19702000E-01 
SP   1    1.000000
   9.05661000E-01    1.00000000E+00   1.00000000E+00 
SP   1    1.000000
   2.55611000E-01    1.00000000E+00   1.00000000E+00 
SP   1    1.000000
   8.45000000E-02    1.00000000E+00   1.00000000E+00 
D    1    1.000000
   1.29200000E+00    1.00000000E+00 

7    0
S    6    1.000000
   4.56324000E+03    1.96665000E-03 
   6.82024000E+02    1.52306000E-02 
   1.54973000E+02    7.61269000E-02 
   4.44553000E+01    2.60801000E-01 
   1.30290000E+01    6.16462000E-01 
   1.82773000E+00    2.21006000E-01 
SP   3    1.000000
   2.09642000E+01    1.14660000E-01   4.02487000E-02 
   4.80331000E+00    9.19999000E-01   2.37594000E-01 
   1.45933000E+00   -3.03068000E-03   8.15854000E-01 
SP   1    1.000000
   4.83456000E-01    1.00000000E+00   1.00000000E+00 
SP   1    1.000000
   1.45585000E-01    1.00000000E+00   1.00000000E+00 
SP   1    1.000000
   4.38000000E-02    1.00000000E+00   1.00000000E+00 
D    1    1.000000
   6.26000000E-01    1.00000000E+00 

8    0
S    6    1.000000
   8.58850000E+03    1.89515000E-03 
   1.29723000E+03    1.43859000E-02 
   2.99296000E+02    7.07320000E-02 
   8.73771000E+01    2.40001000E-01 
   2.56789000E+01    5.94797000E-01 
   3.74004000E+00    2.80802000E-01 
SP   3    1.000000
   4.21175000E+01    1.13889000E-01   3.65114000E-02 
   9.62837000E+00    9.20811000E-01   2.37153000E-01 
   2.85332000E+00   -3.27447000E-03   8.19702000E-01 
SP   1    1.000000
   9.05661000E-01    1.00000000E+00   1.00000000E+00 
SP   1    1.000000
   2.55611000E-01    1.00000000E+00   1.00000000E+00 
SP   1    1.000000
   8.45000000E-02    1.00000000E+00   1.00000000E+00 
D    1    1.000000
   1.29200000E+00    1.00000000E+00 

9    0
S    6    1.000000
   6.29348000E+03    1.96979000E-03 
   9.49044000E+02    1.49613000E-02 
   2.18776000E+02    7.35006000E-02 
   6.36916000E+01    2.48937000E-01 
   1.88282000E+01    6.02460000E-01 
   2.72023000E+00    2.56202000E-01 
SP   3    1.000000
   3.06331000E+01    1.11906000E-01   3.83119000E-02 
   7.02614000E+00    9.21666000E-01   2.37403000E-01 
   2.11205000E+00   -2.56919000E-03   8.17592000E-01 
SP   1    1.000000
   6.84009000E-01    1.00000000E+00   1.00000000E+00 
SP   1    1.000000
   2.00878000E-01    1.00000000E+00   1.00000000E+00 
SP   1    1.000000
   6.39000000E-02    1.00000000E+00   1.00000000E+00 
D    1    1.000000
   9.13000000E-01    1.00000000E+00 

10    0
S    6    1.000000
   6.29348000E+03    1.96979000E-03 
   9.49044000E+02    1.49613000E-02 
   2.18776000E+02    7.35006000E-02 
   6.36916000E+01    2.48937000E-01 
   1.88282000E+01    6.02460000E-01 
   2.72023000E+00    2.56202000E-01 
SP   3    1.000000
   3.06331000E+01    1.11906000E-01   3.83119000E-02 
   7.02614000E+00    9.21666000E-01   2.37403000E-01 
   2.11205000E+00   -2.56919000E-03   8.17592000E-01 
SP   1    1.000000
   6.84009000E-01    1.00000000E+00   1.00000000E+00 
SP   1    1.000000
   2.00878000E-01    1.00000000E+00   1.00000000E+00 
SP   1    1.000000
   6.39000000E-02    1.00000000E+00   1.00000000E+00 
D    1    1.000000
   9.13000000E-01    1.00000000E+00 

11    0
S    6    1.000000
   4.56324000E+03    1.96665000E-03 
   6.82024000E+02    1.52306000E-02 
   1.54973000E+02    7.61269000E-02 
   4.44553000E+01    2.60801000E-01 
   1.30290000E+01    6.16462000E-01 
   1.82773000E+00    2.21006000E-01 
SP   3    1.000000
   2.09642000E+01    1.14660000E-01   4.02487000E-02 
   4.80331000E+00    9.19999000E-01   2.37594000E-01 
   1.45933000E+00   -3.03068000E-03   8.15854000E-01 
SP   1    1.000000
   4.83456000E-01    1.00000000E+00   1.00000000E+00 
SP   1    1.000000
   1.45585000E-01    1.00000000E+00   1.00000000E+00 
SP   1    1.000000
   4.38000000E-02    1.00000000E+00   1.00000000E+00 
D    1    1.000000
   6.26000000E-01    1.00000000E+00 

12    0
S    3    1.000000
   3.38650000E+01    2.54938000E-02 
   5.09479000E+00    1.90373000E-01 
   1.15879000E+00    8.52161000E-01 
S    1    1.000000
   3.25840000E-01    1.00000000E+00 
S    1    1.000000
   1.02741000E-01    1.00000000E+00 
S    1    1.000000
   3.60000000E-02    1.00000000E+00 
P    1    1.000000
   7.50000000E-01    1.00000000E+00 

[MO]
Sym=X
Ene= 2.013676
Spin=Alpha
Occup=1
     1   -1.426114592802e-14
     2   -1.339090228326e-14
     3    1.614426591570e-14
     4   -6.631327997664e-15
     5   -6.186101440098e-02
     6   -5.579429295660e-15
     7    3.741158069496e-14
     8   -2.151909152779e-14
     9   -1.057611034949e-01
    10   -7.558561354165e-14
    11   -2.342460832372e-13
    12    2.376568817189e-14
    13   -1.049584883413e-01
    14    8.485142707925e-12
    15    2.176086009534e-12
    16    2.074612842671e-12
    17   -1.308258091862e-02
    18   -3.223319306209e-15
    19   -1.433003885583e-02
    20   -7.134183870085e-03
    21    8.439406981847e-15
    22    1.033038836925e-15
    23   -6.180118383571e-15
    24   -1.376694371679e-14
    25   -4.468138731906e-13
    26   -9.341942427612e-13
    27   -8.532847924189e-15
    28   -5.053452853696e-15
    29    3.310933733717e-03
    30   -1.207862102955e-15
    31    5.263086814205e-14
    32   -1.549985226719e-13
    33    9.569486712783e-13
    34    3.410130924652e-15
    35    6.816336766186e-15
    36   -4.688676404747e-03
    37    4.490249661296e-15
    38   -3.531657669781e-16
    39   -8.830211483656e-13
    40    9.031900308230e-13
    41   -1.494478123921e-15
    42   -7.501040575393e-15
    43   -2.666473652894e-03
    44   -1.122125390283e-14
    45   -8.609142632090e-15
    46    1.876237913596e-14
    47   -3.487989660412e-14
    48    3.447224576602e-03
    49   -1.700243940936e-14
    50    4.323449413201e-14
    51   -2.570543540209e-14
    52    8.758383387445e-03
    53    6.275397789747e-13
    54   -3.915986990306e-13
    55   -4.145572158903e-13
    56    3.489593345643e-06
    57    6.319459259528e-13
    58   -5.840488650959e-13
    59   -1.254104205589e-12
    60   -1.727257335329e-02
    61   -1.182012310844e-14
    62   -7.096369231319e-03
    63   -6.544927089139e-03
    64   -7.117148881656e-16
    65    5.425082892958e-15
    66   -3.528702015631e-14
    67   -1.847690692108e-14
    68   -2.687322808684e-14
    69   -3.738238305622e-15
    70    5.200958330495e-03
    71   -6.567676256277e-14
    72   -4.935914863491e-14
    73   -2.519473649344e-14
    74    8.287882113751e-03
    75   -1.034997450919e-13
    76   -1.210896646603e-13
    77    4.017596087345e-14
    78    5.332649064087e-03
    79   -3.844484136771e-13
    80    1.542081812086e-14
    81    4.096669087796e-13
    82    9.469310831038e-03
    83    2.205906396024e-15
    84    3.654868377634e-04
    85   -5.754201340625e-04
    86   -3.885718283465e-15
    87    1.087430783067e-15
    88   -4.823789556270e-14
    89   -4.076288849082e-14
    90    7.790115232148e-15
    91   -5.833524157590e-17
    92    2.920495747342e-02
    93    1.707042322724e-14
    94   -3.833667680768e-15
    95    1.486678118827e-14
    96    5.376835757898e-02
    97   -1.317899995247e-13
    98    1.605263590168e-14
    99   -4.091156413403e-13
   100    5.319102541799e-02
   101   -6.196183039802e-12
   102    1.734027925537e-12
   103    1.142123286474e-14
   104    3.516862109800e-02
   105    1.547874016058e-14
   106    3.467880956194e-02
   107    2.975844213545e-02
   108   -4.040243834825e-15
   109    1.085570234417e-14
   110    1.202228092985e-14
   111    1.887237652670e-14
   112   -2.544388151418e-14
   113   -2.409228038581e-14
   114    3.579219879289e-01
   115   -6.892257292579e-14
   116   -5.348296534665e-14
   117    1.101370364701e-14
   118    4.092913502005e-01
   119    1.792229269434e-14
   120   -2.294704264812e-14
   121   -7.355611800245e-14
   122    2.867270962976e-01
   123    1.681351748082e-14
   124   -1.803855306829e-13
   125   -4.313269198481e-14
   126    2.978316064179e-02
   127    1.349924284495e-15
   128   -1.491916620331e-02
   129   -1.008630373822e-02
   130    3.287164675814e-15
   131   -5.735994288143e-17
   132    1.808861637022e-15
   133   -4.094899579882e-15
   134   -3.473217410466e-14
   135    1.599460490048e-14
   136   -4.051999042371e-02
   137    3.058713811014e-14
   138   -2.555804896731e-14
   139    2.005206241912e-14
   140   -6.463414435350e-02
   141   -1.021746372872e-13
   142   -1.533585617074e-13
   143    4.596875028889e-14
   144   -7.937816009767e-02
   145    6.197631292992e-12
   146    3.731390058480e-13
   147   -6.130051500282e-13
   148   -2.035170922375e-02
   149    8.520818863256e-15
   150    1.900738372957e-03
   151    7.572746635505e-04
   152   -1.964225215707e-15
   153   -3.069790781886e-15
   154    6.869779153167e-14
   155    5.359204486904e-14
   156   -1.201719847249e-15
   157    9.717654234618e-15
   158    2.755717440596e-02
   159    1.468767470145e-14
   160   -1.376188535327e-14
   161    3.289753453823e-14
   162    4.349414546927e-02
   163    1.652721229677e-13
   164    4.382468676303e-14
   165   -1.686223150228e-13
   166    6.755770318722e-02
   167   -4.025789909731e-12
   168   -1.676617759606e-12
   169   -1.195707129822e-12
   170    3.314518974730e-02
   171   -8.156325721784e-15
   172   -4.614421735121e-03
   173    3.546826030513e-03
   174   -8.548484116687e-15
   175    5.124932876442e-15
   176    1.506548149226e-15
   177   -3.055571127625e-15
   178   -2.222690156011e-14
   179   -3.319957735324e-14
   180   -7.627521166142e-02
   181    2.224076724900e-14
   182   -1.220926328708e-14
   183   -3.808826651731e-14
   184   -1.296050252794e-01
   185   -2.491886132700e-13
   186   -4.134618774227e-13
   187   -3.815397742094e-13
   188   -1.468467450126e-01
   189   -5.282470126166e-12
   190    7.135767863727e-13
   191    2.006015125683e-12
   192   -2.170253760379e-02
   193   -4.778125019047e-15
   194    1.254674592275e-02
   195    4.212301988848e-03
   196    9.106156305362e-16
   197   -4.927476918855e-15
   198    2.580911960681e-14
   199    2.789738274766e-14
   200    6.700570341626e-13
   201    2.321001839323e-13
   202    5.434435782791e-15
   203   -4.158472337819e-15
   204   -5.071347382178e-03
Sym=X
Ene= 2.003894
Spin=Alpha
Occup=1
     1    7.093203511583e-14
     2    7.428525175011e-14
     3    1.071402142610e-13
     4    8.182035576115e-15
     5    2.983657833267e-02
     6   -8.993700741196e-14
     7    1.708480744399e-13
     8   -9.405296580476e-15
     9    5.334934825058e-02
    10    3.626975775558e-13
    11   -3.696985731021e-15
    12    4.467895977620e-13
    13    1.660195526919e-02
    14    1.493954001497e-11
    15    3.276587400029e-12
    16    3.289619474603e-12
    17    2.678090439175e-04
    18    4.633432257473e-15
    19   -2.175514179859e-02
    20    8.115424433045e-03
    21    1.372335353848e-14
    22    1.064855614776e-14
    23   -7.675393190851e-15
    24    3.393798357486e-14
    25   -7.504374858343e-13
    26    2.406273566196e-13
    27   -5.758127629468e-15
    28   -2.768027007355e-15
    29    1.378922531320e-02
    30   -3.481897886853e-14
    31    7.119014623350e-15
    32    1.966183476435e-13
    33    1.029811367925e-12
    34    9.335429848867e-15
    35   -1.696792484411e-15
    36    2.287794581285e-03
    37    1.371037529815e-14
    38   -1.174851412728e-13
    39    8.862470821086e-13
    40   -2.733201506654e-13
    41   -2.149740089276e-15
    42   -3.839614702898e-15
    43   -1.377006770256e-02
    44    6.929041856504e-14
    45    3.790739187127e-14
    46   -1.815448157004e-14
    47    9.106827602134e-15
    48    1.740663956756e-02
    49    9.526619309960e-14
    50   -1.197143902928e-14
    51    1.411427416629e-14
    52    3.156393835863e-02
    53    2.068432499235e-13
    54    2.796103042660e-13
    55   -1.742641493987e-13
    56    1.707284027053e-02
    57   -2.841414890208e-12
    58   -3.292276099228e-13
    59    1.264918535267e-12
    60   -1.050725015233e-03
    61   -1.454682950792e-14
    62   -2.368598736621e-02
    63   -2.710938553258e-02
    64   -1.545760724030e-14
    65   -1.035366485393e-14
    66    7.026104551226e-14
    67    1.891753873382e-14
    68    3.816351599075e-14
    69    6.507788511180e-14
    70    2.780534723139e-02
    71    2.359643765887e-13
    72    6.238954841909e-14
    73    9.105165000333e-14
    74    4.379860686508e-02
    75    2.552022562276e-13
    76    6.239634594037e-14
    77    1.151618777536e-13
    78    3.848120427024e-02
    79    2.921964115158e-13
    80    1.323556061946e-13
    81   -1.430090120342e-13
    82    2.837525277033e-03
    83   -1.615258887990e-15
    84    2.547862261464e-03
    85   -2.296161597281e-03
    86    6.943434340551e-15
    87   -3.166232625824e-16
    88   -1.131952987584e-14
    89    2.312651156127e-14
    90    2.117829061643e-14
    91    8.313623073318e-14
    92   -9.304054349005e-02
    93   -1.760981100991e-13
    94    1.418421351307e-14
    95    1.359445616868e-13
    96   -1.669981162151e-01
    97    2.051372556767e-13
    98   -3.999555083418e-14
    99   -1.176792069809e-13
   100   -9.268121563125e-02
   101    4.823184814651e-13
   102   -1.631775798828e-12
   103    1.201307937222e-12
   104   -1.845399074454e-02
   105    4.035882012735e-15
   106    1.653905404222e-02
   107   -1.172295430812e-02
   108    3.224062278019e-14
   109   -9.192545783067e-15
   110    7.818157168793e-15
   111    1.025865665258e-14
   112    6.265552558037e-14
   113   -1.660301334836e-13
   114   -3.800775394629e-02
   115   -3.843226561361e-14
   116    7.428416059026e-14
   117   -1.931351293118e-13
   118   -4.797698143880e-02
   119   -1.672954137258e-15
   120    5.088864195456e-14
   121   -1.252348614347e-13
   122   -2.330356142130e-02
   123    6.986635169561e-14
   124    8.710134918344e-15
   125    1.148971482270e-14
   126    2.124039868798e-02
   127   -1.247767129899e-15
   128    7.767303438260e-03
   129    4.923847658954e-03
   130   -2.510653232451e-15
   131    3.143443104449e-15
   132   -7.004997400359e-14
   133   -6.610637454901e-14
   134    9.604695703879e-15
   135    2.666186425467e-15
   136   -1.740665383161e-01
   137    5.520749952282e-14
   138    3.921876121484e-15
   139    5.871676614842e-15
   140   -2.856884674156e-01
   141   -2.185477476497e-13
   142    1.020595490715e-13
   143    1.181091879734e-13
   144   -2.835628495532e-01
   145   -7.767962883212e-13
   146   -3.975345961409e-13
   147   -1.432554435837e-12
   148   -1.505893549071e-02
   149    2.454205822485e-15
   150   -8.063503415617e-03
   151    7.566497472057e-03
   152    5.318932204589e-16
   153    4.669538734311e-15
   154   -2.144330035446e-14
   155    8.882552234149e-16
   156   -6.001954689264e-14
   157    5.881898657860e-14
   158    1.614077859482e-01
   159   -9.004863486838e-14
   160   -8.128860921150e-14
   161    1.052354567989e-13
   162    2.644582306368e-01
   163   -3.041049984917e-13
   164   -2.592790145644e-13
   165   -2.065869393655e-14
   166    2.695798918398e-01
   167   -4.199480654525e-13
   168   -1.392744886968e-12
   169   -5.867928415572e-13
   170    2.984408728251e-02
   171    1.023509673992e-14
   172    4.217429943963e-03
   173    2.755679516924e-03
   174    1.560325071349e-15
   175    8.342204988828e-15
   176   -1.229057720244e-13
   177   -1.149755362754e-13
   178    1.142976448953e-14
   179   -1.374148008406e-13
   180   -3.752497393788e-02
   181    6.666286592427e-14
   182    2.946407707959e-14
   183   -1.892032701016e-13
   184   -6.540944336482e-02
   185   -1.459445500642e-13
   186    2.877681513672e-13
   187   -4.119749448034e-13
   188   -5.722631497873e-02
   189   -1.187319588980e-11
   190    4.971103843141e-12
   191    1.497943031671e-12
   192    1.927001070302e-03
   193   -3.046103420817e-15
   194   -7.526009892879e-04
   195   -1.221824522352e-02
   196    1.963538249558e-14
   197   -3.694418142777e-15
   198    8.659694817427e-14
   199    3.583749111356e-14
   200   -2.626870855877e-13
   201   -1.135365456659e-12
   202   -3.579858109547e-16
   203   -3.499360527195e-15
   204   -3.000642986371e-03
Sym=X
Ene= 2.002630
Spin=Alpha
Occup=1
     1    8.780386287977e-03
     2    1.468585423324e-02
     3   -3.310802007064e-02
     4   -1.763238077582e-02
     5    4.092495069981e-15
     6   -4.045171759616e-02
     7   -5.529896512807e-02
     8   -2.884664076156e-02
     9    5.186046627900e-15
    10   -6.622835615938e-02
    11   -3.838016691447e-02
    12   -4.847243943431e-02
    13   -1.804893331358e-14
    14   -2.546727006876e-01
    15   -6.912522382484e-02
    16   -6.214362907152e-02
    17   -8.515043257692e-14
    18    4.359154067525e-04
    19   -2.324869436831e-14
    20    1.632645788660e-15
    21   -4.787360742907e-03
    22   -9.129678948845e-04
    23    3.350111051585e-03
    24    5.311609839904e-03
    25    7.311995279275e-03
    26    7.373936666213e-04
    27    7.523147865951e-04
    28    3.231952975303e-04
    29    1.687983373335e-14
    30    1.125092466537e-02
    31    1.376340033653e-02
    32    3.879308241752e-03
    33   -2.571523186906e-02
    34   -1.448045729390e-03
    35   -1.324378460988e-04
    36    9.716829279441e-15
    37   -3.108019772707e-03
    38    1.215530770189e-04
    39    1.064273356016e-02
    40   -4.057346231981e-02
    41   -2.970070702286e-04
    42    1.436778415874e-03
    43    4.949113053881e-16
    44   -8.095598503763e-03
    45   -1.341851667503e-02
    46    2.748769030207e-02
    47    1.536023858908e-02
    48    3.429649114240e-15
    49    3.697488964793e-02
    50    4.681393913493e-02
    51    2.645833464567e-02
    52    6.115190048645e-14
    53    5.587220157899e-02
    54    2.776376724555e-02
    55   -1.540816799692e-02
    56   -1.780481241211e-13
    57    4.404232670051e-02
    58    4.300884784819e-03
    59    1.043523168494e-02
    60   -1.305717259711e-13
    61   -8.939553218236e-04
    62    1.505052563678e-14
    63   -5.283350909753e-14
    64    9.469901804300e-03
    65    1.179145688640e-02
    66    1.448758962975e-03
    67    2.431548090322e-03
    68   -2.317796142125e-02
    69   -2.158506760390e-02
    70   -6.723274068307e-14
    71   -7.012086518682e-03
    72   -3.472224774473e-02
    73   -3.372099303406e-02
    74   -7.922053820457e-14
    75   -1.837775178427e-03
    76   -3.514123200849e-02
    77   -3.737103225450e-02
    78   -5.185713004531e-14
    79    1.919529677224e-02
    80    6.161780209200e-03
    81   -2.973534024396e-03
    82    1.329433523944e-13
    83    2.559338744436e-04
    84   -5.703649847870e-15
    85   -5.209667724224e-16
    86   -7.571590446349e-04
    87    3.820150389009e-05
    88   -1.550438883193e-03
    89   -3.142601613753e-03
    90    1.312699343334e-02
    91   -6.007597133212e-02
    92   -4.919722955985e-14
    93    1.034490253873e-02
    94    1.962113338281e-02
    95   -1.055900511573e-01
    96   -8.720122570484e-14
    97    1.476226375253e-03
    98   -2.609870318247e-02
    99    3.676612696872e-02
   100   -1.111636130363e-13
   101   -3.957670075417e-01
   102   -3.507147555268e-02
   103    1.860093782091e-01
   104    1.224472658991e-13
   105    1.465465112553e-03
   106   -2.522787689707e-15
   107   -1.953452356081e-16
   108   -4.615792970288e-02
   109    1.731225478895e-02
   110   -1.160449866264e-03
   111   -1.745796493227e-03
   112   -1.882488817808e-01
   113    3.175664511272e-01
   114   -2.826149782856e-14
   115    5.813756239884e-03
   116   -2.156490634343e-01
   117    3.640709591215e-01
   118   -7.622892983595e-14
   119    1.338002283371e-02
   120   -1.657342479880e-01
   121    2.603137751403e-01
   122    4.449341984368e-14
   123   -5.301444227361e-03
   124    3.282680442000e-03
   125    2.238303106091e-03
   126   -1.144325840646e-13
   127    1.030513867978e-03
   128    4.966813401818e-15
   129    6.014274993420e-15
   130    1.016074225073e-02
   131   -6.241631971718e-03
   132    1.259003291085e-02
   133    2.069831413254e-02
   134   -6.925210456553e-02
   135    7.625723861902e-03
   136   -5.247761194831e-14
   137   -5.572926602499e-02
   138   -1.117288625607e-01
   139    8.307160990470e-03
   140   -8.827250028058e-14
   141   -1.028645411674e-01
   142   -9.517327301170e-02
   143    2.517340911833e-02
   144   -2.120430173453e-14
   145   -1.104146035736e-01
   146    5.088020964415e-02
   147    1.452708908463e-02
   148   -1.913648795591e-15
   149   -5.110798987777e-05
   150   -4.287455926415e-15
   151    5.382401606035e-15
   152   -1.906718349697e-03
   153    3.839390842685e-03
   154    2.116997147709e-03
   155    3.453928008950e-03
   156    8.369142167909e-04
   157   -1.635348715155e-02
   158    1.249786523012e-13
   159   -8.845909707770e-03
   160    1.485016301692e-03
   161   -2.473748804644e-02
   162    1.974849868609e-13
   163   -2.715370576660e-02
   164    7.786285529644e-03
   165   -3.255676101046e-02
   166    2.529517902435e-13
   167    8.489992155635e-03
   168    5.078497601755e-03
   169    2.842514135304e-02
   170    1.204796171397e-13
   171   -2.842994545305e-04
   172    2.219642023340e-15
   173    4.524866172311e-15
   174   -2.001338566691e-03
   175    5.473106840110e-04
   176   -1.801036322962e-02
   177   -2.909870797670e-02
   178    3.485643601616e-02
   179    5.712603151363e-02
   180   -5.261846710794e-14
   181    7.103298332325e-02
   182    5.885104647032e-02
   183    8.018277864367e-02
   184   -9.504409690355e-14
   185    1.666225928508e-01
   186    6.069067368025e-04
   187    8.127033238205e-02
   188   -8.720378581929e-14
   189    6.898038980356e-01
   190   -9.053232304640e-02
   191    7.721926929353e-02
   192    3.528220311837e-14
   193   -1.237399130031e-03
   194    4.763551089643e-15
   195    3.853877024041e-15
   196   -4.388560405227e-03
   197   -1.193406919024e-03
   198    1.559382820567e-02
   199    2.117650150961e-02
   200    7.902153199698e-03
   201    3.573703365291e-02
   202   -1.656732992611e-03
   203    1.816226471501e-03
   204   -8.424070636629e-15
Sym=X
Ene= 2.001751
Spin=Alpha
Occup=1
     1   -5.198082462811e-03
     2   -8.557832821103e-03
     3   -1.595446977959e-02
     4    2.291425598692e-02
     5   -1.118493125030e-14
     6    2.070658558627e-02
     7   -2.668122719225e-02
     8    3.752639570493e-02
     9   -2.975660716923e-14
    10    2.773151907248e-02
    11   -1.635296181496e-02
    12    3.322211698893e-02
    13   -1.233768845467e-13
    14    1.848680727031e-02
    15   -2.624061270545e-02
    16    2.721742931472e-03
    17   -3.638993301782e-15
    18   -2.183522125994e-03
    19   -6.540973270376e-14
    20    1.161112055124e-14
    21    5.509270849969e-03
    22    1.086037929835e-04
    23    8.817665696323e-03
    24    2.569570134075e-02
    25    2.453101453113e-02
    26   -3.853335752022e-02
    27    2.697003186364e-03
    28    1.900801233639e-03
    29    3.059710416861e-14
    30   -1.414035284671e-02
    31   -2.184230180514e-02
    32   -3.340456796537e-03
    33   -1.146740082678e-02
    34   -7.257580761750e-04
    35   -1.022072704222e-03
    36   -1.107786234707e-15
    37   -1.200087249479e-02
    38   -2.127593785316e-02
    39   -2.350403809531e-02
    40    3.116286387756e-02
    41    3.883501466896e-03
    42    3.541289211590e-03
    43    1.222830290500e-14
    44    1.459070113600e-02
    45    2.332271831594e-02
    46   -2.824269387071e-02
    47   -4.056179959696e-03
    48   -1.708800282409e-14
    49   -6.342007419612e-02
    50   -4.682082547894e-02
    51   -9.343282417690e-04
    52    1.260162061976e-14
    53   -4.291064883787e-02
    54   -9.091456881206e-02
    55   -1.051949762047e-01
    56   -8.892015453985e-14
    57    9.668511985587e-04
    58   -6.293455507301e-02
    59   -9.402490173809e-02
    60   -7.836213970454e-14
    61    2.429421898678e-03
    62    1.119119402079e-13
    63   -9.399827973033e-14
    64    6.293949938716e-02
    65    2.183431828370e-02
    66   -5.617158040651e-03
    67   -9.420769431997e-03
    68   -1.197884134497e-01
    69   -1.943264106277e-01
    70   -3.641965681308e-13
    71    2.721470875116e-02
    72   -1.864352913439e-01
    73   -2.999233077510e-01
    74   -5.678155676783e-13
    75    1.887744910732e-02
    76   -1.679238001147e-01
    77   -2.703734231255e-01
    78   -5.677090663822e-13
    79   -5.642845927649e-03
    80   -5.736494285448e-03
    81   -1.208679598402e-02
    82   -6.259663317662e-14
    83    3.546270363193e-05
    84   -2.255558944228e-14
    85    1.449534202430e-14
    86   -1.431807017895e-02
    87   -6.990114848496e-03
    88    1.146111009678e-02
    89    1.740776335546e-02
    90   -7.057187488201e-02
    91   -3.944481051150e-02
    92   -3.711332442484e-14
    93   -4.335621233146e-02
    94   -1.225908296763e-01
    95   -7.078378249641e-02
    96   -6.375430581309e-14
    97   -8.335385380752e-02
    98   -1.263719991677e-02
    99   -2.590512734556e-02
   100   -6.418802104243e-14
   101   -7.653841096434e-02
   102    2.935459859056e-02
   103    5.797729199506e-03
   104    1.493625394886e-14
   105    4.291816949772e-03
   106   -3.313998234795e-14
   107    3.680617266875e-14
   108    2.583107856413e-03
   109   -2.219083895374e-02
   110    8.463155492615e-03
   111    1.190246806094e-02
   112    1.492111694006e-01
   113    5.545680886882e-02
   114   -6.782942281487e-14
   115   -3.664363915420e-02
   116    1.726725115916e-01
   117    6.412459504588e-02
   118   -7.717499148557e-14
   119    3.521364169847e-02
   120    8.763789847019e-02
   121    2.198465246210e-02
   122   -4.822730961009e-14
   123    2.522170122087e-02
   124   -1.707440493130e-03
   125   -5.121415610534e-03
   126    6.989862084447e-15
   127    6.052120679924e-03
   128    5.169157567877e-15
   129    4.567061168258e-15
   130   -5.007086401879e-03
   131   -9.659027039438e-03
   132   -1.790025188436e-02
   133   -3.015483825633e-02
   134    1.224948786547e-02
   135   -3.784733963641e-02
   136    2.201400098903e-13
   137    8.081721097011e-02
   138    2.446632177249e-02
   139   -5.031420782471e-02
   140    3.532471129730e-13
   141    1.930310372191e-01
   142   -3.219544169105e-02
   143   -6.395115887908e-02
   144    4.106422709202e-13