[Molden Format]
[Atoms] (Angs)
  C      1    6     -0.00754183     -1.75895763      0.00000000
  H      2    1     -2.09769850     -1.41880678     -0.00000000
  H      3    1     -0.13527422     -2.83956838     -0.00000000
  H      4    1      0.04053511      2.02026369      0.00000000
  C      5    6     -1.22066484      0.39918184     -0.00000000
  O      6    8     -2.25210141      1.05663720     -0.00000000
  C      7    6      1.24009552      0.27789184      0.00000000
  O      8    8      2.33767996      1.06122493      0.00000000
  N      9    7      0.03634586      1.00852936      0.00000000
  N     10    7     -1.18738304     -0.97903470     -0.00000000
  C     11    6      1.22288875     -1.12258096      0.00000000
  H     12    1      2.15640383     -1.68445878      0.00000000
[GTO]
1    0
S    6    1.000000
   4.56324000E+03    1.96665000E-03 
   6.82024000E+02    1.52306000E-02 
   1.54973000E+02    7.61269000E-02 
   4.44553000E+01    2.60801000E-01 
   1.30290000E+01    6.16462000E-01 
   1.82773000E+00    2.21006000E-01 
SP   3    1.000000
   2.09642000E+01    1.14660000E-01   4.02487000E-02 
   4.80331000E+00    9.19999000E-01   2.37594000E-01 
   1.45933000E+00   -3.03068000E-03   8.15854000E-01 
SP   1    1.000000
   4.83456000E-01    1.00000000E+00   1.00000000E+00 
SP   1    1.000000
   1.45585000E-01    1.00000000E+00   1.00000000E+00 
SP   1    1.000000
   4.38000000E-02    1.00000000E+00   1.00000000E+00 
D    1    1.000000
   6.26000000E-01    1.00000000E+00 

2    0
S    3    1.000000
   3.38650000E+01    2.54938000E-02 
   5.09479000E+00    1.90373000E-01 
   1.15879000E+00    8.52161000E-01 
S    1    1.000000
   3.25840000E-01    1.00000000E+00 
S    1    1.000000
   1.02741000E-01    1.00000000E+00 
S    1    1.000000
   3.60000000E-02    1.00000000E+00 
P    1    1.000000
   7.50000000E-01    1.00000000E+00 

3    0
S    3    1.000000
   3.38650000E+01    2.54938000E-02 
   5.09479000E+00    1.90373000E-01 
   1.15879000E+00    8.52161000E-01 
S    1    1.000000
   3.25840000E-01    1.00000000E+00 
S    1    1.000000
   1.02741000E-01    1.00000000E+00 
S    1    1.000000
   3.60000000E-02    1.00000000E+00 
P    1    1.000000
   7.50000000E-01    1.00000000E+00 

4    0
S    3    1.000000
   3.38650000E+01    2.54938000E-02 
   5.09479000E+00    1.90373000E-01 
   1.15879000E+00    8.52161000E-01 
S    1    1.000000
   3.25840000E-01    1.00000000E+00 
S    1    1.000000
   1.02741000E-01    1.00000000E+00 
S    1    1.000000
   3.60000000E-02    1.00000000E+00 
P    1    1.000000
   7.50000000E-01    1.00000000E+00 

5    0
S    6    1.000000
   4.56324000E+03    1.96665000E-03 
   6.82024000E+02    1.52306000E-02 
   1.54973000E+02    7.61269000E-02 
   4.44553000E+01    2.60801000E-01 
   1.30290000E+01    6.16462000E-01 
   1.82773000E+00    2.21006000E-01 
SP   3    1.000000
   2.09642000E+01    1.14660000E-01   4.02487000E-02 
   4.80331000E+00    9.19999000E-01   2.37594000E-01 
   1.45933000E+00   -3.03068000E-03   8.15854000E-01 
SP   1    1.000000
   4.83456000E-01    1.00000000E+00   1.00000000E+00 
SP   1    1.000000
   1.45585000E-01    1.00000000E+00   1.00000000E+00 
SP   1    1.000000
   4.38000000E-02    1.00000000E+00   1.00000000E+00 
D    1    1.000000
   6.26000000E-01    1.00000000E+00 

6    0
S    6    1.000000
   8.58850000E+03    1.89515000E-03 
   1.29723000E+03    1.43859000E-02 
   2.99296000E+02    7.07320000E-02 
   8.73771000E+01    2.40001000E-01 
   2.56789000E+01    5.94797000E-01 
   3.74004000E+00    2.80802000E-01 
SP   3    1.000000
   4.21175000E+01    1.13889000E-01   3.65114000E-02 
   9.62837000E+00    9.20811000E-01   2.37153000E-01 
   2.85332000E+00   -3.27447000E-03   8.19702000E-01 
SP   1    1.000000
   9.05661000E-01    1.00000000E+00   1.00000000E+00 
SP   1    1.000000
   2.55611000E-01    1.00000000E+00   1.00000000E+00 
SP   1    1.000000
   8.45000000E-02    1.00000000E+00   1.00000000E+00 
D    1    1.000000
   1.29200000E+00    1.00000000E+00 

7    0
S    6    1.000000
   4.56324000E+03    1.96665000E-03 
   6.82024000E+02    1.52306000E-02 
   1.54973000E+02    7.61269000E-02 
   4.44553000E+01    2.60801000E-01 
   1.30290000E+01    6.16462000E-01 
   1.82773000E+00    2.21006000E-01 
SP   3    1.000000
   2.09642000E+01    1.14660000E-01   4.02487000E-02 
   4.80331000E+00    9.19999000E-01   2.37594000E-01 
   1.45933000E+00   -3.03068000E-03   8.15854000E-01 
SP   1    1.000000
   4.83456000E-01    1.00000000E+00   1.00000000E+00 
SP   1    1.000000
   1.45585000E-01    1.00000000E+00   1.00000000E+00 
SP   1    1.000000
   4.38000000E-02    1.00000000E+00   1.00000000E+00 
D    1    1.000000
   6.26000000E-01    1.00000000E+00 

8    0
S    6    1.000000
   8.58850000E+03    1.89515000E-03 
   1.29723000E+03    1.43859000E-02 
   2.99296000E+02    7.07320000E-02 
   8.73771000E+01    2.40001000E-01 
   2.56789000E+01    5.94797000E-01 
   3.74004000E+00    2.80802000E-01 
SP   3    1.000000
   4.21175000E+01    1.13889000E-01   3.65114000E-02 
   9.62837000E+00    9.20811000E-01   2.37153000E-01 
   2.85332000E+00   -3.27447000E-03   8.19702000E-01 
SP   1    1.000000
   9.05661000E-01    1.00000000E+00   1.00000000E+00 
SP   1    1.000000
   2.55611000E-01    1.00000000E+00   1.00000000E+00 
SP   1    1.000000
   8.45000000E-02    1.00000000E+00   1.00000000E+00 
D    1    1.000000
   1.29200000E+00    1.00000000E+00 

9    0
S    6    1.000000
   6.29348000E+03    1.96979000E-03 
   9.49044000E+02    1.49613000E-02 
   2.18776000E+02    7.35006000E-02 
   6.36916000E+01    2.48937000E-01 
   1.88282000E+01    6.02460000E-01 
   2.72023000E+00    2.56202000E-01 
SP   3    1.000000
   3.06331000E+01    1.11906000E-01   3.83119000E-02 
   7.02614000E+00    9.21666000E-01   2.37403000E-01 
   2.11205000E+00   -2.56919000E-03   8.17592000E-01 
SP   1    1.000000
   6.84009000E-01    1.00000000E+00   1.00000000E+00 
SP   1    1.000000
   2.00878000E-01    1.00000000E+00   1.00000000E+00 
SP   1    1.000000
   6.39000000E-02    1.00000000E+00   1.00000000E+00 
D    1    1.000000
   9.13000000E-01    1.00000000E+00 

10    0
S    6    1.000000
   6.29348000E+03    1.96979000E-03 
   9.49044000E+02    1.49613000E-02 
   2.18776000E+02    7.35006000E-02 
   6.36916000E+01    2.48937000E-01 
   1.88282000E+01    6.02460000E-01 
   2.72023000E+00    2.56202000E-01 
SP   3    1.000000
   3.06331000E+01    1.11906000E-01   3.83119000E-02 
   7.02614000E+00    9.21666000E-01   2.37403000E-01 
   2.11205000E+00   -2.56919000E-03   8.17592000E-01 
SP   1    1.000000
   6.84009000E-01    1.00000000E+00   1.00000000E+00 
SP   1    1.000000
   2.00878000E-01    1.00000000E+00   1.00000000E+00 
SP   1    1.000000
   6.39000000E-02    1.00000000E+00   1.00000000E+00 
D    1    1.000000
   9.13000000E-01    1.00000000E+00 

11    0
S    6    1.000000
   4.56324000E+03    1.96665000E-03 
   6.82024000E+02    1.52306000E-02 
   1.54973000E+02    7.61269000E-02 
   4.44553000E+01    2.60801000E-01 
   1.30290000E+01    6.16462000E-01 
   1.82773000E+00    2.21006000E-01 
SP   3    1.000000
   2.09642000E+01    1.14660000E-01   4.02487000E-02 
   4.80331000E+00    9.19999000E-01   2.37594000E-01 
   1.45933000E+00   -3.03068000E-03   8.15854000E-01 
SP   1    1.000000
   4.83456000E-01    1.00000000E+00   1.00000000E+00 
SP   1    1.000000
   1.45585000E-01    1.00000000E+00   1.00000000E+00 
SP   1    1.000000
   4.38000000E-02    1.00000000E+00   1.00000000E+00 
D    1    1.000000
   6.26000000E-01    1.00000000E+00 

12    0
S    3    1.000000
   3.38650000E+01    2.54938000E-02 
   5.09479000E+00    1.90373000E-01 
   1.15879000E+00    8.52161000E-01 
S    1    1.000000
   3.25840000E-01    1.00000000E+00 
S    1    1.000000
   1.02741000E-01    1.00000000E+00 
S    1    1.000000
   3.60000000E-02    1.00000000E+00 
P    1    1.000000
   7.50000000E-01    1.00000000E+00 

[MO]
Sym=X
Ene= 2.006599
Spin=Alpha
Occup=1
     1   -6.486248683027e-14
     2   -4.812314276545e-14
     3   -8.347294249306e-15
     4   -8.881051016373e-15
     5   -9.636134621597e-02
     6   -3.219724104889e-14
     7   -1.800492811452e-14
     8   -4.685618057205e-15
     9   -1.674680133562e-01
    10    9.534816127210e-14
    11    1.117867974978e-13
    12   -2.296314274818e-15
    13   -1.417387835647e-01
    14    6.331894549342e-13
    15   -2.091768681340e-13
    16   -2.629892196697e-13
    17   -1.192190470062e-02
    18   -6.879085213104e-15
    19   -1.239535397511e-02
    20   -1.395664510106e-02
    21    4.528267344710e-16
    22   -3.877724168804e-15
    23    1.637040490109e-14
    24   -4.259037122154e-14
    25    6.734775808874e-13
    26   -1.379887794567e-13
    27    1.482299382950e-16
    28   -2.718227930469e-17
    29   -2.403259388387e-04
    30   -4.860748003372e-15
    31    2.210424645482e-14
    32   -2.352079181811e-13
    33   -1.944108765595e-13
    34   -1.439621404746e-15
    35   -1.048167323994e-15
    36   -7.020197585366e-03
    37   -1.494877556942e-14
    38    7.443832063030e-15
    39    2.249258037855e-13
    40    7.091940925037e-14
    41    8.321458883874e-15
    42    6.140620407604e-15
    43    6.094700626257e-03
    44   -1.679129016712e-14
    45   -4.383226261889e-15
    46   -2.352066723908e-14
    47   -8.256151601365e-15
    48    9.769241486299e-02
    49   -4.490673974139e-14
    50   -3.530607515344e-14
    51   -1.807913928931e-14
    52    1.744202973850e-01
    53   -1.038250942230e-13
    54    8.443792454966e-14
    55    6.258821019748e-14
    56    1.007242566074e-01
    57   -2.138812878322e-13
    58   -2.978477117503e-13
    59   -3.629352291584e-13
    60    1.582262383639e-02
    61    4.178954946843e-15
    62   -1.757587989268e-02
    63    2.255721668825e-02
    64   -8.485897410630e-15
    65   -1.230713067825e-14
    66    1.479271464396e-14
    67    2.137950758575e-14
    68    3.102751443669e-14
    69   -6.511040925557e-15
    70    2.303450838685e-01
    71   -7.790816553788e-14
    72    4.025004217655e-14
    73   -5.212021232373e-16
    74    2.691009787774e-01
    75   -1.374680690487e-14
    76    3.213394457360e-14
    77   -5.138195281357e-15
    78    1.658636699577e-01
    79    1.139433285910e-13
    80   -1.015352486086e-13
    81   -2.879729085307e-13
    82   -5.871566442840e-03
    83    1.545623736699e-16
    84    1.815950511502e-02
    85   -1.148112700269e-02
    86    2.581710834902e-15
    87    9.602827508903e-16
    88    1.303971395840e-13
    89    9.775779815413e-14
    90   -1.072221023105e-14
    91    1.010974921276e-14
    92   -4.764422455580e-02
    93    3.983994718557e-14
    94   -7.449762376188e-15
    95    1.110105977910e-14
    96   -8.373102790123e-02
    97    3.692438874758e-13
    98    2.213201166162e-14
    99    1.369779918612e-13
   100   -6.337761237469e-02
   101    1.459528891603e-12
   102   -9.298946736305e-13
   103    1.550284050031e-13
   104   -1.278261690689e-02
   105    3.652973214628e-15
   106   -7.259607003985e-03
   107    1.475574796789e-02
   108   -7.530615503445e-15
   109    6.534961870017e-15
   110    5.957961427200e-14
   111    6.131889039575e-14
   112   -3.174881470782e-14
   113    2.175870326454e-14
   114   -3.583105493023e-02
   115   -5.420742303922e-14
   116   -3.244182002262e-14
   117    2.003232350994e-14
   118   -5.718365732463e-02
   119   -1.330626513281e-13
   120   -1.164292274561e-14
   121    3.580759792738e-14
   122   -4.695489744379e-02
   123    1.318237314231e-13
   124    1.266415823497e-13
   125    3.367826835944e-14
   126    1.010651383036e-02
   127   -1.539139829525e-15
   128    4.261047345814e-03
   129    3.323833913992e-03
   130    3.284359012828e-15
   131    1.517909785515e-15
   132    3.275590494696e-14
   133    4.606083459077e-14
   134    3.643308263241e-14
   135   -2.282799492805e-15
   136    6.606576004640e-02
   137   -1.022314126510e-13
   138    4.496792599509e-14
   139    8.227464691496e-15
   140    1.103723160265e-01
   141   -2.640260342925e-13
   142    6.221661326621e-14
   143   -6.756323531437e-14
   144    1.048270254513e-01
   145   -4.262841360153e-13
   146   -7.969903763603e-13
   147   -1.527007102274e-13
   148    4.586228742352e-03
   149    4.790864137354e-15
   150   -1.138468015628e-02
   151   -1.997116154780e-03
   152    5.950421417928e-16
   153   -2.428431225201e-15
   154   -3.115559204799e-14
   155   -3.531784994543e-14
   156    7.355700914700e-15
   157   -5.215683648466e-15
   158   -1.610754512427e-02
   159    4.872697056520e-14
   160    2.451261404157e-14
   161   -8.954943781405e-15
   162   -2.530711568211e-02
   163    1.290997794199e-13
   164   -6.412603328982e-14
   165   -1.385884078486e-14
   166   -2.236623208977e-02
   167   -1.251739196291e-12
   168    7.174728643548e-13
   169   -2.513690741680e-13
   170    5.616263961574e-03
   171   -1.840564682622e-16
   172   -7.926281871650e-03
   173    1.142394374675e-02
   174    6.985778795971e-15
   175    2.747397938546e-15
   176   -9.315703571243e-15
   177    2.662662357676e-15
   178   -9.241509143241e-16
   179    1.184072275698e-14
   180   -1.091612607558e-01
   181   -4.466572670007e-14
   182    8.429478876908e-15
   183    2.409013306652e-14
   184   -1.908984751510e-01
   185   -8.584195944175e-14
   186    5.884981562294e-14
   187   -2.614452401195e-14
   188   -1.625308924985e-01
   189   -8.363402774679e-13
   190    7.072941486727e-13
   191    5.562530889746e-15
   192   -8.895561596196e-04
   193    5.415458692195e-15
   194    1.823881332090e-02
   195   -2.324683564789e-03
   196   -9.917167006475e-15
   197    4.374139650172e-15
   198   -2.159856576501e-14
   199   -3.230355067732e-14
   200   -7.994511482710e-14
   201   -2.564584971749e-14
   202    4.762136627973e-16
   203    3.479490490648e-15
   204   -8.617127523456e-03
Sym=X
Ene= 2.004083
Spin=Alpha
Occup=1
     1   -9.172833153165e-03
     2   -1.511782369378e-02
     3   -1.899694060262e-02
     4    2.980970453742e-02
     5   -2.913666760642e-14
     6    3.985802006935e-02
     7   -3.242777869464e-02
     8    5.011848226489e-02
     9   -8.946325324064e-14
    10    4.142922918626e-02
    11    1.655845660375e-03
    12    4.119888056853e-02
    13   -4.883789537856e-14
    14    1.047718848564e-01
    15   -8.132301191746e-03
    16    1.263771548811e-02
    17   -1.216947789274e-13
    18   -2.351361252490e-03
    19   -1.297761224278e-14
    20   -9.362826961272e-15
    21    8.832421943818e-03
    22   -5.835729445296e-03
    23   -4.994718403507e-03
    24    7.480859894957e-03
    25    3.131663907923e-02
    26   -2.878331083282e-02
    27    4.417836156942e-04
    28   -1.114415954953e-03
    29    8.534378765606e-15
    30   -1.899304570850e-02
    31   -3.077146693292e-02
    32   -1.339566358639e-02
    33   -6.895115786222e-03
    34   -1.048637010167e-03
    35   -5.704111924533e-04
    36    2.607789762116e-15
    37   -1.210091033198e-03
    38   -1.275109546042e-02
    39   -3.699991751180e-02
    40    4.329101576009e-02
    41   -1.656025793070e-03
    42    5.323489553226e-04
    43   -1.360647862659e-14
    44    5.253015652932e-03
    45    8.762373479679e-03
    46    3.276393994672e-02
    47    2.833228681784e-02
    48    4.817432547486e-15
    49   -2.577257726984e-02
    50    5.551235286939e-02
    51    5.329427342948e-02
    52    1.172207852577e-13
    53   -3.150522497326e-02
    54   -4.183752713670e-02
    55   -6.319017877897e-02
    56   -1.772157341609e-13
    57   -2.959498584750e-02
    58   -6.088791649106e-02
    59   -7.842529774191e-02
    60   -1.802808158252e-14
    61    1.576759423258e-03
    62    2.882963777969e-14
    63    7.613975454413e-15
    64    5.600382791968e-02
    65    2.879021234806e-02
    66    4.046533430527e-03
    67    5.844577163249e-03
    68   -2.007694768505e-01
    69   -2.671723168048e-01
    70   -1.006013597880e-14
    71   -1.882067459806e-02
    72   -2.311660818540e-01
    73   -3.063711606808e-01
    74    6.168254731769e-15
    75    3.062582402915e-03
    76   -1.506227779905e-01
    77   -2.169398500014e-01
    78   -8.613330986824e-15
    79    1.402324110198e-02
    80    3.423113679455e-03
    81   -4.494607709341e-03
    82    5.662866745697e-14
    83    1.355510824488e-03
    84    3.670640657488e-15
    85   -1.273927320771e-15
    86   -1.324653944323e-02
    87   -3.188582385588e-03
    88    1.244221713360e-02
    89    2.054322497666e-02
    90    3.125090983462e-02
    91   -8.054098786230e-03
    92    4.678622780520e-14
    93   -5.542617205447e-02
    94    5.460219009359e-02
    95   -1.169258857265e-02
    96    1.036256450416e-13
    97   -4.803359816693e-02
    98    5.484289828822e-02
    99   -1.852565207264e-02
   100   -1.279198544512e-14
   101    2.335255558666e-01
   102    1.583173258640e-02
   103   -1.213189160026e-01
   104   -2.156218616986e-13
   105    2.304971736871e-03
   106   -3.709603812881e-15
   107    1.546708633873e-14
   108    2.252022010955e-02
   109    2.577591253368e-04
   110   -2.896922644394e-03
   111   -4.896429827817e-03
   112    5.580770521106e-02
   113   -9.544889603947e-02
   114    9.071202256253e-14
   115    1.496801826317e-02
   116    8.624640998764e-02
   117   -1.468129139510e-01
   118    1.260747477545e-13
   119    8.285544909834e-03
   120    8.047283411728e-02
   121   -1.342328866552e-01
   122    1.219026827957e-13
   123   -3.180698745316e-02
   124    1.524693257047e-02
   125   -1.778705927600e-03
   126    1.051653270417e-13
   127   -2.540937247835e-05
   128   -6.106331580667e-15
   129   -2.285857895944e-15
   130   -6.576780062580e-03
   131    3.184221024698e-03
   132   -2.005647010168e-02
   133   -3.325493269110e-02
   134   -6.281437502063e-02
   135   -1.861866966113e-02
   136    4.336988097027e-14
   137    8.832111453216e-02
   138   -9.424932953208e-02
   139   -2.009435572952e-02
   140    7.980198117502e-14
   141    1.856563298106e-01
   142   -9.054109088116e-02
   143   -3.958495207474e-02
   144    7.609531048737e-14
   145    1.875142445008e-01
   146    1.154228412831e-02
   147    4.856514666486e-03
   148    1.486056743237e-13
   149    9.154726541334e-04
   150    8.607694184045e-15
   151   -6.292305861087e-15
   152    1.070630231094e-03
   153    3.570049152918e-03
   154    1.348642448118e-02
   155    2.200711746383e-02
   156    2.973337126384e-02
   157   -6.576781233334e-02
   158   -1.748032837093e-14
   159   -5.738921473250e-02
   160    5.157820218174e-02
   161   -9.562374821730e-02
   162   -2.945726809857e-14
   163   -1.111145849861e-01
   164    4.411104904340e-02
   165   -9.875587298826e-02
   166   -4.210976737667e-15
   167   -1.268948151007e-01
   168    9.560466684264e-03
   169    2.070627490513e-03
   170    7.715929333603e-14
   171   -4.913147133516e-04
   172   -5.349275045443e-15
   173   -6.130552256047e-15
   174    2.767442568662e-03
   175   -5.169834757545e-05
   176    4.233446349296e-03
   177    6.850926624941e-03
   178   -1.921444847054e-03
   179   -1.277754885682e-02
   180   -2.965924529582e-14
   181   -1.686590066907e-02
   182   -5.805941204027e-03
   183   -1.547982014713e-02
   184   -4.999619174228e-14
   185   -5.370927120960e-02
   186    7.201484375586e-03
   187   -1.927521853726e-02
   188   -6.470740722630e-14
   189   -3.263290448974e-01
   190    2.942388557104e-02
   191   -6.167228373695e-02
   192    1.835684321432e-13
   193   -4.272797151410e-04
   194    8.332261215880e-15
   195    1.947090696284e-15
   196    3.201373116430e-03
   197    1.061635436956e-03
   198    9.891667671398e-05
   199    2.596538841567e-03
   200   -2.551110965402e-04
   201   -1.359955914863e-02
   202   -3.996742455045e-04
   203    3.266683887330e-04
   204    1.712804113073e-15
Sym=X
Ene= 2.002836
Spin=Alpha
Occup=1
     1    1.333187990102e-13
     2    1.517038658086e-13
     3    3.290981519974e-14
     4    1.735339832038e-15
     5    7.813271309281e-02
     6   -2.128581112079e-13
     7    6.053360329088e-14
     8   -7.568459354640e-15
     9    1.351117674500e-01
    10    3.069455096023e-14
    11    4.694640354841e-15
    12    1.002120275417e-13
    13    9.675327447794e-02
    14    4.131816475903e-12
    15    1.274606566642e-12
    16    3.122605889295e-13
    17    1.637889980470e-02
    18    8.469520834296e-15
    19   -7.908060994724e-03
    20    1.369060743346e-02
    21    8.615563538970e-15
    22    6.720009579411e-15
    23    1.027198475090e-14
    24    8.711940874287e-14
    25   -4.389864024932e-13
    26    1.701453003293e-13
    27    2.120300053028e-15
    28    1.407138828482e-15
    29    1.037864024828e-02
    30   -5.117975895263e-14
    31   -4.737887357441e-14
    32   -7.863539221766e-14
    33   -2.513146127709e-14
    34    2.158240276828e-15
    35   -1.013857209485e-14
    36    6.310176027871e-03
    37   -6.506416839410e-14
    38   -1.057436873565e-13
    39    4.455435229818e-13
    40   -2.607550778075e-13
    41   -2.695293449511e-16
    42    1.018171951280e-14
    43   -3.846209472712e-03
    44    9.768382705099e-14
    45    7.098162839204e-14
    46   -2.564733683748e-15
    47    2.256314833304e-14
    48    3.952890562917e-02
    49    5.388251422095e-14
    50    1.484752212276e-14
    51    3.006223624117e-14
    52    6.847739732385e-02
    53    7.590645486528e-15
    54   -1.888036787606e-14
    55   -3.333760196907e-15
    56    3.455307204784e-02
    57   -5.832034417923e-13
    58    4.283925009441e-14
    59    5.375907723158e-13
    60    1.724146035551e-02
    61   -2.561846787797e-15
    62   -7.244330290368e-03
    63   -1.939307724590e-02
    64    2.866670046679e-14
    65    1.045404181487e-14
    66   -6.308471391942e-14
    67   -9.250304229999e-14
    68   -8.583563883672e-14
    69   -8.289231312059e-14
    70    2.373623499269e-02
    71    3.209483867679e-13
    72   -8.649921289674e-14
    73   -1.028717579002e-13
    74    2.937770687642e-02
    75    1.490852056047e-13
    76   -7.729447055829e-14
    77   -4.708197486028e-14
    78    1.477348289428e-02
    79   -1.045268003482e-13
    80   -2.384648336348e-14
    81   -2.767247657402e-14
    82   -1.386546698613e-02
    83   -2.094821120588e-15
    84    3.999267948118e-03
    85   -3.022247485535e-03
    86   -2.439560512700e-15
    87   -4.138699703266e-15
    88    1.470981487244e-13
    89    1.844157295475e-13
    90   -2.529959065249e-14
    91   -1.269047326855e-14
    92   -8.792475324438e-02
    93   -3.391903510565e-13
    94   -3.761226558705e-14
    95   -4.176375245111e-14
    96   -1.576258361315e-01
    97   -2.454115887881e-13
    98   -4.388687654371e-14
    99   -2.004570470685e-14
   100   -1.235170364559e-01
   101   -4.605190393677e-12
   102   -6.143907913360e-13
   103    1.861008606403e-12
   104   -3.148449521669e-02
   105    1.592934217915e-14
   106   -2.158525219836e-02
   107   -2.679590860277e-02
   108    2.363441209567e-14
   109   -1.271520665124e-14
   110   -1.251741453869e-13
   111   -1.389985413163e-13
   112    1.557380042364e-13
   113    1.089095262301e-15
   114   -1.772252873322e-01
   115    1.890763930878e-13
   116    2.477734859661e-13
   117   -4.551387910068e-15
   118   -2.771164406217e-01
   119    2.156669998130e-13
   120    1.618283193494e-13
   121   -2.035500693827e-14
   122   -2.612832717253e-01
   123    2.746942184102e-13
   124    4.107384280285e-16
   125   -1.019718982366e-13
   126   -2.927981844582e-02
   127    6.891391125338e-15
   128    1.465541341277e-02
   129    9.561981235896e-03
   130   -9.535741395274e-15
   131   -1.000342596864e-14
   132   -7.483664901059e-14
   133   -3.812032662982e-14
   134   -5.441233108837e-14
   135   -6.081088588854e-14
   136   -4.135395302076e-02
   137   -1.294869370556e-13
   138   -8.593199201041e-14
   139   -8.724855242671e-14
   140   -6.964576412113e-02
   141   -1.007708821094e-13
   142   -2.856178407515e-14
   143   -9.373782398515e-14
   144   -5.266961837341e-02
   145   -2.554432530058e-13
   146   -2.031568359159e-13
   147   -8.138274691652e-13
   148    7.573224586335e-03
   149    7.652217286915e-15
   150   -7.985598693477e-03
   151    2.308393746002e-03
   152    2.060427959461e-15
   153    7.490680465134e-15
   154   -2.128484995748e-13
   155   -1.516427011853e-13
   156   -5.952040468501e-14
   157   -1.411977371053e-15
   158    1.337415569631e-01
   159   -1.454748924760e-13
   160   -8.678701196997e-14
   161    9.211318013245e-15
   162    2.204453564884e-01
   163   -1.471636440244e-13
   164   -8.588349574064e-14
   165   -2.891227435952e-14
   166    1.994656737783e-01
   167    3.456161028687e-13
   168   -6.662996578989e-13
   169   -2.674516272651e-13
   170   -7.783002346091e-03
   171    6.275296981505e-15
   172    6.719488793488e-03
   173    3.222555659232e-03
   174    1.417107923502e-16
   175    7.942368602059e-15
   176   -1.397994480301e-13
   177   -9.960733673363e-14
   178    2.632455013808e-14
   179   -5.664425088745e-14
   180    3.042996165444e-02
   181   -7.548075329307e-14
   182    5.139068644434e-14
   183   -8.353808809127e-14
   184    5.038115856504e-02
   185   -7.340267128625e-14
   186    8.156177199942e-14
   187   -9.332305642820e-14
   188    7.250904632814e-02
   189    1.155940221992e-12
   190    1.250874074377e-12
   191    2.123082808903e-12
   192    8.939488607529e-03
   193    4.480684791180e-15
   194   -1.202206153636e-02
   195   -1.290998347960e-02
   196    9.246095462962e-15
   197   -9.945140655936e-15
   198    2.895951192218e-14
   199    2.537339696858e-14
   200   -5.625595698813e-14
   201   -2.616865238707e-16
   202    1.932731031266e-15
   203   -2.910851380669e-15
   204    1.545896358459e-03
Sym=X
Ene= 2.001489
Spin=Alpha
Occup=1
     1   -6.786845349282e-03
     2   -1.076053398761e-02
     3   -3.128225284991e-02
     4    4.845339011995e-03
     5   -6.995714272472e-14
     6    2.817362745913e-02
     7   -5.482398680691e-02
     8    9.845908988804e-03
     9   -1.336308094135e-13
    10    8.516727552673e-03
    11   -2.763817184049e-02
    12   -9.013981658345e-03
    13   -5.774589350515e-15
    14   -2.794109720764e-01
    15   -7.449561390999e-02
    16   -1.050371057929e-01
    17   -6.995145398636e-14
    18   -1.662875353992e-03
    19    2.999611401317e-14
    20   -3.232111856531e-14
    21    1.061416336580e-03
    22   -1.104966626518e-03
    23    9.800799960593e-03
    24    1.039607928974e-02
    25    1.495049855801e-02
    26   -8.424046399100e-04
    27    2.148149261899e-03
    28   -1.511329996691e-03
    29   -2.520473070290e-14
    30    3.369483246823e-03
    31    1.431103013030e-03
    32   -7.839008320934e-03
    33   -4.969564168698e-02
    34   -1.047516018192e-03
    35    6.128797521258e-04
    36   -7.132927356889e-15
    37    1.689687960641e-02
    38    1.297072033659e-02
    39   -6.193936767519e-03
    40   -2.816272653963e-02
    41    2.762581390701e-03
    42   -1.991800024040e-03
    43   -2.546217179716e-14
    44   -1.372139264779e-02
    45   -2.070348619915e-02
    46   -8.399501412825e-02
    47    7.779084097518e-02
    48   -2.747407909316e-13
    49    5.856167989966e-02
    50   -1.324704133121e-01
    51    1.287222384355e-01
    52   -4.480916813116e-13
    53    8.616614749749e-02
    54   -1.281101974513e-02
    55    4.035007480541e-03
    56   -2.782999211126e-13
    57    4.123478646318e-02
    58    1.400242437566e-03
    59   -2.503199600968e-02
    60   -8.276457273787e-14
    61   -4.866532019940e-03
    62   -4.617578994446e-14
    63    1.628717582790e-14
    64    2.967604472528e-02
    65   -1.263385172747e-02
    66   -2.079211749983e-03
    67   -2.489146875401e-03
    68    1.125491919309e-01
    69   -2.161830534211e-01
    70    1.268305803583e-14
    71   -6.264553792492e-04
    72    1.272910522577e-01
    73   -2.463562229089e-01
    74    4.264729370497e-15
    75   -8.659723454916e-02
    76    3.157595404710e-02
    77   -1.391525699589e-01
    78    4.006793741133e-14
    79   -2.561063852555e-02
    80    1.029267471097e-03
    81    3.320910559985e-03
    82    1.020068302260e-13
    83   -9.517490357883e-03
    84   -2.024025293625e-14
    85    1.381215082083e-14
    86    3.042531317193e-03
    87   -1.715564285474e-02
    88   -1.929993125578e-02
    89   -3.194049737180e-02
    90    1.097324815709e-02
    91   -6.980132834606e-04
    92   -2.554756292959e-13
    93    8.884887019902e-02
    94    1.849935604938e-02
    95   -3.267611039755e-03
    96   -4.477948788323e-13
    97    8.868664748365e-02
    98   -4.126712574618e-02
    99    6.705811596140e-02
   100   -3.236640060529e-13
   101   -2.967338844876e-01
   102   -6.309492005102e-02
   103    1.458371495997e-01
   104   -1.967353986401e-13
   105   -3.774276356980e-03
   106    9.890539165087e-15
   107   -5.701059773702e-14
   108   -3.600327019960e-02
   109    1.773705241630e-02
   110    1.307172302154e-02
   111    2.210782245215e-02
   112   -1.332702789481e-01
   113    1.175605829983e-01
   114   -3.223749040621e-13
   115   -6.681121646209e-02
   116   -2.042066443972e-01
   117    1.810440846754e-01
   118   -5.144835564424e-13
   119   -7.820094558262e-02
   120   -1.799385934693e-01
   121    1.802186414391e-01
   122   -4.425029458023e-13
   123   -1.505259812060e-02
   124    8.672006220272e-04
   125    1.119406495944e-02
   126   -1.190328383908e-14
   127   -2.160221802738e-03
   128    3.405235144923e-14
   129    1.683082040626e-14
   130    1.004353409666e-02
   131   -2.600888622376e-04
   132    6.687786347856e-03
   133    1.190899184088e-02
   134   -6.155942096988e-03
   135    3.432596374742e-02
   136   -4.292293173154e-13
   137   -3.359047739128e-02
   138   -8.992187217457e-03
   139    5.255017288395e-02
   140   -7.034522027719e-13
   141   -9.847459031459e-02
   142   -4.066877811655e-02
   143    6.820874688038e-02
   144   -6.183812006614e-13