[Molden Format]
[Atoms] (Angs)
  C      1    6     -0.00754183     -1.75895763      0.00000000
  H      2    1     -2.09769850     -1.41880678     -0.00000000
  H      3    1     -0.13527422     -2.83956838     -0.00000000
  H      4    1      0.04053511      2.02026369      0.00000000
  C      5    6     -1.22066484      0.39918184     -0.00000000
  O      6    8     -2.25210141      1.05663720     -0.00000000
  C      7    6      1.24009552      0.27789184      0.00000000
  O      8    8      2.33767996      1.06122493      0.00000000
  N      9    7      0.03634586      1.00852936      0.00000000
  N     10    7     -1.18738304     -0.97903470     -0.00000000
  C     11    6      1.22288875     -1.12258096      0.00000000
  H     12    1      2.15640383     -1.68445878      0.00000000
[GTO]
1    0
S    6    1.000000
   4.56324000E+03    1.96665000E-03 
   6.82024000E+02    1.52306000E-02 
   1.54973000E+02    7.61269000E-02 
   4.44553000E+01    2.60801000E-01 
   1.30290000E+01    6.16462000E-01 
   1.82773000E+00    2.21006000E-01 
SP   3    1.000000
   2.09642000E+01    1.14660000E-01   4.02487000E-02 
   4.80331000E+00    9.19999000E-01   2.37594000E-01 
   1.45933000E+00   -3.03068000E-03   8.15854000E-01 
SP   1    1.000000
   4.83456000E-01    1.00000000E+00   1.00000000E+00 
SP   1    1.000000
   1.45585000E-01    1.00000000E+00   1.00000000E+00 
SP   1    1.000000
   4.38000000E-02    1.00000000E+00   1.00000000E+00 
D    1    1.000000
   6.26000000E-01    1.00000000E+00 

2    0
S    3    1.000000
   3.38650000E+01    2.54938000E-02 
   5.09479000E+00    1.90373000E-01 
   1.15879000E+00    8.52161000E-01 
S    1    1.000000
   3.25840000E-01    1.00000000E+00 
S    1    1.000000
   1.02741000E-01    1.00000000E+00 
S    1    1.000000
   3.60000000E-02    1.00000000E+00 
P    1    1.000000
   7.50000000E-01    1.00000000E+00 

3    0
S    3    1.000000
   3.38650000E+01    2.54938000E-02 
   5.09479000E+00    1.90373000E-01 
   1.15879000E+00    8.52161000E-01 
S    1    1.000000
   3.25840000E-01    1.00000000E+00 
S    1    1.000000
   1.02741000E-01    1.00000000E+00 
S    1    1.000000
   3.60000000E-02    1.00000000E+00 
P    1    1.000000
   7.50000000E-01    1.00000000E+00 

4    0
S    3    1.000000
   3.38650000E+01    2.54938000E-02 
   5.09479000E+00    1.90373000E-01 
   1.15879000E+00    8.52161000E-01 
S    1    1.000000
   3.25840000E-01    1.00000000E+00 
S    1    1.000000
   1.02741000E-01    1.00000000E+00 
S    1    1.000000
   3.60000000E-02    1.00000000E+00 
P    1    1.000000
   7.50000000E-01    1.00000000E+00 

5    0
S    6    1.000000
   4.56324000E+03    1.96665000E-03 
   6.82024000E+02    1.52306000E-02 
   1.54973000E+02    7.61269000E-02 
   4.44553000E+01    2.60801000E-01 
   1.30290000E+01    6.16462000E-01 
   1.82773000E+00    2.21006000E-01 
SP   3    1.000000
   2.09642000E+01    1.14660000E-01   4.02487000E-02 
   4.80331000E+00    9.19999000E-01   2.37594000E-01 
   1.45933000E+00   -3.03068000E-03   8.15854000E-01 
SP   1    1.000000
   4.83456000E-01    1.00000000E+00   1.00000000E+00 
SP   1    1.000000
   1.45585000E-01    1.00000000E+00   1.00000000E+00 
SP   1    1.000000
   4.38000000E-02    1.00000000E+00   1.00000000E+00 
D    1    1.000000
   6.26000000E-01    1.00000000E+00 

6    0
S    6    1.000000
   8.58850000E+03    1.89515000E-03 
   1.29723000E+03    1.43859000E-02 
   2.99296000E+02    7.07320000E-02 
   8.73771000E+01    2.40001000E-01 
   2.56789000E+01    5.94797000E-01 
   3.74004000E+00    2.80802000E-01 
SP   3    1.000000
   4.21175000E+01    1.13889000E-01   3.65114000E-02 
   9.62837000E+00    9.20811000E-01   2.37153000E-01 
   2.85332000E+00   -3.27447000E-03   8.19702000E-01 
SP   1    1.000000
   9.05661000E-01    1.00000000E+00   1.00000000E+00 
SP   1    1.000000
   2.55611000E-01    1.00000000E+00   1.00000000E+00 
SP   1    1.000000
   8.45000000E-02    1.00000000E+00   1.00000000E+00 
D    1    1.000000
   1.29200000E+00    1.00000000E+00 

7    0
S    6    1.000000
   4.56324000E+03    1.96665000E-03 
   6.82024000E+02    1.52306000E-02 
   1.54973000E+02    7.61269000E-02 
   4.44553000E+01    2.60801000E-01 
   1.30290000E+01    6.16462000E-01 
   1.82773000E+00    2.21006000E-01 
SP   3    1.000000
   2.09642000E+01    1.14660000E-01   4.02487000E-02 
   4.80331000E+00    9.19999000E-01   2.37594000E-01 
   1.45933000E+00   -3.03068000E-03   8.15854000E-01 
SP   1    1.000000
   4.83456000E-01    1.00000000E+00   1.00000000E+00 
SP   1    1.000000
   1.45585000E-01    1.00000000E+00   1.00000000E+00 
SP   1    1.000000
   4.38000000E-02    1.00000000E+00   1.00000000E+00 
D    1    1.000000
   6.26000000E-01    1.00000000E+00 

8    0
S    6    1.000000
   8.58850000E+03    1.89515000E-03 
   1.29723000E+03    1.43859000E-02 
   2.99296000E+02    7.07320000E-02 
   8.73771000E+01    2.40001000E-01 
   2.56789000E+01    5.94797000E-01 
   3.74004000E+00    2.80802000E-01 
SP   3    1.000000
   4.21175000E+01    1.13889000E-01   3.65114000E-02 
   9.62837000E+00    9.20811000E-01   2.37153000E-01 
   2.85332000E+00   -3.27447000E-03   8.19702000E-01 
SP   1    1.000000
   9.05661000E-01    1.00000000E+00   1.00000000E+00 
SP   1    1.000000
   2.55611000E-01    1.00000000E+00   1.00000000E+00 
SP   1    1.000000
   8.45000000E-02    1.00000000E+00   1.00000000E+00 
D    1    1.000000
   1.29200000E+00    1.00000000E+00 

9    0
S    6    1.000000
   6.29348000E+03    1.96979000E-03 
   9.49044000E+02    1.49613000E-02 
   2.18776000E+02    7.35006000E-02 
   6.36916000E+01    2.48937000E-01 
   1.88282000E+01    6.02460000E-01 
   2.72023000E+00    2.56202000E-01 
SP   3    1.000000
   3.06331000E+01    1.11906000E-01   3.83119000E-02 
   7.02614000E+00    9.21666000E-01   2.37403000E-01 
   2.11205000E+00   -2.56919000E-03   8.17592000E-01 
SP   1    1.000000
   6.84009000E-01    1.00000000E+00   1.00000000E+00 
SP   1    1.000000
   2.00878000E-01    1.00000000E+00   1.00000000E+00 
SP   1    1.000000
   6.39000000E-02    1.00000000E+00   1.00000000E+00 
D    1    1.000000
   9.13000000E-01    1.00000000E+00 

10    0
S    6    1.000000
   6.29348000E+03    1.96979000E-03 
   9.49044000E+02    1.49613000E-02 
   2.18776000E+02    7.35006000E-02 
   6.36916000E+01    2.48937000E-01 
   1.88282000E+01    6.02460000E-01 
   2.72023000E+00    2.56202000E-01 
SP   3    1.000000
   3.06331000E+01    1.11906000E-01   3.83119000E-02 
   7.02614000E+00    9.21666000E-01   2.37403000E-01 
   2.11205000E+00   -2.56919000E-03   8.17592000E-01 
SP   1    1.000000
   6.84009000E-01    1.00000000E+00   1.00000000E+00 
SP   1    1.000000
   2.00878000E-01    1.00000000E+00   1.00000000E+00 
SP   1    1.000000
   6.39000000E-02    1.00000000E+00   1.00000000E+00 
D    1    1.000000
   9.13000000E-01    1.00000000E+00 

11    0
S    6    1.000000
   4.56324000E+03    1.96665000E-03 
   6.82024000E+02    1.52306000E-02 
   1.54973000E+02    7.61269000E-02 
   4.44553000E+01    2.60801000E-01 
   1.30290000E+01    6.16462000E-01 
   1.82773000E+00    2.21006000E-01 
SP   3    1.000000
   2.09642000E+01    1.14660000E-01   4.02487000E-02 
   4.80331000E+00    9.19999000E-01   2.37594000E-01 
   1.45933000E+00   -3.03068000E-03   8.15854000E-01 
SP   1    1.000000
   4.83456000E-01    1.00000000E+00   1.00000000E+00 
SP   1    1.000000
   1.45585000E-01    1.00000000E+00   1.00000000E+00 
SP   1    1.000000
   4.38000000E-02    1.00000000E+00   1.00000000E+00 
D    1    1.000000
   6.26000000E-01    1.00000000E+00 

12    0
S    3    1.000000
   3.38650000E+01    2.54938000E-02 
   5.09479000E+00    1.90373000E-01 
   1.15879000E+00    8.52161000E-01 
S    1    1.000000
   3.25840000E-01    1.00000000E+00 
S    1    1.000000
   1.02741000E-01    1.00000000E+00 
S    1    1.000000
   3.60000000E-02    1.00000000E+00 
P    1    1.000000
   7.50000000E-01    1.00000000E+00 

[MO]
Sym=X
Ene= 2.004085
Spin=Alpha
Occup=1
     1    6.599540108553e-14
     2    6.336120242810e-14
     3   -7.383430161217e-16
     4    5.547357151715e-15
     5    4.432209483866e-02
     6   -4.019573411544e-14
     7   -1.404132399801e-14
     8    8.098986542433e-15
     9    7.624317245047e-02
    10    3.508851935057e-13
    11    1.870811062878e-13
    12    2.890580231921e-13
    13    6.237674363623e-02
    14    1.457504307585e-12
    15    1.551540938823e-13
    16    2.014980611537e-13
    17    3.615849449584e-03
    18    1.185899417466e-15
    19   -2.535223137584e-03
    20    5.897958423942e-03
    21    3.021632270394e-16
    22   -6.074883739530e-16
    23    2.558131124512e-14
    24    5.614823502084e-14
    25   -1.825352681302e-13
    26    8.981460618567e-13
    27    9.553557102340e-15
    28    1.644651208907e-15
    29    5.178347523577e-03
    30   -8.278598600677e-15
    31   -1.710152937085e-14
    32    2.885514256687e-13
    33   -1.480239159168e-13
    34    1.205078921875e-15
    35   -4.877875844349e-15
    36    3.662617753083e-03
    37   -3.700395513663e-15
    38   -9.591066308817e-14
    39    1.301889638873e-12
    40   -9.220372587932e-13
    41   -2.538755911772e-16
    42    8.550781348068e-15
    43   -8.000593247483e-03
    44    4.228798269916e-14
    45    1.641518912893e-14
    46   -9.121927730055e-14
    47    8.247197284890e-14
    48    8.511874697290e-03
    49    1.075425051541e-13
    50   -1.453750787556e-13
    51    1.035001219855e-13
    52    1.380679304292e-02
    53   -3.172697761003e-13
    54    5.243759244059e-13
    55    2.261145037082e-13
    56    1.351574924529e-02
    57   -1.948534593925e-12
    58    3.799330324911e-13
    59    1.770866938631e-12
    60    1.206241987085e-02
    61   -3.300692586238e-15
    62   -1.564613831689e-02
    63   -7.944255308044e-03
    64   -1.083556655775e-14
    65   -3.365373420508e-14
    66    1.557725029138e-13
    67    7.839900216539e-14
    68    1.274135056800e-13
    69    4.245006569567e-14
    70    3.248487443930e-02
    71    3.134962555853e-13
    72    2.019263464157e-13
    73    7.593635627238e-14
    74    5.056749589696e-02
    75    2.980151369236e-13
    76    2.206790165248e-13
    77    6.097774282720e-14
    78    4.926401793807e-02
    79    5.101404617930e-13
    80    8.783420403412e-14
    81   -4.309309602167e-13
    82    4.243615399488e-04
    83   -7.672184697950e-15
    84    2.440854056132e-03
    85   -1.807878708532e-03
    86    1.355088154832e-14
    87   -7.813919795560e-15
    88    1.314596286221e-13
    89    1.155512309183e-13
    90    8.124968382151e-15
    91    1.810841596635e-14
    92   -8.236339685494e-02
    93   -4.466167330145e-14
    94    1.175848953388e-14
    95    1.997569419760e-14
    96   -1.457857779581e-01
    97    3.396132380975e-13
    98   -1.017364944628e-13
    99    2.153805381496e-13
   100   -9.241206630140e-02
   101    5.205307601924e-12
   102   -2.390316919143e-12
   103    7.178255794496e-13
   104   -4.238011566000e-02
   105   -1.145014656744e-14
   106   -1.392491203734e-02
   107   -2.570049646602e-02
   108    1.434142183139e-14
   109   -1.240773481637e-14
   110   -2.694648340222e-14
   111   -4.027115124950e-14
   112    6.525396263174e-14
   113   -5.369586311508e-14
   114   -3.131065721699e-01
   115    1.389589770714e-13
   116    9.480780524276e-14
   117   -9.549684035074e-14
   118   -3.617163043369e-01
   119    5.289664583912e-14
   120    5.389913681707e-14
   121   -5.298167491945e-15
   122   -2.561671158853e-01
   123    7.905422004144e-14
   124    1.387816491676e-13
   125    5.334227768585e-14
   126   -8.534617291264e-03
   127   -1.793440231575e-15
   128    1.503501767833e-02
   129    9.759264043866e-03
   130   -4.324073484358e-15
   131    2.638576289460e-15
   132   -5.945187316055e-15
   133    1.169828706604e-14
   134    4.908537051877e-14
   135   -5.443411666878e-15
   136   -9.009876693134e-02
   137   -7.958353003750e-14
   138    4.505262774950e-14
   139   -4.921524638884e-15
   140   -1.476270069031e-01
   141   -1.812677151090e-13
   142    2.041729986202e-13
   143    8.039993141138e-14
   144   -1.417745241733e-01
   145   -5.745740478719e-12
   146   -5.257056149130e-13
   147   -3.531299904658e-13
   148    8.784501583351e-04
   149   -4.299825244037e-15
   150   -5.545698354771e-03
   151    4.009798401056e-03
   152    2.317200326029e-15
   153    1.051200139619e-15
   154   -2.420969918346e-13
   155   -2.025500808146e-13
   156   -3.303167708673e-14
   157   -2.178618729976e-14
   158    5.831321120647e-02
   159    1.056104215591e-14
   160   -3.187143394567e-14
   161   -4.265431769590e-14
   162    9.657739871916e-02
   163   -2.905178181261e-13
   164   -2.257986877076e-13
   165    6.129301193336e-14
   166    8.516805821499e-02
   167    3.093936603602e-12
   168    4.732479941907e-13
   169    5.387790198775e-13
   170   -1.762211732522e-03
   171    1.174466232827e-14
   172    3.418077300946e-03
   173   -6.214399139210e-04
   174    1.310399614625e-14
   175   -3.877413179776e-15
   176   -5.759514262143e-14
   177   -4.357359076097e-14
   178    2.934068677459e-14
   179   -9.628039806981e-17
   180    1.783083253015e-02
   181   -2.046464000978e-14
   182    3.442979405078e-14
   183    1.398651447442e-15
   184    2.815954456037e-02
   185    1.137300353237e-14
   186    5.623834313964e-13
   187    8.743851070927e-14
   188    4.908953415265e-02
   189   -2.368914155358e-12
   190    2.258308948704e-12
   191   -7.290498834993e-13
   192    2.378550304981e-02
   193    4.296610814396e-15
   194   -6.328276501545e-03
   195   -1.173463669817e-02
   196    2.372023599121e-15
   197   -4.828636357061e-16
   198    2.420905598531e-15
   199   -5.529956254784e-14
   200   -7.313146153270e-13
   201   -8.024381408614e-13
   202    1.420454610314e-15
   203    3.731336587655e-16
   204    1.150162074004e-03
Sym=X
Ene= 2.002067
Spin=Alpha
Occup=1
     1    7.794004528039e-03
     2    1.261592952518e-02
     3   -1.417276095736e-02
     4   -4.967027537265e-03
     5    3.446771139540e-16
     6   -3.270073934932e-02
     7   -2.531824571550e-02
     8   -9.741146290777e-03
     9   -1.204534254391e-15
    10   -6.659119445699e-02
    11   -2.696593078902e-02
    12   -3.283380850407e-02
    13    2.016158210373e-15
    14   -2.469003899791e-01
    15   -5.586758708304e-02
    16   -5.821295849186e-02
    17   -7.307915605858e-14
    18    6.293295013560e-04
    19   -4.471384450675e-15
    20   -6.809350265110e-16
    21   -2.729931002075e-03
    22   -3.972237706427e-04
    23    4.141045554202e-04
    24    9.414820672587e-04
    25   -2.594085848316e-03
    26    5.549015001802e-03
    27   -2.864417290169e-05
    28   -3.915002452934e-04
    29    7.510306623297e-15
    30    7.279060871755e-04
    31   -1.624388526051e-03
    32    2.789919317220e-03
    33   -1.852125995143e-02
    34   -8.516537094767e-04
    35   -1.466198156238e-03
    36    8.819652622992e-15
    37   -2.113387707251e-02
    38   -2.316770368817e-02
    39    2.427956029303e-02
    40   -5.142445336954e-02
    41    7.290923538563e-04
    42    3.903048067547e-03
    43    9.412488478349e-15
    44   -7.778502822434e-03
    45   -1.306418605428e-02
    46    1.824605174050e-02
    47    1.209203377316e-02
    48    5.763945849053e-15
    49    3.712539021017e-02
    50    3.084749740959e-02
    51    2.037953608878e-02
    52    5.739903040872e-14
    53    5.614720336196e-02
    54    3.596412054900e-02
    55    1.411850810690e-02
    56   -1.522718811488e-13
    57    3.399124483334e-02
    58    1.314283510339e-02
    59    3.236601054192e-02
    60   -1.077618052541e-13
    61   -8.876123604675e-04
    62    2.307826479522e-14
    63   -2.851616442147e-14
    64   -1.232196278578e-03
    65    1.519303525606e-03
    66    6.915976110379e-04
    67    1.209524171761e-03
    68    6.228501378258e-03
    69    1.044257696182e-02
    70   -5.207260129926e-14
    71   -3.882576851922e-03
    72    1.009390993495e-02
    73    1.637411020953e-02
    74   -5.636993830408e-14
    75   -5.193178861278e-03
    76    3.709634776559e-03
    77    1.084340714775e-02
    78   -3.038878802075e-14
    79    1.144741982182e-02
    80    6.994944799655e-03
    81    4.697816308486e-04
    82    1.179431803490e-13
    83   -4.479754260135e-05
    84   -4.202239523200e-15
    85   -1.220261831363e-15
    86    1.763445925222e-03
    87    5.394607818318e-04
    88   -2.869808251041e-03
    89   -4.427651405015e-03
    90   -2.111743090961e-03
    91   -1.615543377430e-02
    92   -1.842297210016e-15
    93    1.067689666519e-02
    94   -4.789831460549e-03
    95   -3.418404788596e-02
    96   -4.555839997354e-15
    97    6.693926396131e-03
    98   -3.563308651996e-02
    99    5.254849999657e-02
   100   -6.229493118781e-14
   101   -4.551419543415e-01
   102   -5.367494317182e-02
   103    2.248732664175e-01
   104    1.343779187831e-13
   105   -3.314483659757e-04
   106   -1.966200617356e-14
   107   -2.063863206159e-15
   108   -4.132935796300e-02
   109    1.689404392910e-02
   110   -1.245815714540e-03
   111   -1.824743941848e-03
   112   -2.159112969093e-01
   113    3.195183393190e-01
   114   -1.086275565380e-13
   115    5.683480177767e-03
   116   -2.499802707265e-01
   117    3.699867982950e-01
   118   -1.656113027520e-13
   119    6.914750927774e-03
   120   -1.915544520398e-01
   121    2.761652046325e-01
   122   -3.130846140982e-14
   123    1.528549991842e-03
   124    6.506452816291e-04
   125   -5.952298176463e-04
   126   -1.383981569894e-13
   127    2.379881958911e-04
   128    3.730747446582e-15
   129    5.693790024384e-15
   130    1.220254493540e-02
   131   -5.334829194593e-03
   132    1.755496490183e-02
   133    2.866779622272e-02
   134   -3.679593646048e-02
   135   -9.587542779368e-03
   136    5.584996919555e-14
   137   -7.578572150319e-02
   138   -6.052629442616e-02
   139   -2.043531144048e-02
   140    8.933825390521e-14
   141   -1.419214431902e-01
   142   -5.298656736396e-02
   143    7.642153083922e-03
   144    1.521074248154e-13
   145   -1.665046727127e-01
   146    4.129167929264e-02
   147    1.517158271542e-03
   148   -2.401259189122e-15
   149   -4.250648620466e-04
   150   -2.544192874220e-15
   151    1.107796912623e-15
   152    2.143573065510e-03
   153    1.505282906842e-03
   154    4.794344882444e-04
   155    7.841211035952e-04
   156    1.086776010765e-03
   157   -3.156182322628e-03
   158    1.499206680233e-14
   159   -2.315688798373e-03
   160    1.012494520453e-03
   161   -5.504736820950e-03
   162    1.837388721733e-14
   163    1.098659772992e-03
   164    3.835884145889e-03
   165   -7.339590160230e-03
   166    5.673864959422e-14
   167    4.919542067579e-02
   168   -2.916635697559e-03
   169    2.389616008984e-02
   170    7.703088125810e-14
   171    7.409829134714e-05
   172    8.723146790638e-16
   173    2.876898229858e-15
   174   -1.003678206358e-03
   175    9.004904486245e-04
   176   -1.396390534018e-02
   177   -2.290006999925e-02
   178    2.102587259753e-02
   179    2.782471134549e-02
   180   -5.203838782288e-15
   181    5.672804584918e-02
   182    3.758320940904e-02
   183    3.376404415033e-02
   184   -1.434952618168e-14
   185    1.526268128317e-01
   186   -4.443926464801e-03
   187    5.502238577965e-02
   188   -7.599664927265e-15
   189    7.533648523394e-01
   190   -7.980184946203e-02
   191    1.060975180692e-01
   192    2.742460795168e-14
   193   -1.561369046753e-04
   194    2.314856516569e-15
   195    9.943367533398e-15
   196    1.904633926612e-03
   197   -1.300525397560e-03
   198    1.723737990852e-02
   199    2.386479346721e-02
   200    8.984130720893e-03
   201    3.674516556277e-02
   202   -1.903810432700e-03
   203    8.303058318937e-05
   204   -4.778294767771e-15
Sym=X
Ene= 2.001397
Spin=Alpha
Occup=1
     1   -8.234114069855e-03
     2   -1.324962640207e-02
     3   -1.583429922740e-02
     4    2.411739688084e-02
     5    2.295608151945e-14
     6    3.193720800144e-02
     7   -2.770675495662e-02
     8    3.865876493630e-02
     9    2.740920425215e-14
    10    2.785009034860e-02
    11   -2.086264953467e-02
    12    2.461644859774e-02
    13   -6.200353952810e-15
    14   -2.104824887110e-02
    15   -3.887295120551e-02
    16   -5.368266329310e-03
    17    2.698496896228e-15
    18   -2.538441893675e-03
    19   -1.275688780802e-14
    20    6.533821901373e-15
    21    3.926191481328e-03
    22    7.068697321556e-04
    23   -1.152932200551e-03
    24    1.624999363040e-02
    25    3.326693604255e-02
    26   -3.903741643346e-02
    27    1.083017810440e-03
    28    1.273546367527e-03
    29    6.096575355216e-15
    30   -1.233055760587e-02
    31   -2.196735430242e-02
    32   -5.443419260989e-03
    33   -1.007868497308e-02
    34   -8.220666689264e-04
    35   -1.087442838627e-03
    36    2.771051869311e-15
    37   -4.039227185130e-03
    38   -1.159467221940e-02
    39   -2.826075792856e-02
    40    2.495088034109e-02
    41    2.549517124796e-03
    42    2.068586975262e-03
    43    2.972164300289e-14
    44    8.257221328283e-03
    45    1.360948700610e-02
    46   -4.101212730674e-04
    47   -1.642679322349e-03
    48   -1.097251168255e-13
    49   -4.024755844046e-02
    50    5.597860499963e-04
    51    4.021720612075e-03
    52   -1.496496874403e-13
    53   -2.842556542537e-02
    54   -7.480126988017e-02
    55   -1.130491638231e-01
    56   -1.896613878371e-13
    57    7.699386404947e-03
    58   -6.459694493248e-02
    59   -9.491165694845e-02
    60   -1.236105465231e-13
    61    1.334508717371e-03
    62    1.485401286420e-13
    63   -5.180340057019e-14
    64    6.632776914865e-02
    65    2.973246742193e-02
    66   -4.159820767468e-03
    67   -7.005672370541e-03
    68   -1.424605321106e-01
    69   -1.997909999822e-01
    70   -4.681747017176e-13
    71    2.032976643119e-02
    72   -2.205134887578e-01
    73   -3.087761370382e-01
    74   -7.284420003024e-13
    75    2.608210220710e-02
    76   -1.957069478737e-01
    77   -2.877397729925e-01
    78   -7.047024793078e-13
    79    1.059933698145e-02
    80   -5.893530779364e-03
    81   -1.793545941932e-02
    82   -3.511874552829e-14
    83    6.333247787334e-04
    84   -3.377620331374e-14
    85    2.306273685878e-14
    86   -1.485050519665e-02
    87   -5.261440452021e-03
    88    2.105498625664e-02
    89    2.725684027045e-02
    90   -4.356046616477e-02
    91   -4.798096983400e-02
    92    2.168102882676e-14
    93   -5.244430267328e-02
    94   -7.624475870361e-02
    95   -8.517891743250e-02
    96    3.799011599408e-14
    97   -9.029117843676e-02
    98   -2.254353254839e-03
    99   -1.119184876748e-02
   100   -3.300184131296e-14
   101   -1.038610541638e-01
   102    2.095400130913e-02
   103    1.554618000700e-02
   104    2.927516144667e-14
   105    4.514137970500e-03
   106   -8.025274571797e-14
   107    7.441358103353e-16
   108   -3.922649788322e-03
   109   -1.098964148432e-02
   110    7.006565169533e-03
   111    9.799934829775e-03
   112    9.486662943502e-02
   113    8.400472691336e-02
   114   -5.061722230740e-13
   115   -3.042495778045e-02
   116    1.110519913962e-01
   117    9.741491823698e-02
   118   -5.837292141226e-13
   119    2.940484952283e-02
   120    4.999900802859e-02
   121    5.377130189063e-02
   122   -4.161590358697e-13
   123    1.477836173743e-02
   124    7.016214393918e-04
   125   -2.347747077897e-03
   126   -9.950346551517e-14
   127    5.160532144677e-03
   128    1.414104625955e-14
   129    1.130373930660e-14
   130   -3.407324481390e-03
   131   -8.145241670060e-03
   132   -2.031896946176e-02
   133   -3.347685694665e-02
   134   -2.842961857145e-02
   135   -2.832445892420e-02
   136    3.938200598629e-13
   137    8.664257629746e-02
   138   -3.938405937821e-02
   139   -3.538544466119e-02
   140    6.333286736748e-13
   141    1.902789534161e-01
   142   -8.269687235027e-02
   143   -5.052839555854e-02
   144    7.322322588463e-13
   145    1.899161714110e-01
   146    2.958466607922e-03
   147   -1.979608142559e-03
   148    1.426428780205e-13
   149    1.243801451721e-03
   150    9.579524555957e-15
   151   -9.076183911081e-15
   152   -4.824305553869e-03
   153   -3.270271180526e-03
   154    1.609641626704e-02
   155    2.625356363225e-02
   156    1.478245402199e-02
   157   -5.569505500737e-02
   158    6.682342738815e-14
   159   -6.873738884512e-02
   160    2.767959761376e-02
   161   -7.856601295690e-02
   162    1.028148763441e-13
   163   -1.660345020050e-01
   164    3.252712984978e-02
   165   -1.028155615845e-01
   166    1.529969321096e-13
   167   -1.978600907054e-01
   168   -4.078152229676e-03
   169   -2.620508505881e-03
   170    8.450863893240e-14
   171   -2.079083065990e-03
   172    3.525740164566e-15
   173   -1.011953380370e-14
   174    1.580806894223e-05
   175   -2.100502193579e-03
   176   -4.672289238205e-03
   177   -7.787257867438e-03
   178   -2.091247545773e-02
   179    2.857244450218e-02
   180   -9.996800336016e-15
   181    1.936168173573e-02
   182   -3.161694503408e-02
   183    4.305161443580e-02
   184   -2.266892187558e-14
   185    3.652472872083e-02
   186   -2.596288294548e-02
   187    3.837684603090e-02
   188   -7.430873688481e-15
   189    1.262760472852e-01
   190   -3.822378516541e-02
   191    7.035787339700e-03
   192   -3.259702068136e-14
   193   -1.244682707837e-03
   194   -6.298905112855e-15
   195    3.759586368665e-15
   196    3.734333475815e-04
   197   -3.265496953573e-03
   198   -2.006619429837e-02
   199   -3.047603601504e-02
   200    5.926437601113e-03
   201    1.585459247630e-02
   202    3.649251523872e-03
   203   -1.620354996431e-03
   204   -5.994488007624e-15
Sym=X
Ene= 2.000786
Spin=Alpha
Occup=1
     1   -1.918062139095e-13
     2   -2.087054819644e-13
     3   -3.796107890098e-13
     4   -1.365913714317e-13
     5   -9.102317038153e-03
     6    2.712847095979e-13
     7   -6.211582721064e-13
     8   -1.827908036048e-13
     9   -1.752448953518e-02
    10    2.175418519893e-14
    11    4.972115368190e-14
    12   -4.813793067869e-13
    13    1.485018837160e-02
    14   -1.707935863923e-11
    15   -3.968129680966e-12
    16   -3.810856807060e-12
    17    2.086852694437e-03
    18   -1.841437757523e-14
    19    1.829455996689e-02
    20   -4.018451948032e-03
    21   -5.989850660788e-14
    22   -5.043283770401e-14
    23    7.022790499156e-14
    24   -2.830351964025e-14
    25    7.661454212397e-13
    26    5.007199023875e-13
    27    2.970082033851e-14
    28   -2.970766642749e-15
    29   -1.247960275937e-02
    30    2.184311758545e-13
    31    2.676638987571e-13
    32    3.630444089612e-14
    33   -1.400709369917e-12
    34   -1.767763650622e-14
    35    2.310185358424e-14
    36   -7.238499914363e-04
    37   -8.204617638793e-14
    38    4.190618189177e-14
    39   -8.451972420139e-14
    40   -3.256403603151e-13
    41    3.407851500831e-15
    42    2.756489462217e-14
    43    1.358402737568e-02
    44   -4.295190441396e-13
    45   -2.811743228105e-13
    46   -2.017714806303e-13
    47    7.443454814897e-14
    48   -3.864308807630e-02
    49   -3.772810884986e-13
    50   -3.679864329812e-13
    51    7.816619872125e-14
    52   -6.848277583699e-02
    53   -5.735537900573e-13
    54    1.305203212583e-13
    55    7.497338173719e-13
    56   -3.744895685576e-02
    57    1.763312391868e-12
    58    8.349980796300e-13
    59    3.891263282603e-14
    60   -1.628609914711e-03
    61    3.371286068375e-14
    62    3.647554164961e-02
    63    1.643594586886e-02
    64   -1.737079286318e-13
    65   -1.365506680108e-13
    66    3.460246053025e-14
    67    8.139483936602e-14
    68    4.866459456597e-13
    69    4.308410188520e-13
    70   -8.916621981932e-02
    71   -3.036936139109e-13
    72    7.406008298121e-13
    73    6.928148254750e-13
    74   -1.397606695314e-01
    75   -3.720585951371e-13
    76    6.832446388097e-13
    77    6.080192202362e-13
    78   -1.285541837809e-01
    79   -8.506983917538e-14
    80   -1.044343168140e-13
    81   -8.280196911479e-14
    82   -1.931717723312e-02
    83   -6.602656666691e-15
    84   -7.521467208875e-03
    85    5.630127051788e-03
    86    3.770602441946e-14
    87    5.662452713701e-15
    88    6.154657663882e-13
    89    4.425391312679e-13
    90    7.653287730523e-15
    91   -2.590984100957e-15
    92    3.273679293582e-02
    93    3.685815619582e-13
    94    3.295778683231e-14
    95    8.363575001187e-15
    96    5.622100721328e-02
    97    3.339525095200e-13
    98   -1.172550871473e-13
    99    2.171984745042e-13
   100    1.672081059251e-02
   101    4.295380974809e-12
   102    4.641798882382e-13
   103   -1.359123041306e-12
   104   -1.072030552025e-02
   105   -1.520130608523e-14
   106   -3.215378030126e-02
   107   -4.916429405406e-03
   108    5.194303896883e-15
   109    2.446683565799e-14
   110   -1.260227553317e-13
   111   -1.828060520167e-13
   112    3.069347220095e-14
   113   -8.985688944989e-14
   114   -2.041158146152e-01
   115    6.251959042627e-13
   116    4.005153882442e-14
   117   -1.281965524140e-13
   118   -2.334846624506e-01
   119    2.269864584462e-13
   120    7.964469218831e-14
   121   -4.421660074922e-14
   122   -1.771952459270e-01
   123   -2.205503891535e-14
   124    5.520933369002e-14
   125    3.779325227574e-14
   126   -3.592527210890e-02
   127   -7.356986221129e-15
   128    4.093039246748e-03
   129    3.364597601518e-03
   130   -1.654483582287e-15
   131    1.188370616357e-14
   132    1.595176428943e-13
   133    2.767831722757e-13
   134    2.730848281576e-13
   135    5.991728329540e-14
   136    1.618115037558e-01
   137   -7.730864068794e-13
   138    4.108885096292e-13
   139    7.869996044868e-14
   140    2.618316490707e-01
   141   -6.978647245557e-13
   142    4.002767561080e-13
   143    4.894978088325e-14
   144    2.872858124800e-01