[Molden Format]
[Atoms] (Angs)
  C      1    6     -0.00754183     -1.75895763      0.00000000
  H      2    1     -2.09769850     -1.41880678     -0.00000000
  H      3    1     -0.13527422     -2.83956838     -0.00000000
  H      4    1      0.04053511      2.02026369      0.00000000
  C      5    6     -1.22066484      0.39918184     -0.00000000
  O      6    8     -2.25210141      1.05663720     -0.00000000
  C      7    6      1.24009552      0.27789184      0.00000000
  O      8    8      2.33767996      1.06122493      0.00000000
  N      9    7      0.03634586      1.00852936      0.00000000
  N     10    7     -1.18738304     -0.97903470     -0.00000000
  C     11    6      1.22288875     -1.12258096      0.00000000
  H     12    1      2.15640383     -1.68445878      0.00000000
[GTO]
1    0
S    6    1.000000
   4.56324000E+03    1.96665000E-03 
   6.82024000E+02    1.52306000E-02 
   1.54973000E+02    7.61269000E-02 
   4.44553000E+01    2.60801000E-01 
   1.30290000E+01    6.16462000E-01 
   1.82773000E+00    2.21006000E-01 
SP   3    1.000000
   2.09642000E+01    1.14660000E-01   4.02487000E-02 
   4.80331000E+00    9.19999000E-01   2.37594000E-01 
   1.45933000E+00   -3.03068000E-03   8.15854000E-01 
SP   1    1.000000
   4.83456000E-01    1.00000000E+00   1.00000000E+00 
SP   1    1.000000
   1.45585000E-01    1.00000000E+00   1.00000000E+00 
SP   1    1.000000
   4.38000000E-02    1.00000000E+00   1.00000000E+00 
D    1    1.000000
   6.26000000E-01    1.00000000E+00 

2    0
S    3    1.000000
   3.38650000E+01    2.54938000E-02 
   5.09479000E+00    1.90373000E-01 
   1.15879000E+00    8.52161000E-01 
S    1    1.000000
   3.25840000E-01    1.00000000E+00 
S    1    1.000000
   1.02741000E-01    1.00000000E+00 
S    1    1.000000
   3.60000000E-02    1.00000000E+00 
P    1    1.000000
   7.50000000E-01    1.00000000E+00 

3    0
S    3    1.000000
   3.38650000E+01    2.54938000E-02 
   5.09479000E+00    1.90373000E-01 
   1.15879000E+00    8.52161000E-01 
S    1    1.000000
   3.25840000E-01    1.00000000E+00 
S    1    1.000000
   1.02741000E-01    1.00000000E+00 
S    1    1.000000
   3.60000000E-02    1.00000000E+00 
P    1    1.000000
   7.50000000E-01    1.00000000E+00 

4    0
S    3    1.000000
   3.38650000E+01    2.54938000E-02 
   5.09479000E+00    1.90373000E-01 
   1.15879000E+00    8.52161000E-01 
S    1    1.000000
   3.25840000E-01    1.00000000E+00 
S    1    1.000000
   1.02741000E-01    1.00000000E+00 
S    1    1.000000
   3.60000000E-02    1.00000000E+00 
P    1    1.000000
   7.50000000E-01    1.00000000E+00 

5    0
S    6    1.000000
   4.56324000E+03    1.96665000E-03 
   6.82024000E+02    1.52306000E-02 
   1.54973000E+02    7.61269000E-02 
   4.44553000E+01    2.60801000E-01 
   1.30290000E+01    6.16462000E-01 
   1.82773000E+00    2.21006000E-01 
SP   3    1.000000
   2.09642000E+01    1.14660000E-01   4.02487000E-02 
   4.80331000E+00    9.19999000E-01   2.37594000E-01 
   1.45933000E+00   -3.03068000E-03   8.15854000E-01 
SP   1    1.000000
   4.83456000E-01    1.00000000E+00   1.00000000E+00 
SP   1    1.000000
   1.45585000E-01    1.00000000E+00   1.00000000E+00 
SP   1    1.000000
   4.38000000E-02    1.00000000E+00   1.00000000E+00 
D    1    1.000000
   6.26000000E-01    1.00000000E+00 

6    0
S    6    1.000000
   8.58850000E+03    1.89515000E-03 
   1.29723000E+03    1.43859000E-02 
   2.99296000E+02    7.07320000E-02 
   8.73771000E+01    2.40001000E-01 
   2.56789000E+01    5.94797000E-01 
   3.74004000E+00    2.80802000E-01 
SP   3    1.000000
   4.21175000E+01    1.13889000E-01   3.65114000E-02 
   9.62837000E+00    9.20811000E-01   2.37153000E-01 
   2.85332000E+00   -3.27447000E-03   8.19702000E-01 
SP   1    1.000000
   9.05661000E-01    1.00000000E+00   1.00000000E+00 
SP   1    1.000000
   2.55611000E-01    1.00000000E+00   1.00000000E+00 
SP   1    1.000000
   8.45000000E-02    1.00000000E+00   1.00000000E+00 
D    1    1.000000
   1.29200000E+00    1.00000000E+00 

7    0
S    6    1.000000
   4.56324000E+03    1.96665000E-03 
   6.82024000E+02    1.52306000E-02 
   1.54973000E+02    7.61269000E-02 
   4.44553000E+01    2.60801000E-01 
   1.30290000E+01    6.16462000E-01 
   1.82773000E+00    2.21006000E-01 
SP   3    1.000000
   2.09642000E+01    1.14660000E-01   4.02487000E-02 
   4.80331000E+00    9.19999000E-01   2.37594000E-01 
   1.45933000E+00   -3.03068000E-03   8.15854000E-01 
SP   1    1.000000
   4.83456000E-01    1.00000000E+00   1.00000000E+00 
SP   1    1.000000
   1.45585000E-01    1.00000000E+00   1.00000000E+00 
SP   1    1.000000
   4.38000000E-02    1.00000000E+00   1.00000000E+00 
D    1    1.000000
   6.26000000E-01    1.00000000E+00 

8    0
S    6    1.000000
   8.58850000E+03    1.89515000E-03 
   1.29723000E+03    1.43859000E-02 
   2.99296000E+02    7.07320000E-02 
   8.73771000E+01    2.40001000E-01 
   2.56789000E+01    5.94797000E-01 
   3.74004000E+00    2.80802000E-01 
SP   3    1.000000
   4.21175000E+01    1.13889000E-01   3.65114000E-02 
   9.62837000E+00    9.20811000E-01   2.37153000E-01 
   2.85332000E+00   -3.27447000E-03   8.19702000E-01 
SP   1    1.000000
   9.05661000E-01    1.00000000E+00   1.00000000E+00 
SP   1    1.000000
   2.55611000E-01    1.00000000E+00   1.00000000E+00 
SP   1    1.000000
   8.45000000E-02    1.00000000E+00   1.00000000E+00 
D    1    1.000000
   1.29200000E+00    1.00000000E+00 

9    0
S    6    1.000000
   6.29348000E+03    1.96979000E-03 
   9.49044000E+02    1.49613000E-02 
   2.18776000E+02    7.35006000E-02 
   6.36916000E+01    2.48937000E-01 
   1.88282000E+01    6.02460000E-01 
   2.72023000E+00    2.56202000E-01 
SP   3    1.000000
   3.06331000E+01    1.11906000E-01   3.83119000E-02 
   7.02614000E+00    9.21666000E-01   2.37403000E-01 
   2.11205000E+00   -2.56919000E-03   8.17592000E-01 
SP   1    1.000000
   6.84009000E-01    1.00000000E+00   1.00000000E+00 
SP   1    1.000000
   2.00878000E-01    1.00000000E+00   1.00000000E+00 
SP   1    1.000000
   6.39000000E-02    1.00000000E+00   1.00000000E+00 
D    1    1.000000
   9.13000000E-01    1.00000000E+00 

10    0
S    6    1.000000
   6.29348000E+03    1.96979000E-03 
   9.49044000E+02    1.49613000E-02 
   2.18776000E+02    7.35006000E-02 
   6.36916000E+01    2.48937000E-01 
   1.88282000E+01    6.02460000E-01 
   2.72023000E+00    2.56202000E-01 
SP   3    1.000000
   3.06331000E+01    1.11906000E-01   3.83119000E-02 
   7.02614000E+00    9.21666000E-01   2.37403000E-01 
   2.11205000E+00   -2.56919000E-03   8.17592000E-01 
SP   1    1.000000
   6.84009000E-01    1.00000000E+00   1.00000000E+00 
SP   1    1.000000
   2.00878000E-01    1.00000000E+00   1.00000000E+00 
SP   1    1.000000
   6.39000000E-02    1.00000000E+00   1.00000000E+00 
D    1    1.000000
   9.13000000E-01    1.00000000E+00 

11    0
S    6    1.000000
   4.56324000E+03    1.96665000E-03 
   6.82024000E+02    1.52306000E-02 
   1.54973000E+02    7.61269000E-02 
   4.44553000E+01    2.60801000E-01 
   1.30290000E+01    6.16462000E-01 
   1.82773000E+00    2.21006000E-01 
SP   3    1.000000
   2.09642000E+01    1.14660000E-01   4.02487000E-02 
   4.80331000E+00    9.19999000E-01   2.37594000E-01 
   1.45933000E+00   -3.03068000E-03   8.15854000E-01 
SP   1    1.000000
   4.83456000E-01    1.00000000E+00   1.00000000E+00 
SP   1    1.000000
   1.45585000E-01    1.00000000E+00   1.00000000E+00 
SP   1    1.000000
   4.38000000E-02    1.00000000E+00   1.00000000E+00 
D    1    1.000000
   6.26000000E-01    1.00000000E+00 

12    0
S    3    1.000000
   3.38650000E+01    2.54938000E-02 
   5.09479000E+00    1.90373000E-01 
   1.15879000E+00    8.52161000E-01 
S    1    1.000000
   3.25840000E-01    1.00000000E+00 
S    1    1.000000
   1.02741000E-01    1.00000000E+00 
S    1    1.000000
   3.60000000E-02    1.00000000E+00 
P    1    1.000000
   7.50000000E-01    1.00000000E+00 

[MO]
Sym=X
Ene= 2.013952
Spin=Alpha
Occup=1
     1    1.194292242846e-14
     2    1.130136427720e-14
     3   -1.841167223256e-14
     4    9.268694711273e-15
     5    5.651251063373e-02
     6    7.777443167733e-15
     7   -4.043662857685e-14
     8    2.617167110516e-14
     9    9.619366278478e-02
    10    5.406206499149e-14
    11    2.405823370998e-13
    12   -4.348521586607e-14
    13    9.860489044930e-02
    14   -9.158284201240e-12
    15   -2.340041844764e-12
    16   -2.221530120671e-12
    17    1.272491962939e-02
    18    3.502033576042e-15
    19    1.550576764592e-02
    20    5.611838578657e-03
    21   -8.820347335948e-15
    22   -1.328897859899e-15
    23    7.455134247410e-15
    24    1.154480319293e-14
    25    5.006091852282e-13
    26    9.466696352606e-13
    27    8.294057750811e-15
    28    5.206692302880e-15
    29   -4.105990527569e-03
    30   -2.020894804267e-16
    31   -5.779098902796e-14
    32    1.453067959439e-13
    33   -1.007757540495e-12
    34   -3.922715293807e-15
    35   -7.320977745137e-15
    36    4.475163282050e-03
    37   -6.507910891464e-15
    38    3.194679560118e-15
    39    8.545599942604e-13
    40   -8.983404304010e-13
    41    1.892182069498e-15
    42    8.100311221609e-15
    43    3.533120768549e-03
    44    9.599800291422e-15
    45    8.112101816453e-15
    46   -1.930819656380e-14
    47    3.450373383204e-14
    48   -2.961216570986e-03
    49    1.333757694825e-14
    50   -4.580350541290e-14
    51    2.411967598429e-14
    52   -7.823756465863e-03
    53   -6.510378813636e-13
    54    3.879323677570e-13
    55    4.267017058398e-13
    56    1.088261299541e-03
    57   -5.542659171068e-13
    58    5.953135042967e-13
    59    1.217716757043e-12
    60    1.760431408296e-02
    61    1.268422104377e-14
    62    8.125703028058e-03
    63    8.425031945280e-03
    64    2.296631777306e-16
    65   -5.958785132239e-15
    66    3.417231459830e-14
    67    1.794415200599e-14
    68    2.704256575380e-14
    69    3.506833386897e-15
    70   -4.869156416240e-03
    71    6.278191359657e-14
    72    4.954589618260e-14
    73    2.571037439661e-14
    74   -7.769060208960e-03
    75    1.012470487741e-13
    76    1.226072067151e-13
    77   -4.263617608720e-14
    78   -5.066324518558e-03
    79    3.854629052539e-13
    80   -1.952920402903e-14
    81   -4.115719366105e-13
    82   -9.748008834991e-03
    83   -2.335810084311e-15
    84   -2.941452422380e-04
    85    5.699925263757e-04
    86    3.839993084543e-15
    87   -1.208112623917e-15
    88    4.680083557719e-14
    89    3.842915492853e-14
    90   -7.642235244018e-15
    91   -2.326118749895e-15
    92   -2.701315224357e-02
    93   -1.111922180987e-14
    94    5.369922806576e-15
    95   -1.933612977274e-14
    96   -4.958032865669e-02
    97    1.258042573886e-13
    98   -9.294874407046e-15
    99    4.218190581374e-13
   100   -5.302156686128e-02
   101    6.361807057856e-12
   102   -1.676828340575e-12
   103   -8.815738913400e-14
   104   -3.592656299796e-02
   105   -1.595113879439e-14
   106   -3.638291411324e-02
   107   -2.867006956428e-02
   108    3.244748603211e-15
   109   -1.033342234609e-14
   110   -1.087738839444e-14
   111   -1.743978558670e-14
   112    2.413390548923e-14
   113    2.388205123708e-14
   114   -3.589854485330e-01
   115    6.385423488557e-14
   116    5.202637731161e-14
   117   -1.157143389410e-14
   118   -4.099295465993e-01
   119   -2.342967003097e-14
   120    2.271868470072e-14
   121    7.456723590991e-14
   122   -2.853529772197e-01
   123   -3.253575074855e-14
   124    1.836233346702e-13
   125    4.571982486111e-14
   126   -2.925405591071e-02
   127   -1.241844262452e-15
   128    1.565575935010e-02
   129    1.050300902672e-02
   130   -3.309046884299e-15
   131    4.487979934359e-17
   132    6.138216192468e-16
   133    7.720309303504e-15
   134    3.598975152302e-14
   135   -1.638382908601e-14
   136    5.124652398108e-02
   137   -4.043283674412e-14
   138    2.740704961561e-14
   139   -2.074391517522e-14
   140    8.226076984009e-02
   141    1.096238622154e-13
   142    1.529586235681e-13
   143   -5.045786097205e-14
   144    9.723274832734e-02
   145   -6.228653004675e-12
   146   -3.653574284867e-13
   147    6.835215427932e-13
   148    2.243211281881e-02
   149   -8.731936943542e-15
   150   -1.646590329071e-03
   151   -1.111695095327e-03
   152    2.226971706841e-15
   153    2.843829916153e-15
   154   -6.850600310722e-14
   155   -5.432150606158e-14
   156    2.955464419550e-15
   157   -1.071208585752e-14
   158   -3.838321088050e-02
   159   -1.042707439658e-14
   160    1.533379938723e-14
   161   -3.555702566773e-14
   162   -6.117002050978e-02
   163   -1.511889619320e-13
   164   -3.351640169267e-14
   165    1.744383675799e-13
   166   -8.515359812215e-02
   167    4.086075535581e-12
   168    1.776979147903e-12
   169    1.240888742561e-12
   170   -3.475223836143e-02
   171    7.487644145614e-15
   172    3.955365379116e-03
   173   -3.352205125169e-03
   174    8.745333526286e-15
   175   -5.364257610532e-15
   176   -9.482299714991e-16
   177    3.457213876360e-15
   178    2.108432737131e-14
   179    3.752156869568e-14
   180    7.407627888517e-02
   181   -2.215554366433e-14
   182    9.166439644792e-15
   183    4.351905772052e-14
   184    1.256620145591e-01
   185    2.642078541217e-13
   186    4.038084190608e-13
   187    4.044625967527e-13
   188    1.432253124286e-01
   189    5.700107026392e-12
   190   -9.081374640458e-13
   191   -2.126262691842e-12
   192    2.248764742272e-02
   193    4.893619960584e-15
   194   -1.172793923253e-02
   195   -4.154118664968e-03
   196   -1.003534049906e-15
   197    5.126115611915e-15
   198   -2.948379309560e-14
   199   -2.802994636556e-14
   200   -6.655203162176e-13
   201   -2.018400550104e-13
   202   -5.597964361537e-15
   203    4.423337245748e-15
   204    5.066565022942e-03
Sym=X
Ene= 2.003879
Spin=Alpha
Occup=1
     1   -6.716404689455e-14
     2   -7.246695766707e-14
     3   -1.053771804697e-13
     4   -1.770782982869e-14
     5   -2.795765150630e-02
     6    9.669465990255e-14
     7   -1.671546970907e-13
     8   -6.581941143494e-15
     9   -5.012824775017e-02
    10   -3.862884427456e-13
    11   -1.848563643084e-14
    12   -4.722225339903e-13
    13   -1.686634841077e-02
    14   -1.461953922304e-11
    15   -3.160931772684e-12
    16   -3.234526225855e-12
    17    1.403582926683e-04
    18   -5.018057978876e-15
    19    2.121741467714e-02
    20   -7.318796274011e-03
    21   -1.628054933994e-14
    22   -7.633785981561e-15
    23    4.769113775537e-15
    24   -3.136583642079e-14
    25    7.137791313165e-13
    26   -2.866939729375e-13
    27    5.230420456377e-15
    28    3.156869449753e-15
    29   -1.293360253705e-02
    30    4.437607996351e-14
    31    1.090741396893e-14
    32   -2.134655686273e-13
    33   -9.952059843597e-13
    34   -8.747020502522e-15
    35    2.674316392505e-15
    36   -2.199911398921e-03
    37   -1.711270614907e-14
    38    1.169411361146e-13
    39   -9.377760919130e-13
    40    3.236256538272e-13
    41    1.889123284378e-15
    42    4.308173906624e-15
    43    1.385438438776e-02
    44   -7.135339664830e-14
    45   -4.053929808403e-14
    46    3.138800752903e-14
    47   -1.582964291357e-14
    48   -1.663086341394e-02
    49   -9.225118779204e-14
    50    3.407639822642e-14
    51   -2.294316830038e-14
    52   -3.013888111733e-02
    53   -1.752460771031e-13
    54   -3.106590856785e-13
    55    1.467356163767e-13
    56   -1.714010722222e-02
    57    2.931819992504e-12
    58    3.102318953712e-13
    59   -1.346678416135e-12
    60    1.108104491490e-03
    61    1.407625579281e-14
    62    2.447656589086e-02
    63    2.494390375985e-02
    64    1.695316669989e-14
    65    1.452591585115e-14
    66   -8.389810352977e-14
    67   -3.032256232327e-14
    68   -5.327343783138e-14
    69   -6.429894650141e-14
    70   -3.167790110850e-02
    71   -2.388158770237e-13
    72   -8.559018858503e-14
    73   -9.126743513618e-14
    74   -4.975018425539e-02
    75   -2.549845417904e-13
    76   -8.394793203353e-14
    77   -1.142422928642e-13
    78   -4.464630723314e-02
    79   -3.213689766345e-13
    80   -1.358004154895e-13
    81    1.728349361511e-13
    82   -3.846620644799e-03
    83    2.424939854459e-15
    84   -2.757623871351e-03
    85    2.394992402530e-03
    86   -7.878598703275e-15
    87    1.359861365267e-15
    88   -8.226011767100e-15
    89   -4.027078190210e-14
    90   -2.145145812139e-14
    91   -9.639385807508e-14
    92    9.937083113013e-02
    93    1.834228017635e-13
    94   -1.598580684164e-14
    95   -1.578970875662e-13
    96    1.785566467418e-01
    97   -2.412177697043e-13
    98    4.769821401997e-14
    99    1.147211601825e-13
   100    9.970487359292e-02
   101   -1.198752185854e-12
   102    1.769534932157e-12
   103   -1.111591439140e-12
   104    2.182836320305e-02
   105   -2.768487429022e-15
   106   -1.481830088691e-02
   107    1.313528665022e-02
   108   -3.964387445124e-14
   109    1.213338597351e-14
   110   -4.822789960247e-15
   111   -6.888115342448e-15
   112   -8.862776999760e-14
   113    2.136857790174e-13
   114    6.088139267777e-02
   115    2.581980307004e-14
   116   -1.052803929590e-13
   117    2.495964022543e-13
   118    7.439260442832e-02
   119   -3.805631280458e-15
   120   -7.279301710640e-14
   121    1.595433082615e-13
   122    4.153882967959e-02
   123   -7.147102936221e-14
   124   -2.027588670101e-14
   125   -1.582615668755e-14
   126   -2.084910626888e-02
   127    1.884758232555e-15
   128   -9.225278105730e-03
   129   -5.891815206228e-03
   130    4.388030767923e-15
   131   -5.013437673255e-15
   132    7.195826125078e-14
   133    6.827068528619e-14
   134   -2.409497352263e-14
   135   -5.567575614181e-15
   136    1.742695262299e-01
   137   -5.911954562046e-14
   138   -2.483982598443e-14
   139   -1.135085049152e-14
   140    2.862444712894e-01
   141    2.115354462599e-13
   142   -1.321011774999e-13
   143   -1.268712135972e-13
   144    2.814417748329e-01
   145    1.175737477397e-12
   146    4.300039226753e-13
   147    1.385093313536e-12
   148    1.273242183644e-02
   149   -2.380664731583e-15
   150    8.642888875843e-03
   151   -7.908053167030e-03
   152   -1.320900866252e-15
   153   -3.791318983781e-15
   154    4.043758753291e-14
   155    1.715537549342e-14
   156    5.785158496413e-14
   157   -5.288216627799e-14
   158   -1.513665317774e-01
   159    7.669877927233e-14
   160    7.745791160522e-14
   161   -9.501894424837e-14
   162   -2.483377694659e-01
   163    3.038527729857e-13
   164    2.666726536575e-13
   165    1.854316989153e-14
   166   -2.518820553945e-01
   167    2.156256094330e-13
   168    1.290848083633e-12
   169    5.148526663797e-13
   170   -2.812625110822e-02
   171   -1.070139142240e-14
   172   -4.071466273456e-03
   173   -2.217476513252e-03
   174   -3.703900162795e-15
   175   -7.902051037647e-15
   176    1.190507215004e-13
   177    1.079639070512e-13
   178   -1.264706092203e-14
   179    1.463390229661e-13
   180    3.869149048625e-02
   181   -4.828451768235e-14
   182   -2.862656314133e-14
   183    2.034381302529e-13
   184    6.756409073611e-02
   185    1.931816202863e-13
   186   -3.330801943265e-13
   187    4.174419739416e-13
   188    5.663893326176e-02
   189    1.199820139409e-11
   190   -4.998675622852e-12
   191   -1.290474428313e-12
   192   -3.982256008820e-03
   193    2.163428397617e-15
   194    5.214625915517e-04
   195    1.279777963858e-02
   196   -2.149482035868e-14
   197    4.398561875511e-15
   198   -8.640171627296e-14
   199   -3.595908205122e-14
   200    3.096079732074e-13
   201    1.173675651119e-12
   202    9.861103571523e-16
   203    3.926206097941e-15
   204    3.144853444542e-03
Sym=X
Ene= 2.002819
Spin=Alpha
Occup=1
     1   -8.635296185485e-03
     2   -1.439479401969e-02
     3    3.165992018585e-02
     4    1.877477675178e-02
     5   -3.716874911451e-15
     6    3.964856947283e-02
     7    5.285869278095e-02
     8    3.070485737182e-02
     9   -5.094015691370e-15
    10    6.637948539830e-02
    11    3.869893196182e-02
    12    5.080579533697e-02
    13    2.204072496590e-14
    14    2.726501457183e-01
    15    7.144159939168e-02
    16    6.510751403410e-02
    17    8.638427012027e-14
    18   -4.935698685779e-04
    19    2.700434030684e-14
    20   -1.655262251759e-15
    21    5.884738833552e-03
    22   -8.098859650288e-05
    23   -2.398418549738e-03
    24   -4.544051225648e-03
    25   -7.882042073953e-03
    26   -1.488648402272e-03
    27   -5.302478135449e-04
    28   -4.487825672319e-04
    29   -1.817472321337e-14
    30   -1.286206183046e-02
    31   -1.648113890746e-02
    32   -5.042938803918e-03
    33    2.599783820335e-02
    34    1.341607752524e-03
    35    1.134310336740e-04
    36   -9.825312497549e-15
    37    2.157779528972e-03
    38   -2.181311431369e-03
    39   -1.068808027633e-02
    40    4.111968703941e-02
    41    3.884909935433e-04
    42   -1.345368640869e-03
    43    2.059941908645e-15
    44    8.567271344243e-03
    45    1.421382387184e-02
    46   -2.808160256602e-02
    47   -1.311452880780e-02
    48   -6.103228096207e-15
    49   -3.903957028498e-02
    50   -4.764350789047e-02
    51   -2.275675191744e-02
    52   -6.574131637373e-14
    53   -5.559556037676e-02
    54   -2.745370258700e-02
    55    1.724302855046e-02
    56    1.785803514791e-13
    57   -4.970309035355e-02
    58   -5.939915996973e-03
    59   -9.322330469903e-03
    60    1.325001362085e-13
    61    1.033871809259e-03
    62   -1.022835697019e-14
    63    5.556650663306e-14
    64   -9.209222319894e-03
    65   -1.213297122871e-02
    66   -1.475304267115e-03
    67   -2.474680942028e-03
    68    2.476226916603e-02
    69    2.184259227180e-02
    70    5.825532410238e-14
    71    7.110892816438e-03
    72    3.712870711568e-02
    73    3.417132197967e-02
    74    6.696373018085e-14
    75    1.041106275195e-03
    76    3.675834718502e-02
    77    3.778509308666e-02
    78    3.789429194429e-14
    79   -1.907118865769e-02
    80   -5.831566277958e-03
    81    2.781152016777e-03
    82   -1.347208145969e-13
    83   -3.184503633789e-04
    84    5.113059958847e-15
    85    8.314809501689e-16
    86    9.417790139492e-04
    87   -8.085836071951e-05
    88    1.231076116048e-03
    89    2.793379776214e-03
    90   -1.281242174158e-02
    91    6.602225121116e-02
    92    7.090718075561e-14
    93   -1.001961422709e-02
    94   -1.868878000379e-02
    95    1.154893976291e-01
    96    1.265598017108e-13
    97    4.261087221113e-03
    98    2.815542149927e-02
    99   -3.875177387847e-02
   100    1.336652003963e-13
   101    4.144967731361e-01
   102    3.024334110139e-02
   103   -1.894123583344e-01
   104   -1.184711157865e-13
   105   -1.719391335469e-03
   106    7.222402669866e-16
   107    2.741631417722e-15
   108    4.703973556126e-02
   109   -1.749209477472e-02
   110    2.659517242559e-03
   111    3.941707266520e-03
   112    1.817217611999e-01
   113   -3.196004518637e-01
   114    5.023529866014e-14
   115   -1.379525867217e-02
   116    2.077166692689e-01
   117   -3.657707838324e-01
   118    1.033847590095e-13
   119   -1.887718158765e-02
   120    1.599917399872e-01
   121   -2.586590275347e-01
   122   -2.965140947848e-14
   123    2.351811657410e-03
   124   -2.757087718573e-03
   125   -8.958149735224e-04
   126    1.112550864181e-13
   127   -1.257852153045e-03
   128   -7.582954728497e-15
   129   -7.368250177971e-15
   130   -1.046142499827e-02
   131    7.088198837632e-03
   132   -1.299433000210e-02
   133   -2.135587218380e-02
   134    7.099660256927e-02
   135   -8.788659872204e-03
   136    8.274791819139e-14
   137    5.745365738653e-02
   138    1.144860499405e-01
   139   -1.018416191173e-02
   140    1.383888057451e-13
   141    1.049874280144e-01
   142    9.795155613043e-02
   143   -2.609031179236e-02
   144    6.788377321968e-14
   145    1.083780974979e-01
   146   -5.027797215617e-02
   147   -1.528835537405e-02
   148    1.937225736016e-15
   149   -4.590704705030e-05
   150    6.126424074080e-15
   151   -6.728365921035e-15
   152    2.450396390875e-03
   153   -3.980208873657e-03
   154   -2.608754520589e-03
   155   -4.296059881015e-03
   156   -8.182545911361e-05
   157    1.310689860819e-02
   158   -1.414562423660e-13
   159    1.130795471963e-02
   160   -3.329815912450e-04
   161    1.968376686996e-02
   162   -2.246898123407e-13
   163    3.016122963551e-02
   164   -7.126860452421e-03
   165    2.878679489851e-02
   166   -2.815004978822e-13
   167   -6.486782421693e-03
   168   -5.355998944668e-03
   169   -2.822300735926e-02
   170   -1.274060093752e-13
   171    3.309751645812e-04
   172   -2.479546681535e-15
   173   -4.938936535181e-15
   174    2.357401875254e-03
   175   -5.705847319341e-04
   176    1.813475719123e-02
   177    2.937484433119e-02
   178   -3.127312347561e-02
   179   -6.201879401166e-02
   180    6.458190384868e-14
   181   -7.211566248780e-02
   182   -5.339476025828e-02
   183   -8.778359790144e-02
   184    1.153076779990e-13
   185   -1.717715599484e-01
   186    4.797713856472e-03
   187   -8.832606136918e-02
   188    1.014723953452e-13
   189   -7.160637073583e-01
   190    9.902578642991e-02
   191   -8.004426942232e-02
   192   -3.547532969910e-14
   193    1.340438401387e-03
   194   -5.416968968397e-15
   195   -1.573575987833e-15
   196    5.208220226555e-03
   197    7.658619022980e-04
   198   -1.114256669600e-02
   199   -1.464296863247e-02
   200   -7.659834842390e-03
   201   -3.872212212233e-02
   202    1.098433919240e-03
   203   -1.605150229417e-03
   204    9.459718836914e-15
Sym=X
Ene= 2.001891
Spin=Alpha
Occup=1
     1    4.581540324096e-03
     2    7.838669518637e-03
     3    2.851130523812e-03
     4   -2.498107321894e-02
     5    2.077017794454e-14
     6   -1.982034903748e-02
     7    5.392390072510e-03
     8   -3.989032367227e-02
     9    4.678178919117e-14
    10   -2.637848027112e-02
    11    1.055056099406e-02
    12   -3.496001358674e-02
    13    1.229979379736e-13
    14   -2.168304492410e-02
    15    1.834125448291e-02
    16   -9.920850646792e-03
    17    8.555350253638e-15
    18    1.710504710519e-03
    19    5.785388414557e-14
    20   -7.141907939147e-15
    21   -5.476273108518e-03
    22   -2.714790784143e-03
    23   -1.052404744569e-02
    24   -2.871413173540e-02
    25   -2.191085659787e-02
    26    3.726191181875e-02
    27   -2.602233467366e-03
    28   -2.376539262980e-03
    29   -2.523346780799e-14
    30    1.664230871015e-02
    31    2.601965126663e-02
    32    2.754279564769e-03
    33    5.853854696392e-04
    34    2.642367209582e-04
    35    1.591048744391e-03
    36    2.212417802326e-15
    37    1.204216415572e-02
    38    2.031238077237e-02
    39    2.278589376146e-02
    40   -2.815831971111e-02
    41   -3.776441879397e-03
    42   -3.452870798497e-03
    43   -9.183242788417e-15
    44   -1.402255234165e-02
    45   -2.254185055734e-02
    46    2.409290445358e-02
    47    1.060840297746e-02
    48    1.603911080199e-14
    49    6.259719543901e-02
    50    3.998891180511e-02
    51    1.194885501438e-02
    52   -1.702957475126e-14
    53    4.578497696558e-02
    54    8.513906240057e-02
    55    1.035034203233e-01
    56    7.022843623887e-14
    57   -8.241822598382e-04
    58    6.127851515668e-02
    59    8.985526347873e-02
    60    7.097619063866e-14
    61   -2.282545362339e-03
    62   -9.032664553693e-14
    63    7.627066254673e-14
    64   -5.975704673916e-02
    65   -2.233170255206e-02
    66    6.408575081723e-03
    67    1.080938448271e-02
    68    1.219260553310e-01
    69    1.836221159810e-01
    70    2.842529775169e-13
    71   -3.159636549353e-02
    72    1.893066118593e-01
    73    2.836062957984e-01
    74    4.447949141882e-13
    75   -2.824408407553e-02
    76    1.673509342460e-01
    77    2.567377165081e-01
    78    4.451483621740e-13
    79    2.068955594630e-03
    80    5.074679846135e-03
    81    1.193139908869e-02
    82    4.616485791743e-14
    83   -3.794613056174e-04
    84    1.712473847821e-14
    85   -1.134142716483e-14
    86    1.426485951799e-02
    87    6.154922157146e-03
    88   -1.432923591145e-02
    89   -2.248646606740e-02
    90    7.743910045867e-02
    91    4.040770494371e-02
    92    4.767901624012e-14
    93    5.831839496604e-02
    94    1.349109618445e-01
    95    7.316226835108e-02
    96    8.175550252604e-14
    97    9.491940982267e-02
    98    1.552007777999e-02
    99    2.578143813193e-02
   100    6.978640653269e-14
   101    8.183881454828e-02
   102   -2.732113277410e-02
   103   -6.181660381906e-03
   104    6.635267816649e-15
   105   -5.291991664891e-03
   106    2.757301459790e-14
   107   -3.072430592557e-14
   108   -2.007792306530e-03
   109    2.368327904334e-02
   110   -1.511196345301e-02
   111   -2.155725602551e-02
   112   -1.570796215286e-01
   113   -6.047129915493e-02
   114    7.951383903438e-14
   115    6.951699517005e-02
   116   -1.822619416275e-01
   117   -7.049678423726e-02
   118    9.057690612802e-14
   119   -2.478676842805e-02
   120   -8.962344354638e-02
   121   -2.284296167398e-02
   122    5.666860842564e-14
   123   -3.103747477607e-02
   124    3.348212418776e-03
   125    6.493916222432e-03
   126   -1.652745007579e-14
   127   -6.943852759357e-03
   128   -6.586829196363e-15
   129   -5.089821616096e-15
   130    5.499936159267e-03
   131    1.107933697672e-02
   132    1.832021743287e-02
   133    3.081912367955e-02
   134   -1.346467845138e-02
   135    3.880654111004e-02
   136   -1.654018809514e-13
   137   -8.256358602720e-02
   138   -2.620836144391e-02
   139    5.203322779441e-02
   140   -2.652565547382e-13
   141   -1.908110726856e-01
   142    2.855885634498e-02
   143    6.495325829442e-02
   144   -3.107847360423e-13