[Molden Format]
[Atoms] (Angs)
  C      1    6     -0.00754183     -1.75895763      0.00000000
  H      2    1     -2.09769850     -1.41880678     -0.00000000
  H      3    1     -0.13527422     -2.83956838     -0.00000000
  H      4    1      0.04053511      2.02026369      0.00000000
  C      5    6     -1.22066484      0.39918184     -0.00000000
  O      6    8     -2.25210141      1.05663720     -0.00000000
  C      7    6      1.24009552      0.27789184      0.00000000
  O      8    8      2.33767996      1.06122493      0.00000000
  N      9    7      0.03634586      1.00852936      0.00000000
  N     10    7     -1.18738304     -0.97903470     -0.00000000
  C     11    6      1.22288875     -1.12258096      0.00000000
  H     12    1      2.15640383     -1.68445878      0.00000000
[GTO]
1    0
S    6    1.000000
   4.56324000E+03    1.96665000E-03 
   6.82024000E+02    1.52306000E-02 
   1.54973000E+02    7.61269000E-02 
   4.44553000E+01    2.60801000E-01 
   1.30290000E+01    6.16462000E-01 
   1.82773000E+00    2.21006000E-01 
SP   3    1.000000
   2.09642000E+01    1.14660000E-01   4.02487000E-02 
   4.80331000E+00    9.19999000E-01   2.37594000E-01 
   1.45933000E+00   -3.03068000E-03   8.15854000E-01 
SP   1    1.000000
   4.83456000E-01    1.00000000E+00   1.00000000E+00 
SP   1    1.000000
   1.45585000E-01    1.00000000E+00   1.00000000E+00 
SP   1    1.000000
   4.38000000E-02    1.00000000E+00   1.00000000E+00 
D    1    1.000000
   6.26000000E-01    1.00000000E+00 

2    0
S    3    1.000000
   3.38650000E+01    2.54938000E-02 
   5.09479000E+00    1.90373000E-01 
   1.15879000E+00    8.52161000E-01 
S    1    1.000000
   3.25840000E-01    1.00000000E+00 
S    1    1.000000
   1.02741000E-01    1.00000000E+00 
S    1    1.000000
   3.60000000E-02    1.00000000E+00 
P    1    1.000000
   7.50000000E-01    1.00000000E+00 

3    0
S    3    1.000000
   3.38650000E+01    2.54938000E-02 
   5.09479000E+00    1.90373000E-01 
   1.15879000E+00    8.52161000E-01 
S    1    1.000000
   3.25840000E-01    1.00000000E+00 
S    1    1.000000
   1.02741000E-01    1.00000000E+00 
S    1    1.000000
   3.60000000E-02    1.00000000E+00 
P    1    1.000000
   7.50000000E-01    1.00000000E+00 

4    0
S    3    1.000000
   3.38650000E+01    2.54938000E-02 
   5.09479000E+00    1.90373000E-01 
   1.15879000E+00    8.52161000E-01 
S    1    1.000000
   3.25840000E-01    1.00000000E+00 
S    1    1.000000
   1.02741000E-01    1.00000000E+00 
S    1    1.000000
   3.60000000E-02    1.00000000E+00 
P    1    1.000000
   7.50000000E-01    1.00000000E+00 

5    0
S    6    1.000000
   4.56324000E+03    1.96665000E-03 
   6.82024000E+02    1.52306000E-02 
   1.54973000E+02    7.61269000E-02 
   4.44553000E+01    2.60801000E-01 
   1.30290000E+01    6.16462000E-01 
   1.82773000E+00    2.21006000E-01 
SP   3    1.000000
   2.09642000E+01    1.14660000E-01   4.02487000E-02 
   4.80331000E+00    9.19999000E-01   2.37594000E-01 
   1.45933000E+00   -3.03068000E-03   8.15854000E-01 
SP   1    1.000000
   4.83456000E-01    1.00000000E+00   1.00000000E+00 
SP   1    1.000000
   1.45585000E-01    1.00000000E+00   1.00000000E+00 
SP   1    1.000000
   4.38000000E-02    1.00000000E+00   1.00000000E+00 
D    1    1.000000
   6.26000000E-01    1.00000000E+00 

6    0
S    6    1.000000
   8.58850000E+03    1.89515000E-03 
   1.29723000E+03    1.43859000E-02 
   2.99296000E+02    7.07320000E-02 
   8.73771000E+01    2.40001000E-01 
   2.56789000E+01    5.94797000E-01 
   3.74004000E+00    2.80802000E-01 
SP   3    1.000000
   4.21175000E+01    1.13889000E-01   3.65114000E-02 
   9.62837000E+00    9.20811000E-01   2.37153000E-01 
   2.85332000E+00   -3.27447000E-03   8.19702000E-01 
SP   1    1.000000
   9.05661000E-01    1.00000000E+00   1.00000000E+00 
SP   1    1.000000
   2.55611000E-01    1.00000000E+00   1.00000000E+00 
SP   1    1.000000
   8.45000000E-02    1.00000000E+00   1.00000000E+00 
D    1    1.000000
   1.29200000E+00    1.00000000E+00 

7    0
S    6    1.000000
   4.56324000E+03    1.96665000E-03 
   6.82024000E+02    1.52306000E-02 
   1.54973000E+02    7.61269000E-02 
   4.44553000E+01    2.60801000E-01 
   1.30290000E+01    6.16462000E-01 
   1.82773000E+00    2.21006000E-01 
SP   3    1.000000
   2.09642000E+01    1.14660000E-01   4.02487000E-02 
   4.80331000E+00    9.19999000E-01   2.37594000E-01 
   1.45933000E+00   -3.03068000E-03   8.15854000E-01 
SP   1    1.000000
   4.83456000E-01    1.00000000E+00   1.00000000E+00 
SP   1    1.000000
   1.45585000E-01    1.00000000E+00   1.00000000E+00 
SP   1    1.000000
   4.38000000E-02    1.00000000E+00   1.00000000E+00 
D    1    1.000000
   6.26000000E-01    1.00000000E+00 

8    0
S    6    1.000000
   8.58850000E+03    1.89515000E-03 
   1.29723000E+03    1.43859000E-02 
   2.99296000E+02    7.07320000E-02 
   8.73771000E+01    2.40001000E-01 
   2.56789000E+01    5.94797000E-01 
   3.74004000E+00    2.80802000E-01 
SP   3    1.000000
   4.21175000E+01    1.13889000E-01   3.65114000E-02 
   9.62837000E+00    9.20811000E-01   2.37153000E-01 
   2.85332000E+00   -3.27447000E-03   8.19702000E-01 
SP   1    1.000000
   9.05661000E-01    1.00000000E+00   1.00000000E+00 
SP   1    1.000000
   2.55611000E-01    1.00000000E+00   1.00000000E+00 
SP   1    1.000000
   8.45000000E-02    1.00000000E+00   1.00000000E+00 
D    1    1.000000
   1.29200000E+00    1.00000000E+00 

9    0
S    6    1.000000
   6.29348000E+03    1.96979000E-03 
   9.49044000E+02    1.49613000E-02 
   2.18776000E+02    7.35006000E-02 
   6.36916000E+01    2.48937000E-01 
   1.88282000E+01    6.02460000E-01 
   2.72023000E+00    2.56202000E-01 
SP   3    1.000000
   3.06331000E+01    1.11906000E-01   3.83119000E-02 
   7.02614000E+00    9.21666000E-01   2.37403000E-01 
   2.11205000E+00   -2.56919000E-03   8.17592000E-01 
SP   1    1.000000
   6.84009000E-01    1.00000000E+00   1.00000000E+00 
SP   1    1.000000
   2.00878000E-01    1.00000000E+00   1.00000000E+00 
SP   1    1.000000
   6.39000000E-02    1.00000000E+00   1.00000000E+00 
D    1    1.000000
   9.13000000E-01    1.00000000E+00 

10    0
S    6    1.000000
   6.29348000E+03    1.96979000E-03 
   9.49044000E+02    1.49613000E-02 
   2.18776000E+02    7.35006000E-02 
   6.36916000E+01    2.48937000E-01 
   1.88282000E+01    6.02460000E-01 
   2.72023000E+00    2.56202000E-01 
SP   3    1.000000
   3.06331000E+01    1.11906000E-01   3.83119000E-02 
   7.02614000E+00    9.21666000E-01   2.37403000E-01 
   2.11205000E+00   -2.56919000E-03   8.17592000E-01 
SP   1    1.000000
   6.84009000E-01    1.00000000E+00   1.00000000E+00 
SP   1    1.000000
   2.00878000E-01    1.00000000E+00   1.00000000E+00 
SP   1    1.000000
   6.39000000E-02    1.00000000E+00   1.00000000E+00 
D    1    1.000000
   9.13000000E-01    1.00000000E+00 

11    0
S    6    1.000000
   4.56324000E+03    1.96665000E-03 
   6.82024000E+02    1.52306000E-02 
   1.54973000E+02    7.61269000E-02 
   4.44553000E+01    2.60801000E-01 
   1.30290000E+01    6.16462000E-01 
   1.82773000E+00    2.21006000E-01 
SP   3    1.000000
   2.09642000E+01    1.14660000E-01   4.02487000E-02 
   4.80331000E+00    9.19999000E-01   2.37594000E-01 
   1.45933000E+00   -3.03068000E-03   8.15854000E-01 
SP   1    1.000000
   4.83456000E-01    1.00000000E+00   1.00000000E+00 
SP   1    1.000000
   1.45585000E-01    1.00000000E+00   1.00000000E+00 
SP   1    1.000000
   4.38000000E-02    1.00000000E+00   1.00000000E+00 
D    1    1.000000
   6.26000000E-01    1.00000000E+00 

12    0
S    3    1.000000
   3.38650000E+01    2.54938000E-02 
   5.09479000E+00    1.90373000E-01 
   1.15879000E+00    8.52161000E-01 
S    1    1.000000
   3.25840000E-01    1.00000000E+00 
S    1    1.000000
   1.02741000E-01    1.00000000E+00 
S    1    1.000000
   3.60000000E-02    1.00000000E+00 
P    1    1.000000
   7.50000000E-01    1.00000000E+00 

[MO]
Sym=X
Ene= 2.014083
Spin=Alpha
Occup=1
     1   -1.387732686714e-14
     2   -1.521468548153e-14
     3    2.076008316289e-14
     4   -1.029548013758e-14
     5   -5.223436707532e-02
     6    4.557942927935e-15
     7    4.331652179093e-14
     8   -2.651602438929e-14
     9   -8.866218272924e-02
    10   -6.348747021984e-14
    11   -2.381605309594e-13
    12    2.836679895663e-14
    13   -9.257881607073e-02
    14    8.757392760282e-12
    15    2.265252527420e-12
    16    2.143114891700e-12
    17   -1.227022152424e-02
    18   -3.712869536763e-15
    19   -1.345089591635e-02
    20   -5.247833060626e-03
    21    8.467381448932e-15
    22    2.095798402639e-15
    23   -4.492537738797e-15
    24   -8.039999667700e-15
    25   -4.830171179598e-13
    26   -9.447675815014e-13
    27   -7.730317088842e-15
    28   -4.883845166268e-15
    29    3.620354411637e-03
    30    3.694121451167e-15
    31    6.038492573335e-14
    32   -1.477816149922e-13
    33    9.930696676826e-13
    34    4.043871057749e-15
    35    7.978684947368e-15
    36   -4.154977001935e-03
    37    6.366793354201e-15
    38    2.883015602038e-16
    39   -8.803914003636e-13
    40    9.094499630680e-13
    41   -1.995439877444e-15
    42   -8.033776231513e-15
    43   -3.507925016580e-03
    44   -7.296957013484e-15
    45   -5.586611904830e-15
    46    1.742733876689e-14
    47   -3.558436567467e-14
    48   -2.010162000169e-03
    49   -1.666554052196e-14
    50    4.330496158811e-14
    51   -2.623987151010e-14
    52   -1.080661944123e-03
    53    6.421488766968e-13
    54   -3.959849268536e-13
    55   -4.211123842257e-13
    56   -6.718765565164e-03
    57    6.395762327275e-13
    58   -5.770509673191e-13
    59   -1.250658097337e-12
    60   -1.797954437819e-02
    61   -1.254154302953e-14
    62   -8.181940437492e-03
    63   -7.690244933999e-03
    64   -8.755986177236e-16
    65    5.463739920568e-15
    66   -3.546104781835e-14
    67   -2.045959106955e-14
    68   -2.806533846861e-14
    69   -1.940911909138e-15
    70    2.540507157805e-03
    71   -5.482068866429e-14
    72   -5.142986928061e-14
    73   -2.346535743838e-14
    74    3.943212862934e-03
    75   -9.574881586150e-14
    76   -1.235537167585e-13
    77    4.449410764787e-14
    78    2.904579853742e-03
    79   -3.894372606606e-13
    80    1.531300226363e-14
    81    4.153534595497e-13
    82    1.090137129359e-02
    83    2.270663535641e-15
    84   -1.700925855170e-04
    85   -2.679802646626e-04
    86   -3.975376374083e-15
    87    1.337243277389e-15
    88   -5.438959968017e-14
    89   -4.699206182437e-14
    90    1.026855001181e-14
    91   -6.555501631426e-16
    92    3.429948196116e-02
    93    2.379398289544e-14
    94   -6.910677634479e-16
    95    1.565786492681e-14
    96    6.273672478691e-02
    97   -1.306680670848e-13
    98    1.549510437636e-14
    99   -4.183541471693e-13
   100    6.129322047097e-02
   101   -6.484352633703e-12
   102    1.749525034869e-12
   103    7.401047496184e-14
   104    3.714042866432e-02
   105    1.536030547976e-14
   106    3.701974366987e-02
   107    2.748163045794e-02
   108   -4.163053929218e-15
   109    1.178408369960e-14
   110    1.121069669608e-14
   111    1.766134528390e-14
   112   -2.885154266747e-14
   113   -2.734632909097e-14
   114    3.646259940646e-01
   115   -6.524916109123e-14
   116   -5.803751885651e-14
   117    8.037794209792e-15
   118    4.166522514762e-01
   119    1.864011879357e-14
   120   -2.443304942301e-14
   121   -7.671029645485e-14
   122    2.888031270228e-01
   123    2.576810518496e-14
   124   -1.847863319447e-13
   125   -4.584274623384e-14
   126    2.865299182264e-02
   127    1.707487308132e-15
   128   -1.570535874637e-02
   129   -1.112259071809e-02
   130    3.063050708657e-15
   131    4.343687745274e-16
   132    2.794178261665e-15
   133   -3.406911888578e-15
   134   -3.508449800109e-14
   135    1.820405011958e-14
   136   -5.193036478587e-02
   137    3.101585744137e-14
   138   -2.563006998711e-14
   139    2.361449538018e-14
   140   -8.334080457715e-02
   141   -1.119465515041e-13
   142   -1.540669936396e-13
   143    4.946137622688e-14
   144   -9.932704800525e-02
   145    6.287429328327e-12
   146    3.805184911931e-13
   147   -6.545394899714e-13
   148   -2.307484146380e-02
   149    8.975806398603e-15
   150    2.598436684285e-03
   151    1.141052838635e-03
   152   -2.115204976336e-15
   153   -3.451162869545e-15
   154    6.889801741974e-14
   155    5.368697852102e-14
   156   -4.866401019287e-15
   157    1.060445632787e-14
   158    3.144473715724e-02
   159    1.524191053279e-14
   160   -1.863437646253e-14
   161    3.463088078742e-14
   162    4.981372801654e-02
   163    1.641345011187e-13
   164    3.755008240312e-14
   165   -1.703928667544e-13
   166    7.320152470310e-02
   167   -4.078168140961e-12
   168   -1.745697906178e-12
   169   -1.234059913946e-12
   170    3.309274949467e-02
   171   -7.778772175037e-15
   172   -3.846028623334e-03
   173    2.604385514539e-03
   174   -8.690087625261e-15
   175    5.193978783237e-15
   176    2.099324248088e-15
   177   -4.111712417760e-15
   178   -2.514066218742e-14
   179   -3.430740838676e-14
   180   -6.413604134194e-02
   181    2.983343326545e-14
   182   -1.534940850564e-14
   183   -3.932487495256e-14
   184   -1.084570323371e-01
   185   -2.505499314426e-13
   186   -4.196211104355e-13
   187   -3.928835253568e-13
   188   -1.270603422361e-01
   189   -5.345570095158e-12
   190    7.636885038715e-13
   191    2.112177822654e-12
   192   -2.155429970645e-02
   193   -5.609258670918e-15
   194    1.091064654431e-02
   195    5.168474685173e-03
   196    5.405600593843e-16
   197   -4.396681388622e-15
   198    2.623198198802e-14
   199    2.444331385867e-14
   200    6.786255205347e-13
   201    2.428637055151e-13
   202    5.981420341547e-15
   203   -4.659772464333e-15
   204   -4.314068448991e-03
Sym=X
Ene= 2.004061
Spin=Alpha
Occup=1
     1   -5.980154185203e-14
     2   -6.546473348296e-14
     3   -1.013187187301e-13
     4   -1.075243520274e-14
     5   -2.552567184521e-02
     6    9.197059759869e-14
     7   -1.613113927981e-13
     8    4.595529222625e-15
     9   -4.614240820540e-02
    10   -3.880472871297e-13
    11   -1.703326378338e-14
    12   -4.594019846652e-13
    13   -1.037774490965e-02
    14   -1.464766626881e-11
    15   -3.248667924778e-12
    16   -3.174644337135e-12
    17    5.028627540112e-04
    18   -4.515549042332e-15
    19    2.223629914144e-02
    20   -6.969820463967e-03
    21   -1.511895529704e-14
    22   -8.589242111454e-15
    23   -1.505298243912e-16
    24   -4.171849587042e-14
    25    7.391499463413e-13
    26   -2.633701680561e-13
    27    5.365352137931e-15
    28    3.371122889770e-15
    29   -1.393478777328e-02
    30    3.791205386841e-14
    31   -9.232354340095e-16
    32   -1.979822415999e-13
    33   -9.856473361555e-13
    34   -8.693438279643e-15
    35    1.635636277170e-15
    36   -2.080670771130e-03
    37   -1.043131566565e-14
    38    1.238283005478e-13
    39   -9.239412460599e-13
    40    3.134953062186e-13
    41    1.925230633183e-15
    42    3.349782093784e-15
    43    1.307706687578e-02
    44   -7.513828154200e-14
    45   -4.647020259394e-14
    46    2.248770918204e-14
    47   -2.079446853459e-14
    48   -2.802683402239e-02
    49   -7.742410858438e-14
    50    1.916726409135e-14
    51   -3.260003153453e-14
    52   -5.039202644964e-02
    53   -1.972135744561e-13
    54   -2.836015979650e-13
    55    1.656128824868e-13
    56   -2.474597172096e-02
    57    2.778745591922e-12
    58    2.907703721912e-13
    59   -1.278298100076e-12
    60   -6.851169630072e-04
    61    1.272911794727e-14
    62    2.754504112425e-02
    63    2.357713772547e-02
    64    1.119824245034e-14
    65    9.548546996961e-15
    66   -8.802797741445e-14
    67   -4.031028441514e-14
    68   -4.379047852712e-14
    69   -5.410259434575e-14
    70   -4.857457580744e-02
    71   -2.008836667772e-13
    72   -7.054403000687e-14
    73   -7.460380156991e-14
    74   -7.620335404444e-02
    75   -2.203098637183e-13
    76   -6.924318767077e-14
    77   -1.014345744711e-13
    78   -6.863789451007e-02
    79   -2.973858342283e-13
    80   -1.272461598747e-13
    81    1.601239880058e-13
    82   -6.085941093027e-03
    83    1.727912177428e-15
    84   -4.491803137962e-03
    85    3.592469966911e-03
    86   -7.147446851305e-15
    87    9.878099282414e-16
    88   -5.473494220667e-15
    89   -3.617259815588e-14
    90   -2.410528232090e-14
    91   -8.638636217352e-14
    92    9.564193051797e-02
    93    1.730070788748e-13
    94   -2.055580379396e-14
    95   -1.402164891245e-13
    96    1.712997990199e-01
    97   -2.337973545425e-13
    98    5.541926312526e-14
    99    1.158132748726e-13
   100    9.535784200567e-02
   101   -3.374135606084e-13
   102    1.727378080215e-12
   103   -1.319405946291e-12
   104    2.260625896009e-02
   105   -3.590198119051e-15
   106   -1.573765713443e-02
   107    1.097076188221e-02
   108   -3.415038046876e-14
   109    8.672115602687e-15
   110   -6.320294940330e-15
   111   -8.715899708463e-15
   112   -5.928124890125e-14
   113    1.755495268522e-13
   114    4.850892761333e-02
   115    3.265895198017e-14
   116   -7.211473837155e-14
   117    2.047089858881e-13
   118    5.979513450027e-02
   119    1.032655899606e-16
   120   -4.636522165663e-14
   121    1.288041222032e-13
   122    3.084642301932e-02
   123   -1.000245119390e-13
   124   -1.388076248983e-14
   125   -3.469253150050e-15
   126   -2.237345761005e-02
   127    1.812087397325e-15
   128   -8.329425358020e-03
   129   -5.386186073160e-03
   130    2.838230186535e-15
   131   -3.986041719873e-15
   132    6.054346147537e-14
   133    5.664127111206e-14
   134   -1.017656618642e-14
   135   -1.340259383865e-16
   136    1.682057593709e-01
   137   -4.687164593364e-14
   138   -4.506238829917e-15
   139   -1.984976517864e-15
   140    2.760669340972e-01
   141    2.249231301273e-13
   142   -1.016960420103e-13
   143   -1.203202990603e-13
   144    2.743860576938e-01
   145    1.002701547753e-12
   146    4.304848421631e-13
   147    1.435382847490e-12
   148    1.458150059873e-02
   149   -2.815689693579e-15
   150    8.557369794602e-03
   151   -7.864874491662e-03
   152   -1.385820955011e-15
   153   -3.809008376374e-15
   154    2.321009996002e-14
   155   -4.990297120942e-18
   156    6.179068406079e-14
   157   -4.078498666425e-14
   158   -1.576805100830e-01
   159    9.274040195505e-14
   160    8.421009211550e-14
   161   -7.695958105880e-14
   162   -2.586196085907e-01
   163    3.137811770150e-13
   164    2.628965759060e-13
   165    4.144916673260e-14
   166   -2.618268550056e-01
   167    3.213645258320e-13
   168    1.353353317450e-12
   169    5.869736608955e-13
   170   -2.898644221257e-02
   171   -1.021767773216e-14
   172   -3.550937658342e-03
   173   -2.960022496364e-03
   174   -3.658195479495e-15
   175   -8.714254984666e-15
   176    1.125017168161e-13
   177    1.032931507336e-13
   178   -1.216833320066e-14
   179    1.365124844485e-13
   180    4.160755468242e-02
   181   -5.202986847735e-14
   182   -3.032331116723e-14
   183    1.886285540481e-13
   184    7.225873588251e-02
   185    1.843369832133e-13
   186   -3.166806507152e-13
   187    4.059997796091e-13
   188    6.267892662600e-02
   189    1.143587560216e-11
   190   -4.939910755433e-12
   191   -1.580308402135e-12
   192   -3.831103611590e-03
   193    2.488472498182e-15
   194   -2.710975982538e-04
   195    1.230529197511e-02
   196   -1.955643906721e-14
   197    3.388805501305e-15
   198   -8.260071524979e-14
   199   -3.033403517995e-14
   200    2.788057742713e-13
   201    1.085654880268e-12
   202    4.445982871668e-16
   203    4.317553041910e-15
   204    3.320146680646e-03
Sym=X
Ene= 2.002790
Spin=Alpha
Occup=1
     1   -7.823503275913e-03
     2   -1.313739533218e-02
     3    2.693288952719e-02
     4    1.421177014597e-02
     5   -1.149720494038e-16
     6    3.650603606456e-02
     7    4.558956396012e-02
     8    2.377043895443e-02
     9    5.511439315100e-16
    10    6.635208167588e-02
    11    3.717007168198e-02
    12    4.608228945696e-02
    13    2.762204304761e-14
    14    2.663170492239e-01
    15    7.046467229331e-02
    16    6.283857272853e-02
    17    8.258417920314e-14
    18   -3.927769643184e-04
    19    2.395056070817e-14
    20   -4.796014531197e-16
    21    5.325988460564e-03
    22   -3.114188382772e-04
    23   -1.474687731019e-03
    24   -3.941986076960e-03
    25   -6.695900033194e-03
    26    4.145973341221e-04
    27   -4.137365562340e-04
    28   -4.549397817395e-04
    29   -1.713275950409e-14
    30   -9.525708138832e-03
    31   -1.148436798340e-02
    32   -4.813482381500e-03
    33    2.442090914396e-02
    34    1.231177780306e-03
    35    5.578881883479e-04
    36   -9.503638507055e-15
    37    1.189334565665e-03
    38   -3.056648178538e-03
    39   -1.071079993008e-02
    40    4.242695092072e-02
    41   -1.023155719241e-04
    42   -1.113948891447e-03
    43   -5.611524757948e-16
    44    7.741667246407e-03
    45    1.286848619710e-02
    46   -2.522797272539e-02
    47   -1.020880372906e-02
    48   -1.449297766160e-14
    49   -3.532537997588e-02
    50   -4.313172876448e-02
    51   -1.809910967669e-02
    52   -8.361624304190e-14
    53   -5.329919254045e-02
    54   -2.715033448037e-02
    55    1.612755539131e-02
    56    1.739680849014e-13
    57   -4.031823938543e-02
    58   -2.522552005666e-03
    59   -1.004213187217e-02
    60    1.363573982048e-13
    61    8.864458196516e-04
    62   -1.047062816286e-14
    63    5.031226457820e-14
    64   -8.309523917299e-03
    65   -1.117791642361e-02
    66   -1.044655790374e-03
    67   -1.761854262708e-03
    68    2.465920980860e-02
    69    2.134248808553e-02
    70    4.247894077999e-14
    71    5.159719902530e-03
    72    3.700366744886e-02
    73    3.338989902009e-02
    74    4.140026183346e-14
    75   -1.141466207738e-03
    76    3.614235912215e-02
    77    3.690138342363e-02
    78    1.441888292457e-14
    79   -1.843504133025e-02
    80   -6.080921752447e-03
    81    2.570436988159e-03
    82   -1.426325966315e-13
    83   -2.903786782939e-04
    84    3.517001382184e-15
    85    1.961625521086e-15
    86    1.103816883008e-03
    87   -8.808992300231e-05
    88   -8.307911853907e-04
    89   -4.510326767950e-04
    90   -6.396815288981e-03
    91    5.823494011710e-02
    92    5.225907315993e-14
    93   -1.466463536203e-03
    94   -8.125911658488e-03
    95    1.026558470597e-01
    96    9.190282023232e-14
    97    6.752551550809e-03
    98    3.146360512457e-02
    99   -4.297222771547e-02
   100    1.148978795707e-13
   101    4.083847764661e-01
   102    3.825565405288e-02
   103   -1.939621001981e-01
   104   -1.301952399658e-13
   105   -1.731101614901e-03
   106    1.817391194711e-15
   107    2.545266682526e-16
   108    4.766177718923e-02
   109   -1.668238585172e-02
   110   -2.194458842093e-03
   111   -3.112779907596e-03
   112    1.861343258880e-01
   113   -3.273959685811e-01
   114    3.045373378130e-14
   115    1.022522138060e-02
   116    2.122076301212e-01
   117   -3.748008787608e-01
   118    8.035705203411e-14
   119   -7.885537284105e-03
   120    1.631714688933e-01
   121   -2.631419160698e-01
   122   -4.670125542986e-14
   123    8.535976771468e-04
   124   -2.717871029853e-03
   125    3.355213460177e-05
   126    1.181748468011e-13
   127   -1.670765300514e-03
   128   -5.172802016936e-15
   129   -6.488230648356e-15
   130   -1.096649705841e-02
   131    7.171118744532e-03
   132   -1.218764828347e-02
   133   -2.003285014571e-02
   134    6.331862770278e-02
   135   -9.308787064487e-03
   136    5.607597159356e-14
   137    5.407362710219e-02
   138    1.021355865979e-01
   139   -1.109666670537e-02
   140    9.383649278380e-14
   141    1.037031976101e-01
   142    8.940991980496e-02
   143   -2.742823004579e-02
   144    2.805318615347e-14
   145    1.150264274916e-01
   146   -4.597499305090e-02
   147   -1.607951769305e-02
   148    2.752502752804e-15
   149    1.858198982967e-04
   150    4.873865094558e-15
   151   -5.475021877585e-15
   152    2.232547653744e-03
   153   -3.425072460908e-03
   154   -2.275678526070e-03
   155   -3.774983082737e-03
   156   -5.908163176605e-04
   157    1.043490165351e-02
   158   -1.213804636751e-13
   159    1.004642609945e-02
   160   -1.202607907322e-03
   161    1.549235445771e-02
   162   -1.916304977202e-13
   163    2.843748783000e-02
   164   -7.483108957717e-03
   165    2.453294689048e-02
   166   -2.473439099904e-13
   167   -9.284150179198e-03
   168   -3.569248339064e-03
   169   -2.809404347169e-02
   170   -1.225594526659e-13
   171    3.536188248333e-04
   172   -1.308377096509e-15
   173   -4.957044126495e-15
   174    2.202848155343e-03
   175   -5.917774776806e-04
   176    1.733127434753e-02
   177    2.804468015823e-02
   178   -2.565497752901e-02
   179   -5.602385230276e-02
   180    5.570610282291e-14
   181   -6.897566346069e-02
   182   -4.460716227006e-02
   183   -7.799774722489e-02
   184    1.023073632955e-13
   185   -1.715643191245e-01
   186    9.217477574097e-03
   187   -8.339164667780e-02
   188    8.657260616681e-14
   189   -7.167683417873e-01
   190    9.504670446517e-02
   191   -8.194054164115e-02
   192   -2.861730162470e-14
   193    1.003168116674e-03
   194   -5.677230056754e-15
   195   -4.194294266437e-15
   196    3.459384889991e-03
   197    9.079323063351e-04
   198   -9.463550325480e-03
   199   -1.209098186145e-02
   200   -7.673146067393e-03
   201   -3.716494188615e-02
   202    8.716706456729e-04
   203   -9.914215357464e-04
   204    8.881703456513e-15
Sym=X
Ene= 2.001935
Spin=Alpha
Occup=1
     1   -3.824853299999e-03
     2   -6.453134840844e-03
     3   -1.279642595955e-03
     4    2.845146360353e-02
     5   -9.580550465945e-15
     6    1.563011923435e-02
     7   -3.000402185344e-03
     8    4.486652340610e-02
     9   -2.785710154638e-14
    10    2.262153009758e-02
    11   -8.732247399500e-03
    12    3.850231146475e-02
    13   -1.069432032076e-13
    14    4.730146097618e-02
    15   -1.231741309020e-02
    16    2.133818151699e-02
    17   -3.535800976848e-16
    18   -1.713696559584e-03
    19   -5.134957089638e-14
    20    7.224077255310e-15
    21    6.287216616336e-03
    22    2.453227130287e-03
    23    1.292613763094e-02
    24    3.242940779349e-02
    25    2.288737032792e-02
    26   -3.496247385654e-02
    27    2.969587522407e-03
    28    2.281908134732e-03
    29    2.406201114166e-14
    30   -2.046609623460e-02
    31   -3.226067460979e-02
    32   -1.794480071816e-03
    33    4.130031748514e-03
    34   -2.005817505990e-04
    35   -2.187351590978e-03
    36   -1.322090608104e-15
    37   -1.087907652818e-02
    38   -1.822015950410e-02
    39   -1.984418058523e-02
    40    2.911703239763e-02
    41    3.317460318133e-03
    42    3.082580632441e-03
    43    5.995859585815e-15
    44    1.307261416378e-02
    45    2.156826662686e-02
    46   -1.448638665712e-02
    47   -9.439533303657e-03
    48   -1.370261496144e-14
    49   -6.266713357454e-02
    50   -2.386210509380e-02
    51   -1.051457016593e-02
    52    2.173794172218e-14
    53   -5.441746838143e-02
    54   -7.746785402257e-02
    55   -1.031755463681e-01
    56   -5.629901561449e-14
    57   -6.232891343082e-03
    58   -5.845628667960e-02
    59   -8.469283350974e-02
    60   -7.303155721398e-14
    61    2.007686437568e-03
    62    8.013524402229e-14
    63   -6.858256503974e-14
    64    5.820288986595e-02
    65    2.387484570101e-02
    66   -6.118429682302e-03
    67   -1.032566693163e-02
    68   -1.238398954240e-01
    69   -1.735709284713e-01
    70   -2.458700790616e-13
    71    2.991532488424e-02
    72   -1.919477715638e-01
    73   -2.682195751842e-01
    74   -3.847790943371e-13
    75    3.566428187228e-02
    76   -1.656708626939e-01
    77   -2.463274998158e-01
    78   -3.892098679773e-13
    79    7.396477452113e-03
    80   -4.085283144479e-03
    81   -1.347981333321e-02
    82   -3.286943985963e-14
    83    5.104663288997e-04
    84   -1.410773437176e-14
    85    1.011814586767e-14
    86   -1.392908002998e-02
    87   -4.902831522800e-03
    88    1.919414455261e-02
    89    3.054582509461e-02
    90   -7.728518036354e-02
    91   -4.409005556359e-02
    92   -3.152720711841e-14
    93   -8.118639816963e-02
    94   -1.354588166043e-01
    95   -8.016241232134e-02
    96   -5.204674743469e-14
    97   -1.099672093096e-01
    98   -1.410603491123e-02
    99   -2.234980017400e-02
   100   -4.892644713577e-14
   101   -6.927915887115e-02
   102    3.255219071055e-02
   103    1.923377587699e-03
   104   -6.904656923733e-16
   105    6.220402849160e-03
   106   -2.021467516959e-14
   107    2.630336602804e-14
   108    2.570344612845e-03
   109   -2.419125066681e-02
   110    1.139596991017e-02
   111    1.608972432173e-02
   112    1.748776783785e-01
   113    6.203811729625e-02
   114   -4.376248367775e-14
   115   -4.992323493810e-02
   116    2.024061555409e-01
   117    7.228391366536e-02
   118   -4.755737508809e-14
   119    3.749866530323e-02
   120    1.012985388466e-01
   121    2.226706250426e-02
   122   -2.730069833159e-14
   123    3.384157777205e-02
   124   -4.430683281236e-03
   125   -6.831188708370e-03
   126    1.721894077920e-14
   127    7.363051426842e-03
   128    4.269704287439e-15
   129    2.857819649364e-15
   130   -6.055540368944e-03
   131   -1.186947357326e-02
   132   -1.974419592452e-02
   133   -3.295057845929e-02
   134    5.150700160015e-03
   135   -3.867607986108e-02
   136    1.410810219874e-13
   137    8.753734339177e-02
   138    1.282668093358e-02
   139   -5.197544682845e-02
   140    2.262159888379e-13
   141    1.943641440172e-01
   142   -3.710968928905e-02
   143   -6.686511404099e-02
   144    2.624529167345e-13