[Molden Format]
[Atoms] (Angs)
  C      1    6     -0.00754183     -1.75895763      0.00000000
  H      2    1     -2.09769850     -1.41880678     -0.00000000
  H      3    1     -0.13527422     -2.83956838     -0.00000000
  H      4    1      0.04053511      2.02026369      0.00000000
  C      5    6     -1.22066484      0.39918184     -0.00000000
  O      6    8     -2.25210141      1.05663720     -0.00000000
  C      7    6      1.24009552      0.27789184      0.00000000
  O      8    8      2.33767996      1.06122493      0.00000000
  N      9    7      0.03634586      1.00852936      0.00000000
  N     10    7     -1.18738304     -0.97903470     -0.00000000
  C     11    6      1.22288875     -1.12258096      0.00000000
  H     12    1      2.15640383     -1.68445878      0.00000000
[GTO]
1    0
S    6    1.000000
   4.56324000E+03    1.96665000E-03 
   6.82024000E+02    1.52306000E-02 
   1.54973000E+02    7.61269000E-02 
   4.44553000E+01    2.60801000E-01 
   1.30290000E+01    6.16462000E-01 
   1.82773000E+00    2.21006000E-01 
SP   3    1.000000
   2.09642000E+01    1.14660000E-01   4.02487000E-02 
   4.80331000E+00    9.19999000E-01   2.37594000E-01 
   1.45933000E+00   -3.03068000E-03   8.15854000E-01 
SP   1    1.000000
   4.83456000E-01    1.00000000E+00   1.00000000E+00 
SP   1    1.000000
   1.45585000E-01    1.00000000E+00   1.00000000E+00 
SP   1    1.000000
   4.38000000E-02    1.00000000E+00   1.00000000E+00 
D    1    1.000000
   6.26000000E-01    1.00000000E+00 

2    0
S    3    1.000000
   3.38650000E+01    2.54938000E-02 
   5.09479000E+00    1.90373000E-01 
   1.15879000E+00    8.52161000E-01 
S    1    1.000000
   3.25840000E-01    1.00000000E+00 
S    1    1.000000
   1.02741000E-01    1.00000000E+00 
S    1    1.000000
   3.60000000E-02    1.00000000E+00 
P    1    1.000000
   7.50000000E-01    1.00000000E+00 

3    0
S    3    1.000000
   3.38650000E+01    2.54938000E-02 
   5.09479000E+00    1.90373000E-01 
   1.15879000E+00    8.52161000E-01 
S    1    1.000000
   3.25840000E-01    1.00000000E+00 
S    1    1.000000
   1.02741000E-01    1.00000000E+00 
S    1    1.000000
   3.60000000E-02    1.00000000E+00 
P    1    1.000000
   7.50000000E-01    1.00000000E+00 

4    0
S    3    1.000000
   3.38650000E+01    2.54938000E-02 
   5.09479000E+00    1.90373000E-01 
   1.15879000E+00    8.52161000E-01 
S    1    1.000000
   3.25840000E-01    1.00000000E+00 
S    1    1.000000
   1.02741000E-01    1.00000000E+00 
S    1    1.000000
   3.60000000E-02    1.00000000E+00 
P    1    1.000000
   7.50000000E-01    1.00000000E+00 

5    0
S    6    1.000000
   4.56324000E+03    1.96665000E-03 
   6.82024000E+02    1.52306000E-02 
   1.54973000E+02    7.61269000E-02 
   4.44553000E+01    2.60801000E-01 
   1.30290000E+01    6.16462000E-01 
   1.82773000E+00    2.21006000E-01 
SP   3    1.000000
   2.09642000E+01    1.14660000E-01   4.02487000E-02 
   4.80331000E+00    9.19999000E-01   2.37594000E-01 
   1.45933000E+00   -3.03068000E-03   8.15854000E-01 
SP   1    1.000000
   4.83456000E-01    1.00000000E+00   1.00000000E+00 
SP   1    1.000000
   1.45585000E-01    1.00000000E+00   1.00000000E+00 
SP   1    1.000000
   4.38000000E-02    1.00000000E+00   1.00000000E+00 
D    1    1.000000
   6.26000000E-01    1.00000000E+00 

6    0
S    6    1.000000
   8.58850000E+03    1.89515000E-03 
   1.29723000E+03    1.43859000E-02 
   2.99296000E+02    7.07320000E-02 
   8.73771000E+01    2.40001000E-01 
   2.56789000E+01    5.94797000E-01 
   3.74004000E+00    2.80802000E-01 
SP   3    1.000000
   4.21175000E+01    1.13889000E-01   3.65114000E-02 
   9.62837000E+00    9.20811000E-01   2.37153000E-01 
   2.85332000E+00   -3.27447000E-03   8.19702000E-01 
SP   1    1.000000
   9.05661000E-01    1.00000000E+00   1.00000000E+00 
SP   1    1.000000
   2.55611000E-01    1.00000000E+00   1.00000000E+00 
SP   1    1.000000
   8.45000000E-02    1.00000000E+00   1.00000000E+00 
D    1    1.000000
   1.29200000E+00    1.00000000E+00 

7    0
S    6    1.000000
   4.56324000E+03    1.96665000E-03 
   6.82024000E+02    1.52306000E-02 
   1.54973000E+02    7.61269000E-02 
   4.44553000E+01    2.60801000E-01 
   1.30290000E+01    6.16462000E-01 
   1.82773000E+00    2.21006000E-01 
SP   3    1.000000
   2.09642000E+01    1.14660000E-01   4.02487000E-02 
   4.80331000E+00    9.19999000E-01   2.37594000E-01 
   1.45933000E+00   -3.03068000E-03   8.15854000E-01 
SP   1    1.000000
   4.83456000E-01    1.00000000E+00   1.00000000E+00 
SP   1    1.000000
   1.45585000E-01    1.00000000E+00   1.00000000E+00 
SP   1    1.000000
   4.38000000E-02    1.00000000E+00   1.00000000E+00 
D    1    1.000000
   6.26000000E-01    1.00000000E+00 

8    0
S    6    1.000000
   8.58850000E+03    1.89515000E-03 
   1.29723000E+03    1.43859000E-02 
   2.99296000E+02    7.07320000E-02 
   8.73771000E+01    2.40001000E-01 
   2.56789000E+01    5.94797000E-01 
   3.74004000E+00    2.80802000E-01 
SP   3    1.000000
   4.21175000E+01    1.13889000E-01   3.65114000E-02 
   9.62837000E+00    9.20811000E-01   2.37153000E-01 
   2.85332000E+00   -3.27447000E-03   8.19702000E-01 
SP   1    1.000000
   9.05661000E-01    1.00000000E+00   1.00000000E+00 
SP   1    1.000000
   2.55611000E-01    1.00000000E+00   1.00000000E+00 
SP   1    1.000000
   8.45000000E-02    1.00000000E+00   1.00000000E+00 
D    1    1.000000
   1.29200000E+00    1.00000000E+00 

9    0
S    6    1.000000
   6.29348000E+03    1.96979000E-03 
   9.49044000E+02    1.49613000E-02 
   2.18776000E+02    7.35006000E-02 
   6.36916000E+01    2.48937000E-01 
   1.88282000E+01    6.02460000E-01 
   2.72023000E+00    2.56202000E-01 
SP   3    1.000000
   3.06331000E+01    1.11906000E-01   3.83119000E-02 
   7.02614000E+00    9.21666000E-01   2.37403000E-01 
   2.11205000E+00   -2.56919000E-03   8.17592000E-01 
SP   1    1.000000
   6.84009000E-01    1.00000000E+00   1.00000000E+00 
SP   1    1.000000
   2.00878000E-01    1.00000000E+00   1.00000000E+00 
SP   1    1.000000
   6.39000000E-02    1.00000000E+00   1.00000000E+00 
D    1    1.000000
   9.13000000E-01    1.00000000E+00 

10    0
S    6    1.000000
   6.29348000E+03    1.96979000E-03 
   9.49044000E+02    1.49613000E-02 
   2.18776000E+02    7.35006000E-02 
   6.36916000E+01    2.48937000E-01 
   1.88282000E+01    6.02460000E-01 
   2.72023000E+00    2.56202000E-01 
SP   3    1.000000
   3.06331000E+01    1.11906000E-01   3.83119000E-02 
   7.02614000E+00    9.21666000E-01   2.37403000E-01 
   2.11205000E+00   -2.56919000E-03   8.17592000E-01 
SP   1    1.000000
   6.84009000E-01    1.00000000E+00   1.00000000E+00 
SP   1    1.000000
   2.00878000E-01    1.00000000E+00   1.00000000E+00 
SP   1    1.000000
   6.39000000E-02    1.00000000E+00   1.00000000E+00 
D    1    1.000000
   9.13000000E-01    1.00000000E+00 

11    0
S    6    1.000000
   4.56324000E+03    1.96665000E-03 
   6.82024000E+02    1.52306000E-02 
   1.54973000E+02    7.61269000E-02 
   4.44553000E+01    2.60801000E-01 
   1.30290000E+01    6.16462000E-01 
   1.82773000E+00    2.21006000E-01 
SP   3    1.000000
   2.09642000E+01    1.14660000E-01   4.02487000E-02 
   4.80331000E+00    9.19999000E-01   2.37594000E-01 
   1.45933000E+00   -3.03068000E-03   8.15854000E-01 
SP   1    1.000000
   4.83456000E-01    1.00000000E+00   1.00000000E+00 
SP   1    1.000000
   1.45585000E-01    1.00000000E+00   1.00000000E+00 
SP   1    1.000000
   4.38000000E-02    1.00000000E+00   1.00000000E+00 
D    1    1.000000
   6.26000000E-01    1.00000000E+00 

12    0
S    3    1.000000
   3.38650000E+01    2.54938000E-02 
   5.09479000E+00    1.90373000E-01 
   1.15879000E+00    8.52161000E-01 
S    1    1.000000
   3.25840000E-01    1.00000000E+00 
S    1    1.000000
   1.02741000E-01    1.00000000E+00 
S    1    1.000000
   3.60000000E-02    1.00000000E+00 
P    1    1.000000
   7.50000000E-01    1.00000000E+00 

[MO]
Sym=X
Ene= 2.013500
Spin=Alpha
Occup=1
     1   -1.355111456964e-14
     2   -1.409498920027e-14
     3    1.835599205721e-14
     4   -9.450300991230e-15
     5   -5.331217080153e-02
     6    8.955466001595e-16
     7    4.087832748742e-14
     8   -2.600678650465e-14
     9   -9.080032363591e-02
    10   -7.806497970586e-14
    11   -2.431879902059e-13
    12    1.890619760303e-14
    13   -9.306118596427e-02
    14    8.596383308990e-12
    15    2.235174263296e-12
    16    2.087806315680e-12
    17   -1.785156900596e-02
    18   -3.690771776520e-15
    19   -1.335498182262e-02
    20   -5.338687725434e-03
    21    8.829590329677e-15
    22    1.921873230365e-15
    23   -5.954664133306e-15
    24   -8.972396949179e-15
    25   -4.799270471392e-13
    26   -9.752322139257e-13
    27   -8.093755533033e-15
    28   -5.341229578180e-15
    29    3.473300390350e-03
    30    2.012733155142e-15
    31    5.832822854951e-14
    32   -1.628603274257e-13
    33    9.737449008430e-13
    34    3.840226204541e-15
    35    7.613204015179e-15
    36   -4.324007621949e-03
    37    6.866571434358e-15
    38    4.259432140907e-15
    39   -9.181716596796e-13
    40    9.371055578281e-13
    41   -2.173402543115e-15
    42   -8.533780999775e-15
    43   -3.379755751645e-03
    44   -7.903580337187e-15
    45   -5.708935660680e-15
    46    2.236348255564e-14
    47   -3.162276285361e-14
    48    2.400657772590e-04
    49   -1.821810938631e-14
    50    5.001279165877e-14
    51   -1.892017758882e-14
    52    2.832971334020e-03
    53    6.495481050605e-13
    54   -4.140300948398e-13
    55   -4.228846829458e-13
    56   -3.780450787382e-03
    57    7.189898288254e-13
    58   -5.864191990841e-13
    59   -1.308633621238e-12
    60   -2.253221528426e-02
    61   -1.213233043730e-14
    62   -7.934137628922e-03
    63   -7.095602299815e-03
    64   -3.137859222002e-17
    65    6.564725715887e-15
    66   -3.351923421325e-14
    67   -1.508593453166e-14
    68   -2.596211063810e-14
    69   -1.403770016204e-15
    70    4.488155993271e-03
    71   -7.544652229736e-14
    72   -4.793914486071e-14
    73   -2.221297902460e-14
    74    7.102309236030e-03
    75   -1.174123893408e-13
    76   -1.232892762179e-13
    77    4.522456548561e-14
    78    5.158626004810e-03
    79   -4.105258035690e-13
    80    1.199028870179e-14
    81    4.295307986583e-13
    82    1.123407485390e-02
    83    2.380814124617e-15
    84    1.042987453700e-04
    85   -4.291411619882e-04
    86   -3.641063326447e-15
    87    1.545107984623e-15
    88   -5.357217362495e-14
    89   -4.514589183496e-14
    90    9.797613824486e-15
    91    7.940033378746e-16
    92    3.471081203765e-02
    93    1.744777713679e-14
    94   -1.373445135650e-15
    95    1.794704098676e-14
    96    6.323733084168e-02
    97   -1.461755666664e-13
    98    2.120415144178e-14
    99   -4.229480842657e-13
   100    6.066545190169e-02
   101   -6.743821870570e-12
   102    1.823835989466e-12
   103    7.730495190780e-14
   104    2.706281540251e-02
   105    1.598758641194e-14
   106    3.627136875981e-02
   107    2.782987548596e-02
   108   -3.195457206428e-15
   109    1.134102285942e-14
   110    1.224808509490e-14
   111    1.966163653137e-14
   112   -2.704541112057e-14
   113   -3.041780530700e-14
   114    3.652925605617e-01
   115   -7.139848352596e-14
   116   -5.567336699409e-14
   117    4.642254491598e-15
   118    4.182519960580e-01
   119    1.607569937973e-14
   120   -2.354067110860e-14
   121   -7.940522759390e-14
   122    2.894649390410e-01
   123    2.467112564298e-14
   124   -1.874789525287e-13
   125   -4.878211274402e-14
   126    2.785097593919e-02
   127    1.414339829246e-15
   128   -1.575502649260e-02
   129   -1.085560641884e-02
   130    3.221047034996e-15
   131    4.390134355537e-16
   132    1.215567888505e-15
   133   -6.666210639634e-15
   134   -3.925827110719e-14
   135    1.728822463906e-14
   136   -4.786132778949e-02
   137    4.257483527747e-14
   138   -3.164111668324e-14
   139    2.222238956979e-14
   140   -7.660517783395e-02
   141   -9.642838692536e-14
   142   -1.623459069359e-13
   143    4.272842504259e-14
   144   -9.248239126321e-02
   145    6.457160945780e-12
   146    3.972775382244e-13
   147   -6.447771636188e-13
   148   -1.855370263365e-02
   149    8.726465618195e-15
   150    2.390412575308e-03
   151    7.997542317397e-04
   152   -1.854205238749e-15
   153   -2.754747615210e-15
   154    7.428059406170e-14
   155    5.955860395365e-14
   156   -2.694769175284e-15
   157    6.674717079072e-15
   158    2.976621300642e-02
   159    6.959428382817e-15
   160   -1.589111686607e-14
   161    2.860954790572e-14
   162    4.722729902889e-02
   163    1.704706350827e-13
   164    4.690653393130e-14
   165   -1.768321061727e-13
   166    6.921041867487e-02
   167   -4.148815950171e-12
   168   -1.754545543884e-12
   169   -1.246385503516e-12
   170    3.650214821890e-02
   171   -7.950747502475e-15
   172   -3.948111845030e-03
   173    2.829394670234e-03
   174   -8.355036236959e-15
   175    5.254118626025e-15
   176    6.042332474099e-15
   177    3.931760418930e-16
   178   -2.417975547124e-14
   179   -3.612981352239e-14
   180   -6.471108269331e-02
   181    2.321200218400e-14
   182   -1.410979585904e-14
   183   -4.148450639166e-14
   184   -1.097933055736e-01
   185   -2.562849295159e-13
   186   -4.354657836891e-13
   187   -3.955173945782e-13
   188   -1.260872518966e-01
   189   -5.058129138463e-12
   190    6.631459216423e-13
   191    2.159498554377e-12
   192   -1.705460653814e-02
   193   -5.192670090072e-15
   194    1.082254878903e-02
   195    5.268956520499e-03
   196    4.772703404006e-16
   197   -4.678240913377e-15
   198    2.680344277272e-14
   199    2.856625091285e-14
   200    6.982073436933e-13
   201    2.735221974517e-13
   202    5.531301307171e-15
   203   -4.444627804213e-15
   204   -4.546786109066e-03
Sym=X
Ene= 2.004199
Spin=Alpha
Occup=1
     1   -5.699721361296e-14
     2   -6.195539560910e-14
     3   -1.090543370046e-13
     4   -2.090633001934e-14
     5   -2.389011285195e-02
     6    8.726468611363e-14
     7   -1.730325658322e-13
     8   -1.053668662983e-14
     9   -4.323697957217e-02
    10   -3.810999359105e-13
    11   -1.319391385311e-14
    12   -4.621385423363e-13
    13   -8.229433678361e-03
    14   -1.476625842528e-11
    15   -3.240793556086e-12
    16   -3.240133214618e-12
    17    4.859308906897e-04
    18   -4.096646535792e-15
    19    2.278634900724e-02
    20   -6.823248370349e-03
    21   -1.489535588907e-14
    22   -8.676485773008e-15
    23    9.346185430850e-16
    24   -3.927353905446e-14
    25    7.341615468473e-13
    26   -2.559040570725e-13
    27    4.316360468071e-15
    28    1.594708501967e-15
    29   -1.409241044392e-02
    30    4.431308470664e-14
    31    1.082592478762e-14
    32   -2.045139276838e-13
    33   -1.009696048962e-12
    34   -8.821456980299e-15
    35    2.823385892370e-15
    36   -1.939053576256e-03
    37   -2.222242643985e-14
    38    1.083666929740e-13
    39   -9.047854347258e-13
    40    2.997253842583e-13
    41    1.313634031405e-15
    42    4.791239178637e-15
    43    1.369808268246e-02
    44   -6.272022933675e-14
    45   -2.990195602104e-14
    46    3.548895496431e-14
    47    6.784824080410e-16
    48   -2.270685124866e-02
    49   -1.105100243943e-13
    50    3.999215559093e-14
    51    2.312491943531e-15
    52   -4.110399876013e-02
    53   -2.083450389137e-13
    54   -2.803771322194e-13
    55    1.720109050275e-13
    56   -2.027744149988e-02
    57    2.831670198539e-12
    58    3.129926729356e-13
    59   -1.276853743129e-12
    60    1.329583395503e-03
    61    1.554983041076e-14
    62    2.559093488689e-02
    63    2.489885952372e-02
    64    1.519637414370e-14
    65    1.177871297166e-14
    66   -6.374462829426e-14
    67   -1.412059794100e-14
    68   -3.862637213710e-14
    69   -4.172378402712e-14
    70   -3.828824302336e-02
    71   -2.324105250971e-13
    72   -6.298035291075e-14
    73   -5.488706227260e-14
    74   -6.012479937861e-02
    75   -2.431368402269e-13
    76   -5.856905375162e-14
    77   -8.686126990371e-14
    78   -5.369089141759e-02
    79   -2.929257771960e-13
    80   -1.297370608228e-13
    81    1.539592477674e-13
    82   -4.791856570328e-03
    83    2.323578483946e-15
    84   -3.523146213103e-03
    85    2.935374831073e-03
    86   -5.515703859051e-15
    87    2.586633188158e-15
    88   -2.663897483537e-14
    89   -5.179312212818e-14
    90   -2.045171855395e-14
    91   -7.850032908677e-14
    92    9.716180549886e-02
    93    1.624481956797e-13
    94   -1.351645502642e-14
    95   -1.273787409318e-13
    96    1.748206549221e-01
    97   -2.336916807823e-13
    98    5.289324235394e-14
    99    1.246192829963e-13
   100    9.452522740757e-02
   101   -5.594237171290e-13
   102    1.697363410463e-12
   103   -1.236461655506e-12
   104    2.008626081799e-02
   105   -3.090607861685e-15
   106   -1.597213491628e-02
   107    1.091320294520e-02
   108   -3.081308702795e-14
   109    9.550156257962e-15
   110   -8.259159993694e-15
   111   -1.173583347002e-14
   112   -6.705380685279e-14
   113    1.719709618318e-13
   114    4.528096859418e-02
   115    4.316425567201e-14
   116   -8.019490924413e-14
   117    2.002654394381e-13
   118    5.634271328836e-02
   119    4.799851669049e-16
   120   -5.165226817549e-14
   121    1.286867484251e-13
   122    2.867366029780e-02
   123   -8.450201935854e-14
   124   -1.329622001307e-14
   125   -7.633223238356e-15
   126   -2.206686358412e-02
   127    1.472099323610e-15
   128   -8.410796319050e-03
   129   -5.410145185526e-03
   130    2.982224300119e-15
   131   -3.736417395204e-15
   132    6.918325189322e-14
   133    6.472798150522e-14
   134   -1.937126889639e-14
   135   -1.312723551276e-14
   136    1.708151901284e-01
   137   -5.091195732715e-14
   138   -1.887593287357e-14
   139   -2.266736216439e-14
   140    2.805435051640e-01
   141    2.213286877828e-13
   142   -1.139421867353e-13
   143   -1.375768241827e-13
   144    2.764692625784e-01
   145    9.388633967807e-13
   146    4.182441719786e-13
   147    1.415901532769e-12
   148    1.334776201757e-02
   149   -2.549035296689e-15
   150    8.794174606989e-03
   151   -7.708962984890e-03
   152    7.080889345327e-16
   153   -3.252483519133e-15
   154    3.249998409028e-14
   155    1.651589889048e-14
   156    6.054897073528e-14
   157   -6.298999111916e-14
   158   -1.578924090075e-01
   159    4.514795601353e-14
   160    8.142922517387e-14
   161   -1.128540464610e-13
   162   -2.589304902387e-01
   163    2.793167425060e-13
   164    2.579559352518e-13
   165    1.729548510238e-14
   166   -2.628482960026e-01
   167    3.650243463203e-13
   168    1.360493906537e-12
   169    5.688064154058e-13
   170   -3.080534184263e-02
   171   -9.080025815890e-15
   172   -3.506456175870e-03
   173   -2.655142250126e-03
   174   -1.713445690228e-15
   175   -8.033195926940e-15
   176    1.177585488136e-13
   177    1.132609845144e-13
   178   -5.263898102913e-15
   179    1.321594227501e-13
   180    4.449488152353e-02
   181   -8.035422629335e-14
   182   -1.824314082747e-14
   183    1.821580604899e-13
   184    7.753886135285e-02
   185    1.669944152252e-13
   186   -3.022072740169e-13
   187    4.044478163009e-13
   188    6.766748825965e-02
   189    1.173130214396e-11
   190   -4.957681671450e-12
   191   -1.492819717527e-12
   192   -2.742100707559e-03
   193    3.699826711162e-15
   194   -3.798490634739e-04
   195    1.256252896465e-02
   196   -1.967352439290e-14
   197    3.169515901959e-15
   198   -8.296523633708e-14
   199   -3.211962002159e-14
   200    2.739881952460e-13
   201    1.114012205365e-12
   202    8.533231860205e-16
   203    3.987082658591e-15
   204    3.622882532469e-03
Sym=X
Ene= 2.003055
Spin=Alpha
Occup=1
     1    7.827765514742e-03
     2    1.316915409075e-02
     3   -2.650662551528e-02
     4   -1.595533701035e-02
     5   -1.980600837608e-15
     6   -3.666725577191e-02
     7   -4.481003716637e-02
     8   -2.644824156809e-02
     9   -4.125770219297e-15
    10   -6.484420048093e-02
    11   -3.624559351278e-02
    12   -4.664013218289e-02
    13   -2.461330721911e-14
    14   -2.638143046627e-01
    15   -6.761229378806e-02
    16   -6.256374395934e-02
    17   -8.537027394913e-14
    18    4.827574007910e-04
    19   -2.235399812660e-14
    20    1.261051470861e-16
    21   -5.670438328119e-03
    22    4.081423884895e-04
    23    1.417006988910e-03
    24    3.157424897849e-03
    25    5.364669336540e-03
    26    1.326554726990e-03
    27    3.215631824931e-04
    28    3.348807933447e-04
    29    1.624062129463e-14
    30    1.086587200772e-02
    31    1.375985552314e-02
    32    5.253082316441e-03
    33   -2.394063757904e-02
    34   -1.178680722504e-03
    35   -3.922778013389e-04
    36    9.432122636918e-15
    37   -2.137135388351e-03
    38    2.032399096789e-03
    39    1.245645123030e-02
    40   -4.292763929208e-02
    41   -3.058264221258e-04
    42    1.282371365061e-03
    43   -3.635663089691e-17
    44   -8.789545805066e-03
    45   -1.462148641292e-02
    46    2.716289452336e-02
    47    1.162321510988e-02
    48    1.146606512875e-14
    49    4.043361302109e-02
    50    4.622038838354e-02
    51    2.016362402699e-02
    52    7.458210562005e-14
    53    5.701846544067e-02
    54    3.094486808673e-02
    55   -1.131999039589e-02
    56   -1.746153725721e-13
    57    4.508174729166e-02
    58    6.807032625574e-03
    59    1.378793415154e-02
    60   -1.295477787494e-13
    61   -1.061170360421e-03
    62    8.429648513555e-15
    63   -4.836884233353e-14
    64    5.999013265277e-03
    65    1.043177316475e-02
    66    1.519027748641e-03
    67    2.562076615369e-03
    68   -1.909528295413e-02
    69   -1.371924158679e-02
    70   -4.163039009769e-14
    71   -7.463603735744e-03
    72   -2.838613234348e-02
    73   -2.161429119135e-02
    74   -3.967681347936e-14
    75   -1.552597351584e-03
    76   -2.889608674343e-02
    77   -2.614456930859e-02
    78   -1.152463240037e-14
    79    1.837937782459e-02
    80    6.072687621941e-03
    81   -2.167597697475e-03
    82    1.388522418859e-13
    83    2.757271047264e-04
    84   -3.737280858233e-15
    85   -1.843597204510e-15
    86   -4.091871594891e-04
    87    3.077544508275e-04
    88   -9.077155283738e-04
    89   -2.232884256049e-03
    90    1.341452235483e-02
    91   -5.675344385651e-02
    92   -5.200948330229e-14
    93    8.331619571120e-03
    94    2.027480294971e-02
    95   -1.000676407958e-01
    96   -9.273115121347e-14
    97    2.230142930498e-04
    98   -2.663619400550e-02
    99    3.947317119604e-02
   100   -1.124981336637e-13
   101   -4.104516470877e-01
   102   -3.633619760502e-02
   103    1.921482106339e-01
   104    1.276874142716e-13
   105    1.360199995109e-03
   106   -9.044833446063e-16
   107   -5.790232325191e-16
   108   -4.692594774107e-02
   109    1.892638626071e-02
   110   -1.608097619375e-03
   111   -2.391726638254e-03
   112   -1.961542513654e-01
   113    3.209114066369e-01
   114   -2.519456135044e-14
   115    8.387429521264e-03
   116   -2.240897097556e-01
   117    3.673829185404e-01
   118   -7.417146040546e-14
   119    1.258947016820e-02
   120   -1.692018986211e-01
   121    2.611475471028e-01
   122    4.924085314399e-14
   123   -3.141235153799e-03
   124    2.367051950358e-03
   125    1.120108023899e-03
   126   -1.162644901744e-13
   127    9.904124393343e-04
   128    5.079250946067e-15
   129    6.205295026088e-15
   130    1.086583855101e-02
   131   -6.292203627850e-03
   132    1.365544318415e-02
   133    2.255240772307e-02
   134   -6.673340855333e-02
   135    9.896094929145e-03
   136   -6.181927875963e-14
   137   -6.111019595667e-02
   138   -1.078481104925e-01
   139    1.158773870931e-02
   140   -1.033565592582e-13
   141   -1.120976449225e-01
   142   -9.009771989915e-02
   143    2.826503940980e-02
   144   -3.706944125329e-14
   145   -1.200385518158e-01
   146    4.848849165434e-02
   147    1.484465412858e-02
   148   -5.206802529517e-15
   149   -1.403504854618e-04
   150   -5.427845619476e-15
   151    5.756443997049e-15
   152   -1.896110440892e-03
   153    3.888688634693e-03
   154    2.001819154042e-03
   155    3.334439417922e-03
   156    1.031901882314e-04
   157   -8.725234408672e-03
   158    1.121848466571e-13
   159   -8.909837869235e-03
   160    3.308610090712e-04
   161   -1.313930599834e-02
   162    1.766240640825e-13
   163   -2.416693665950e-02
   164    5.642470643189e-03
   165   -2.138790714779e-02
   166    2.307334550809e-13
   167    1.485158413014e-02
   168    2.993016781952e-03
   169    2.714176782348e-02
   170    1.185467764182e-13
   171   -2.590537624437e-04
   172    1.439526602838e-15
   173    5.007708254526e-15
   174   -2.245222980310e-03
   175    7.406111471955e-04
   176   -1.711716562657e-02
   177   -2.768420431684e-02
   178    2.648958749292e-02
   179    5.576940305151e-02
   180   -5.482976150148e-14
   181    6.800874772786e-02
   182    4.592963094866e-02
   183    7.776964726630e-02
   184   -9.958721997391e-14
   185    1.646919952853e-01
   186   -8.441673220310e-03
   187    8.102975811200e-02
   188   -8.724003464339e-14
   189    7.098442169575e-01
   190   -9.409425315653e-02
   191    8.322169592945e-02
   192    3.411610517113e-14
   193   -9.550536998594e-04
   194    5.833877250006e-15
   195    4.111936180208e-15
   196   -3.760181646357e-03
   197   -1.392433573691e-04
   198    9.667759041827e-03
   199    1.258676452147e-02
   200    6.954162967702e-03
   201    3.801090635190e-02
   202   -1.028227838025e-03
   203    1.141307102483e-03
   204   -8.682171765538e-15
Sym=X
Ene= 2.002034
Spin=Alpha
Occup=1
     1   -3.812135115273e-03
     2   -6.487093483208e-03
     3   -1.464776642917e-03
     4    2.782749846896e-02
     5   -2.649828401766e-14
     6    1.593164022607e-02
     7   -3.471668878425e-03
     8    4.387981353847e-02
     9   -5.694333379017e-14
    10    2.065985999502e-02
    11   -1.012447550907e-02
    12    3.641522720996e-02
    13   -1.322819174860e-13
    14    2.599542358569e-02
    15   -1.668514084778e-02
    16    1.401737427179e-02
    17   -8.561277491435e-15
    18   -1.690295109423e-03
    19   -5.582117626251e-14
    20    5.661713982811e-15
    21    6.084919281667e-03
    22    2.774127269609e-03
    23    1.383188915685e-02
    24    3.412399661299e-02
    25    2.293373412557e-02
    26   -3.574778505360e-02
    27    3.115682529441e-03
    28    2.375868204081e-03
    29    2.526353620649e-14
    30   -1.987858451710e-02
    31   -3.154528296143e-02
    32   -2.483350455326e-03
    33    1.327883076363e-03
    34   -1.994124034288e-04
    35   -2.162738932319e-03
    36   -2.163608384314e-15
    37   -1.380980752278e-02
    38   -2.196627365427e-02
    39   -2.095791796347e-02
    40    2.583513034298e-02
    41    3.321035327651e-03
    42    3.620042052319e-03
    43    9.471396193078e-15
    44    1.229778841283e-02
    45    2.008714536301e-02
    46   -1.496258799939e-02
    47   -7.576567545695e-03
    48   -9.357958763944e-15
    49   -5.761223319682e-02
    50   -2.478653874314e-02
    51   -7.129273246443e-03
    52    3.191014015571e-14
    53   -4.667608661013e-02
    54   -7.774941482126e-02
    55   -1.029610677551e-01
    56   -6.756475332945e-14
    57   -1.549834987717e-04
    58   -5.859544539435e-02
    59   -8.537167896963e-02
    60   -8.396771919758e-14
    61    1.903518489238e-03
    62    8.799122080531e-14
    63   -7.246850673802e-14
    64    5.966265168284e-02
    65    2.423503260695e-02
    66   -5.819666080040e-03
    67   -9.792463600987e-03
    68   -1.237434601865e-01
    69   -1.783750535541e-01
    70   -2.670189758899e-13
    71    2.842360175965e-02
    72   -1.918092397545e-01
    73   -2.755084670783e-01
    74   -4.163556767123e-13
    75    3.084474902706e-02
    76   -1.678961536123e-01
    77   -2.523440843539e-01
    78   -4.192084426946e-13
    79    4.891590996320e-03
    80   -4.377863294555e-03
    81   -1.351407486906e-02
    82   -3.032678343329e-14
    83    4.727772131307e-04
    84   -1.538294242729e-14
    85    1.044468829879e-14
    86   -1.391750782375e-02
    87   -5.351648219851e-03
    88    1.817355429028e-02
    89    2.898794208916e-02
    90   -7.618907635428e-02
    91   -4.409528613924e-02
    92   -3.504865979542e-14
    93   -7.694062328064e-02
    94   -1.334417010011e-01
    95   -8.028420677500e-02
    96   -5.897039541832e-14
    97   -1.063541466753e-01
    98   -1.403733821604e-02
    99   -1.868021093052e-02
   100   -5.684369254032e-14
   101   -1.038552555278e-01
   102    2.873183337888e-02
   103    1.521079960350e-02
   104    9.408840370781e-15
   105    6.131908641315e-03
   106   -2.530740521737e-14
   107    3.229543652945e-14
   108    4.973932526066e-04
   109   -2.242669914682e-02
   110    1.152432020757e-02
   111    1.629033089510e-02
   112    1.580986017321e-01
   113    7.800616862997e-02
   114   -5.040366836528e-14
   115   -5.057422529190e-02
   116    1.834930495894e-01
   117    9.070321267240e-02
   118   -5.821120617342e-14
   119    3.508873267329e-02
   120    8.922168224249e-02
   121    3.647033953305e-02
   122   -2.956652892364e-14
   123    3.191216498627e-02
   124   -3.600136294676e-03
   125   -6.826589016142e-03
   126    9.594704828313e-15
   127    7.225676724139e-03
   128    4.615579111551e-15
   129    3.725503853064e-15
   130   -5.200613517111e-03
   131   -1.182963470847e-02
   132   -1.824617880316e-02
   133   -3.066875869651e-02
   134    2.209124670800e-03
   135   -4.092543088133e-02
   136    1.732274708747e-13
   137    8.213852903697e-02
   138    8.152153334617e-03
   139   -5.563848219030e-02
   140    2.786947978017e-13
   141    1.869324867620e-01
   142   -4.139181359344e-02
   143   -6.819845001882e-02
   144    3.205607042998e-13