[Molden Format]
[Atoms] (Angs)
  C      1    6     -0.00754183     -1.75895763      0.00000000
  H      2    1     -2.09769850     -1.41880678     -0.00000000
  H      3    1     -0.13527422     -2.83956838     -0.00000000
  H      4    1      0.04053511      2.02026369      0.00000000
  C      5    6     -1.22066484      0.39918184     -0.00000000
  O      6    8     -2.25210141      1.05663720     -0.00000000
  C      7    6      1.24009552      0.27789184      0.00000000
  O      8    8      2.33767996      1.06122493      0.00000000
  N      9    7      0.03634586      1.00852936      0.00000000
  N     10    7     -1.18738304     -0.97903470     -0.00000000
  C     11    6      1.22288875     -1.12258096      0.00000000
  H     12    1      2.15640383     -1.68445878      0.00000000
[GTO]
1    0
S    6    1.000000
   4.56324000E+03    1.96665000E-03 
   6.82024000E+02    1.52306000E-02 
   1.54973000E+02    7.61269000E-02 
   4.44553000E+01    2.60801000E-01 
   1.30290000E+01    6.16462000E-01 
   1.82773000E+00    2.21006000E-01 
SP   3    1.000000
   2.09642000E+01    1.14660000E-01   4.02487000E-02 
   4.80331000E+00    9.19999000E-01   2.37594000E-01 
   1.45933000E+00   -3.03068000E-03   8.15854000E-01 
SP   1    1.000000
   4.83456000E-01    1.00000000E+00   1.00000000E+00 
SP   1    1.000000
   1.45585000E-01    1.00000000E+00   1.00000000E+00 
SP   1    1.000000
   4.38000000E-02    1.00000000E+00   1.00000000E+00 
D    1    1.000000
   6.26000000E-01    1.00000000E+00 

2    0
S    3    1.000000
   3.38650000E+01    2.54938000E-02 
   5.09479000E+00    1.90373000E-01 
   1.15879000E+00    8.52161000E-01 
S    1    1.000000
   3.25840000E-01    1.00000000E+00 
S    1    1.000000
   1.02741000E-01    1.00000000E+00 
S    1    1.000000
   3.60000000E-02    1.00000000E+00 
P    1    1.000000
   7.50000000E-01    1.00000000E+00 

3    0
S    3    1.000000
   3.38650000E+01    2.54938000E-02 
   5.09479000E+00    1.90373000E-01 
   1.15879000E+00    8.52161000E-01 
S    1    1.000000
   3.25840000E-01    1.00000000E+00 
S    1    1.000000
   1.02741000E-01    1.00000000E+00 
S    1    1.000000
   3.60000000E-02    1.00000000E+00 
P    1    1.000000
   7.50000000E-01    1.00000000E+00 

4    0
S    3    1.000000
   3.38650000E+01    2.54938000E-02 
   5.09479000E+00    1.90373000E-01 
   1.15879000E+00    8.52161000E-01 
S    1    1.000000
   3.25840000E-01    1.00000000E+00 
S    1    1.000000
   1.02741000E-01    1.00000000E+00 
S    1    1.000000
   3.60000000E-02    1.00000000E+00 
P    1    1.000000
   7.50000000E-01    1.00000000E+00 

5    0
S    6    1.000000
   4.56324000E+03    1.96665000E-03 
   6.82024000E+02    1.52306000E-02 
   1.54973000E+02    7.61269000E-02 
   4.44553000E+01    2.60801000E-01 
   1.30290000E+01    6.16462000E-01 
   1.82773000E+00    2.21006000E-01 
SP   3    1.000000
   2.09642000E+01    1.14660000E-01   4.02487000E-02 
   4.80331000E+00    9.19999000E-01   2.37594000E-01 
   1.45933000E+00   -3.03068000E-03   8.15854000E-01 
SP   1    1.000000
   4.83456000E-01    1.00000000E+00   1.00000000E+00 
SP   1    1.000000
   1.45585000E-01    1.00000000E+00   1.00000000E+00 
SP   1    1.000000
   4.38000000E-02    1.00000000E+00   1.00000000E+00 
D    1    1.000000
   6.26000000E-01    1.00000000E+00 

6    0
S    6    1.000000
   8.58850000E+03    1.89515000E-03 
   1.29723000E+03    1.43859000E-02 
   2.99296000E+02    7.07320000E-02 
   8.73771000E+01    2.40001000E-01 
   2.56789000E+01    5.94797000E-01 
   3.74004000E+00    2.80802000E-01 
SP   3    1.000000
   4.21175000E+01    1.13889000E-01   3.65114000E-02 
   9.62837000E+00    9.20811000E-01   2.37153000E-01 
   2.85332000E+00   -3.27447000E-03   8.19702000E-01 
SP   1    1.000000
   9.05661000E-01    1.00000000E+00   1.00000000E+00 
SP   1    1.000000
   2.55611000E-01    1.00000000E+00   1.00000000E+00 
SP   1    1.000000
   8.45000000E-02    1.00000000E+00   1.00000000E+00 
D    1    1.000000
   1.29200000E+00    1.00000000E+00 

7    0
S    6    1.000000
   4.56324000E+03    1.96665000E-03 
   6.82024000E+02    1.52306000E-02 
   1.54973000E+02    7.61269000E-02 
   4.44553000E+01    2.60801000E-01 
   1.30290000E+01    6.16462000E-01 
   1.82773000E+00    2.21006000E-01 
SP   3    1.000000
   2.09642000E+01    1.14660000E-01   4.02487000E-02 
   4.80331000E+00    9.19999000E-01   2.37594000E-01 
   1.45933000E+00   -3.03068000E-03   8.15854000E-01 
SP   1    1.000000
   4.83456000E-01    1.00000000E+00   1.00000000E+00 
SP   1    1.000000
   1.45585000E-01    1.00000000E+00   1.00000000E+00 
SP   1    1.000000
   4.38000000E-02    1.00000000E+00   1.00000000E+00 
D    1    1.000000
   6.26000000E-01    1.00000000E+00 

8    0
S    6    1.000000
   8.58850000E+03    1.89515000E-03 
   1.29723000E+03    1.43859000E-02 
   2.99296000E+02    7.07320000E-02 
   8.73771000E+01    2.40001000E-01 
   2.56789000E+01    5.94797000E-01 
   3.74004000E+00    2.80802000E-01 
SP   3    1.000000
   4.21175000E+01    1.13889000E-01   3.65114000E-02 
   9.62837000E+00    9.20811000E-01   2.37153000E-01 
   2.85332000E+00   -3.27447000E-03   8.19702000E-01 
SP   1    1.000000
   9.05661000E-01    1.00000000E+00   1.00000000E+00 
SP   1    1.000000
   2.55611000E-01    1.00000000E+00   1.00000000E+00 
SP   1    1.000000
   8.45000000E-02    1.00000000E+00   1.00000000E+00 
D    1    1.000000
   1.29200000E+00    1.00000000E+00 

9    0
S    6    1.000000
   6.29348000E+03    1.96979000E-03 
   9.49044000E+02    1.49613000E-02 
   2.18776000E+02    7.35006000E-02 
   6.36916000E+01    2.48937000E-01 
   1.88282000E+01    6.02460000E-01 
   2.72023000E+00    2.56202000E-01 
SP   3    1.000000
   3.06331000E+01    1.11906000E-01   3.83119000E-02 
   7.02614000E+00    9.21666000E-01   2.37403000E-01 
   2.11205000E+00   -2.56919000E-03   8.17592000E-01 
SP   1    1.000000
   6.84009000E-01    1.00000000E+00   1.00000000E+00 
SP   1    1.000000
   2.00878000E-01    1.00000000E+00   1.00000000E+00 
SP   1    1.000000
   6.39000000E-02    1.00000000E+00   1.00000000E+00 
D    1    1.000000
   9.13000000E-01    1.00000000E+00 

10    0
S    6    1.000000
   6.29348000E+03    1.96979000E-03 
   9.49044000E+02    1.49613000E-02 
   2.18776000E+02    7.35006000E-02 
   6.36916000E+01    2.48937000E-01 
   1.88282000E+01    6.02460000E-01 
   2.72023000E+00    2.56202000E-01 
SP   3    1.000000
   3.06331000E+01    1.11906000E-01   3.83119000E-02 
   7.02614000E+00    9.21666000E-01   2.37403000E-01 
   2.11205000E+00   -2.56919000E-03   8.17592000E-01 
SP   1    1.000000
   6.84009000E-01    1.00000000E+00   1.00000000E+00 
SP   1    1.000000
   2.00878000E-01    1.00000000E+00   1.00000000E+00 
SP   1    1.000000
   6.39000000E-02    1.00000000E+00   1.00000000E+00 
D    1    1.000000
   9.13000000E-01    1.00000000E+00 

11    0
S    6    1.000000
   4.56324000E+03    1.96665000E-03 
   6.82024000E+02    1.52306000E-02 
   1.54973000E+02    7.61269000E-02 
   4.44553000E+01    2.60801000E-01 
   1.30290000E+01    6.16462000E-01 
   1.82773000E+00    2.21006000E-01 
SP   3    1.000000
   2.09642000E+01    1.14660000E-01   4.02487000E-02 
   4.80331000E+00    9.19999000E-01   2.37594000E-01 
   1.45933000E+00   -3.03068000E-03   8.15854000E-01 
SP   1    1.000000
   4.83456000E-01    1.00000000E+00   1.00000000E+00 
SP   1    1.000000
   1.45585000E-01    1.00000000E+00   1.00000000E+00 
SP   1    1.000000
   4.38000000E-02    1.00000000E+00   1.00000000E+00 
D    1    1.000000
   6.26000000E-01    1.00000000E+00 

12    0
S    3    1.000000
   3.38650000E+01    2.54938000E-02 
   5.09479000E+00    1.90373000E-01 
   1.15879000E+00    8.52161000E-01 
S    1    1.000000
   3.25840000E-01    1.00000000E+00 
S    1    1.000000
   1.02741000E-01    1.00000000E+00 
S    1    1.000000
   3.60000000E-02    1.00000000E+00 
P    1    1.000000
   7.50000000E-01    1.00000000E+00 

[MO]
Sym=X
Ene= 2.013588
Spin=Alpha
Occup=1
     1   -1.392170647384e-14
     2   -1.353652324631e-14
     3    1.806535617371e-14
     4   -7.805449225060e-15
     5   -6.062437073359e-02
     6   -4.380280752073e-15
     7    3.956675241942e-14
     8   -2.242652017125e-14
     9   -1.035239460743e-01
    10   -5.827351652167e-14
    11   -2.392315612191e-13
    12    3.641996945268e-14
    13   -1.035253484501e-01
    14    8.834805193085e-12
    15    2.275239836892e-12
    16    2.134697165525e-12
    17   -7.693463872427e-03
    18   -3.746115326782e-15
    19   -1.519025465325e-02
    20   -6.717343361252e-03
    21    8.964332605524e-15
    22    1.362027446524e-15
    23   -7.389026659943e-15
    24   -1.196435732700e-14
    25   -4.872013271966e-13
    26   -9.518014012324e-13
    27   -8.311684070350e-15
    28   -5.240192299951e-15
    29    3.888000719423e-03
    30   -2.827395085453e-16
    31    5.666430112890e-14
    32   -1.530164932752e-13
    33    9.765924549099e-13
    34    3.779123187922e-15
    35    7.321315133489e-15
    36   -4.720848548098e-03
    37    7.372821322609e-15
    38   -3.903133453590e-16
    39   -8.823889802447e-13
    40    9.112600506901e-13
    41   -1.766970096359e-15
    42   -8.152404659938e-15
    43   -3.287397815191e-03
    44   -1.192461051237e-14
    45   -9.636668404256e-15
    46    1.932070232650e-14
    47   -3.375211526541e-14
    48    3.486703339866e-03
    49   -1.558626082952e-14
    50    4.583795349066e-14
    51   -2.351550169927e-14
    52    8.790121535374e-03
    53    6.507911652799e-13
    54   -3.934773728690e-13
    55   -4.264806133858e-13
    56    4.023942768032e-04
    57    6.322395040482e-13
    58   -5.892514205923e-13
    59   -1.260979545985e-12
    60   -1.487511003577e-02
    61   -1.252835759429e-14
    62   -7.882518363349e-03
    63   -7.627033794352e-03
    64   -1.972500948581e-16
    65    5.889583353886e-15
    66   -3.441116202238e-14
    67   -1.727448428354e-14
    68   -2.636056207808e-14
    69   -3.527468729403e-15
    70    5.375698871577e-03
    71   -6.802016243672e-14
    72   -4.834178309449e-14
    73   -2.536800539627e-14
    74    8.563777223495e-03
    75   -1.068483015445e-13
    76   -1.219789248565e-13
    77    4.194794777146e-14
    78    5.634058127292e-03
    79   -3.908024586077e-13
    80    1.773983451858e-14
    81    4.183186144191e-13
    82    8.870379351332e-03
    83    2.378846867039e-15
    84    3.647006033928e-04
    85   -6.039260138916e-04
    86   -3.741509057759e-15
    87    1.358881496897e-15
    88   -4.716789037581e-14
    89   -3.925691767945e-14
    90    8.180730083948e-15
    91    8.415578554434e-16
    92    2.630351134746e-02
    93    1.353789354881e-14
    94   -4.356638430948e-15
    95    1.745195405135e-14
    96    4.853578857217e-02
    97   -1.273464866449e-13
    98    1.121719846806e-14
    99   -4.234684196658e-13
   100    5.093356730678e-02
   101   -6.485211747719e-12
   102    1.740759390958e-12
   103    7.571773668843e-14
   104    2.836865628134e-02
   105    1.565862194834e-14
   106    3.567333251945e-02
   107    2.930850701447e-02
   108   -3.764257772158e-15
   109    1.083493740971e-14
   110    1.230244108493e-14
   111    1.937555266597e-14
   112   -2.582725877857e-14
   113   -2.450349977070e-14
   114    3.574625040011e-01
   115   -7.072889559289e-14
   116   -5.386551674555e-14
   117    1.056477233672e-14
   118    4.089894957967e-01
   119    1.939388190728e-14
   120   -2.358565711254e-14
   121   -7.458955616051e-14
   122    2.844847880725e-01
   123    2.648544476380e-14
   124   -1.846788579208e-13
   125   -4.629776002812e-14
   126    2.955050169744e-02
   127    1.494112904303e-15
   128   -1.505493906061e-02
   129   -1.030277565374e-02
   130    3.185709675561e-15
   131   -7.073172972142e-18
   132    1.298673517485e-15
   133   -5.992765134185e-15
   134   -3.646558786605e-14
   135    1.760449428354e-14
   136   -4.759120361544e-02
   137    3.970637719348e-14
   138   -2.809356944339e-14
   139    2.276028379705e-14
   140   -7.628486244539e-02
   141   -1.075047650238e-13
   142   -1.553691393348e-13
   143    5.195121075343e-14
   144   -9.052986703719e-02
   145    6.299413184754e-12
   146    3.788874503929e-13
   147   -6.536136595780e-13
   148   -2.179274074935e-02
   149    8.722193546639e-15
   150    1.620093271265e-03
   151    1.020641619547e-03
   152   -2.200997986058e-15
   153   -2.988988483606e-15
   154    7.057943124072e-14
   155    5.592277002312e-14
   156   -1.657423148891e-15
   157    9.411950174085e-15
   158    3.313524303886e-02
   159    1.052206876736e-14
   160   -1.343130524288e-14
   161    3.302022914115e-14
   162    5.263656006398e-02
   163    1.550063000778e-13
   164    3.815236927935e-14
   165   -1.751154258726e-13
   166    7.639335811495e-02
   167   -4.095625284828e-12
   168   -1.753050995712e-12
   169   -1.234880205150e-12
   170    3.288239316215e-02
   171   -7.567596763282e-15
   172   -4.478239491608e-03
   173    3.557606525984e-03
   174   -8.581473551119e-15
   175    5.229080870219e-15
   176    1.027039828453e-15
   177   -3.828043119392e-15
   178   -2.274475237609e-14
   179   -3.584232377427e-14
   180   -7.739430216580e-02
   181    2.488216388987e-14
   182   -1.168658104423e-14
   183   -4.187196577509e-14
   184   -1.317968883803e-01
   185   -2.658746026427e-13
   186   -4.127954506221e-13
   187   -3.975999023146e-13
   188   -1.474725003266e-01
   189   -5.386200844968e-12
   190    7.789797406974e-13
   191    2.131071955286e-12
   192   -1.874183586671e-02
   193   -4.884558252830e-15
   194    1.238524960373e-02
   195    3.887817905163e-03
   196    9.981955879649e-16
   197   -4.963288183964e-15
   198    2.809899028361e-14
   199    2.761476844228e-14
   200    6.808704283926e-13
   201    2.438001151507e-13
   202    5.626628510176e-15
   203   -4.329184974238e-15
   204   -5.348595105314e-03
Sym=X
Ene= 2.003898
Spin=Alpha
Occup=1
     1   -6.691189195343e-14
     2   -6.922607545481e-14
     3   -1.080892077994e-13
     4   -1.298180688871e-14
     5   -2.948843092443e-02
     6    8.063269151434e-14
     7   -1.714196727401e-13
     8    6.700286331454e-16
     9   -5.289484954746e-02
    10   -3.879864548690e-13
    11   -1.297206875553e-14
    12   -4.598453519690e-13
    13   -1.654926468322e-02
    14   -1.465722035062e-11
    15   -3.191728305950e-12
    16   -3.224279743646e-12
    17    2.092946919895e-04
    18   -4.379280030609e-15
    19    2.152514555649e-02
    20   -7.888157928973e-03
    21   -1.592070049886e-14
    22   -8.350590338481e-15
    23    6.812203466583e-15
    24   -3.146342775984e-14
    25    7.228251507552e-13
    26   -2.802214533711e-13
    27    5.581746285696e-15
    28    3.050086336227e-15
    29   -1.384260184766e-02
    30    3.799389869201e-14
    31    1.473128446634e-15
    32   -2.055266147345e-13
    33   -9.966466415734e-13
    34   -9.084624127638e-15
    35    1.443026451146e-15
    36   -2.327805550347e-03
    37   -1.199159457505e-14
    38    1.219264874090e-13
    39   -9.232697000219e-13
    40    3.074230394426e-13
    41    1.804857651031e-15
    42    3.544380176189e-15
    43    1.369925582201e-02
    44   -7.072842223447e-14
    45   -4.058793052333e-14
    46    2.649468810950e-14
    47   -1.205871743308e-14
    48   -1.860444746749e-02
    49   -8.833333883325e-14
    50    2.630215078203e-14
    51   -1.695183923893e-14
    52   -3.368605850772e-02
    53   -1.740626519557e-13
    54   -2.949977640329e-13
    55    1.517370787878e-13
    56   -1.852266237946e-02
    57    2.890124422315e-12
    58    3.085327396944e-13
    59   -1.320393881597e-12
    60    5.330632096510e-04
    61    1.394551797726e-14
    62    2.390651936401e-02
    63    2.604761022595e-02
    64    1.583560292410e-14
    65    1.356697319045e-14
    66   -7.766835628863e-14
    67   -2.496104620811e-14
    68   -4.610697443943e-14
    69   -6.519460966882e-14
    70   -3.058725047099e-02
    71   -2.395082409151e-13
    72   -7.461774472103e-14
    73   -9.225866717067e-14
    74   -4.812399375191e-02
    75   -2.578606284616e-13
    76   -7.508062264098e-14
    77   -1.151372831196e-13
    78   -4.253962607869e-02
    79   -3.050764458023e-13
    80   -1.315454933160e-13
    81    1.607095246342e-13
    82   -2.961182650065e-03
    83    1.932290536451e-15
    84   -2.802562644831e-03
    85    2.440991603558e-03
    86   -7.420265673572e-15
    87    7.424946338622e-16
    88   -1.965334543479e-14
    89   -5.116847439394e-14
    90   -1.742859496114e-14
    91   -9.947481475019e-14
    92    9.673670616611e-02
    93    1.907572139677e-13
    94   -8.684856735843e-15
    95   -1.623592869682e-13
    96    1.740928473780e-01
    97   -2.122944545007e-13
    98    4.117033266658e-14
    99    1.088554898283e-13
   100    9.604717212692e-02
   101   -8.109433320685e-13
   102    1.707468570795e-12
   103   -1.182893511780e-12
   104    2.013251746743e-02
   105   -3.350499909274e-15
   106   -1.511864170184e-02
   107    1.245718850248e-02
   108   -4.066127065285e-14
   109    1.326262621341e-14
   110   -7.160012640413e-15
   111   -1.042469297792e-14
   112   -9.432753627741e-14
   113    2.150428645790e-13
   114    5.347725033804e-02
   115    3.747797925383e-14
   116   -1.118043735150e-13
   117    2.502231117302e-13
   118    6.586417480205e-02
   119    2.164252623039e-15
   120   -7.678151985057e-14
   121    1.624982087213e-13
   122    3.523692259652e-02
   123   -7.238361787001e-14
   124   -1.667188980085e-14
   125   -1.013814773298e-14
   126   -2.035790357427e-02
   127    1.551504057127e-15
   128   -8.700169983758e-03
   129   -5.586474379007e-03
   130    4.132051891020e-15
   131   -4.308627818132e-15
   132    7.213711094686e-14
   133    6.892689623294e-14
   134   -2.460594495973e-14
   135    1.118913645661e-15
   136    1.719777201982e-01
   137   -6.127934077189e-14
   138   -2.633498316291e-14
   139   -7.007157614974e-16
   140    2.824908646786e-01
   141    2.023163940894e-13
   142   -1.279497860735e-13
   143   -1.135523090998e-13
   144    2.784722695659e-01
   145    1.031710764988e-12
   146    4.219164729860e-13
   147    1.412399105560e-12
   148    1.351123149541e-02
   149   -2.435834009488e-15
   150    8.554733231574e-03
   151   -7.703501628452e-03
   152   -1.510149416653e-15
   153   -3.910300685116e-15
   154    3.305749657877e-14
   155    1.009857225998e-14
   156    5.714344706233e-14
   157   -5.511496232897e-14
   158   -1.580311077386e-01
   159    8.264852646817e-14
   160    7.649684340942e-14
   161   -9.893325119791e-14
   162   -2.591292709644e-01
   163    3.025777926024e-13
   164    2.607490590277e-13
   165    1.593077591583e-14
   166   -2.623448163538e-01
   167    2.686516101365e-13
   168    1.321759875192e-12
   169    5.322542547673e-13
   170   -2.874781955825e-02
   171   -1.055068044567e-14
   172   -4.091277450992e-03
   173   -2.589897919680e-03
   174   -2.941793334676e-15
   175   -7.940138912506e-15
   176    1.223028159958e-13
   177    1.120431113991e-13
   178   -1.262277004806e-14
   179    1.530385041367e-13
   180    3.798517836570e-02
   181   -5.519672432039e-14
   182   -2.891740550079e-14
   183    2.135460409398e-13
   184    6.631761762593e-02
   185    1.754886544670e-13
   186   -3.178173830312e-13
   187    4.167601308429e-13
   188    5.631689294716e-02
   189    1.177147790738e-11
   190   -4.965724471594e-12
   191   -1.398240485142e-12
   192   -3.120659377990e-03
   193    2.599552034151e-15
   194    8.464335799993e-04
   195    1.270048745091e-02
   196   -2.244507408758e-14
   197    4.204051597652e-15
   198   -9.106240245896e-14
   199   -4.541485230195e-14
   200    2.912817536841e-13
   201    1.152358255631e-12
   202    1.511011442088e-15
   203    3.471142787603e-15
   204    3.143352450965e-03
Sym=X
Ene= 2.002913
Spin=Alpha
Occup=1
     1    9.005934572828e-03
     2    1.502469142249e-02
     3   -3.287889211652e-02
     4   -1.876357765437e-02
     5    6.843343153531e-15
     6   -4.126632460975e-02
     7   -5.471533562209e-02
     8   -3.065004734037e-02
     9    1.101238509801e-14
    10   -6.700710524923e-02
    11   -3.914773487355e-02
    12   -4.988458630958e-02
    13   -1.610224650440e-14
    14   -2.594625880585e-01
    15   -6.941178347347e-02
    16   -6.209285533591e-02
    17   -8.600795813282e-14
    18    5.176428371558e-04
    19   -2.575419821724e-14
    20    2.203562288634e-15
    21   -5.710385398621e-03
    22   -4.658970546806e-04
    23    2.015714813244e-03
    24    3.368813894789e-03
    25    7.101049359917e-03
    26    1.471079141618e-03
    27    5.081889576303e-04
    28    2.832761355969e-04
    29    1.857898193938e-14
    30    1.246102304243e-02
    31    1.602942425503e-02
    32    4.908927702685e-03
    33   -2.526657685391e-02
    34   -1.435312586940e-03
    35   -1.319696005579e-04
    36    1.007981866659e-14
    37   -2.229733805121e-03
    38    1.898353502840e-03
    39    1.056997697394e-02
    40   -4.187673566358e-02
    41   -3.728366834977e-04
    42    1.315152259193e-03
    43   -2.217690401637e-15
    44   -8.471362686075e-03
    45   -1.406566575092e-02
    46    2.764454479618e-02
    47    1.384867830841e-02
    48    9.205617902459e-15
    49    3.881773511318e-02
    50    4.700240835990e-02
    51    2.385682450573e-02
    52    7.048164500717e-14
    53    5.702164805250e-02
    54    2.938026747643e-02
    55   -1.396096970756e-02
    56   -1.745495007617e-13
    57    4.527139421961e-02
    58    5.850588799946e-03
    59    1.198891437887e-02
    60   -1.305821984996e-13
    61   -9.851596288800e-04
    62    7.910125388273e-15
    63   -5.472390318943e-14
    64    7.763132370656e-03
    65    1.119032601620e-02
    66    1.624247524303e-03
    67    2.728555474031e-03
    68   -2.105712154526e-02
    69   -1.761722921179e-02
    70   -5.127308220696e-14
    71   -7.881434861390e-03
    72   -3.144129805682e-02
    73   -2.762590836023e-02
    74   -5.507953877103e-14
    75   -2.254876258244e-03
    76   -3.197608048657e-02
    77   -3.172975836086e-02
    78   -2.777687038147e-14
    79    1.892806464138e-02
    80    6.060857825241e-03
    81   -2.713148751460e-03
    82    1.364533592152e-13
    83    2.715036575437e-04
    84   -4.517761913301e-15
    85   -1.395972156302e-15
    86   -5.609899499410e-04
    87    1.811928116787e-04
    88   -2.895243434754e-03
    89   -5.540417539675e-03
    90    1.504666757637e-02
    91   -6.247407569216e-02
    92   -6.870881154986e-14
    93    1.753542086478e-02
    94    2.299808180893e-02
    95   -1.090454274683e-01
    96   -1.225146972165e-13
    97    6.631276645182e-03
    98   -2.524962323277e-02
    99    3.571483278058e-02
   100   -1.307170181192e-13
   101   -3.934055409283e-01
   102   -3.397874820266e-02
   103    1.846604094806e-01
   104    1.196587882878e-13
   105    1.195090874946e-03
   106    8.607926060465e-17
   107   -3.301159052660e-15
   108   -4.669893690636e-02
   109    1.823850005011e-02
   110   -2.432372921045e-03
   111   -3.595273730101e-03
   112   -1.909309777638e-01
   113    3.163426081461e-01
   114   -4.476874175066e-14
   115    1.236005946780e-02
   116   -2.184342023464e-01
   117    3.621617339331e-01
   118   -9.645419459344e-14
   119    1.437097614108e-02
   120   -1.654633729700e-01
   121    2.583030514214e-01
   122    3.395498768666e-14
   123   -5.781215385633e-03
   124    2.951142857413e-03
   125    2.359156829620e-03
   126   -1.124201915388e-13
   127    9.561373709229e-04
   128    6.968468098702e-15
   129    7.374900242066e-15
   130    1.044537549503e-02
   131   -6.107319272311e-03
   132    1.320315114711e-02
   133    2.178157210274e-02
   134   -6.923665193734e-02
   135    9.274093028968e-03
   136   -8.626027360226e-14
   137   -5.894986961989e-02
   138   -1.117393538362e-01
   139    1.070242638735e-02
   140   -1.438299304194e-13
   141   -1.077076290528e-01
   142   -9.413199315714e-02
   143    2.738537495026e-02
   144   -7.531081257516e-14
   145   -1.140709117730e-01
   146    5.031820771397e-02
   147    1.668360677127e-02
   148   -4.571461544151e-15
   149   -8.428887825375e-05
   150   -6.427109084052e-15
   151    6.943094061142e-15
   152   -2.067961763074e-03
   153    3.895700012697e-03
   154    2.070413850274e-03
   155    3.401948855668e-03
   156    1.073435908343e-03
   157   -1.304782352720e-02
   158    1.427502998506e-13
   159   -8.816313348839e-03
   160    1.863771182114e-03
   161   -1.979343877732e-02
   162    2.267845978989e-13
   163   -2.575102508643e-02
   164    7.549476642177e-03
   165   -2.786378808560e-02
   166    2.811160095521e-13
   167    1.054340860973e-02
   168    5.341304352544e-03
   169    2.880616656399e-02
   170    1.242153899469e-13
   171   -2.644746933445e-04
   172    2.619443929087e-15
   173    5.201693590688e-15
   174   -2.273570408933e-03
   175    5.146978291788e-04
   176   -1.749061678333e-02
   177   -2.826249088166e-02
   178    3.300573896292e-02
   179    6.106231706807e-02
   180   -5.913080995946e-14
   181    6.917795174958e-02
   182    5.612859376318e-02
   183    8.649389713202e-02
   184   -1.066430908860e-13
   185    1.639223599428e-01
   186   -3.035595848271e-03
   187    8.370364005340e-02
   188   -9.434090749645e-14
   189    6.902970519302e-01
   190   -9.324870411619e-02
   191    7.653238628840e-02
   192    3.682899077966e-14
   193   -1.250363074583e-03
   194    4.859918395958e-15
   195    1.450336278845e-15
   196   -5.291797978888e-03
   197   -6.727544704220e-04
   198    1.207504682040e-02
   199    1.626218540677e-02
   200    7.236846857303e-03
   201    3.681790132794e-02
   202   -1.197031798949e-03
   203    1.745627939089e-03
   204   -8.988650984613e-15
Sym=X
Ene= 2.001881
Spin=Alpha
Occup=1
     1   -4.699281515067e-03
     2   -7.903145908334e-03
     3   -9.022432156730e-03
     4    2.550459173773e-02
     5   -2.028040189666e-14
     6    1.952188054344e-02
     7   -1.550893990101e-02
     8    4.102004879085e-02
     9   -4.566646315481e-14
    10    2.445136874268e-02
    11   -1.368487525031e-02
    12    3.434839710538e-02
    13   -1.307626516601e-13
    14    1.417032642981e-02
    15   -2.225078403386e-02
    16    7.812594131223e-03
    17   -7.907806551862e-15
    18   -1.973292723167e-03
    19   -6.360063805250e-14
    20    8.955183082541e-15
    21    5.390073944407e-03
    22    1.822090928004e-03
    23    1.126679124629e-02
    24    3.005252705463e-02
    25    2.379619095789e-02
    26   -3.630272408560e-02
    27    2.867986093027e-03
    28    2.059767094883e-03
    29    2.956418648686e-14
    30   -1.660373769033e-02
    31   -2.608035097867e-02
    32   -2.244425662752e-03
    33   -2.585126464054e-03
    34   -4.490775871203e-04
    35   -1.606072679484e-03
    36   -1.754473996717e-15
    37   -1.391949894562e-02
    38   -2.267095031167e-02
    39   -2.269120712807e-02
    40    2.659523474844e-02
    41    3.693448612337e-03
    42    3.746908573250e-03
    43    1.131935738885e-14
    44    1.425739197479e-02
    45    2.294858049370e-02
    46   -2.323046401237e-02
    47   -4.866953602583e-03
    48   -1.483316406354e-14
    49   -6.355651487576e-02
    50   -3.861267867044e-02
    51   -2.359622990271e-03
    52    1.934124891018e-14
    53   -4.556354040547e-02
    54   -8.539399341694e-02
    55   -1.029229847360e-01
    56   -8.330665925433e-14
    57    4.926732421486e-04
    58   -6.042480030223e-02
    59   -8.867470953206e-02
    60   -8.136136863440e-14
    61    2.353793972047e-03
    62    1.039679334606e-13
    63   -8.785975701247e-14
    64    6.161260015131e-02
    65    2.257734324986e-02
    66   -6.107349671254e-03
    67   -1.025606128731e-02
    68   -1.209335217204e-01
    69   -1.866917138224e-01
    70   -3.336987190859e-13
    71    2.973649492419e-02
    72   -1.878957129013e-01
    73   -2.881993836551e-01
    74   -5.203500921316e-13
    75    2.535757110243e-02
    76   -1.675625751589e-01
    77   -2.616420751866e-01
    78   -5.209660781118e-13
    79   -2.326038423856e-03
    80   -5.509385190835e-03
    81   -1.291128128548e-02
    82   -5.073052413290e-14
    83    2.430749602734e-04
    84   -2.030117756696e-14
    85    1.312530428028e-14
    86   -1.405343934908e-02
    87   -6.281642142721e-03
    88    1.237400029447e-02
    89    1.931189988843e-02
    90   -7.464648637771e-02
    91   -4.262186234056e-02
    92   -4.523753897004e-14
    93   -4.977596970123e-02
    94   -1.300949420036e-01
    95   -7.665046069179e-02
    96   -7.792068438369e-14
    97   -8.889944747349e-02
    98   -1.534679195657e-02
    99   -2.370925639380e-02
   100   -7.244103148468e-14
   101   -9.410493060554e-02
   102    2.811550988430e-02
   103    1.166178116492e-02
   104    1.023581157003e-14
   105    4.806571916982e-03
   106   -3.196379697124e-14
   107    3.569733125974e-14
   108    1.226671631740e-03
   109   -2.203057288852e-02
   110    1.027490710156e-02
   111    1.452158144874e-02
   112    1.501432721259e-01
   113    6.703644368223e-02
   114   -7.773577143350e-14
   115   -4.521969176695e-02
   116    1.741581187282e-01
   117    7.787419246450e-02
   118   -8.948708110578e-14
   119    3.407246895119e-02
   120    8.572305983685e-02
   121    2.966066733036e-02
   122   -5.322588253757e-14
   123    2.976290614673e-02
   124   -2.983267411682e-03
   125   -6.250488504651e-03
   126    8.845915408209e-15
   127    6.626635252739e-03
   128    6.141930660854e-15
   129    5.247886010883e-15
   130   -5.006359283455e-03
   131   -1.070836772443e-02
   132   -1.780810548487e-02
   133   -3.001207114615e-02
   134    9.388609273628e-03
   135   -4.056310773750e-02
   136    2.014748967945e-13
   137    8.052137028950e-02
   138    1.984810228766e-02
   139   -5.495770092540e-02
   140    3.232739842866e-13
   141    1.879750849998e-01
   142   -3.521620376819e-02
   143   -6.679919794290e-02
   144    3.776122024286e-13