[Molden Format]
[Atoms] (Angs)
  C      1    6     -0.00754183     -1.75895763      0.00000000
  H      2    1     -2.09769850     -1.41880678     -0.00000000
  H      3    1     -0.13527422     -2.83956838     -0.00000000
  H      4    1      0.04053511      2.02026369      0.00000000
  C      5    6     -1.22066484      0.39918184     -0.00000000
  O      6    8     -2.25210141      1.05663720     -0.00000000
  C      7    6      1.24009552      0.27789184      0.00000000
  O      8    8      2.33767996      1.06122493      0.00000000
  N      9    7      0.03634586      1.00852936      0.00000000
  N     10    7     -1.18738304     -0.97903470     -0.00000000
  C     11    6      1.22288875     -1.12258096      0.00000000
  H     12    1      2.15640383     -1.68445878      0.00000000
[GTO]
1    0
S    6    1.000000
   4.56324000E+03    1.96665000E-03 
   6.82024000E+02    1.52306000E-02 
   1.54973000E+02    7.61269000E-02 
   4.44553000E+01    2.60801000E-01 
   1.30290000E+01    6.16462000E-01 
   1.82773000E+00    2.21006000E-01 
SP   3    1.000000
   2.09642000E+01    1.14660000E-01   4.02487000E-02 
   4.80331000E+00    9.19999000E-01   2.37594000E-01 
   1.45933000E+00   -3.03068000E-03   8.15854000E-01 
SP   1    1.000000
   4.83456000E-01    1.00000000E+00   1.00000000E+00 
SP   1    1.000000
   1.45585000E-01    1.00000000E+00   1.00000000E+00 
SP   1    1.000000
   4.38000000E-02    1.00000000E+00   1.00000000E+00 
D    1    1.000000
   6.26000000E-01    1.00000000E+00 

2    0
S    3    1.000000
   3.38650000E+01    2.54938000E-02 
   5.09479000E+00    1.90373000E-01 
   1.15879000E+00    8.52161000E-01 
S    1    1.000000
   3.25840000E-01    1.00000000E+00 
S    1    1.000000
   1.02741000E-01    1.00000000E+00 
S    1    1.000000
   3.60000000E-02    1.00000000E+00 
P    1    1.000000
   7.50000000E-01    1.00000000E+00 

3    0
S    3    1.000000
   3.38650000E+01    2.54938000E-02 
   5.09479000E+00    1.90373000E-01 
   1.15879000E+00    8.52161000E-01 
S    1    1.000000
   3.25840000E-01    1.00000000E+00 
S    1    1.000000
   1.02741000E-01    1.00000000E+00 
S    1    1.000000
   3.60000000E-02    1.00000000E+00 
P    1    1.000000
   7.50000000E-01    1.00000000E+00 

4    0
S    3    1.000000
   3.38650000E+01    2.54938000E-02 
   5.09479000E+00    1.90373000E-01 
   1.15879000E+00    8.52161000E-01 
S    1    1.000000
   3.25840000E-01    1.00000000E+00 
S    1    1.000000
   1.02741000E-01    1.00000000E+00 
S    1    1.000000
   3.60000000E-02    1.00000000E+00 
P    1    1.000000
   7.50000000E-01    1.00000000E+00 

5    0
S    6    1.000000
   4.56324000E+03    1.96665000E-03 
   6.82024000E+02    1.52306000E-02 
   1.54973000E+02    7.61269000E-02 
   4.44553000E+01    2.60801000E-01 
   1.30290000E+01    6.16462000E-01 
   1.82773000E+00    2.21006000E-01 
SP   3    1.000000
   2.09642000E+01    1.14660000E-01   4.02487000E-02 
   4.80331000E+00    9.19999000E-01   2.37594000E-01 
   1.45933000E+00   -3.03068000E-03   8.15854000E-01 
SP   1    1.000000
   4.83456000E-01    1.00000000E+00   1.00000000E+00 
SP   1    1.000000
   1.45585000E-01    1.00000000E+00   1.00000000E+00 
SP   1    1.000000
   4.38000000E-02    1.00000000E+00   1.00000000E+00 
D    1    1.000000
   6.26000000E-01    1.00000000E+00 

6    0
S    6    1.000000
   8.58850000E+03    1.89515000E-03 
   1.29723000E+03    1.43859000E-02 
   2.99296000E+02    7.07320000E-02 
   8.73771000E+01    2.40001000E-01 
   2.56789000E+01    5.94797000E-01 
   3.74004000E+00    2.80802000E-01 
SP   3    1.000000
   4.21175000E+01    1.13889000E-01   3.65114000E-02 
   9.62837000E+00    9.20811000E-01   2.37153000E-01 
   2.85332000E+00   -3.27447000E-03   8.19702000E-01 
SP   1    1.000000
   9.05661000E-01    1.00000000E+00   1.00000000E+00 
SP   1    1.000000
   2.55611000E-01    1.00000000E+00   1.00000000E+00 
SP   1    1.000000
   8.45000000E-02    1.00000000E+00   1.00000000E+00 
D    1    1.000000
   1.29200000E+00    1.00000000E+00 

7    0
S    6    1.000000
   4.56324000E+03    1.96665000E-03 
   6.82024000E+02    1.52306000E-02 
   1.54973000E+02    7.61269000E-02 
   4.44553000E+01    2.60801000E-01 
   1.30290000E+01    6.16462000E-01 
   1.82773000E+00    2.21006000E-01 
SP   3    1.000000
   2.09642000E+01    1.14660000E-01   4.02487000E-02 
   4.80331000E+00    9.19999000E-01   2.37594000E-01 
   1.45933000E+00   -3.03068000E-03   8.15854000E-01 
SP   1    1.000000
   4.83456000E-01    1.00000000E+00   1.00000000E+00 
SP   1    1.000000
   1.45585000E-01    1.00000000E+00   1.00000000E+00 
SP   1    1.000000
   4.38000000E-02    1.00000000E+00   1.00000000E+00 
D    1    1.000000
   6.26000000E-01    1.00000000E+00 

8    0
S    6    1.000000
   8.58850000E+03    1.89515000E-03 
   1.29723000E+03    1.43859000E-02 
   2.99296000E+02    7.07320000E-02 
   8.73771000E+01    2.40001000E-01 
   2.56789000E+01    5.94797000E-01 
   3.74004000E+00    2.80802000E-01 
SP   3    1.000000
   4.21175000E+01    1.13889000E-01   3.65114000E-02 
   9.62837000E+00    9.20811000E-01   2.37153000E-01 
   2.85332000E+00   -3.27447000E-03   8.19702000E-01 
SP   1    1.000000
   9.05661000E-01    1.00000000E+00   1.00000000E+00 
SP   1    1.000000
   2.55611000E-01    1.00000000E+00   1.00000000E+00 
SP   1    1.000000
   8.45000000E-02    1.00000000E+00   1.00000000E+00 
D    1    1.000000
   1.29200000E+00    1.00000000E+00 

9    0
S    6    1.000000
   6.29348000E+03    1.96979000E-03 
   9.49044000E+02    1.49613000E-02 
   2.18776000E+02    7.35006000E-02 
   6.36916000E+01    2.48937000E-01 
   1.88282000E+01    6.02460000E-01 
   2.72023000E+00    2.56202000E-01 
SP   3    1.000000
   3.06331000E+01    1.11906000E-01   3.83119000E-02 
   7.02614000E+00    9.21666000E-01   2.37403000E-01 
   2.11205000E+00   -2.56919000E-03   8.17592000E-01 
SP   1    1.000000
   6.84009000E-01    1.00000000E+00   1.00000000E+00 
SP   1    1.000000
   2.00878000E-01    1.00000000E+00   1.00000000E+00 
SP   1    1.000000
   6.39000000E-02    1.00000000E+00   1.00000000E+00 
D    1    1.000000
   9.13000000E-01    1.00000000E+00 

10    0
S    6    1.000000
   6.29348000E+03    1.96979000E-03 
   9.49044000E+02    1.49613000E-02 
   2.18776000E+02    7.35006000E-02 
   6.36916000E+01    2.48937000E-01 
   1.88282000E+01    6.02460000E-01 
   2.72023000E+00    2.56202000E-01 
SP   3    1.000000
   3.06331000E+01    1.11906000E-01   3.83119000E-02 
   7.02614000E+00    9.21666000E-01   2.37403000E-01 
   2.11205000E+00   -2.56919000E-03   8.17592000E-01 
SP   1    1.000000
   6.84009000E-01    1.00000000E+00   1.00000000E+00 
SP   1    1.000000
   2.00878000E-01    1.00000000E+00   1.00000000E+00 
SP   1    1.000000
   6.39000000E-02    1.00000000E+00   1.00000000E+00 
D    1    1.000000
   9.13000000E-01    1.00000000E+00 

11    0
S    6    1.000000
   4.56324000E+03    1.96665000E-03 
   6.82024000E+02    1.52306000E-02 
   1.54973000E+02    7.61269000E-02 
   4.44553000E+01    2.60801000E-01 
   1.30290000E+01    6.16462000E-01 
   1.82773000E+00    2.21006000E-01 
SP   3    1.000000
   2.09642000E+01    1.14660000E-01   4.02487000E-02 
   4.80331000E+00    9.19999000E-01   2.37594000E-01 
   1.45933000E+00   -3.03068000E-03   8.15854000E-01 
SP   1    1.000000
   4.83456000E-01    1.00000000E+00   1.00000000E+00 
SP   1    1.000000
   1.45585000E-01    1.00000000E+00   1.00000000E+00 
SP   1    1.000000
   4.38000000E-02    1.00000000E+00   1.00000000E+00 
D    1    1.000000
   6.26000000E-01    1.00000000E+00 

12    0
S    3    1.000000
   3.38650000E+01    2.54938000E-02 
   5.09479000E+00    1.90373000E-01 
   1.15879000E+00    8.52161000E-01 
S    1    1.000000
   3.25840000E-01    1.00000000E+00 
S    1    1.000000
   1.02741000E-01    1.00000000E+00 
S    1    1.000000
   3.60000000E-02    1.00000000E+00 
P    1    1.000000
   7.50000000E-01    1.00000000E+00 

[MO]
Sym=X
Ene= 2.006999
Spin=Alpha
Occup=1
     1   -5.445163402095e-14
     2   -3.638841144393e-14
     3   -7.519897878310e-15
     4   -9.008048138543e-15
     5   -7.949144620797e-02
     6   -4.785251665412e-14
     7   -1.649362160608e-14
     8   -4.069193556738e-15
     9   -1.383093136109e-01
    10    9.164026717450e-14
    11    1.160885484252e-13
    12   -7.940992352363e-15
    13   -1.188283147070e-01
    14    5.418193108912e-13
    15   -1.728825086834e-13
    16   -4.027944990729e-13
    17   -1.466232312000e-02
    18   -7.025667049055e-15
    19   -1.207843120577e-02
    20   -1.049851439990e-02
    21    9.883081241895e-16
    22   -3.469875841705e-15
    23    1.930768406449e-14
    24   -3.417014918483e-14
    25    6.901534646258e-13
    26   -1.285557479993e-13
    27    1.528098419673e-15
    28    7.040804980524e-17
    29    3.983136511814e-04
    30   -9.018986083905e-15
    31    1.912131256603e-14
    32   -2.690323172391e-13
    33   -2.515923645782e-13
    34   -1.259464669547e-15
    35   -1.886987357700e-15
    36   -5.857100557928e-03
    37   -2.141800952155e-14
    38    2.645140323342e-15
    39    2.813103384951e-13
    40    4.153262404888e-14
    41    8.564596142930e-15
    42    6.970216975790e-15
    43    5.561501344483e-03
    44   -9.887964413737e-15
    45   -2.023767376893e-15
    46   -2.558213494365e-14
    47   -1.858040372307e-15
    48    1.017063774845e-01
    49   -2.660504353306e-14
    50   -3.769986436299e-14
    51   -9.537242300447e-15
    52    1.807559948759e-01
    53   -1.124159648908e-13
    54    8.373240461906e-14
    55    8.577508780802e-14
    56    1.020009592417e-01
    57   -1.415062922493e-13
    58   -2.744817883129e-13
    59   -3.593975569112e-13
    60    1.429815628966e-02
    61    3.404644013235e-15
    62   -1.848094247071e-02
    63    2.095129469114e-02
    64   -9.494992433320e-15
    65   -1.473729572821e-14
    66    8.193428306544e-15
    67    1.176736986394e-14
    68    4.621145631544e-14
    69   -5.116834701323e-16
    70    2.418014239563e-01
    71   -4.532213518064e-14
    72    5.954366095970e-14
    73    6.038879251825e-15
    74    2.817469230235e-01
    75   -4.306393443239e-15
    76    3.866696582457e-14
    77    2.362009439141e-15
    78    1.723900596765e-01
    79    9.714783642899e-14
    80   -1.193557455545e-13
    81   -3.115667109851e-13
    82   -8.163896553677e-03
    83   -5.808822876385e-16
    84    1.893182452353e-02
    85   -1.193379593226e-02
    86    3.692405015070e-15
    87    1.563913516547e-16
    88    1.344305848021e-13
    89    1.047376094504e-13
    90   -1.502278150045e-14
    91    8.141905288699e-15
    92   -5.862091653772e-02
    93    2.041160472921e-14
    94   -1.254424558972e-14
    95    4.643854787361e-15
    96   -1.040252261286e-01
    97    3.676511105522e-13
    98    2.566524874516e-14
    99    1.550838184468e-13
   100   -7.817125507193e-02
   101    6.312963621816e-13
   102   -1.028812474674e-12
   103    4.590034879720e-13
   104   -1.974448899759e-02
   105    5.221903552944e-15
   106   -1.250093611420e-02
   107    8.976456222102e-03
   108   -6.693579534563e-15
   109    6.738165894422e-15
   110    4.580348213946e-14
   111    4.865906663652e-14
   112   -2.360539331866e-14
   113    2.664366628367e-14
   114   -6.863224597930e-02
   115   -4.790592946109e-14
   116   -1.767860255502e-14
   117    2.562672860780e-14
   118   -1.082655736955e-01
   119   -1.368851524782e-13
   120   -2.858671511173e-15
   121    4.447109397526e-14
   122   -9.660742437426e-02
   123    1.837263124248e-13
   124    1.394507138533e-13
   125    1.673815837976e-14
   126    2.006146586271e-03
   127   -1.006306066745e-15
   128    6.695100973397e-03
   129    4.985953355991e-03
   130    2.985775187340e-15
   131    5.921084333757e-16
   132    3.219067085138e-14
   133    4.856971441403e-14
   134    3.243617927287e-14
   135   -8.005016018324e-15
   136    6.194553138834e-02
   137   -1.179561341379e-13
   138    3.814248996627e-14
   139    7.342475655465e-16
   140    1.032067779089e-01
   141   -2.918898136921e-13
   142    6.288588245172e-14
   143   -8.697233207124e-14
   144    1.005111896896e-01
   145   -4.971979966846e-13
   146   -8.666479581889e-13
   147   -2.359099002274e-13
   148    8.866404113443e-03
   149    5.247267178399e-15
   150   -1.220718867534e-02
   151   -1.978783411222e-03
   152    1.729915122844e-15
   153   -1.396607692921e-15
   154   -4.763343435332e-14
   155   -4.925136971979e-14
   156    3.860196234588e-15
   157   -6.092006324790e-15
   158   -2.139233946840e-03
   159    4.874558124052e-14
   160    2.057065943606e-14
   161   -9.589159771747e-15
   162   -2.336234691600e-03
   163    1.461848248922e-13
   164   -6.882112648753e-14
   165   -1.067293060926e-14
   166   -2.687866710915e-03
   167   -1.271247886341e-12
   168    7.290629618570e-13
   169   -2.976792447661e-13
   170    3.593850361679e-03
   171    4.825920856520e-16
   172   -6.248415861563e-03
   173    1.141270765672e-02
   174    7.765411885516e-15
   175    3.049550264387e-15
   176   -8.488657154668e-15
   177    6.144994385249e-15
   178   -2.111937755968e-15
   179    1.188971059641e-14
   180   -9.616507128744e-02
   181   -5.740969842157e-14
   182    8.271431649804e-15
   183    2.455407350484e-14
   184   -1.688543232320e-01
   185   -8.593339299255e-14
   186    5.564131762833e-14
   187   -2.745409096102e-14
   188   -1.373407775092e-01
   189    4.464781151589e-14
   190    7.033407587835e-13
   191    3.264047114258e-13
   192    4.572213756201e-03
   193    6.144590424913e-15
   194    1.496434682965e-02
   195   -3.666344123067e-03
   196   -1.055426712816e-14
   197    4.298497131703e-15
   198   -2.555667858275e-14
   199   -3.905568598893e-14
   200   -8.551580547696e-14
   201    4.822342243884e-14
   202    1.497138702738e-15
   203    3.375975531304e-15
   204   -7.735039012172e-03
Sym=X
Ene= 2.004244
Spin=Alpha
Occup=1
     1   -8.182441416159e-03
     2   -1.363741179981e-02
     3   -1.514040379413e-02
     4    2.540244012209e-02
     5   -1.548221767536e-14
     6    3.649110067180e-02
     7   -2.626490566758e-02
     8    4.285265900937e-02
     9   -6.727399766011e-14
    10    4.390212885008e-02
    11    4.548545566005e-05
    12    3.837361024413e-02
    13   -3.585493849784e-14
    14    9.500309688784e-02
    15   -8.520432512565e-03
    16    7.554584067537e-03
    17   -1.256398641763e-13
    18   -1.945134485382e-03
    19   -1.730860528591e-14
    20   -6.383077314940e-15
    21    8.569779200048e-03
    22   -4.531483992279e-03
    23   -2.656503565531e-03
    24    9.690006039098e-03
    25    3.296720677999e-02
    26   -3.010336557676e-02
    27    6.510317285114e-04
    28   -4.001167755582e-04
    29    1.202067855973e-14
    30   -1.659753646173e-02
    31   -2.752079840047e-02
    32   -1.366951337036e-02
    33   -8.311354166516e-03
    34   -8.517779006240e-04
    35   -3.138176084306e-04
    36    3.829553349122e-15
    37   -1.564582758557e-03
    38   -1.317396621749e-02
    39   -3.688058676423e-02
    40    4.305123236897e-02
    41   -1.129557377656e-03
    42    7.250965371806e-04
    43   -1.474837789459e-14
    44    4.396564994901e-03
    45    7.319187923652e-03
    46    2.599456347104e-02
    47    2.116370929021e-02
    48    1.975615206240e-14
    49   -2.160222789234e-02
    50    4.450020097782e-02
    51    4.127752142605e-02
    52    1.468369289011e-13
    53   -2.444515382520e-02
    54   -4.410253301394e-02
    55   -6.815481384360e-02
    56   -1.677759062270e-13
    57   -2.382357809518e-02
    58   -6.368870312505e-02
    59   -8.520200822333e-02
    60   -5.389119330018e-16
    61    1.334483805835e-03
    62    2.812408842342e-14
    63    2.897462181709e-15
    64    5.737921373526e-02
    65    2.929320021107e-02
    66    3.257848096163e-03
    67    4.702924146120e-03
    68   -2.066627977672e-01
    69   -2.820987030255e-01
    70    3.663171036442e-15
    71   -1.514745099704e-02
    72   -2.374525899158e-01
    73   -3.231572416047e-01
    74    2.324390751354e-14
    75    2.640981574494e-03
    76   -1.548759073699e-01
    77   -2.259237725861e-01
    78    3.011238254966e-15
    79    1.389411311871e-02
    80    4.453795170602e-03
    81   -2.821511441553e-03
    82    4.001028143734e-14
    83    1.136049115314e-03
    84    5.656433332599e-15
    85   -2.554701105362e-15
    86   -1.432468068073e-02
    87   -4.120800953161e-03
    88    1.156452610620e-02
    89    1.929352253498e-02
    90    2.622915801776e-02
    91   -5.518950510827e-03
    92    2.283921922779e-14
    93   -5.286630268674e-02
    94    4.588443719559e-02
    95   -8.163993864672e-03
    96    6.116831044170e-14
    97   -4.870620739289e-02
    98    5.101170188527e-02
    99   -1.838848799410e-02
   100   -4.817150641446e-14
   101    2.066640387170e-01
   102    1.176517702612e-02
   103   -1.104675190716e-01
   104   -2.454658507865e-13
   105    2.027132843143e-03
   106   -9.961957192052e-15
   107    1.006569777401e-14
   108    2.126660675866e-02
   109   -6.693504228194e-04
   110   -2.432095993299e-03
   111   -4.118979646794e-03
   112    5.186209654249e-02
   113   -8.630010919621e-02
   114    4.619543657579e-14
   115    1.254074144341e-02
   116    8.016675618137e-02
   117   -1.327496298312e-01
   118    5.586939069479e-14
   119    8.366161002375e-03
   120    7.367798776004e-02
   121   -1.218282652747e-01
   122    5.502398524640e-14
   123   -2.836889657435e-02
   124    1.478537023326e-02
   125   -1.809100051194e-03
   126    1.082909918554e-13
   127   -3.828890275046e-05
   128   -2.133056658961e-15
   129    1.156828465917e-16
   130   -6.001349903879e-03
   131    2.672206244810e-03
   132   -1.998306347955e-02
   133   -3.311970001727e-02
   134   -5.564626138979e-02
   135   -1.941628091158e-02
   136    3.798506857443e-14
   137    8.805975649400e-02
   138   -8.282328808776e-02
   139   -2.138915547882e-02
   140    7.108408273241e-14
   141    1.850070282626e-01
   142   -8.280039933304e-02
   143   -4.004890910458e-02
   144    7.043141241218e-14
   145    1.869688705031e-01
   146    1.170712975740e-02
   147    5.664631407028e-03
   148    1.573892008482e-13
   149    1.033689678294e-03
   150    6.442388532933e-15
   151   -6.097828242415e-15
   152    5.402650560350e-04
   153    2.652755260438e-03
   154    1.366436849151e-02
   155    2.241286392565e-02
   156    2.266120667969e-02
   157   -6.034530065025e-02
   158    1.994953436460e-14
   159   -5.903700718032e-02
   160    4.034259685182e-02
   161   -8.659731086910e-02
   162    3.212250871417e-14
   163   -1.183184443036e-01
   164    3.486413087806e-02
   165   -9.427540176673e-02
   166    5.325048328745e-14
   167   -1.348247305817e-01
   168    1.108162582900e-02
   169    5.522309642728e-04
   170    7.789552596024e-14
   171   -7.981725203256e-04
   172   -4.020001141178e-15
   173   -5.005139175815e-15
   174    1.683542597356e-03
   175   -5.093732417242e-05
   176    3.516769320197e-03
   177    5.690812683854e-03
   178   -1.370553378636e-03
   179   -1.461258230726e-02
   180   -3.067722884768e-14
   181   -1.411284622840e-02
   182   -4.535098054496e-03
   183   -1.867718290777e-02
   184   -5.183369594322e-14
   185   -4.872646818530e-02
   186    7.456847732916e-03
   187   -2.122160344426e-02
   188   -6.024605520325e-14
   189   -2.908008800368e-01
   190    2.767374519976e-02
   191   -5.268451041154e-02
   192    1.990421945272e-13
   193   -4.392171564377e-04
   194    6.528273858301e-15
   195   -1.018066728535e-15
   196    3.204906715586e-03
   197    8.701497677169e-04
   198    1.895877554125e-03
   199    4.714568894400e-03
   200    8.162602199155e-05
   201   -1.153145950350e-02
   202   -6.111862712150e-04
   203    3.256042529963e-04
   204    1.550388158230e-15
Sym=X
Ene= 2.001929
Spin=Alpha
Occup=1
     1   -2.416564305523e-13
     2   -2.630733822164e-13
     3   -1.048822515331e-13
     4    8.147270527598e-15
     5   -9.575548560688e-02
     6    3.277006354436e-13
     7   -1.844220480806e-13
     8    3.108090106891e-14
     9   -1.655687701298e-01
    10    4.497162021942e-14
    11   -4.933020407125e-14
    12   -1.285703865943e-13
    13   -1.261417440285e-01
    14   -4.491771328651e-12
    15   -1.452429129076e-12
    16   -5.299279099529e-13
    17   -1.854296323129e-02
    18   -1.587846218315e-14
    19    6.013068174158e-03
    20   -1.545700319221e-02
    21   -1.119514764519e-14
    22   -1.272401573492e-14
    23   -1.493103109195e-14
    24   -9.931419796301e-14
    25    5.326211950685e-13
    26   -1.987854710927e-13
    27    3.801914129838e-16
    28   -4.638454671771e-15
    29   -1.064071645551e-02
    30    7.262025070123e-14
    31    7.663596632671e-14
    32    2.538622873022e-14
    33   -1.062543666178e-13
    34   -4.281031624488e-15
    35    1.372208713584e-14
    36   -7.620213621066e-03
    37    8.031187363321e-14
    38    1.187750468699e-13
    39   -4.529596975213e-13
    40    2.498020383631e-13
    41    4.496683840876e-15
    42   -1.199195206656e-14
    43    5.292152248102e-03
    44   -1.701599610003e-13
    45   -1.376818334895e-13
    46   -8.812192218631e-14
    47    6.208870277123e-14
    48   -2.417435934282e-02
    49   -8.277042172750e-15
    50   -1.603982219161e-13
    51    1.128369211588e-13
    52   -4.146807818721e-02
    53    6.953806487477e-14
    54   -1.349294732489e-14
    55    7.808072558835e-15
    56   -1.555831913434e-02
    57    5.908712183079e-13
    58   -9.391719388907e-14
    59   -6.296270184764e-13
    60   -1.508386283613e-02
    61   -1.305649498180e-15
    62    6.038973328545e-03
    63    2.220271197965e-02
    64    1.295037268667e-14
    65   -2.426889873968e-14
    66    8.400596382226e-14
    67    1.232589452124e-13
    68    1.899550549181e-13
    69   -2.227024228953e-13
    70    1.483413864877e-03
    71   -4.387739271245e-13
    72    2.009769698298e-13
    73   -2.427057853942e-13
    74    5.620789322406e-04
    75   -2.975894720458e-13
    76    9.580202003345e-14
    77   -1.594166403804e-13
    78    2.557925404274e-03
    79    5.117352043493e-14
    80    6.248264965105e-15
    81    1.393989790103e-14
    82    1.135996442814e-02
    83   -7.756304224455e-15
    84   -1.613023505338e-03
    85    1.529426671539e-03
    86    2.955493313116e-15
    87   -1.552768875954e-14
    88   -1.493365540426e-13
    89   -2.287633153715e-13
    90    5.449821940995e-14
    91   -1.087655018159e-16
    92    7.805009118706e-02
    93    5.746306509934e-13
    94    9.398036343003e-14
    95    2.535413112587e-14
    96    1.399985124092e-01
    97    4.692859403899e-13
    98    2.995591124502e-14
    99    1.017281330678e-13
   100    1.109370041935e-01
   101    4.553862501209e-12
   102    4.701780858579e-13
   103   -1.749903934825e-12
   104    3.031527950397e-02
   105   -2.497796580136e-14
   106    1.885804923865e-02
   107    2.831981498789e-02
   108   -5.879311406810e-14
   109    3.944719799406e-14
   110    2.405629971013e-13
   111    2.644307115932e-13
   112   -3.284268192719e-13
   113    7.236838884803e-14
   114    1.635361411819e-01
   115   -3.500757716568e-13
   116   -5.093702868625e-13
   117    1.166008526133e-13
   118    2.556171306368e-01
   119   -4.211287791230e-13
   120   -3.732921521882e-13
   121    1.545644843447e-13
   122    2.414606543960e-01
   123   -3.162991281135e-13
   124    1.935676849366e-14
   125    1.233451439882e-13
   126    2.771797275002e-02
   127   -1.086812695810e-14
   128   -1.331750462446e-02
   129   -8.851061976624e-03
   130    1.962758518631e-14
   131    1.604549788321e-14
   132    1.284398471695e-13
   133    8.848078955239e-14
   134    5.155438703813e-14
   135    9.102288831026e-14
   136    5.623301719054e-02
   137    1.000653517733e-13
   138    8.431034293769e-14
   139    1.359786408225e-13
   140    9.449300353980e-02
   141    1.057124726830e-15
   142   -2.363492478327e-14
   143    1.502464424426e-13
   144    7.625673653338e-02
   145    1.166667745757e-13
   146    1.357551166469e-13
   147    8.747779862905e-13
   148   -6.250729486632e-03
   149   -8.624815019624e-15
   150    6.006923709090e-03
   151   -2.730843568339e-03
   152    2.748585670048e-15
   153   -1.752000965083e-14
   154    2.830985425144e-13
   155    2.130639548580e-13
   156    1.081240086755e-13
   157   -9.484143766524e-14
   158   -1.364169350895e-01
   159    1.353186657069e-13
   160    1.689492728937e-13
   161   -1.578798930753e-13
   162   -2.250578773889e-01
   163    9.281088676146e-14
   164    1.322214403430e-13
   165   -8.499344640785e-14
   166   -2.014192903025e-01
   167   -4.979603962258e-13
   168    7.565260538667e-13
   169    3.348643457815e-13
   170    9.346579904519e-03
   171   -7.239193388754e-15
   172   -8.358994174154e-03
   173   -6.410484137343e-04
   174    6.266171118226e-15
   175   -1.946654573386e-14
   176    1.880135532433e-13
   177    1.463208586792e-13
   178   -5.589196905364e-14
   179    1.500778072724e-13
   180   -4.918211003533e-02
   181    4.268108739233e-14
   182   -9.744492638320e-14
   183    2.260857245805e-13
   184   -8.334946759192e-02
   185    1.074718855333e-13
   186   -1.229685610123e-13
   187    2.011735152649e-13
   188   -9.807255935332e-02
   189   -4.357761390832e-13
   190   -1.325017371696e-12
   191   -2.073298331568e-12
   192   -9.851866859748e-03
   193   -2.989563513601e-15
   194    1.496834227984e-02
   195    1.285921628580e-02
   196   -1.881546387050e-14
   197    1.712744342794e-14
   198   -9.763742652314e-14
   199   -1.258049664593e-13
   200    3.619808398104e-14
   201    2.972200621692e-14
   202    7.026300595802e-15
   203   -4.727067357369e-16
   204   -3.156335404262e-03
Sym=X
Ene= 2.001660
Spin=Alpha
Occup=1
     1   -7.269309642041e-03
     2   -1.191037588967e-02
     3   -1.851605996077e-02
     4    1.084393473963e-04
     5    1.072007493686e-13
     6    3.238698048655e-02
     7   -3.444698293556e-02
     8    2.061403805303e-03
     9    1.744742170447e-13
    10    1.867005658401e-02
    11   -2.255790844303e-02
    12   -1.253088863889e-02
    13    2.070844442527e-13
    14   -2.825107266638e-01
    15   -6.896556197714e-02
    16   -1.061299967927e-01
    17   -2.640488185521e-14
    18   -1.103783652308e-03
    19    2.130309113932e-14
    20    7.391984066212e-16
    21   -7.799839381442e-04
    22    1.832284357064e-03
    23    8.761405457484e-03
    24    8.426121715129e-03
    25    1.345699996691e-02
    26   -1.440768592014e-03
    27    1.632266401598e-03
    28   -8.529440577072e-04
    29   -3.532054446570e-15
    30    7.586734389258e-03
    31    7.655362823021e-03
    32   -7.531523329878e-03
    33   -4.803710579684e-02
    34   -4.168146916347e-04
    35    9.139036448939e-04
    36    5.934370925595e-15
    37    1.463415844335e-02
    38    1.048898688846e-02
    39   -6.078373802839e-03
    40   -2.556138594408e-02
    41    2.446542521236e-03
    42   -1.485215637742e-03
    43   -2.075732568483e-14
    44   -2.376968769981e-02
    45   -3.725356532972e-02
    46   -8.860305263146e-02
    47    7.241434808334e-02
    48   -1.538212003898e-13
    49    1.057170544653e-01
    50   -1.401075467685e-01
    51    1.192534753197e-01
    52   -2.404188629435e-13
    53    1.078266774648e-01
    54   -1.001726263465e-02
    55    5.372593426056e-04
    56   -1.680220120100e-13
    57    5.334972942797e-02
    58    4.032993764924e-03
    59   -2.871836460171e-02
    60   -3.581059079243e-14
    61   -7.166068256460e-03
    62   -4.133275319934e-14
    63   -1.868166719261e-14
    64    2.722319305088e-02
    65   -1.354097013912e-02
    66   -3.805749265912e-03
    67   -4.939208089036e-03
    68    1.325871529299e-01
    69   -2.174531277417e-01
    70    3.511305949439e-14
    71    6.260281230235e-03
    72    1.504645849094e-01
    73   -2.478536862813e-01
    74    3.617170046580e-14
    75   -9.065064371898e-02
    76    4.213600933605e-02
    77   -1.355328102316e-01
    78    4.535885917109e-14
    79   -2.717873280533e-02
    80    8.212035498646e-04
    81    4.523379784808e-03
    82    6.432436325477e-14
    83   -1.049549996039e-02
    84   -1.021391852813e-14
    85    6.739521547006e-15
    86    3.831005622223e-03
    87   -1.885555874019e-02
    88   -1.721734857440e-02
    89   -2.899336511190e-02
    90    1.770753883015e-02
    91    1.013025709886e-03
    92   -2.471715517472e-13
    93    8.267894230429e-02
    94    3.029601620532e-02
    95    2.637270365376e-04
    96   -4.369425653526e-13
    97    8.804189143377e-02
    98   -3.409536974844e-02
    99    6.995449209415e-02
   100   -3.486623342635e-13
   101   -2.811676614130e-01
   102   -5.973406169613e-02
   103    1.356287896203e-01
   104   -1.815631194812e-13
   105   -3.337228299304e-03
   106   -1.663950984116e-14
   107   -8.128473984054e-14
   108   -3.471489258288e-02
   109    2.038616182043e-02
   110    1.197019001602e-02
   111    2.026750524042e-02
   112   -1.335807052123e-01
   113    1.093013345072e-01
   114   -4.226235215511e-13
   115   -6.121669226075e-02
   116   -2.046053625154e-01
   117    1.684386298422e-01
   118   -6.693111334959e-13
   119   -7.830584610521e-02
   120   -1.776913903332e-01
   121    1.697827940926e-01
   122   -5.962660411124e-13
   123   -2.102434562582e-02
   124    1.846908702487e-03
   125    1.171707288012e-02
   126   -4.973776311672e-14
   127   -2.210692398807e-03
   128    3.940995304411e-14
   129    2.055700699179e-14
   130    9.800867454722e-03
   131    4.413968276060e-04
   132    9.608787853834e-03
   133    1.652795555589e-02
   134   -1.155017890635e-02
   135    3.423372639881e-02
   136   -3.516596451013e-13
   137   -4.530815722799e-02
   138   -1.763780357664e-02
   139    5.226071720605e-02
   140   -5.776659637530e-13
   141   -1.110170641309e-01
   142   -4.406790040222e-02
   143    6.951212849777e-02
   144   -5.008001477504e-13