[Molden Format]
[Atoms] (Angs)
  C      1    6     -0.00754183     -1.75895763      0.00000000
  H      2    1     -2.09769850     -1.41880678     -0.00000000
  H      3    1     -0.13527422     -2.83956838     -0.00000000
  H      4    1      0.04053511      2.02026369      0.00000000
  C      5    6     -1.22066484      0.39918184     -0.00000000
  O      6    8     -2.25210141      1.05663720     -0.00000000
  C      7    6      1.24009552      0.27789184      0.00000000
  O      8    8      2.33767996      1.06122493      0.00000000
  N      9    7      0.03634586      1.00852936      0.00000000
  N     10    7     -1.18738304     -0.97903470     -0.00000000
  C     11    6      1.22288875     -1.12258096      0.00000000
  H     12    1      2.15640383     -1.68445878      0.00000000
[GTO]
1    0
S    6    1.000000
   4.56324000E+03    1.96665000E-03 
   6.82024000E+02    1.52306000E-02 
   1.54973000E+02    7.61269000E-02 
   4.44553000E+01    2.60801000E-01 
   1.30290000E+01    6.16462000E-01 
   1.82773000E+00    2.21006000E-01 
SP   3    1.000000
   2.09642000E+01    1.14660000E-01   4.02487000E-02 
   4.80331000E+00    9.19999000E-01   2.37594000E-01 
   1.45933000E+00   -3.03068000E-03   8.15854000E-01 
SP   1    1.000000
   4.83456000E-01    1.00000000E+00   1.00000000E+00 
SP   1    1.000000
   1.45585000E-01    1.00000000E+00   1.00000000E+00 
SP   1    1.000000
   4.38000000E-02    1.00000000E+00   1.00000000E+00 
D    1    1.000000
   6.26000000E-01    1.00000000E+00 

2    0
S    3    1.000000
   3.38650000E+01    2.54938000E-02 
   5.09479000E+00    1.90373000E-01 
   1.15879000E+00    8.52161000E-01 
S    1    1.000000
   3.25840000E-01    1.00000000E+00 
S    1    1.000000
   1.02741000E-01    1.00000000E+00 
S    1    1.000000
   3.60000000E-02    1.00000000E+00 
P    1    1.000000
   7.50000000E-01    1.00000000E+00 

3    0
S    3    1.000000
   3.38650000E+01    2.54938000E-02 
   5.09479000E+00    1.90373000E-01 
   1.15879000E+00    8.52161000E-01 
S    1    1.000000
   3.25840000E-01    1.00000000E+00 
S    1    1.000000
   1.02741000E-01    1.00000000E+00 
S    1    1.000000
   3.60000000E-02    1.00000000E+00 
P    1    1.000000
   7.50000000E-01    1.00000000E+00 

4    0
S    3    1.000000
   3.38650000E+01    2.54938000E-02 
   5.09479000E+00    1.90373000E-01 
   1.15879000E+00    8.52161000E-01 
S    1    1.000000
   3.25840000E-01    1.00000000E+00 
S    1    1.000000
   1.02741000E-01    1.00000000E+00 
S    1    1.000000
   3.60000000E-02    1.00000000E+00 
P    1    1.000000
   7.50000000E-01    1.00000000E+00 

5    0
S    6    1.000000
   4.56324000E+03    1.96665000E-03 
   6.82024000E+02    1.52306000E-02 
   1.54973000E+02    7.61269000E-02 
   4.44553000E+01    2.60801000E-01 
   1.30290000E+01    6.16462000E-01 
   1.82773000E+00    2.21006000E-01 
SP   3    1.000000
   2.09642000E+01    1.14660000E-01   4.02487000E-02 
   4.80331000E+00    9.19999000E-01   2.37594000E-01 
   1.45933000E+00   -3.03068000E-03   8.15854000E-01 
SP   1    1.000000
   4.83456000E-01    1.00000000E+00   1.00000000E+00 
SP   1    1.000000
   1.45585000E-01    1.00000000E+00   1.00000000E+00 
SP   1    1.000000
   4.38000000E-02    1.00000000E+00   1.00000000E+00 
D    1    1.000000
   6.26000000E-01    1.00000000E+00 

6    0
S    6    1.000000
   8.58850000E+03    1.89515000E-03 
   1.29723000E+03    1.43859000E-02 
   2.99296000E+02    7.07320000E-02 
   8.73771000E+01    2.40001000E-01 
   2.56789000E+01    5.94797000E-01 
   3.74004000E+00    2.80802000E-01 
SP   3    1.000000
   4.21175000E+01    1.13889000E-01   3.65114000E-02 
   9.62837000E+00    9.20811000E-01   2.37153000E-01 
   2.85332000E+00   -3.27447000E-03   8.19702000E-01 
SP   1    1.000000
   9.05661000E-01    1.00000000E+00   1.00000000E+00 
SP   1    1.000000
   2.55611000E-01    1.00000000E+00   1.00000000E+00 
SP   1    1.000000
   8.45000000E-02    1.00000000E+00   1.00000000E+00 
D    1    1.000000
   1.29200000E+00    1.00000000E+00 

7    0
S    6    1.000000
   4.56324000E+03    1.96665000E-03 
   6.82024000E+02    1.52306000E-02 
   1.54973000E+02    7.61269000E-02 
   4.44553000E+01    2.60801000E-01 
   1.30290000E+01    6.16462000E-01 
   1.82773000E+00    2.21006000E-01 
SP   3    1.000000
   2.09642000E+01    1.14660000E-01   4.02487000E-02 
   4.80331000E+00    9.19999000E-01   2.37594000E-01 
   1.45933000E+00   -3.03068000E-03   8.15854000E-01 
SP   1    1.000000
   4.83456000E-01    1.00000000E+00   1.00000000E+00 
SP   1    1.000000
   1.45585000E-01    1.00000000E+00   1.00000000E+00 
SP   1    1.000000
   4.38000000E-02    1.00000000E+00   1.00000000E+00 
D    1    1.000000
   6.26000000E-01    1.00000000E+00 

8    0
S    6    1.000000
   8.58850000E+03    1.89515000E-03 
   1.29723000E+03    1.43859000E-02 
   2.99296000E+02    7.07320000E-02 
   8.73771000E+01    2.40001000E-01 
   2.56789000E+01    5.94797000E-01 
   3.74004000E+00    2.80802000E-01 
SP   3    1.000000
   4.21175000E+01    1.13889000E-01   3.65114000E-02 
   9.62837000E+00    9.20811000E-01   2.37153000E-01 
   2.85332000E+00   -3.27447000E-03   8.19702000E-01 
SP   1    1.000000
   9.05661000E-01    1.00000000E+00   1.00000000E+00 
SP   1    1.000000
   2.55611000E-01    1.00000000E+00   1.00000000E+00 
SP   1    1.000000
   8.45000000E-02    1.00000000E+00   1.00000000E+00 
D    1    1.000000
   1.29200000E+00    1.00000000E+00 

9    0
S    6    1.000000
   6.29348000E+03    1.96979000E-03 
   9.49044000E+02    1.49613000E-02 
   2.18776000E+02    7.35006000E-02 
   6.36916000E+01    2.48937000E-01 
   1.88282000E+01    6.02460000E-01 
   2.72023000E+00    2.56202000E-01 
SP   3    1.000000
   3.06331000E+01    1.11906000E-01   3.83119000E-02 
   7.02614000E+00    9.21666000E-01   2.37403000E-01 
   2.11205000E+00   -2.56919000E-03   8.17592000E-01 
SP   1    1.000000
   6.84009000E-01    1.00000000E+00   1.00000000E+00 
SP   1    1.000000
   2.00878000E-01    1.00000000E+00   1.00000000E+00 
SP   1    1.000000
   6.39000000E-02    1.00000000E+00   1.00000000E+00 
D    1    1.000000
   9.13000000E-01    1.00000000E+00 

10    0
S    6    1.000000
   6.29348000E+03    1.96979000E-03 
   9.49044000E+02    1.49613000E-02 
   2.18776000E+02    7.35006000E-02 
   6.36916000E+01    2.48937000E-01 
   1.88282000E+01    6.02460000E-01 
   2.72023000E+00    2.56202000E-01 
SP   3    1.000000
   3.06331000E+01    1.11906000E-01   3.83119000E-02 
   7.02614000E+00    9.21666000E-01   2.37403000E-01 
   2.11205000E+00   -2.56919000E-03   8.17592000E-01 
SP   1    1.000000
   6.84009000E-01    1.00000000E+00   1.00000000E+00 
SP   1    1.000000
   2.00878000E-01    1.00000000E+00   1.00000000E+00 
SP   1    1.000000
   6.39000000E-02    1.00000000E+00   1.00000000E+00 
D    1    1.000000
   9.13000000E-01    1.00000000E+00 

11    0
S    6    1.000000
   4.56324000E+03    1.96665000E-03 
   6.82024000E+02    1.52306000E-02 
   1.54973000E+02    7.61269000E-02 
   4.44553000E+01    2.60801000E-01 
   1.30290000E+01    6.16462000E-01 
   1.82773000E+00    2.21006000E-01 
SP   3    1.000000
   2.09642000E+01    1.14660000E-01   4.02487000E-02 
   4.80331000E+00    9.19999000E-01   2.37594000E-01 
   1.45933000E+00   -3.03068000E-03   8.15854000E-01 
SP   1    1.000000
   4.83456000E-01    1.00000000E+00   1.00000000E+00 
SP   1    1.000000
   1.45585000E-01    1.00000000E+00   1.00000000E+00 
SP   1    1.000000
   4.38000000E-02    1.00000000E+00   1.00000000E+00 
D    1    1.000000
   6.26000000E-01    1.00000000E+00 

12    0
S    3    1.000000
   3.38650000E+01    2.54938000E-02 
   5.09479000E+00    1.90373000E-01 
   1.15879000E+00    8.52161000E-01 
S    1    1.000000
   3.25840000E-01    1.00000000E+00 
S    1    1.000000
   1.02741000E-01    1.00000000E+00 
S    1    1.000000
   3.60000000E-02    1.00000000E+00 
P    1    1.000000
   7.50000000E-01    1.00000000E+00 

[MO]
Sym=X
Ene= 2.006850
Spin=Alpha
Occup=1
     1   -6.247888510915e-14
     2   -4.603158520966e-14
     3   -7.317060614492e-15
     4   -9.279916974111e-15
     5   -9.054453314388e-02
     6   -3.269279776166e-14
     7   -1.638671585963e-14
     8   -4.226624063360e-15
     9   -1.571109494983e-01
    10    1.014662525296e-13
    11    1.070955633861e-13
    12   -8.261916648707e-16
    13   -1.346112074113e-01
    14    4.219391946885e-13
    15   -1.982272586927e-13
    16   -3.840894697016e-13
    17   -1.459393535444e-02
    18   -7.328355243329e-15
    19   -1.259571078321e-02
    20   -1.228303333974e-02
    21   -4.619496497072e-17
    22   -2.721017606374e-15
    23    1.712797656397e-14
    24   -3.973094451064e-14
    25    6.778650226685e-13
    26   -1.369545675721e-13
    27    7.403658351484e-16
    28    7.391423711408e-17
    29   -2.480812490711e-04
    30   -4.783229925203e-15
    31    2.462764534624e-14
    32   -2.476276287822e-13
    33   -2.360171565941e-13
    34   -1.309977560408e-15
    35   -1.320511329477e-15
    36   -6.646718299638e-03
    37   -1.931808988494e-14
    38   -4.268520505994e-16
    39    2.610247788037e-13
    40    5.545309884256e-14
    41    8.484487681371e-15
    42    6.866285547128e-15
    43    5.738768906944e-03
    44   -1.265778749524e-14
    45   -3.461678775584e-15
    46   -2.301761869537e-14
    47   -2.393931468422e-15
    48    9.702899210908e-02
    49   -3.145636050043e-14
    50   -3.426804131384e-14
    51   -8.866803824417e-15
    52    1.722765463462e-01
    53   -9.517984308003e-14
    54    8.924362000106e-14
    55    7.626107212111e-14
    56    9.958321811644e-02
    57   -9.918003794652e-14
    58   -2.678468271405e-13
    59   -3.839001966402e-13
    60    1.998909319179e-02
    61    3.372114586779e-15
    62   -1.744742242014e-02
    63    2.222398571158e-02
    64   -7.416572851367e-15
    65   -1.315103382459e-14
    66    1.105843445170e-14
    67    1.620738484634e-14
    68    3.653711481967e-14
    69   -1.008586257968e-14
    70    2.340672343657e-01
    71   -6.046326821096e-14
    72    4.747894459970e-14
    73   -4.547125781343e-15
    74    2.727222437677e-01
    75   -9.387098265821e-15
    76    3.120184807206e-14
    77   -7.836829153910e-15
    78    1.673471552824e-01
    79    1.073448446435e-13
    80   -1.073737091397e-13
    81   -2.935379721889e-13
    82   -7.023623163909e-03
    83   -3.737966729666e-16
    84    1.856843957720e-02
    85   -1.104479400975e-02
    86    2.943484934939e-15
    87    2.252366829823e-16
    88    1.302138729610e-13
    89    9.860331185874e-14
    90   -1.343581690829e-14
    91    4.769225235582e-15
    92   -5.382764839307e-02
    93    3.471290822783e-14
    94   -1.083053500492e-14
    95    6.238154176043e-16
    96   -9.520182094484e-02
    97    3.730032023766e-13
    98    2.050032594183e-14
    99    1.303312335041e-13
   100   -7.018770367270e-02
   101    9.177523123070e-13
   102   -9.743294497612e-13
   103    3.318951535594e-13
   104   -1.606118351311e-02
   105    4.233488390550e-15
   106   -1.005534871974e-02
   107    1.214048231673e-02
   108   -7.251076956287e-15
   109    6.889847093554e-15
   110    5.430859076062e-14
   111    5.625020928380e-14
   112   -2.542478401979e-14
   113    2.380362035776e-14
   114   -5.262574180963e-02
   115   -4.773819158478e-14
   116   -2.176225449087e-14
   117    2.239139062231e-14
   118   -8.331685345955e-02
   119   -1.296121690508e-13
   120   -6.087309804017e-15
   121    3.962383604122e-14
   122   -7.250874831682e-02
   123    1.718933594929e-13
   124    1.302876497368e-13
   125    1.879924893709e-14
   126    5.904120114069e-03
   127   -9.270480582053e-16
   128    5.524501926284e-03
   129    4.221764523399e-03
   130    2.849385685449e-15
   131    1.073044838487e-15
   132    3.154470299007e-14
   133    4.566587252936e-14
   134    3.185132752749e-14
   135   -7.883006720329e-15
   136    6.341851344526e-02
   137   -1.056018142334e-13
   138    3.750277751809e-14
   139    5.171278752787e-16
   140    1.055939063873e-01
   141   -2.722667781121e-13
   142    6.405821522171e-14
   143   -7.680633760254e-14
   144    1.026627441347e-01
   145   -4.975719888467e-13
   146   -8.170258462478e-13
   147   -1.913973309261e-13
   148    6.369554232097e-03
   149    4.931884818289e-15
   150   -1.141415660285e-02
   151   -1.909190053840e-03
   152    1.491423588887e-15
   153   -1.907839242201e-15
   154   -4.114125693762e-14
   155   -4.259635391778e-14
   156    5.788142278805e-15
   157   -6.179134658588e-15
   158   -1.254262102342e-02
   159    4.296293325232e-14
   160    2.296068204774e-14
   161   -1.009900451578e-14
   162   -1.960803222806e-02
   163    1.248812078894e-13
   164   -7.022335298435e-14
   165   -1.163999264178e-14
   166   -1.672459407900e-02
   167   -1.256185458346e-12
   168    7.179276796453e-13
   169   -2.795099095791e-13
   170    3.608873580985e-03
   171    2.371249769259e-16
   172   -7.132149930384e-03
   173    1.111860301747e-02
   174    7.337010040920e-15
   175    2.672480718513e-15
   176   -9.853453058044e-15
   177    2.905211138930e-15
   178   -5.061758425504e-15
   179    1.557467311258e-14
   180   -1.051520209436e-01
   181   -4.670150046642e-14
   182    2.422530329770e-15
   183    3.069172194245e-14
   184   -1.839046824079e-01
   185   -9.665485137006e-14
   186    5.259335057799e-14
   187   -3.670589648452e-14
   188   -1.548524597777e-01
   189   -2.074185743866e-13
   190    6.427093267186e-13
   191    2.091376146042e-13
   192    1.308616977598e-03
   193    5.364898934238e-15
   194    1.688889077100e-02
   195   -2.736814677428e-03
   196   -1.097865010045e-14
   197    4.440084389407e-15
   198   -2.706678475970e-14
   199   -4.111290346505e-14
   200   -7.783912950909e-14
   201    5.523543787469e-14
   202    1.709708971034e-15
   203    3.396650591495e-15
   204   -8.287303818905e-03
Sym=X
Ene= 2.003899
Spin=Alpha
Occup=1
     1   -8.501672341963e-03
     2   -1.419769166523e-02
     3   -1.275155724684e-02
     4    2.484517852094e-02
     5   -1.497909860156e-14
     6    3.801113152909e-02
     7   -2.225026694990e-02
     8    4.209621551603e-02
     9   -6.579533876055e-14
    10    4.750666930826e-02
    11    2.234063873044e-03
    12    3.963480791678e-02
    13   -3.628869158000e-14
    14    9.448562191996e-02
    15   -4.914412241532e-03
    16    6.989893171076e-03
    17   -1.267908084187e-13
    18   -1.874502852659e-03
    19   -1.718272665403e-14
    20   -6.117150437288e-15
    21    8.215579190550e-03
    22   -4.200939039485e-03
    23   -4.121789870914e-03
    24    8.126591868253e-03
    25    2.938974463366e-02
    26   -3.206632690148e-02
    27    3.884407085629e-04
    28   -1.193150769576e-04
    29    1.171015666529e-14
    30   -1.591373221192e-02
    31   -2.589073056921e-02
    32   -1.362806772391e-02
    33   -7.785790340967e-03
    34   -8.127263740714e-04
    35   -1.739569363058e-04
    36    3.643818887922e-15
    37   -3.489662975037e-04
    38   -1.130886679324e-02
    39   -3.782685265935e-02
    40    4.486581761787e-02
    41   -1.249723499882e-03
    42    5.220219981681e-04
    43   -1.445663650070e-14
    44    4.879365687847e-03
    45    7.873679668414e-03
    46    2.526242126255e-02
    47    1.720258615218e-02
    48    1.695584547950e-14
    49   -2.213102244094e-02
    50    4.164935386239e-02
    51    3.510752836657e-02
    52    1.384625365737e-13
    53   -2.377724611190e-02
    54   -4.804876403899e-02
    55   -6.997510500556e-02
    56   -1.681456874838e-13
    57   -1.780961247799e-02
    58   -6.174204599789e-02
    59   -8.834891662590e-02
    60    6.321620610103e-15
    61    1.287443615337e-03
    62    2.894209206076e-14
    63    1.883362892043e-15
    64    5.608439575278e-02
    65    2.896111012697e-02
    66    6.387496591408e-03
    67    9.247110015684e-03
    68   -2.031961387437e-01
    69   -2.776776395759e-01
    70   -8.966235792130e-15
    71   -2.998296953054e-02
    72   -2.339129281934e-01
    73   -3.179603172689e-01
    74    8.335592301296e-15
    75   -6.831457554174e-03
    76   -1.519846726796e-01
    77   -2.206019591822e-01
    78   -4.630697055752e-15
    79    1.009056122011e-02
    80    3.198480831677e-03
    81   -2.052865309584e-03
    82    3.298491907054e-14
    83    1.754761891304e-03
    84    4.716197937636e-15
    85   -2.015644507962e-15
    86   -1.432696627105e-02
    87   -4.608013552016e-03
    88    1.193937044111e-02
    89    1.987727285034e-02
    90    2.649511122177e-02
    91   -5.317473022023e-03
    92    3.135291736195e-14
    93   -5.423685512719e-02
    94    4.636505620244e-02
    95   -7.421379755746e-03
    96    7.547721687778e-14
    97   -5.054786010547e-02
    98    5.479901482363e-02
    99   -2.431838282757e-02
   100   -3.450526658294e-14
   101    2.072158128836e-01
   102    1.755969078070e-02
   103   -1.171219153733e-01
   104   -2.436172111908e-13
   105    2.138191344299e-03
   106   -7.736224121825e-15
   107    1.176667080818e-14
   108    2.343404509141e-02
   109   -1.568146365472e-03
   110   -2.561814303402e-03
   111   -4.340751329173e-03
   112    5.929234170964e-02
   113   -9.606126445446e-02
   114    6.219510386028e-14
   115    1.324093201300e-02
   116    9.157456616716e-02
   117   -1.478049873010e-01
   118    8.113815801275e-14
   119    9.163210897702e-03
   120    8.439275831535e-02
   121   -1.359748539383e-01
   122    7.853275504862e-14
   123   -2.816013464727e-02
   124    1.499292688708e-02
   125   -2.592346275809e-03
   126    1.113709788823e-13
   127   -1.095807640619e-05
   128   -3.457251617440e-15
   129   -8.951642987107e-16
   130   -6.655537832315e-03
   131    2.891772391448e-03
   132   -2.027467619268e-02
   133   -3.357956189663e-02
   134   -5.299905652918e-02
   135   -1.817967286194e-02
   136    3.945949169464e-14
   137    8.915814525732e-02
   138   -7.883445472887e-02
   139   -1.926704940168e-02
   140    7.330875302176e-14
   141    1.928500300039e-01
   142   -7.837011723476e-02
   143   -4.029221110104e-02
   144    7.158848050894e-14
   145    2.008634111299e-01
   146    1.040449954508e-02
   147    3.739694700691e-03
   148    1.518993568646e-13
   149    1.124434517343e-03
   150    7.106853216547e-15
   151   -6.468236919652e-15
   152    2.528820135583e-04
   153    2.640853967270e-03
   154    1.356981004391e-02
   155    2.213728038384e-02
   156    2.228926618591e-02
   157   -5.551015778638e-02
   158    2.129909771408e-14
   159   -5.783277010920e-02
   160    3.956060892141e-02
   161   -7.872804432202e-02
   162    3.385634692085e-14
   163   -1.176286390008e-01
   164    3.455056545845e-02
   165   -8.944951726866e-02
   166    5.758240575334e-14
   167   -1.348519377617e-01
   168    9.457824705706e-03
   169   -4.316447842723e-03
   170    7.658846472347e-14
   171   -8.224749248561e-04
   172   -3.819378071058e-15
   173   -4.800234395724e-15
   174    1.395946868190e-03
   175   -3.188951813820e-04
   176    3.835085366243e-03
   177    6.202574736575e-03
   178   -2.821572375752e-03
   179   -1.622946322166e-02
   180   -2.960776262721e-14
   181   -1.526906420787e-02
   182   -7.118909560950e-03
   183   -2.074967235320e-02
   184   -4.898474544856e-14
   185   -5.829858731885e-02
   186    6.664723596802e-03
   187   -2.501996600728e-02
   188   -6.131543306492e-14
   189   -3.041353491303e-01
   190    2.811223598854e-02
   191   -5.335222986616e-02
   192    1.981250466469e-13
   193   -5.009368264072e-04
   194    6.557594894027e-15
   195   -1.479362183465e-16
   196    3.046000451978e-03
   197    1.107762433298e-03
   198    1.097509807455e-03
   199    3.916656577140e-03
   200   -6.855673087771e-04
   201   -1.279892143375e-02
   202   -5.905878779017e-04
   203    3.968485925030e-04
   204    1.659684898683e-15
Sym=X
Ene= 2.001592
Spin=Alpha
Occup=1
     1    2.161421391853e-13
     2    2.449587233762e-13
     3    9.876991786796e-14
     4   -5.518284133110e-15
     5    7.882637235251e-02
     6   -3.449780956110e-13
     7    1.763468069326e-13
     8   -2.424089285221e-14
     9    1.357072382032e-01
    10   -1.163875454694e-14
    11    6.539261037913e-14
    12    1.552658090979e-13
    13    1.099021324436e-01
    14    4.378105089798e-12
    15    1.343694759377e-12
    16    5.585558193322e-13
    17    1.400865542236e-02
    18    1.501981682102e-14
    19   -3.783766611540e-03
    20    1.195631094088e-02
    21    1.040125498460e-14
    22    8.966961582103e-15
    23    1.182059044835e-14
    24    7.791864893522e-14
    25   -4.529691510515e-13
    26    1.742675255584e-13
    27   -1.002342882085e-15
    28    4.242704539290e-15
    29    7.196798710490e-03
    30   -7.654831854927e-14
    31   -7.612656627669e-14
    32   -2.489113969783e-14
    33    1.090339458432e-13
    34    2.958474328868e-15
    35   -1.412170021577e-14
    36    6.280954301804e-03
    37   -7.376687131104e-14
    38   -1.107248455489e-13
    39    4.415460113148e-13
    40   -2.020330797156e-13
    41   -6.780302051070e-15
    42    1.246643085953e-14
    43   -5.475560955261e-03
    44    2.011198472737e-13
    45    1.722220138335e-13
    46    1.179525494916e-13
    47   -8.870956883818e-14
    48    1.569021826766e-02
    49   -4.445523531067e-14
    50    2.079153473487e-13
    51   -1.597921471561e-13
    52    2.611713990774e-02
    53   -1.224568201026e-13
    54    5.176065519914e-14
    55   -8.454060117039e-15
    56    1.386543740471e-02
    57   -6.240422762318e-13
    58    6.489427762152e-14
    59    5.906015533868e-13
    60    1.321106778485e-02
    61    3.457180058926e-15
    62   -7.587863486350e-03
    63   -1.635899109970e-02
    64   -3.126827769652e-14
    65    2.564320201230e-14
    66   -8.788016919197e-14
    67   -1.289540814565e-13
    68   -2.216783340575e-13
    69    3.397061373713e-13
    70    9.804655203916e-03
    71    4.627537180065e-13
    72   -2.359219520408e-13
    73    3.767736279864e-13
    74    1.203671598389e-02
    75    3.547445701551e-13
    76   -9.261294485021e-14
    77    2.332866233989e-13
    78    7.120534471721e-03
    79    1.110596844452e-14
    80    6.399001029008e-16
    81   -3.996219470048e-14
    82   -1.018869127764e-02
    83    1.184624830817e-14
    84    1.556513415386e-03
    85   -1.324666180648e-03
    86   -3.399905181443e-15
    87    2.347042463746e-14
    88    3.028518848301e-13
    89    3.664438151707e-13
    90   -4.759489332424e-14
    91   -2.645628668126e-14
    92   -9.649976842971e-02
    93   -6.334640644076e-13
    94   -8.377194289612e-14
    95   -6.799687957723e-14
    96   -1.725993590834e-01
    97   -4.633168497961e-13
    98   -2.699175098290e-14
    99   -2.035454678750e-13
   100   -1.347648367694e-01
   101   -3.679606555786e-12
   102   -4.309582105794e-13
   103    1.437494249453e-12
   104   -4.037903434901e-02
   105    2.811970332612e-14
   106   -2.167687528373e-02
   107   -3.008806599774e-02
   108    8.061726675464e-14
   109   -4.865313354944e-14
   110   -2.582770051161e-13
   111   -2.960937353675e-13
   112    4.432685459538e-13
   113   -1.677085426433e-13
   114   -1.916777162684e-01
   115    4.479205405463e-13
   116    6.862402509899e-13
   117   -2.644238566089e-13
   118   -2.998380966164e-01
   119    5.379311020789e-13
   120    5.227120858903e-13
   121   -3.018745264137e-13
   122   -2.822789971365e-01
   123    3.348287471039e-13
   124   -1.140187572020e-14
   125   -1.268081860352e-13
   126   -3.077252112327e-02
   127    1.278165120425e-14
   128    1.582134637687e-02
   129    1.058011386181e-02
   130   -2.896873213514e-14
   131   -1.522224438253e-14
   132   -1.563460707794e-13
   133   -1.101632747244e-13
   134   -5.440787728337e-14
   135   -8.408454126381e-14
   136   -6.291206364225e-02
   137   -1.084416616341e-13
   138   -8.997999941837e-14
   139   -1.222577471809e-13
   140   -1.056246968792e-01
   141    1.774251725628e-14
   142    5.231017493662e-14
   143   -1.434325765387e-13
   144   -8.289023425943e-02
   145   -5.817906667745e-14
   146   -1.638333360409e-13
   147   -8.303587881194e-13
   148    1.410137834427e-02
   149    1.041990283975e-14
   150   -6.725720912992e-03
   151    4.054769599699e-03
   152   -6.880941177534e-15
   153    2.076035865448e-14
   154   -4.246988263954e-13
   155   -3.409804485944e-13
   156   -9.781710204961e-14
   157    1.121353742902e-13
   158    9.891335561978e-02
   159   -8.605184459873e-14
   160   -1.523714772012e-13
   161    1.826014916705e-13
   162    1.637799151930e-01
   163   -3.800492586527e-14
   164   -1.385712772058e-13
   165    1.099324346311e-13
   166    1.430586136221e-01
   167    3.505825149743e-13
   168   -6.619929470676e-13
   169   -3.367649465304e-13
   170   -8.880361099264e-03
   171    6.728154034168e-15
   172    7.235872176351e-03
   173    3.440232486084e-05
   174   -6.526581362650e-15
   175    2.088338009767e-14
   176   -2.118614409661e-13
   177   -1.591950388544e-13
   178    5.695521120226e-14
   179   -1.468626610026e-13
   180    3.743009407130e-02
   181   -7.362010164928e-14
   182    9.447509037898e-14
   183   -2.184679011812e-13
   184    6.220544801704e-02
   185   -2.668297147779e-13
   186    1.575815224571e-13
   187   -2.515724824674e-13
   188    8.795145181693e-02
   189   -3.203111838376e-13
   190    1.282312768801e-12
   191    1.781764834563e-12
   192    1.808335388748e-02
   193    3.871482156394e-15
   194   -1.249647012476e-02
   195   -1.405769902077e-02
   196    1.563235007954e-14
   197   -1.837562559354e-14
   198    8.901201485142e-14
   199    1.100668864917e-13
   200   -3.739694842946e-14
   201   -2.219830611715e-14
   202   -5.687137316011e-15
   203    1.991881173918e-15
   204    2.272157147438e-03
Sym=X
Ene= 2.001558
Spin=Alpha
Occup=1
     1   -7.613216330577e-03
     2   -1.260823943920e-02
     3   -1.920963894661e-02
     4   -2.930677999178e-03
     5    8.286345794275e-14
     6    3.456711972476e-02
     7   -3.550621699988e-02
     8   -2.598258166964e-03
     9    1.294481476928e-13
    10    2.352660614181e-02
    11   -2.253318068885e-02
    12   -1.458960690163e-02
    13    1.891473365013e-13
    14   -2.889192918043e-01
    15   -6.973645869109e-02
    16   -1.095896883414e-01
    17   -3.797120147899e-14
    18   -1.057497366570e-03
    19    2.689061512870e-14
    20   -6.779935776028e-15
    21   -1.439824768595e-03
    22    2.119131847548e-03
    23    7.068789498461e-03
    24    6.292867356654e-03
    25    1.357723499259e-02
    26   -2.442453191021e-03
    27    1.289410992426e-03
    28   -8.023550353617e-04
    29   -8.363500077683e-15
    30    1.055601653668e-02
    31    1.224387263823e-02
    32   -7.437848242655e-03
    33   -4.977047393897e-02
    34   -3.886443308764e-04
    35    1.331862298795e-03
    36    4.432746653454e-15
    37    1.560906043028e-02
    38    1.161970328173e-02
    39   -8.658641707073e-03
    40   -2.421933337552e-02
    41    2.193417891356e-03
    42   -1.643301309611e-03
    43   -2.572849053919e-14
    44   -2.487601642069e-02
    45   -3.913496110698e-02
    46   -8.747286101949e-02
    47    7.301056177396e-02
    48   -1.946413249535e-13
    49    1.115783047660e-01
    50   -1.385563542534e-01
    51    1.208195074168e-01
    52   -3.069510241126e-13
    53    1.135053592740e-01
    54   -1.173860767581e-02
    55   -2.996303928111e-04
    56   -2.075298035936e-13
    57    5.896008308931e-02
    58    4.280235207999e-03
    59   -3.206512610992e-02
    60   -4.281877475667e-14
    61   -7.315788747596e-03
    62   -5.107583963807e-14
    63   -9.937394068419e-15
    64    2.849486860754e-02
    65   -1.259058927994e-02
    66   -2.231031698666e-03
    67   -2.643216858436e-03
    68    1.283414613055e-01
    69   -2.266186522875e-01
    70    5.533041300980e-14
    71   -1.587817582570e-03
    72    1.455989604210e-01
    73   -2.582674238476e-01
    74    5.728946459768e-14
    75   -9.685110688382e-02
    76    3.765187850952e-02
    77   -1.421845229336e-01
    78    6.824994399529e-14
    79   -2.987376630655e-02
    80   -4.113899715648e-05
    81    4.557358154635e-03
    82    7.431687853315e-14
    83   -1.045406799099e-02
    84   -1.210032661907e-14
    85    8.184977761124e-15
    86    3.940863169989e-03
    87   -1.924568101406e-02
    88   -1.686755691370e-02
    89   -2.840655629811e-02
    90    2.085992749186e-02
    91   -1.815593912296e-03
    92   -3.121754947142e-13
    93    8.109394076631e-02
    94    3.563790143189e-02
    95   -3.984262661804e-03
    96   -5.507720677856e-13
    97    8.910802868848e-02
    98   -3.075179446613e-02
    99    6.673028156910e-02
   100   -4.314479831722e-13
   101   -2.760418545615e-01
   102   -5.618565158996e-02
   103    1.288017751831e-01
   104   -2.225211411413e-13
   105   -3.096242736858e-03
   106   -2.077962212982e-14
   107   -9.249431009144e-14
   108   -3.385488097731e-02
   109    2.072035764458e-02
   110    1.212119476958e-02
   111    2.052928062176e-02
   112   -1.306118198344e-01
   113    1.035117545930e-01
   114   -5.120839335055e-13
   115   -6.196925553540e-02
   116   -1.999950696816e-01
   117    1.595317973172e-01
   118   -8.103866996706e-13
   119   -7.959763005819e-02
   120   -1.732437333993e-01
   121    1.620565897337e-01
   122   -7.250873076784e-13
   123   -2.308434239016e-02
   124    2.483166829437e-03
   125    1.189787201221e-02
   126   -5.431035207892e-14
   127   -2.223336554731e-03
   128    4.777103325061e-14
   129    2.620154940548e-14
   130    9.321925303752e-03
   131    6.757334467838e-04
   132    9.159455365835e-03
   133    1.577022906683e-02
   134   -1.603991003231e-02
   135    3.516080153571e-02
   136   -4.223787253760e-13
   137   -4.320807120413e-02
   138   -2.485494029990e-02
   139    5.392888806884e-02
   140   -6.940547007798e-13
   141   -1.064417458527e-01
   142   -4.860731956377e-02
   143    7.038467378078e-02
   144   -6.006689541529e-13