[Molden Format]
[Atoms] (Angs)
  C      1    6     -0.00754183     -1.75895763      0.00000000
  H      2    1     -2.09769850     -1.41880678     -0.00000000
  H      3    1     -0.13527422     -2.83956838     -0.00000000
  H      4    1      0.04053511      2.02026369      0.00000000
  C      5    6     -1.22066484      0.39918184     -0.00000000
  O      6    8     -2.25210141      1.05663720     -0.00000000
  C      7    6      1.24009552      0.27789184      0.00000000
  O      8    8      2.33767996      1.06122493      0.00000000
  N      9    7      0.03634586      1.00852936      0.00000000
  N     10    7     -1.18738304     -0.97903470     -0.00000000
  C     11    6      1.22288875     -1.12258096      0.00000000
  H     12    1      2.15640383     -1.68445878      0.00000000
[GTO]
1    0
S    6    1.000000
   4.56324000E+03    1.96665000E-03 
   6.82024000E+02    1.52306000E-02 
   1.54973000E+02    7.61269000E-02 
   4.44553000E+01    2.60801000E-01 
   1.30290000E+01    6.16462000E-01 
   1.82773000E+00    2.21006000E-01 
SP   3    1.000000
   2.09642000E+01    1.14660000E-01   4.02487000E-02 
   4.80331000E+00    9.19999000E-01   2.37594000E-01 
   1.45933000E+00   -3.03068000E-03   8.15854000E-01 
SP   1    1.000000
   4.83456000E-01    1.00000000E+00   1.00000000E+00 
SP   1    1.000000
   1.45585000E-01    1.00000000E+00   1.00000000E+00 
SP   1    1.000000
   4.38000000E-02    1.00000000E+00   1.00000000E+00 
D    1    1.000000
   6.26000000E-01    1.00000000E+00 

2    0
S    3    1.000000
   3.38650000E+01    2.54938000E-02 
   5.09479000E+00    1.90373000E-01 
   1.15879000E+00    8.52161000E-01 
S    1    1.000000
   3.25840000E-01    1.00000000E+00 
S    1    1.000000
   1.02741000E-01    1.00000000E+00 
S    1    1.000000
   3.60000000E-02    1.00000000E+00 
P    1    1.000000
   7.50000000E-01    1.00000000E+00 

3    0
S    3    1.000000
   3.38650000E+01    2.54938000E-02 
   5.09479000E+00    1.90373000E-01 
   1.15879000E+00    8.52161000E-01 
S    1    1.000000
   3.25840000E-01    1.00000000E+00 
S    1    1.000000
   1.02741000E-01    1.00000000E+00 
S    1    1.000000
   3.60000000E-02    1.00000000E+00 
P    1    1.000000
   7.50000000E-01    1.00000000E+00 

4    0
S    3    1.000000
   3.38650000E+01    2.54938000E-02 
   5.09479000E+00    1.90373000E-01 
   1.15879000E+00    8.52161000E-01 
S    1    1.000000
   3.25840000E-01    1.00000000E+00 
S    1    1.000000
   1.02741000E-01    1.00000000E+00 
S    1    1.000000
   3.60000000E-02    1.00000000E+00 
P    1    1.000000
   7.50000000E-01    1.00000000E+00 

5    0
S    6    1.000000
   4.56324000E+03    1.96665000E-03 
   6.82024000E+02    1.52306000E-02 
   1.54973000E+02    7.61269000E-02 
   4.44553000E+01    2.60801000E-01 
   1.30290000E+01    6.16462000E-01 
   1.82773000E+00    2.21006000E-01 
SP   3    1.000000
   2.09642000E+01    1.14660000E-01   4.02487000E-02 
   4.80331000E+00    9.19999000E-01   2.37594000E-01 
   1.45933000E+00   -3.03068000E-03   8.15854000E-01 
SP   1    1.000000
   4.83456000E-01    1.00000000E+00   1.00000000E+00 
SP   1    1.000000
   1.45585000E-01    1.00000000E+00   1.00000000E+00 
SP   1    1.000000
   4.38000000E-02    1.00000000E+00   1.00000000E+00 
D    1    1.000000
   6.26000000E-01    1.00000000E+00 

6    0
S    6    1.000000
   8.58850000E+03    1.89515000E-03 
   1.29723000E+03    1.43859000E-02 
   2.99296000E+02    7.07320000E-02 
   8.73771000E+01    2.40001000E-01 
   2.56789000E+01    5.94797000E-01 
   3.74004000E+00    2.80802000E-01 
SP   3    1.000000
   4.21175000E+01    1.13889000E-01   3.65114000E-02 
   9.62837000E+00    9.20811000E-01   2.37153000E-01 
   2.85332000E+00   -3.27447000E-03   8.19702000E-01 
SP   1    1.000000
   9.05661000E-01    1.00000000E+00   1.00000000E+00 
SP   1    1.000000
   2.55611000E-01    1.00000000E+00   1.00000000E+00 
SP   1    1.000000
   8.45000000E-02    1.00000000E+00   1.00000000E+00 
D    1    1.000000
   1.29200000E+00    1.00000000E+00 

7    0
S    6    1.000000
   4.56324000E+03    1.96665000E-03 
   6.82024000E+02    1.52306000E-02 
   1.54973000E+02    7.61269000E-02 
   4.44553000E+01    2.60801000E-01 
   1.30290000E+01    6.16462000E-01 
   1.82773000E+00    2.21006000E-01 
SP   3    1.000000
   2.09642000E+01    1.14660000E-01   4.02487000E-02 
   4.80331000E+00    9.19999000E-01   2.37594000E-01 
   1.45933000E+00   -3.03068000E-03   8.15854000E-01 
SP   1    1.000000
   4.83456000E-01    1.00000000E+00   1.00000000E+00 
SP   1    1.000000
   1.45585000E-01    1.00000000E+00   1.00000000E+00 
SP   1    1.000000
   4.38000000E-02    1.00000000E+00   1.00000000E+00 
D    1    1.000000
   6.26000000E-01    1.00000000E+00 

8    0
S    6    1.000000
   8.58850000E+03    1.89515000E-03 
   1.29723000E+03    1.43859000E-02 
   2.99296000E+02    7.07320000E-02 
   8.73771000E+01    2.40001000E-01 
   2.56789000E+01    5.94797000E-01 
   3.74004000E+00    2.80802000E-01 
SP   3    1.000000
   4.21175000E+01    1.13889000E-01   3.65114000E-02 
   9.62837000E+00    9.20811000E-01   2.37153000E-01 
   2.85332000E+00   -3.27447000E-03   8.19702000E-01 
SP   1    1.000000
   9.05661000E-01    1.00000000E+00   1.00000000E+00 
SP   1    1.000000
   2.55611000E-01    1.00000000E+00   1.00000000E+00 
SP   1    1.000000
   8.45000000E-02    1.00000000E+00   1.00000000E+00 
D    1    1.000000
   1.29200000E+00    1.00000000E+00 

9    0
S    6    1.000000
   6.29348000E+03    1.96979000E-03 
   9.49044000E+02    1.49613000E-02 
   2.18776000E+02    7.35006000E-02 
   6.36916000E+01    2.48937000E-01 
   1.88282000E+01    6.02460000E-01 
   2.72023000E+00    2.56202000E-01 
SP   3    1.000000
   3.06331000E+01    1.11906000E-01   3.83119000E-02 
   7.02614000E+00    9.21666000E-01   2.37403000E-01 
   2.11205000E+00   -2.56919000E-03   8.17592000E-01 
SP   1    1.000000
   6.84009000E-01    1.00000000E+00   1.00000000E+00 
SP   1    1.000000
   2.00878000E-01    1.00000000E+00   1.00000000E+00 
SP   1    1.000000
   6.39000000E-02    1.00000000E+00   1.00000000E+00 
D    1    1.000000
   9.13000000E-01    1.00000000E+00 

10    0
S    6    1.000000
   6.29348000E+03    1.96979000E-03 
   9.49044000E+02    1.49613000E-02 
   2.18776000E+02    7.35006000E-02 
   6.36916000E+01    2.48937000E-01 
   1.88282000E+01    6.02460000E-01 
   2.72023000E+00    2.56202000E-01 
SP   3    1.000000
   3.06331000E+01    1.11906000E-01   3.83119000E-02 
   7.02614000E+00    9.21666000E-01   2.37403000E-01 
   2.11205000E+00   -2.56919000E-03   8.17592000E-01 
SP   1    1.000000
   6.84009000E-01    1.00000000E+00   1.00000000E+00 
SP   1    1.000000
   2.00878000E-01    1.00000000E+00   1.00000000E+00 
SP   1    1.000000
   6.39000000E-02    1.00000000E+00   1.00000000E+00 
D    1    1.000000
   9.13000000E-01    1.00000000E+00 

11    0
S    6    1.000000
   4.56324000E+03    1.96665000E-03 
   6.82024000E+02    1.52306000E-02 
   1.54973000E+02    7.61269000E-02 
   4.44553000E+01    2.60801000E-01 
   1.30290000E+01    6.16462000E-01 
   1.82773000E+00    2.21006000E-01 
SP   3    1.000000
   2.09642000E+01    1.14660000E-01   4.02487000E-02 
   4.80331000E+00    9.19999000E-01   2.37594000E-01 
   1.45933000E+00   -3.03068000E-03   8.15854000E-01 
SP   1    1.000000
   4.83456000E-01    1.00000000E+00   1.00000000E+00 
SP   1    1.000000
   1.45585000E-01    1.00000000E+00   1.00000000E+00 
SP   1    1.000000
   4.38000000E-02    1.00000000E+00   1.00000000E+00 
D    1    1.000000
   6.26000000E-01    1.00000000E+00 

12    0
S    3    1.000000
   3.38650000E+01    2.54938000E-02 
   5.09479000E+00    1.90373000E-01 
   1.15879000E+00    8.52161000E-01 
S    1    1.000000
   3.25840000E-01    1.00000000E+00 
S    1    1.000000
   1.02741000E-01    1.00000000E+00 
S    1    1.000000
   3.60000000E-02    1.00000000E+00 
P    1    1.000000
   7.50000000E-01    1.00000000E+00 

[MO]
Sym=X
Ene= 2.011836
Spin=Alpha
Occup=1
     1    1.534953553826e-14
     2    1.505755132081e-14
     3   -2.066097174758e-14
     4    4.173931963326e-15
     5    5.122450943272e-02
     6    2.003382081917e-15
     7   -4.415611633950e-14
     8    1.825073726853e-14
     9    8.636212636754e-02
    10    7.831664656692e-14
    11    2.428562236903e-13
    12   -3.863082422504e-14
    13    9.318796862261e-02
    14   -9.677576007779e-12
    15   -2.387190643714e-12
    16   -2.353431041301e-12
    17    1.601715747651e-02
    18    3.021949449636e-15
    19    1.240272781341e-02
    20    4.754415834398e-03
    21   -9.097187749690e-15
    22   -1.201198546248e-15
    23    4.662058952479e-15
    24    8.538897502339e-15
    25    4.733989153336e-13
    26    9.169168148310e-13
    27    8.526439073802e-15
    28    4.996651355821e-15
    29   -3.851031242000e-03
    30    3.446254326577e-15
    31   -5.307362495321e-14
    32    1.538825128396e-13
    33   -1.036458864829e-12
    34   -4.177290565414e-15
    35   -6.963461538407e-15
    36    4.389086624434e-03
    37   -1.056017636301e-14
    38   -2.209921467919e-16
    39    8.302361346719e-13
    40   -8.885532690573e-13
    41    1.490465969993e-15
    42    9.237200794384e-15
    43    4.033069148019e-03
    44    8.288374896932e-15
    45    6.751346892761e-15
    46   -2.178656107520e-14
    47    3.277385085203e-14
    48   -1.557972635338e-03
    49    1.483809300202e-14
    50   -4.915934100143e-14
    51    2.127216880528e-14
    52   -4.892902175686e-03
    53   -6.314805385232e-13
    54    3.893659939021e-13
    55    4.176459280452e-13
    56   -4.695758673390e-04
    57   -3.403033258975e-13
    58    6.407214573980e-13
    59    1.148172602083e-12
    60    1.467284088024e-02
    61    1.227743826918e-14
    62    8.677984684808e-03
    63    7.455503650699e-03
    64    8.488438675150e-16
    65   -6.968557584093e-15
    66    4.002791094288e-14
    67    2.122581238246e-14
    68    2.692015268172e-14
    69    2.192005497911e-15
    70   -6.549283354735e-03
    71    7.260130892096e-14
    72    4.919031880824e-14
    73    2.350995548006e-14
    74   -1.034001106958e-02
    75    1.102381064201e-13
    76    1.234532379252e-13
    77   -4.292918175810e-14
    78   -8.030753212088e-03
    79    3.802068395725e-13
    80   -2.015882698758e-14
    81   -4.015555148768e-13
    82   -9.461635394010e-03
    83   -2.345659015061e-15
    84   -3.054215343788e-04
    85    5.600022051778e-04
    86    3.460212708437e-15
    87   -1.389643455384e-15
    88    6.082746687767e-14
    89    5.152345403866e-14
    90   -1.058225868763e-14
    91   -2.422858864029e-15
    92   -3.114599540033e-02
    93   -1.875294394404e-14
    94    7.704399129274e-16
    95   -1.888879089393e-14
    96   -5.644246093409e-02
    97    1.213887221766e-13
    98   -2.809464632957e-14
    99    4.134474244647e-13
   100   -5.450174037734e-02
   101    5.994536443602e-12
   102   -1.636680068334e-12
   103   -5.859800254218e-14
   104   -3.772056824637e-02
   105   -1.494030992413e-14
   106   -3.556517183970e-02
   107   -2.630787318016e-02
   108    3.703779090984e-15
   109   -1.157260575178e-14
   110   -1.434347656563e-14
   111   -2.259569827238e-14
   112    3.413228583769e-14
   113    2.743539111942e-14
   114   -3.629942936877e-01
   115    8.138883413337e-14
   116    6.384549382794e-14
   117   -6.921186783334e-15
   118   -4.159254428136e-01
   119   -7.429133789054e-15
   120    2.890230460260e-14
   121    7.247837573038e-14
   122   -2.950834745290e-01
   123   -1.316705254646e-16
   124    1.783636422591e-13
   125    4.113351778386e-14
   126   -3.170053546093e-02
   127   -8.045223391407e-16
   128    1.461370404703e-02
   129    9.644184076257e-03
   130   -3.490695748847e-15
   131   -1.072668459450e-16
   132    3.079600498425e-16
   133    9.580298634454e-15
   134    3.730101576364e-14
   135   -1.969867702259e-14
   136    5.409961524811e-02
   137   -5.071200977482e-14
   138    3.007062018240e-14
   139   -2.579344642246e-14
   140    8.666237796597e-02
   141    9.077501721356e-14
   142    1.517734830962e-13
   143   -5.035457524343e-14
   144    1.035363408646e-01
   145   -6.197591222598e-12
   146   -3.449079131715e-13
   147    7.080633304211e-13
   148    2.616573585536e-02
   149   -8.272223533768e-15
   150   -1.925124379951e-03
   151   -7.472340619259e-04
   152    1.994025804628e-15
   153    2.723351645693e-15
   154   -8.515442824860e-14
   155   -6.738727273293e-14
   156    3.463217013200e-15
   157   -9.577561139519e-15
   158   -3.249732345166e-02
   159   -1.507363290616e-14
   160    1.724826700794e-14
   161   -3.308764087625e-14
   162   -5.146760841256e-02
   163   -1.611172269571e-13
   164   -3.943924013139e-14
   165    1.688915270860e-13
   166   -7.388302075163e-02
   167    4.069044378202e-12
   168    1.751989504295e-12
   169    1.206036520209e-12
   170   -3.333169375496e-02
   171    7.902574573923e-15
   172    4.006083378965e-03
   173   -2.988072326363e-03
   174    8.056318034907e-15
   175   -5.231894661581e-15
   176   -2.731009545532e-15
   177    4.624164431663e-15
   178    2.269713898276e-14
   179    3.761106543853e-14
   180    6.257756408535e-02
   181   -3.378277863111e-14
   182    1.283070217532e-14
   183    4.316993018239e-14
   184    1.047424044669e-01
   185    2.318428339568e-13
   186    4.138314117116e-13
   187    4.083251453628e-13
   188    1.256984950369e-01
   189    6.303742064330e-12
   190   -1.100382673685e-12
   191   -2.039858698428e-12
   192    2.046141518511e-02
   193    5.549449073848e-15
   194   -9.907211086677e-03
   195   -4.447218974940e-03
   196   -1.689014756888e-15
   197    4.372948024741e-15
   198   -3.146187764322e-14
   199   -3.293614455258e-14
   200   -6.521741488817e-13
   201   -1.082341504915e-13
   202   -5.059822752936e-15
   203    4.350119377258e-15
   204    4.527486103012e-03
Sym=X
Ene= 2.002596
Spin=Alpha
Occup=1
     1    1.159049157144e-13
     2    1.159974798760e-13
     3    1.198408622287e-13
     4    5.765486919536e-15
     5    3.189148753482e-02
     6   -1.098700405348e-13
     7    1.929497930476e-13
     8   -1.156773901908e-14
     9    5.598302043772e-02
    10    3.772157416235e-13
    11    1.652994290800e-14
    12    4.657816864103e-13
    13    2.000702805142e-02
    14    1.489978899794e-11
    15    3.283749115614e-12
    16    3.218919112662e-12
    17    2.340722112120e-03
    18    6.195855809099e-15
    19   -2.138215583453e-02
    20    7.554392392852e-03
    21    1.559172657063e-14
    22    1.066916156335e-14
    23   -8.797371425447e-15
    24    3.655108069326e-14
    25   -7.812096861854e-13
    26    2.674691944763e-13
    27   -6.510242672853e-15
    28   -3.112969223728e-15
    29    1.491441867099e-02
    30   -4.086764106934e-14
    31    3.173933182925e-15
    32    1.830800031014e-13
    33    9.829231568309e-13
    34    1.015800897877e-14
    35   -2.203037809854e-15
    36    2.684864382165e-03
    37    1.762205625397e-14
    38   -1.219434443240e-13
    39    9.301156308199e-13
    40   -3.066335109807e-13
    41   -2.617815749389e-15
    42   -4.579773106263e-15
    43   -1.381830094229e-02
    44    1.208399763699e-13
    45    7.778214482867e-14
    46   -4.136058269021e-14
    47    2.369458106032e-14
    48    2.882186729948e-02
    49    1.113125434831e-13
    50   -4.620601241132e-14
    51    3.421440008394e-14
    52    5.118559457824e-02
    53    1.833541805378e-13
    54    2.826206685357e-13
    55   -1.535857403061e-13
    56    3.023057752267e-02
    57   -2.882082605036e-12
    58   -3.166831353012e-13
    59    1.318563444633e-12
    60    1.894779513246e-03
    61   -1.528009725034e-14
    62   -2.413875058923e-02
    63   -2.441847933707e-02
    64   -2.348156025611e-14
    65   -2.136206197513e-14
    66    1.326896050429e-13
    67    5.622776734660e-14
    68    7.388002072800e-14
    69    9.511413005391e-14
    70    4.269098686285e-02
    71    3.287747683463e-13
    72    1.187206466191e-13
    73    1.382944080152e-13
    74    6.726102468878e-02
    75    3.329779666646e-13
    76    1.063442873910e-13
    77    1.654562720955e-13
    78    5.914163444501e-02
    79    2.598382336849e-13
    80    1.305360127390e-13
    81   -1.331187409203e-13
    82    4.420656394527e-03
    83   -3.567750178096e-15
    84    4.041137052834e-03
    85   -3.223470090039e-03
    86    1.058162523761e-14
    87   -1.664925542128e-15
    88   -4.863144241991e-15
    89    3.355360853766e-14
    90    3.497590204774e-14
    91    1.107721557232e-13
    92   -9.279247910600e-02
    93   -2.046654605282e-13
    94    4.120121614350e-14
    95    1.843835531986e-13
    96   -1.657563622796e-01
    97    2.230407708572e-13
    98   -3.928221586842e-14
    99   -1.232651021693e-13
   100   -9.357969748606e-02
   101    4.649939802054e-13
   102   -1.680787735305e-12
   103    1.255912262395e-12
   104   -1.489135021759e-02
   105    3.598788625527e-15
   106    1.404772019054e-02
   107   -1.358673565445e-02
   108    4.906604860040e-14
   109   -1.206725381888e-14
   110    1.119497668858e-14
   111    1.599213011363e-14
   112    1.123405291237e-13
   113   -3.036589312227e-13
   114   -4.945551042783e-02
   115   -5.636786350944e-14
   116    1.338070970439e-13
   117   -3.533639661400e-13
   118   -6.101327128226e-02
   119   -2.644656492751e-14
   120    1.034322444637e-13
   121   -2.351914132588e-13
   122   -3.376001930964e-02
   123    8.873165518594e-14
   124    5.586433539857e-15
   125   -3.069942076760e-15
   126    2.001879427590e-02
   127   -2.356094756588e-15
   128    8.285346049149e-03
   129    5.197232100733e-03
   130   -5.638144324511e-15
   131    6.987452806682e-15
   132   -8.726474955903e-14
   133   -7.856525021163e-14
   134    2.671776451771e-14
   135    1.132851844965e-14
   136   -1.650984560224e-01
   137    4.365079071513e-14
   138    2.998285754307e-14
   139    2.007429531418e-14
   140   -2.698739411419e-01
   141   -2.142392588218e-13
   142    1.348574071627e-13
   143    1.302561879512e-13
   144   -2.724682268478e-01
   145   -9.240012567571e-13
   146   -4.386952962591e-13
   147   -1.450925605767e-12
   148   -2.143114638916e-02
   149    2.769674091751e-15
   150   -9.408923822584e-03
   151    5.777216336305e-03
   152    2.468524110776e-15
   153    5.335578121196e-15
   154   -4.698984743960e-14
   155   -1.521610144535e-14
   156   -7.063887871363e-14
   157    6.666617978859e-14
   158    1.635030143637e-01
   159   -1.177706055864e-13
   160   -9.899756154493e-14
   161    1.166797305792e-13
   162    2.670450203998e-01
   163   -3.162337368478e-13
   164   -2.758012570536e-13
   165    5.370612356532e-16
   166    2.711547830771e-01
   167   -2.499119039408e-13
   168   -1.393801102430e-12
   169   -5.659370250850e-13
   170    3.068164352158e-02
   171    1.211872243038e-14
   172    3.272167215727e-03
   173    2.749382245167e-03
   174    3.098776233893e-15
   175    8.612116908959e-15
   176   -1.603797334052e-13
   177   -1.394311496445e-13
   178    1.477500772751e-14
   179   -1.642294353480e-13
   180   -3.490585089357e-02
   181    3.215452499515e-14
   182    3.287633911562e-14
   183   -2.258426537978e-13
   184   -6.026880446834e-02
   185   -2.113815776582e-13
   186    3.158068613103e-13
   187   -4.626105613286e-13
   188   -5.408973828653e-02
   189   -1.170946047906e-11
   190    4.992971250204e-12
   191    1.549114129258e-12
   192   -2.604768264038e-03
   193   -1.472582554065e-15
   194   -1.162860250317e-03
   195   -1.147087351076e-02
   196    2.094375077866e-14
   197   -3.578050570336e-15
   198    9.458585998854e-14
   199    4.836343459830e-14
   200   -2.811926195248e-13
   201   -1.136579600798e-12
   202   -1.717942611859e-15
   203   -3.603455320569e-15
   204   -3.103481770298e-03
Sym=X
Ene= 2.001990
Spin=Alpha
Occup=1
     1    1.024218273579e-02
     2    1.650940843019e-02
     3   -2.449653374283e-02
     4   -1.003963354087e-02
     5    2.414438294606e-14
     6   -4.301045349041e-02
     7   -4.156383124145e-02
     8   -1.742903385828e-02
     9    3.943301279211e-14
    10   -7.249407702519e-02
    11   -3.417692246230e-02
    12   -3.978896647256e-02
    13    5.582347784712e-15
    14   -2.371587750965e-01
    15   -5.957258718888e-02
    16   -5.366276461320e-02
    17   -8.105083140598e-14
    18    6.961052872649e-04
    19   -2.858615975410e-14
    20    5.452423111182e-15
    21   -3.768318275488e-03
    22   -4.032874121892e-04
    23    1.162465298662e-03
    24    3.105591922428e-03
    25    3.986346700598e-03
    26    2.697644702832e-03
    27    2.066915237306e-04
    28   -1.353498393980e-04
    29    2.304049807670e-14
    30    4.001286885295e-03
    31    3.356775532984e-03
    32    4.470688051730e-03
    33   -1.951724953025e-02
    34   -1.295984611547e-03
    35   -1.260276385101e-03
    36    1.128530469806e-14
    37   -1.671029818940e-02
    38   -1.653297688259e-02
    39    1.679359454179e-02
    40   -4.433000855424e-02
    41   -4.088846365018e-04
    42    3.574876367100e-03
    43   -4.098012339989e-15
    44   -1.010316984805e-02
    45   -1.603801423815e-02
    46    2.963775587029e-02
    47    1.458290885994e-02
    48    2.731643561514e-14
    49    4.189340666362e-02
    50    4.952532651462e-02
    51    2.500806971161e-02
    52    9.948229821747e-14
    53    5.790027445457e-02
    54    3.200913339371e-02
    55   -4.708237062953e-03
    56   -1.430802832013e-13
    57    4.528603626348e-02
    58    9.599702487900e-03
    59    1.914588073049e-02
    60   -1.152702508807e-13
    61   -1.100335660705e-03
    62    2.494858325075e-15
    63   -5.722106346162e-14
    64    6.330904658797e-03
    65    8.687288410914e-03
    66    2.277313000151e-03
    67    3.785003340284e-03
    68   -1.429380960407e-02
    69   -9.305588501833e-03
    70   -2.795565528970e-14
    71   -1.070163455020e-02
    72   -2.126088463087e-02
    73   -1.448457479755e-02
    74   -1.809822083989e-14
    75   -6.450349981494e-03
    76   -2.333960897552e-02
    77   -2.005950720111e-02
    78    2.115218859470e-15
    79    1.863409360390e-02
    80    6.003543696508e-03
    81   -2.995474105348e-03
    82    1.270245533058e-13
    83    3.189258986723e-04
    84   -1.752883812662e-15
    85   -3.203747805472e-15
    86    2.165566448688e-04
    87    5.346519857608e-04
    88   -1.248621666668e-03
    89   -3.006116263913e-03
    90    9.144836413629e-03
    91   -4.836136099959e-02
    92   -7.315125313173e-14
    93    1.112829124548e-02
    94    1.320637849697e-02
    95   -8.724861648318e-02
    96   -1.304321776128e-13
    97   -1.359435830133e-03
    98   -2.630016951109e-02
    99    4.030255820471e-02
   100   -1.341007076337e-13
   101   -4.161028977343e-01
   102   -3.824295013455e-02
   103    1.957318097166e-01
   104    1.172010054302e-13
   105    8.192390156403e-04
   106    1.892985582371e-15
   107   -6.514836399376e-15
   108   -4.381753776730e-02
   109    1.779062533475e-02
   110   -2.853879844997e-03
   111   -4.221553946968e-03
   112   -1.964864022337e-01
   113    3.188828313697e-01
   114   -4.029212921858e-14
   115    1.398597454838e-02
   116   -2.261788664611e-01
   117    3.671101787177e-01
   118   -9.141874098770e-14
   119    1.648122426204e-02
   120   -1.746298912818e-01
   121    2.667348922083e-01
   122    3.309038399442e-14
   123   -2.097022677068e-03
   124    5.350241752860e-04
   125    3.426263045337e-03
   126   -1.038082924090e-13
   127    6.393154524596e-04
   128    7.317574945998e-15
   129    7.139891504015e-15
   130    1.026319356896e-02
   131   -6.069588730184e-03
   132    1.591676278525e-02
   133    2.615228260597e-02
   134   -6.441608926302e-02
   135   -6.309456382654e-03
   136   -1.046192670775e-13
   137   -7.011933838623e-02
   138   -1.043005004429e-01
   139   -1.431685184631e-02
   140   -1.728551625139e-13
   141   -1.191835556899e-01
   142   -8.827174768483e-02
   143    8.194413441053e-03
   144   -1.137913179200e-13
   145   -1.263842197576e-01
   146    4.964747546965e-02
   147    7.141931940892e-03
   148   -2.040953591153e-14
   149    2.506454509891e-05
   150   -8.557682558718e-15
   151    6.207750785541e-15
   152    2.932781186819e-05
   153    3.449938748482e-03
   154    2.381991136705e-03
   155    3.955541648843e-03
   156    1.750791990162e-03
   157   -1.072910082738e-02
   158    1.838450235462e-13
   159   -1.066571155092e-02
   160    2.594359269996e-03
   161   -1.633757103280e-02
   162    2.937372386954e-13
   163   -2.063538436186e-02
   164    7.478887517886e-03
   165   -2.370936000771e-02
   166    3.433847142983e-13
   167    1.881427485130e-02
   168    1.060243746290e-03
   169    2.319903057426e-02
   170    1.226834795610e-13
   171   -1.364642233571e-04
   172    3.361976030545e-15
   173    5.610280820937e-15
   174   -1.753942688370e-03
   175    1.102180223423e-03
   176   -2.014969082620e-02
   177   -3.145398850895e-02
   178    3.037295202957e-02
   179    4.612550126231e-02
   180   -5.156032555692e-14
   181    7.289506024239e-02
   182    5.199674205244e-02
   183    6.289023505681e-02
   184   -9.088734033306e-14
   185    1.690672360485e-01
   186    2.339501239386e-04
   187    7.241997250250e-02
   188   -9.038350272678e-14
   189    6.877053831117e-01
   190   -8.180217838008e-02
   191    8.559742253334e-02
   192    3.116914197545e-14
   193   -1.190383607250e-03
   194    2.473266932706e-15
   195    1.050137020767e-15
   196   -2.135114852835e-03
   197   -1.232638489840e-03
   198    1.883944252619e-02
   199    2.605958857341e-02
   200    8.999419081820e-03
   201    3.436743392088e-02
   202   -2.094455368994e-03
   203    1.428829049819e-03
   204   -8.738675799178e-15
Sym=X
Ene= 2.001255
Spin=Alpha
Occup=1
     1   -5.034026679643e-03
     2   -8.260796423924e-03
     3   -6.926430142251e-03
     4    1.846685918314e-02
     5    1.753901224212e-14
     6    1.943054241138e-02
     7   -1.192489968212e-02
     8    2.948541873671e-02
     9    2.097627500075e-14
    10    2.599358957719e-02
    11   -1.612930614685e-02
    12    2.389446881458e-02
    13   -7.855828451936e-14
    14    1.245923633088e-02
    15   -2.439638033421e-02
    16    4.041279706302e-03
    17    5.329736813328e-15
    18   -1.775861179482e-03
    19   -5.753918060414e-14
    20    1.271027654804e-14
    21    2.988016554258e-03
    22    2.050914994681e-03
    23    5.152315140173e-03
    24    2.190135339894e-02
    25    2.510191709059e-02
    26   -3.790025969637e-02
    27    2.028523332611e-03
    28    2.694558844443e-03
    29    3.249164860752e-14
    30   -1.052224988198e-02
    31   -1.759147430609e-02
    32   -2.975624675067e-03
    33   -4.152099394477e-03
    34   -4.266626754875e-04
    35   -9.851687676171e-04
    36    1.461591229817e-15
    37   -1.629143717529e-02
    38   -2.543396588248e-02
    39   -2.241506447276e-02
    40    2.565889745168e-02
    41    4.231578367022e-03
    42    4.363677637955e-03
    43    6.854908176483e-15
    44    1.224968985337e-02
    45    1.865214504701e-02
    46   -2.411575630053e-02
    47   -2.205709368193e-02
    48   -1.026442558185e-14
    49   -4.871575200482e-02
    50   -3.972021637934e-02
    51   -3.021971989982e-02
    52    2.571233218066e-14
    53   -4.028664958565e-02
    54   -8.379997270127e-02
    55   -1.054894100799e-01
    56   -7.977202104875e-14
    57    6.853628898395e-04
    58   -6.396951717798e-02
    59   -9.113740565721e-02
    60   -1.173387831596e-13
    61    1.623117752329e-03
    62    8.273503091193e-14
    63   -8.652271421811e-14
    64    5.816595347115e-02
    65    2.135747790839e-02
    66   -6.702652561036e-03
    67   -1.122881269547e-02
    68   -1.280920457978e-01
    69   -1.890902981621e-01
    70   -2.941752264559e-13
    71    3.247092589120e-02
    72   -1.988454643241e-01
    73   -2.921170983174e-01
    74   -4.562344278146e-13
    75    3.053214184475e-02
    76   -1.785652602574e-01
    77   -2.697106012699e-01
    78   -4.680925484291e-13
    79    2.007723122226e-05
    80   -7.410820992177e-03
    81   -1.637307177587e-02
    82   -1.677931799074e-14
    83    5.312636083900e-04
    84   -1.712375667284e-14
    85    1.072283780383e-14
    86   -1.488234449572e-02
    87   -6.214034427872e-03
    88    1.243991766313e-02
    89    1.666108947497e-02
    90   -7.403205394533e-02
    91   -3.778532865052e-02
    92   -4.193476279013e-14
    93   -3.425943176567e-02
    94   -1.280116615749e-01
    95   -6.811746866129e-02
    96   -7.144609061509e-14
    97   -8.091679337509e-02
    98   -1.540856730725e-02
    99   -2.272201127177e-02
   100   -6.475733305842e-14
   101   -1.030553118007e-01
   102    2.270365777502e-02
   103    1.800633743599e-02
   104    5.794992469425e-14
   105    3.911644228591e-03
   106   -1.876091242547e-14
   107    2.505419637272e-14
   108    1.843882735224e-04
   109   -2.084899797185e-02
   110    9.543468646200e-03
   111    1.347786015850e-02
   112    1.339637130626e-01
   113    7.540884153535e-02
   114   -3.456226894817e-14
   115   -4.251078474515e-02
   116    1.556165713869e-01
   117    8.737266761610e-02
   118   -4.252601414176e-14
   119    3.259721477146e-02
   120    7.691900078133e-02
   121    3.899398793915e-02
   122   -1.440681866647e-14
   123    2.659225455520e-02
   124   -1.093401569206e-03
   125   -5.559817698079e-03
   126   -1.218400380633e-14
   127    6.029014017243e-03
   128    4.480662031932e-15
   129    3.764203905063e-15
   130   -3.932046153198e-03
   131   -9.878377864295e-03
   132   -1.572620762844e-02
   133   -2.684318044706e-02
   134    1.652084892913e-02
   135   -4.232308069785e-02
   136    1.232573612719e-13
   137    7.248755777085e-02
   138    3.104486576107e-02
   139   -5.765428086728e-02
   140    1.955589008522e-13
   141    1.794521902564e-01
   142   -2.638450193024e-02
   143   -6.702917465307e-02
   144    2.417943388321e-13