[Molden Format]
[Atoms] (Angs)
  C      1    6     -0.00754183     -1.75895763      0.00000000
  H      2    1     -2.09769850     -1.41880678     -0.00000000
  H      3    1     -0.13527422     -2.83956838     -0.00000000
  H      4    1      0.04053511      2.02026369      0.00000000
  C      5    6     -1.22066484      0.39918184     -0.00000000
  O      6    8     -2.25210141      1.05663720     -0.00000000
  C      7    6      1.24009552      0.27789184      0.00000000
  O      8    8      2.33767996      1.06122493      0.00000000
  N      9    7      0.03634586      1.00852936      0.00000000
  N     10    7     -1.18738304     -0.97903470     -0.00000000
  C     11    6      1.22288875     -1.12258096      0.00000000
  H     12    1      2.15640383     -1.68445878      0.00000000
[GTO]
1    0
S    6    1.000000
   4.56324000E+03    1.96665000E-03 
   6.82024000E+02    1.52306000E-02 
   1.54973000E+02    7.61269000E-02 
   4.44553000E+01    2.60801000E-01 
   1.30290000E+01    6.16462000E-01 
   1.82773000E+00    2.21006000E-01 
SP   3    1.000000
   2.09642000E+01    1.14660000E-01   4.02487000E-02 
   4.80331000E+00    9.19999000E-01   2.37594000E-01 
   1.45933000E+00   -3.03068000E-03   8.15854000E-01 
SP   1    1.000000
   4.83456000E-01    1.00000000E+00   1.00000000E+00 
SP   1    1.000000
   1.45585000E-01    1.00000000E+00   1.00000000E+00 
SP   1    1.000000
   4.38000000E-02    1.00000000E+00   1.00000000E+00 
D    1    1.000000
   6.26000000E-01    1.00000000E+00 

2    0
S    3    1.000000
   3.38650000E+01    2.54938000E-02 
   5.09479000E+00    1.90373000E-01 
   1.15879000E+00    8.52161000E-01 
S    1    1.000000
   3.25840000E-01    1.00000000E+00 
S    1    1.000000
   1.02741000E-01    1.00000000E+00 
S    1    1.000000
   3.60000000E-02    1.00000000E+00 
P    1    1.000000
   7.50000000E-01    1.00000000E+00 

3    0
S    3    1.000000
   3.38650000E+01    2.54938000E-02 
   5.09479000E+00    1.90373000E-01 
   1.15879000E+00    8.52161000E-01 
S    1    1.000000
   3.25840000E-01    1.00000000E+00 
S    1    1.000000
   1.02741000E-01    1.00000000E+00 
S    1    1.000000
   3.60000000E-02    1.00000000E+00 
P    1    1.000000
   7.50000000E-01    1.00000000E+00 

4    0
S    3    1.000000
   3.38650000E+01    2.54938000E-02 
   5.09479000E+00    1.90373000E-01 
   1.15879000E+00    8.52161000E-01 
S    1    1.000000
   3.25840000E-01    1.00000000E+00 
S    1    1.000000
   1.02741000E-01    1.00000000E+00 
S    1    1.000000
   3.60000000E-02    1.00000000E+00 
P    1    1.000000
   7.50000000E-01    1.00000000E+00 

5    0
S    6    1.000000
   4.56324000E+03    1.96665000E-03 
   6.82024000E+02    1.52306000E-02 
   1.54973000E+02    7.61269000E-02 
   4.44553000E+01    2.60801000E-01 
   1.30290000E+01    6.16462000E-01 
   1.82773000E+00    2.21006000E-01 
SP   3    1.000000
   2.09642000E+01    1.14660000E-01   4.02487000E-02 
   4.80331000E+00    9.19999000E-01   2.37594000E-01 
   1.45933000E+00   -3.03068000E-03   8.15854000E-01 
SP   1    1.000000
   4.83456000E-01    1.00000000E+00   1.00000000E+00 
SP   1    1.000000
   1.45585000E-01    1.00000000E+00   1.00000000E+00 
SP   1    1.000000
   4.38000000E-02    1.00000000E+00   1.00000000E+00 
D    1    1.000000
   6.26000000E-01    1.00000000E+00 

6    0
S    6    1.000000
   8.58850000E+03    1.89515000E-03 
   1.29723000E+03    1.43859000E-02 
   2.99296000E+02    7.07320000E-02 
   8.73771000E+01    2.40001000E-01 
   2.56789000E+01    5.94797000E-01 
   3.74004000E+00    2.80802000E-01 
SP   3    1.000000
   4.21175000E+01    1.13889000E-01   3.65114000E-02 
   9.62837000E+00    9.20811000E-01   2.37153000E-01 
   2.85332000E+00   -3.27447000E-03   8.19702000E-01 
SP   1    1.000000
   9.05661000E-01    1.00000000E+00   1.00000000E+00 
SP   1    1.000000
   2.55611000E-01    1.00000000E+00   1.00000000E+00 
SP   1    1.000000
   8.45000000E-02    1.00000000E+00   1.00000000E+00 
D    1    1.000000
   1.29200000E+00    1.00000000E+00 

7    0
S    6    1.000000
   4.56324000E+03    1.96665000E-03 
   6.82024000E+02    1.52306000E-02 
   1.54973000E+02    7.61269000E-02 
   4.44553000E+01    2.60801000E-01 
   1.30290000E+01    6.16462000E-01 
   1.82773000E+00    2.21006000E-01 
SP   3    1.000000
   2.09642000E+01    1.14660000E-01   4.02487000E-02 
   4.80331000E+00    9.19999000E-01   2.37594000E-01 
   1.45933000E+00   -3.03068000E-03   8.15854000E-01 
SP   1    1.000000
   4.83456000E-01    1.00000000E+00   1.00000000E+00 
SP   1    1.000000
   1.45585000E-01    1.00000000E+00   1.00000000E+00 
SP   1    1.000000
   4.38000000E-02    1.00000000E+00   1.00000000E+00 
D    1    1.000000
   6.26000000E-01    1.00000000E+00 

8    0
S    6    1.000000
   8.58850000E+03    1.89515000E-03 
   1.29723000E+03    1.43859000E-02 
   2.99296000E+02    7.07320000E-02 
   8.73771000E+01    2.40001000E-01 
   2.56789000E+01    5.94797000E-01 
   3.74004000E+00    2.80802000E-01 
SP   3    1.000000
   4.21175000E+01    1.13889000E-01   3.65114000E-02 
   9.62837000E+00    9.20811000E-01   2.37153000E-01 
   2.85332000E+00   -3.27447000E-03   8.19702000E-01 
SP   1    1.000000
   9.05661000E-01    1.00000000E+00   1.00000000E+00 
SP   1    1.000000
   2.55611000E-01    1.00000000E+00   1.00000000E+00 
SP   1    1.000000
   8.45000000E-02    1.00000000E+00   1.00000000E+00 
D    1    1.000000
   1.29200000E+00    1.00000000E+00 

9    0
S    6    1.000000
   6.29348000E+03    1.96979000E-03 
   9.49044000E+02    1.49613000E-02 
   2.18776000E+02    7.35006000E-02 
   6.36916000E+01    2.48937000E-01 
   1.88282000E+01    6.02460000E-01 
   2.72023000E+00    2.56202000E-01 
SP   3    1.000000
   3.06331000E+01    1.11906000E-01   3.83119000E-02 
   7.02614000E+00    9.21666000E-01   2.37403000E-01 
   2.11205000E+00   -2.56919000E-03   8.17592000E-01 
SP   1    1.000000
   6.84009000E-01    1.00000000E+00   1.00000000E+00 
SP   1    1.000000
   2.00878000E-01    1.00000000E+00   1.00000000E+00 
SP   1    1.000000
   6.39000000E-02    1.00000000E+00   1.00000000E+00 
D    1    1.000000
   9.13000000E-01    1.00000000E+00 

10    0
S    6    1.000000
   6.29348000E+03    1.96979000E-03 
   9.49044000E+02    1.49613000E-02 
   2.18776000E+02    7.35006000E-02 
   6.36916000E+01    2.48937000E-01 
   1.88282000E+01    6.02460000E-01 
   2.72023000E+00    2.56202000E-01 
SP   3    1.000000
   3.06331000E+01    1.11906000E-01   3.83119000E-02 
   7.02614000E+00    9.21666000E-01   2.37403000E-01 
   2.11205000E+00   -2.56919000E-03   8.17592000E-01 
SP   1    1.000000
   6.84009000E-01    1.00000000E+00   1.00000000E+00 
SP   1    1.000000
   2.00878000E-01    1.00000000E+00   1.00000000E+00 
SP   1    1.000000
   6.39000000E-02    1.00000000E+00   1.00000000E+00 
D    1    1.000000
   9.13000000E-01    1.00000000E+00 

11    0
S    6    1.000000
   4.56324000E+03    1.96665000E-03 
   6.82024000E+02    1.52306000E-02 
   1.54973000E+02    7.61269000E-02 
   4.44553000E+01    2.60801000E-01 
   1.30290000E+01    6.16462000E-01 
   1.82773000E+00    2.21006000E-01 
SP   3    1.000000
   2.09642000E+01    1.14660000E-01   4.02487000E-02 
   4.80331000E+00    9.19999000E-01   2.37594000E-01 
   1.45933000E+00   -3.03068000E-03   8.15854000E-01 
SP   1    1.000000
   4.83456000E-01    1.00000000E+00   1.00000000E+00 
SP   1    1.000000
   1.45585000E-01    1.00000000E+00   1.00000000E+00 
SP   1    1.000000
   4.38000000E-02    1.00000000E+00   1.00000000E+00 
D    1    1.000000
   6.26000000E-01    1.00000000E+00 

12    0
S    3    1.000000
   3.38650000E+01    2.54938000E-02 
   5.09479000E+00    1.90373000E-01 
   1.15879000E+00    8.52161000E-01 
S    1    1.000000
   3.25840000E-01    1.00000000E+00 
S    1    1.000000
   1.02741000E-01    1.00000000E+00 
S    1    1.000000
   3.60000000E-02    1.00000000E+00 
P    1    1.000000
   7.50000000E-01    1.00000000E+00 

[MO]
Sym=X
Ene= 2.003563
Spin=Alpha
Occup=1
     1   -7.198959641022e-03
     2   -1.215087290045e-02
     3   -6.331914189785e-03
     4    1.037267846893e-02
     5    3.904377269504e-13
     6    3.257213603657e-02
     7   -1.106220845120e-02
     8    1.848711170694e-02
     9    6.407138746474e-13
    10    5.075306231792e-02
    11   -3.131969715081e-03
    12    2.364807581018e-02
    13    6.184433177208e-13
    14    7.150205655970e-02
    15   -1.411125018847e-02
    16   -1.563865804715e-03
    17   -8.405692464493e-14
    18   -1.160001712816e-03
    19    1.094260945027e-13
    20    2.982598189182e-14
    21    4.477724661583e-03
    22   -1.805987828366e-03
    23   -1.153446259243e-02
    24   -4.746838355338e-03
    25    3.532164913632e-02
    26   -3.239723193922e-02
    27   -8.775737091672e-04
    28    9.072706415980e-04
    29   -2.126881630638e-14
    30   -4.463922500310e-03
    31   -8.591195405636e-03
    32   -1.035500754831e-02
    33   -1.094099607659e-02
    34   -4.292064885185e-04
    35    9.126274451974e-04
    36    3.273538729337e-14
    37    1.193518775076e-02
    38    5.393746451307e-03
    39   -3.894499192771e-02
    40    4.589837323684e-02
    41    5.535182447741e-04
    42   -9.556838416752e-04
    43   -9.591110709291e-14
    44    5.210074168324e-03
    45    7.879555860297e-03
    46   -3.055368883508e-04
    47   -1.347005589214e-02
    48   -9.169694824712e-13
    49   -2.000129325471e-02
    50    1.417128899139e-03
    51   -1.589900340315e-02
    52   -1.475590348752e-12
    53   -3.026300748954e-02
    54   -5.024815291541e-02
    55   -7.231486253624e-02
    56   -9.978273040390e-13
    57   -2.777383987429e-02
    58   -7.149226452474e-02
    59   -9.739926688195e-02
    60   -2.269680413157e-13
    61    1.089011706569e-03
    62    8.996274512025e-14
    63   -1.155525009823e-13
    64    4.948602600669e-02
    65    2.484970066557e-02
    66    1.589365700011e-03
    67    2.275286027575e-03
    68   -2.092946467964e-01
    69   -2.935038410829e-01
    70   -1.840237630908e-12
    71   -7.325448800242e-03
    72   -2.430826390341e-01
    73   -3.405351389190e-01
    74   -2.131409944554e-12
    75    5.171518728762e-03
    76   -1.669349172919e-01
    77   -2.471865324435e-01
    78   -1.365026930051e-12
    79    1.163642333229e-02
    80    3.899399920691e-03
    81   -2.206276669916e-03
    82    1.904268851199e-13
    83    7.641939559558e-04
    84   -1.318043056351e-13
    85    8.297462304145e-14
    86   -1.528373656522e-02
    87   -5.059636132993e-03
    88    8.652596408041e-03
    89    1.481513060872e-02
    90    9.054825068046e-03
    91   -2.741032823327e-03
    92    7.020945803959e-13
    93   -4.202606288471e-02
    94    1.568435275591e-02
    95   -3.762909316337e-03
    96    1.265167766258e-12
    97   -4.487993260281e-02
    98    3.857497268431e-02
    99   -2.829780130536e-02
   100    9.800401032295e-13
   101    2.148161779368e-01
   102    8.886791826118e-03
   103   -1.109220873401e-01
   104    1.066997909815e-15
   105    1.343752014775e-03
   106    2.770535473181e-13
   107    4.997138733996e-15
   108    2.028099925100e-02
   109   -6.584070957890e-03
   110   -1.631447145729e-03
   111   -2.799065652947e-03
   112    6.199879390324e-02
   113   -7.940124074015e-02
   114    1.415311893069e-12
   115    8.740087766692e-03
   116    9.549606022840e-02
   117   -1.222231565129e-01
   118    2.199043238470e-12
   119    1.304532950745e-02
   120    8.584251011184e-02
   121   -1.164511580045e-01
   122    2.076905187902e-12
   123   -1.852404831566e-02
   124    1.518221031243e-02
   125   -4.410598757249e-03
   126    3.087717064207e-13
   127    3.601010853417e-04
   128   -1.087900485699e-13
   129   -7.972382045826e-14
   130   -5.727304916945e-03
   131    1.471952314049e-03
   132   -2.088759056559e-02
   133   -3.443052311754e-02
   134   -2.057134829716e-02
   135   -5.445934692706e-03
   136   -9.129496103371e-13
   137    9.076923051972e-02
   138   -2.694528073075e-02
   139    8.186814320824e-04
   140   -1.473144319441e-12
   141    1.882844748550e-01
   142   -4.495557524068e-02
   143   -2.277915484342e-02
   144   -1.637947476835e-12
   145    1.938352697813e-01
   146    4.212869506714e-03
   147    1.314424524639e-02
   148   -7.940348572327e-14
   149    1.289521723366e-03
   150    1.211947738336e-13
   151    1.705575694910e-14
   152   -3.232975055386e-03
   153   -8.202355807117e-04
   154    1.297092653128e-02
   155    2.131491200790e-02
   156    1.639869403390e-02
   157   -2.723194855547e-02
   158   -3.572670828975e-13
   159   -5.615313967257e-02
   160    3.010888354564e-02
   161   -3.415561226451e-02
   162   -5.896020763318e-13
   163   -1.168503680522e-01
   164    2.867504793277e-02
   165   -5.584052791007e-02
   166   -5.438500434702e-13
   167   -1.398514257209e-01
   168    1.981230769524e-02
   169    4.558184307152e-03
   170    7.281730559421e-14
   171   -1.133629477571e-03
   172    2.191954579836e-14
   173   -9.802232965741e-14
   174   -2.671513070284e-03
   175   -1.395769012952e-03
   176    3.909638640371e-03
   177    6.358147398718e-03
   178   -2.308135713858e-03
   179   -1.433980971752e-02
   180    6.729794358170e-13
   181   -1.575817781154e-02
   182   -6.092276146218e-03
   183   -1.868158767241e-02
   184    1.188708725579e-12
   185   -5.451899074074e-02
   186    6.156772604879e-03
   187   -2.471543520019e-02
   188    8.900861189124e-13
   189   -2.733930928654e-01
   190    2.207563862405e-02
   191   -5.276731868632e-02
   192    2.050673099458e-13
   193   -4.101129947646e-04
   194   -6.885564947718e-14
   195    5.902142488924e-14
   196    1.723530689565e-03
   197    2.741244462630e-04
   198    6.881430767930e-04
   199    2.500950867538e-03
   200   -1.910467864434e-04
   201   -9.043082144186e-03
   202   -2.139847490474e-04
   203    4.885315268899e-04
   204    6.299508948688e-14
Sym=X
Ene= 2.003540
Spin=Alpha
Occup=1
     1    1.341671801946e-13
     2    1.560061586949e-13
     3    9.359241875723e-14
     4   -7.239512435318e-14
     5    4.092231967313e-02
     6   -2.381854050165e-13
     7    1.580608338457e-13
     8   -1.477303380550e-13
     9    7.149045113857e-02
    10   -5.096959768130e-13
    11   -9.426647312361e-15
    12   -1.387387070758e-13
    13    6.671260709811e-02
    14    1.611466738523e-12
    15    3.455416883965e-13
    16    1.516756915509e-12
    17    3.429796736421e-03
    18    1.673830980385e-14
    19    1.348108779921e-02
    20    3.463890722182e-03
    21   -3.674553271096e-14
    22    1.780364758809e-14
    23    9.568567011173e-14
    24    3.626707547445e-14
    25   -7.822886382788e-13
    26    4.177492050272e-13
    27    5.098740888862e-15
    28   -1.067011057949e-14
    29   -3.715585604304e-03
    30    3.680679389174e-14
    31    3.346310931600e-14
    32    4.172692023494e-13
    33    7.297027530823e-13
    34    7.664103724450e-15
    35   -7.557672713206e-15
    36    2.921867336743e-03
    37   -3.136549182831e-14
    38    3.608584349090e-14
    39    7.891102572529e-14
    40   -3.889208818077e-13
    41   -1.640576120432e-14
    42   -9.378871126443e-15
    43   -8.381079601113e-03
    44   -5.525069251916e-14
    45   -9.497547359848e-14
    46    4.000313887535e-14
    47    1.380920169050e-13
    48   -9.502778004110e-02
    49    2.708835649061e-13
    50    4.114134883760e-14
    51    1.704679069436e-13
    52   -1.644353541279e-01
    53    3.924018515490e-13
    54    4.946253895318e-13
    55    6.052703878982e-13
    56   -8.490935048038e-02
    57   -7.104814531089e-13
    58    6.340208076061e-13
    59    1.487931669453e-12
    60   -2.150846115195e-02
    61   -1.814936742632e-14
    62    6.229723365075e-03
    63   -1.125491927344e-02
    64   -4.868370264944e-13
    65   -2.270436088586e-13
    66   -1.622304150725e-14
    67   -2.269556758446e-14
    68    2.033130087220e-12
    69    2.908411116015e-12
    70   -1.844731943608e-01
    71    7.585759187933e-14
    72    2.355519684462e-12
    73    3.367608324119e-12
    74   -2.155578958416e-01
    75   -5.441024939820e-14
    76    1.623937768870e-12
    77    2.445390028640e-12
    78   -1.362602605557e-01
    79   -4.548625995525e-14
    80    1.041850951728e-13
    81    1.933106075271e-13
    82    1.473571922534e-02
    83   -7.090666520471e-15
    84   -1.381965532060e-02
    85    8.611720178005e-03
    86    1.490478449842e-13
    87    5.020167028309e-14
    88   -3.548007016204e-13
    89   -3.812083354009e-13
    90   -1.633849035155e-14
    91    5.619053379189e-14
    92    6.938362693623e-02
    93    4.870216838086e-13
    94   -5.288864121564e-14
    95    1.026187582759e-13
    96    1.230367947693e-01
    97    2.901319173622e-13
    98   -3.126135188063e-13
    99    2.224066075067e-13
   100    1.043508681146e-01
   101    1.783156711361e-12
   102    6.767804512782e-13
   103   -4.301236394557e-13
   104    2.291650858265e-02
   105   -2.295556716925e-14
   106    2.887705420308e-02
   107   -7.571478307592e-04
   108   -1.952907487406e-13
   109    6.809619916841e-14
   110   -4.887406784787e-14
   111   -2.131589098249e-14
   112   -6.706240826717e-13
   113    7.036295662915e-13
   114    1.383711254440e-01
   115   -1.344075782354e-13
   116   -1.052844029113e-12
   117    1.097012184197e-12
   118    2.166026339437e-01
   119   -1.313020248484e-13
   120   -9.060910734581e-13
   121    1.041887490233e-12
   122    2.041193996327e-01
   123   -2.908037821810e-13
   124   -2.271772719933e-13
   125    1.614101720939e-13
   126    2.036984123626e-02
   127   -7.584712137382e-15
   128   -1.083208277962e-02
   129   -8.081953515747e-03
   130    5.733965673615e-14
   131   -6.054802181931e-15
   132    1.981771990932e-13
   133    2.882773887305e-13
   134    1.529820193410e-13
   135    1.162469474700e-13
   136   -9.598010074079e-02
   137   -6.506662074863e-13
   138    1.941784028505e-13
   139    7.924159842562e-14
   140   -1.557420119162e-01
   141   -1.552606631652e-12
   142    3.613893766944e-13
   143    3.575625648699e-13
   144   -1.725201049905e-01
   145   -1.325843159023e-12
   146    6.408533713966e-13
   147    1.601693184304e-13
   148   -2.353050241010e-02
   149   -2.190228083889e-14
   150    1.154309261652e-02
   151    2.210571511137e-03
   152    2.886061305585e-14
   153    1.239140651930e-14
   154    5.513283317182e-14
   155   -5.547463467851e-14
   156   -1.545419076164e-13
   157    2.780206244146e-13
   158   -4.192560585528e-02
   159    5.515228520104e-13
   160   -2.943521718651e-13
   161    3.517375988423e-13
   162   -6.887480227817e-02
   163    1.038848176006e-12
   164   -2.554097332786e-13
   165    5.359974780056e-13
   166   -6.699971539042e-02
   167    2.051144214845e-12
   168   -6.915022743306e-13
   169    3.032500675212e-13
   170   -1.541451060725e-03
   171    1.038617254805e-14
   172    2.573845986787e-03
   173   -9.434941484816e-03
   174    2.144044243185e-14
   175    1.253654573196e-14
   176    2.525528726100e-14
   177   -4.446035839031e-14
   178    4.178976569681e-14
   179    9.598476349654e-14
   180    7.261266944456e-02
   181    3.152061334594e-13
   182    7.523502636887e-14
   183    1.093774264405e-13
   184    1.278004056409e-01
   185    7.015526304684e-13
   186   -1.417852423119e-14
   187    2.618543882485e-13
   188    9.909042380734e-02
   189   -2.967053854161e-12
   190    3.134851989082e-13
   191   -1.204554347255e-12
   192    2.731612884029e-03
   193   -4.217445394366e-15
   194   -7.624825324853e-03
   195    6.116010436430e-03
   196   -3.614688367864e-15
   197   -2.000881802887e-15
   198    6.339992597086e-14
   199    6.783254015869e-14
   200   -5.340717921476e-14
   201   -6.938397894612e-13
   202   -7.096319038738e-15
   203   -3.627865092092e-15
   204    6.399788248324e-03
Sym=X
Ene= 2.000827
Spin=Alpha
Occup=1
     1    4.363503303186e-03
     2    7.560544003944e-03
     3    1.058508817153e-02
     4    1.186750185266e-02
     5   -2.143254072350e-14
     6   -2.199221032972e-02
     7    2.154013917796e-02
     8    1.745905272456e-02
     9   -1.854724658294e-14
    10   -1.129275747011e-02
    11    2.451162865625e-02
    12    2.741534070455e-02
    13   -1.220464073393e-13
    14    3.107933084898e-01
    15    7.737731655217e-02
    16    1.159087465880e-01
    17    2.234521988785e-14
    18    1.780965360724e-05
    19   -5.024880797697e-14
    20    1.427037795029e-14
    21    3.505326235525e-03
    22   -4.203545920726e-03
    23   -1.395514925673e-03
    24   -3.420714844241e-05
    25   -1.795939102214e-02
    26    2.753893743543e-03
    27    2.122891817803e-04
    28    4.623292981029e-04
    29    2.669442509100e-14
    30   -1.540910547527e-02
    31   -1.926896777444e-02
    32    5.571329911962e-03
    33    5.110577121906e-02
    34    7.601890852394e-05
    35   -1.422490296232e-03
    36   -5.506767046180e-16
    37   -8.512195159096e-03
    38   -4.752857811044e-03
    39    3.303954186774e-03
    40    3.069145547837e-02
    41   -2.565662063949e-03
    42   -2.813830313876e-04
    43    3.129504183141e-15
    44    3.705001999401e-02
    45    4.326800454822e-02
    46    6.490025118270e-02
    47   -4.630820915024e-02
    48    1.355113708149e-13
    49   -7.395942593225e-02
    50    1.018611795486e-01
    51   -7.756307755545e-02
    52    1.954333610567e-13
    53   -1.076768469195e-01
    54   -5.807528940546e-03
    55    9.756815813661e-03
    56    1.286942653708e-13
    57   -5.102725003177e-02
    58    2.760263655049e-03
    59    3.033269700776e-02
    60    2.071773159350e-14
    61    4.019756767451e-03
    62   -3.695946406584e-16
    63   -2.887392533496e-14
    64   -2.314773121275e-02
    65    5.555937382143e-03
    66   -1.732668012784e-03
    67   -3.032975441775e-03
    68   -7.459955414973e-02
    69    1.984376095649e-01
    70   -3.269964365325e-16
    71    1.715605973248e-02
    72   -8.445323705791e-02
    73    2.284085041726e-01
    74   -1.338523174485e-15
    75    7.601554741353e-02
    76   -1.580221081465e-02
    77    1.413297792429e-01
    78   -1.732138637858e-14
    79    1.204899849250e-02
    80   -3.848557667353e-03
    81   -2.889123632215e-03
    82   -5.250572272727e-14
    83    7.518276296185e-03
    84    7.806614414445e-15
    85   -6.854911771600e-15
    86   -7.192759110206e-04
    87    1.358624217006e-02
    88    1.696998174799e-02
    89    2.905900841136e-02
    90   -3.140874634325e-02
    91   -2.636440643838e-03
    92    9.152914238075e-14
    93   -8.433325342305e-02
    94   -5.444154549651e-02
    95   -2.244730109393e-03
    96    1.573140185770e-13
    97   -9.604849505854e-02
    98    2.984009695027e-02
    99   -8.323585527198e-02
   100    1.796119637281e-13
   101    3.018686718696e-01
   102    7.517770735156e-02
   103   -1.552699950779e-01
   104    1.266279818922e-13
   105    3.382750489220e-03
   106    3.323525562836e-14
   107    5.334820033695e-14
   108    4.074472726257e-02
   109   -2.654406107011e-02
   110   -1.282706682926e-02
   111   -2.166635135120e-02
   112    1.670234382891e-01
   113   -1.307007038917e-01
   114    2.945482520078e-13
   115    6.525047493844e-02
   116    2.558358905537e-01
   117   -2.013054844152e-01
   118    4.668110996741e-13
   119    9.096464324451e-02
   120    2.228797245525e-01
   121   -2.062253736248e-01
   122    4.299811709853e-13
   123    3.245994028352e-02
   124   -6.007474475128e-04
   125   -1.776604611251e-02
   126    6.647670849754e-14
   127    2.751355855168e-03
   128   -2.259927416221e-14
   129   -1.166389867462e-14
   130   -1.144636666785e-02
   131   -1.205408660789e-03
   132   -1.846763957288e-02
   133   -3.061124152933e-02
   134    2.092603536710e-02
   135   -3.343526159561e-02
   136    7.238638931253e-14
   137    8.058379466286e-02
   138    3.139605449596e-02
   139   -5.005475733242e-02
   140    1.168469196198e-13
   141    1.536707120110e-01
   142    5.959649465462e-02
   143   -7.422115728608e-02
   144    7.155491607282e-14
   145    1.558330447952e-01
   146   -2.911889282938e-02
   147   -4.561547339258e-02
   148   -1.025102140632e-13
   149   -1.581516074476e-04
   150   -5.258491473787e-15
   151   -1.338450199123e-14
   152   -2.284169611259e-03
   153    3.549564338287e-03
   154   -1.660982493040e-02
   155   -2.712186636835e-02
   156    6.430317037015e-03
   157    3.241900413975e-02
   158    3.483320824358e-13
   159    7.004517838148e-02
   160    8.662153952310e-03
   161    4.858540511450e-02
   162    5.587922805342e-13
   163    1.041627210300e-01
   164    1.371751709099e-02
   165    5.245698637732e-02
   166    6.157556509170e-13
   167   -2.814348061536e-03
   168   -1.773225395832e-02
   169   -3.908164495673e-02
   170    6.645123237394e-14
   171   -7.484300160661e-04
   172    1.466647112512e-16
   173    1.678356346713e-14
   174   -2.018226690118e-04
   175    3.609807269167e-03
   176    6.417458784950e-03
   177    9.926408258417e-03
   178    6.923258868359e-03
   179   -3.633352938955e-02
   180   -1.074705866205e-13
   181   -2.317438215399e-02
   182    7.019823393867e-03
   183   -4.994630001577e-02
   184   -1.894622429080e-13
   185   -1.172011757020e-01
   186    2.033207658740e-02
   187   -7.061251857350e-02
   188   -2.516144183780e-13
   189   -6.923358798373e-01
   190    8.425019632312e-02
   191   -9.155343426494e-02
   192   -1.366625456244e-13
   193   -1.252730888547e-03
   194    9.539964237495e-15
   195    2.368141568599e-15
   196    9.105165924607e-04
   197   -5.494706606054e-03
   198    1.652698385983e-02
   199    2.896697574735e-02
   200    4.065904780944e-03
   201   -3.646715915901e-02
   202   -1.583526273106e-03
   203    2.114076122170e-03
   204   -5.353140061604e-15
Sym=X
Ene= 2.000697
Spin=Alpha
Occup=1
     1    1.283117115928e-13
     2    8.660086594750e-14
     3   -4.401762465471e-14
     4    4.125360800409e-14
     5    6.955485646950e-02
     6    1.030006787996e-13
     7   -5.817023994563e-14
     8    7.349477660355e-14
     9    1.175588565084e-01
    10    1.355663612857e-13
    11    2.714752863130e-14
    12    2.952002386153e-14
    13    1.318694166855e-01
    14   -1.498275817631e-12
    15   -2.328381750042e-13
    16   -3.596319845999e-13
    17    1.322992778848e-02
    18   -7.852319582618e-15
    19    1.913495369784e-02
    20    4.140049464258e-03
    21   -3.788503722878e-16
    22    1.136798043964e-15
    23    8.109078268927e-14
    24    1.213853440648e-13
    25   -2.343770003078e-13
    26    7.393111380118e-14
    27    1.891457185494e-14
    28    5.463447252155e-15
    29   -6.495871454897e-03
    30   -2.897880329690e-15
    31   -2.986690246132e-15
    32    1.113383316966e-14
    33   -1.685935765942e-13
    34   -2.652106628068e-15
    35    3.190584507732e-16
    36    5.728542793002e-03
    37    1.634105940425e-13
    38    2.345823163171e-13
    39   -1.628030930973e-13
    40   -2.430393628339e-14
    41   -1.315855546184e-14
    42   -2.840661332438e-14
    43   -5.581228302183e-03
    44    5.125407339208e-13
    45    4.287289709037e-13
    46   -1.434747956932e-14
    47    2.601188029395e-14
    48   -5.640232639548e-02
    49   -2.913378163409e-14
    50   -8.989315651682e-15
    51    2.263612212489e-14
    52   -1.003144307383e-01
    53   -1.636113748784e-13
    54   -1.128843641133e-13
    55    7.377940609795e-14
    56   -3.987190924224e-02
    57    2.186844621438e-13
    58    1.554617019936e-13
    59    1.898450494700e-13
    60    2.536311030687e-03
    61   -5.760894615669e-15
    62    1.160628559517e-03
    63    2.585942933875e-03
    64   -2.592102618817e-14
    65    6.294649296165e-15
    66   -9.013873434191e-14
    67   -1.309939400881e-13
    68   -1.517330308219e-15
    69    1.588690533594e-13
    70   -6.161264587647e-02
    71    4.581519917412e-13
    72    1.229813528575e-14
    73    1.733200399249e-13
    74   -7.284905231471e-02
    75    2.087503749929e-13
    76   -1.016474789447e-14
    77    1.334211833197e-13
    78   -4.066894495209e-02
    79   -1.453760382178e-13
    80   -1.141176607787e-15
    81    8.213094916972e-14
    82    3.865996122650e-04
    83   -2.132695462917e-15
    84   -6.205029925991e-03
    85    4.335700672852e-03
    86    4.602004725619e-15
    87    1.902161215051e-15
    88    5.126178836010e-13
    89    4.181671686354e-13
    90    5.129438735446e-14
    91   -2.052986217531e-13
    92   -7.159418818711e-02
    93    2.417968286225e-14
    94    7.958485629142e-14
    95   -3.310590668578e-13
    96   -1.271837459328e-01
    97   -1.926254331960e-13
    98   -1.646536574525e-14
    99   -4.007689429196e-13
   100   -1.097131961773e-01
   101   -1.300414796420e-12
   102    6.180685048745e-13
   103   -7.717038419137e-14
   104   -4.955103714222e-02
   105   -3.008845877908e-15
   106   -2.395879528914e-02
   107   -3.604940773534e-02
   108    4.930591967802e-14
   109   -1.165119965279e-14
   110   -4.917453977740e-13
   111   -5.513042302023e-13
   112    4.363033729335e-13
   113   -3.092919585620e-13
   114   -1.978199134398e-01
   115    7.621781071492e-13
   116    6.646661284778e-13
   117   -4.820981605176e-13
   118   -3.086363888563e-01
   119    7.994974632216e-13
   120    5.478136282370e-13
   121   -4.763102411989e-13
   122   -2.974641149379e-01
   123    6.429793314993e-14
   124   -1.865615808464e-14
   125   -6.297724008670e-14
   126   -4.423860010803e-02
   127    4.960971020861e-15
   128    1.447121891557e-02
   129    9.679466834311e-03
   130   -3.643395346300e-14
   131    2.614738781220e-15
   132   -2.015478292128e-13
   133   -2.040588451289e-13
   134   -5.500701140750e-14
   135    1.541048293441e-13
   136   -6.254413961496e-02
   137    1.862392339755e-13
   138   -7.693589029461e-14
   139    2.455915788024e-13
   140   -1.049327417657e-01
   141    3.473889326736e-13
   142   -1.184624242839e-14
   143    1.510121507534e-13
   144   -7.757094462986e-02