[Molden Format]
[Atoms] (Angs)
  C      1    6     -0.00754183     -1.75895763      0.00000000
  H      2    1     -2.09769850     -1.41880678     -0.00000000
  H      3    1     -0.13527422     -2.83956838     -0.00000000
  H      4    1      0.04053511      2.02026369      0.00000000
  C      5    6     -1.22066484      0.39918184     -0.00000000
  O      6    8     -2.25210141      1.05663720     -0.00000000
  C      7    6      1.24009552      0.27789184      0.00000000
  O      8    8      2.33767996      1.06122493      0.00000000
  N      9    7      0.03634586      1.00852936      0.00000000
  N     10    7     -1.18738304     -0.97903470     -0.00000000
  C     11    6      1.22288875     -1.12258096      0.00000000
  H     12    1      2.15640383     -1.68445878      0.00000000
[GTO]
1    0
S    6    1.000000
   4.56324000E+03    1.96665000E-03 
   6.82024000E+02    1.52306000E-02 
   1.54973000E+02    7.61269000E-02 
   4.44553000E+01    2.60801000E-01 
   1.30290000E+01    6.16462000E-01 
   1.82773000E+00    2.21006000E-01 
SP   3    1.000000
   2.09642000E+01    1.14660000E-01   4.02487000E-02 
   4.80331000E+00    9.19999000E-01   2.37594000E-01 
   1.45933000E+00   -3.03068000E-03   8.15854000E-01 
SP   1    1.000000
   4.83456000E-01    1.00000000E+00   1.00000000E+00 
SP   1    1.000000
   1.45585000E-01    1.00000000E+00   1.00000000E+00 
SP   1    1.000000
   4.38000000E-02    1.00000000E+00   1.00000000E+00 
D    1    1.000000
   6.26000000E-01    1.00000000E+00 

2    0
S    3    1.000000
   3.38650000E+01    2.54938000E-02 
   5.09479000E+00    1.90373000E-01 
   1.15879000E+00    8.52161000E-01 
S    1    1.000000
   3.25840000E-01    1.00000000E+00 
S    1    1.000000
   1.02741000E-01    1.00000000E+00 
S    1    1.000000
   3.60000000E-02    1.00000000E+00 
P    1    1.000000
   7.50000000E-01    1.00000000E+00 

3    0
S    3    1.000000
   3.38650000E+01    2.54938000E-02 
   5.09479000E+00    1.90373000E-01 
   1.15879000E+00    8.52161000E-01 
S    1    1.000000
   3.25840000E-01    1.00000000E+00 
S    1    1.000000
   1.02741000E-01    1.00000000E+00 
S    1    1.000000
   3.60000000E-02    1.00000000E+00 
P    1    1.000000
   7.50000000E-01    1.00000000E+00 

4    0
S    3    1.000000
   3.38650000E+01    2.54938000E-02 
   5.09479000E+00    1.90373000E-01 
   1.15879000E+00    8.52161000E-01 
S    1    1.000000
   3.25840000E-01    1.00000000E+00 
S    1    1.000000
   1.02741000E-01    1.00000000E+00 
S    1    1.000000
   3.60000000E-02    1.00000000E+00 
P    1    1.000000
   7.50000000E-01    1.00000000E+00 

5    0
S    6    1.000000
   4.56324000E+03    1.96665000E-03 
   6.82024000E+02    1.52306000E-02 
   1.54973000E+02    7.61269000E-02 
   4.44553000E+01    2.60801000E-01 
   1.30290000E+01    6.16462000E-01 
   1.82773000E+00    2.21006000E-01 
SP   3    1.000000
   2.09642000E+01    1.14660000E-01   4.02487000E-02 
   4.80331000E+00    9.19999000E-01   2.37594000E-01 
   1.45933000E+00   -3.03068000E-03   8.15854000E-01 
SP   1    1.000000
   4.83456000E-01    1.00000000E+00   1.00000000E+00 
SP   1    1.000000
   1.45585000E-01    1.00000000E+00   1.00000000E+00 
SP   1    1.000000
   4.38000000E-02    1.00000000E+00   1.00000000E+00 
D    1    1.000000
   6.26000000E-01    1.00000000E+00 

6    0
S    6    1.000000
   8.58850000E+03    1.89515000E-03 
   1.29723000E+03    1.43859000E-02 
   2.99296000E+02    7.07320000E-02 
   8.73771000E+01    2.40001000E-01 
   2.56789000E+01    5.94797000E-01 
   3.74004000E+00    2.80802000E-01 
SP   3    1.000000
   4.21175000E+01    1.13889000E-01   3.65114000E-02 
   9.62837000E+00    9.20811000E-01   2.37153000E-01 
   2.85332000E+00   -3.27447000E-03   8.19702000E-01 
SP   1    1.000000
   9.05661000E-01    1.00000000E+00   1.00000000E+00 
SP   1    1.000000
   2.55611000E-01    1.00000000E+00   1.00000000E+00 
SP   1    1.000000
   8.45000000E-02    1.00000000E+00   1.00000000E+00 
D    1    1.000000
   1.29200000E+00    1.00000000E+00 

7    0
S    6    1.000000
   4.56324000E+03    1.96665000E-03 
   6.82024000E+02    1.52306000E-02 
   1.54973000E+02    7.61269000E-02 
   4.44553000E+01    2.60801000E-01 
   1.30290000E+01    6.16462000E-01 
   1.82773000E+00    2.21006000E-01 
SP   3    1.000000
   2.09642000E+01    1.14660000E-01   4.02487000E-02 
   4.80331000E+00    9.19999000E-01   2.37594000E-01 
   1.45933000E+00   -3.03068000E-03   8.15854000E-01 
SP   1    1.000000
   4.83456000E-01    1.00000000E+00   1.00000000E+00 
SP   1    1.000000
   1.45585000E-01    1.00000000E+00   1.00000000E+00 
SP   1    1.000000
   4.38000000E-02    1.00000000E+00   1.00000000E+00 
D    1    1.000000
   6.26000000E-01    1.00000000E+00 

8    0
S    6    1.000000
   8.58850000E+03    1.89515000E-03 
   1.29723000E+03    1.43859000E-02 
   2.99296000E+02    7.07320000E-02 
   8.73771000E+01    2.40001000E-01 
   2.56789000E+01    5.94797000E-01 
   3.74004000E+00    2.80802000E-01 
SP   3    1.000000
   4.21175000E+01    1.13889000E-01   3.65114000E-02 
   9.62837000E+00    9.20811000E-01   2.37153000E-01 
   2.85332000E+00   -3.27447000E-03   8.19702000E-01 
SP   1    1.000000
   9.05661000E-01    1.00000000E+00   1.00000000E+00 
SP   1    1.000000
   2.55611000E-01    1.00000000E+00   1.00000000E+00 
SP   1    1.000000
   8.45000000E-02    1.00000000E+00   1.00000000E+00 
D    1    1.000000
   1.29200000E+00    1.00000000E+00 

9    0
S    6    1.000000
   6.29348000E+03    1.96979000E-03 
   9.49044000E+02    1.49613000E-02 
   2.18776000E+02    7.35006000E-02 
   6.36916000E+01    2.48937000E-01 
   1.88282000E+01    6.02460000E-01 
   2.72023000E+00    2.56202000E-01 
SP   3    1.000000
   3.06331000E+01    1.11906000E-01   3.83119000E-02 
   7.02614000E+00    9.21666000E-01   2.37403000E-01 
   2.11205000E+00   -2.56919000E-03   8.17592000E-01 
SP   1    1.000000
   6.84009000E-01    1.00000000E+00   1.00000000E+00 
SP   1    1.000000
   2.00878000E-01    1.00000000E+00   1.00000000E+00 
SP   1    1.000000
   6.39000000E-02    1.00000000E+00   1.00000000E+00 
D    1    1.000000
   9.13000000E-01    1.00000000E+00 

10    0
S    6    1.000000
   6.29348000E+03    1.96979000E-03 
   9.49044000E+02    1.49613000E-02 
   2.18776000E+02    7.35006000E-02 
   6.36916000E+01    2.48937000E-01 
   1.88282000E+01    6.02460000E-01 
   2.72023000E+00    2.56202000E-01 
SP   3    1.000000
   3.06331000E+01    1.11906000E-01   3.83119000E-02 
   7.02614000E+00    9.21666000E-01   2.37403000E-01 
   2.11205000E+00   -2.56919000E-03   8.17592000E-01 
SP   1    1.000000
   6.84009000E-01    1.00000000E+00   1.00000000E+00 
SP   1    1.000000
   2.00878000E-01    1.00000000E+00   1.00000000E+00 
SP   1    1.000000
   6.39000000E-02    1.00000000E+00   1.00000000E+00 
D    1    1.000000
   9.13000000E-01    1.00000000E+00 

11    0
S    6    1.000000
   4.56324000E+03    1.96665000E-03 
   6.82024000E+02    1.52306000E-02 
   1.54973000E+02    7.61269000E-02 
   4.44553000E+01    2.60801000E-01 
   1.30290000E+01    6.16462000E-01 
   1.82773000E+00    2.21006000E-01 
SP   3    1.000000
   2.09642000E+01    1.14660000E-01   4.02487000E-02 
   4.80331000E+00    9.19999000E-01   2.37594000E-01 
   1.45933000E+00   -3.03068000E-03   8.15854000E-01 
SP   1    1.000000
   4.83456000E-01    1.00000000E+00   1.00000000E+00 
SP   1    1.000000
   1.45585000E-01    1.00000000E+00   1.00000000E+00 
SP   1    1.000000
   4.38000000E-02    1.00000000E+00   1.00000000E+00 
D    1    1.000000
   6.26000000E-01    1.00000000E+00 

12    0
S    3    1.000000
   3.38650000E+01    2.54938000E-02 
   5.09479000E+00    1.90373000E-01 
   1.15879000E+00    8.52161000E-01 
S    1    1.000000
   3.25840000E-01    1.00000000E+00 
S    1    1.000000
   1.02741000E-01    1.00000000E+00 
S    1    1.000000
   3.60000000E-02    1.00000000E+00 
P    1    1.000000
   7.50000000E-01    1.00000000E+00 

[MO]
Sym=X
Ene= 2.006724
Spin=Alpha
Occup=1
     1    6.143767454219e-14
     2    4.491498036779e-14
     3    1.254985141718e-14
     4    1.075393664764e-14
     5    9.271731338713e-02
     6    3.357135246287e-14
     7    2.565983606967e-14
     8    7.465144410398e-15
     9    1.610266599186e-01
    10   -1.037754558464e-13
    11   -1.051221368704e-13
    12   -2.611327542248e-15
    13    1.385324122431e-01
    14   -7.474536973802e-13
    15    1.542609371030e-13
    16    2.813769381519e-13
    17    1.442500432283e-02
    18    6.770709016607e-15
    19    1.259170179829e-02
    20    1.346479440151e-02
    21   -2.627866503235e-16
    22    5.506784266318e-15
    23   -1.175401204243e-14
    24    4.819864703414e-14
    25   -6.491329088704e-13
    26    1.266698899952e-13
    27    5.341592060997e-16
    28    4.170127823149e-16
    29    4.568245348375e-05
    30    3.532356634537e-15
    31   -2.611813803018e-14
    32    2.375445609973e-13
    33    2.120239212116e-13
    34    1.660644955775e-15
    35    8.023231476199e-16
    36    6.499629917644e-03
    37    1.172601753094e-14
    38   -7.753056732064e-15
    39   -2.538566982155e-13
    40   -5.450513956242e-14
    41   -8.197268980614e-15
    42   -5.929913034347e-15
    43   -5.648286910038e-03
    44    1.275459453731e-14
    45    4.919029530187e-16
    46    2.817816653598e-14
    47    8.876678381541e-15
    48   -9.730216099349e-02
    49    4.770786675033e-14
    50    4.176610110599e-14
    51    2.026780954856e-14
    52   -1.734406601619e-01
    53    9.646386333770e-14
    54   -8.928240097159e-14
    55   -6.619077664594e-14
    56   -1.016458153431e-01
    57    2.120785502665e-13
    58    2.915365708844e-13
    59    3.389904544650e-13
    60   -1.867757210100e-02
    61   -4.297528419348e-15
    62    1.767209762232e-02
    63   -2.198659679186e-02
    64    1.047680439578e-14
    65    1.393017975929e-14
    66   -1.244926606121e-14
    67   -1.799306321557e-14
    68   -3.362257969821e-14
    69    4.302545751501e-15
    70   -2.292130626320e-01
    71    6.621636680167e-14
    72   -4.380219927639e-14
    73   -1.551482132109e-15
    74   -2.679021746593e-01
    75    9.094856771060e-15
    76   -3.137577533163e-14
    77    3.026946326085e-15
    78   -1.652142510483e-01
    79   -1.096885853623e-13
    80    9.842195754454e-14
    81    2.861032093273e-13
    82    6.747198826363e-03
    83   -1.376767857610e-17
    84   -1.841616248838e-02
    85    1.107536202183e-02
    86   -2.484975277823e-15
    87   -7.143550038137e-16
    88   -1.384993970875e-13
    89   -1.117030375393e-13
    90    8.204003533744e-15
    91   -8.731104715789e-15
    92    5.409516201747e-02
    93   -1.910188914928e-15
    94    3.060038248401e-15
    95   -6.748001048885e-15
    96    9.529213705538e-02
    97   -3.559892746988e-13
    98   -1.972072922155e-14
    99   -1.288808262293e-13
   100    7.172440149589e-02
   101   -1.146484702709e-12
   102    9.606276067193e-13
   103   -2.687327817839e-13
   104    1.656268159092e-02
   105   -5.690832515880e-15
   106    8.808309813662e-03
   107   -1.290025029817e-02
   108    8.288053958783e-15
   109   -5.252578515673e-15
   110   -6.068427254338e-14
   111   -6.465121345512e-14
   112    2.608620244535e-14
   113   -2.445923213118e-14
   114    4.860387003158e-02
   115    6.773198168257e-14
   116    2.317122241281e-14
   117   -2.403064001242e-14
   118    7.714907517017e-02
   119    1.404752041408e-13
   120    7.705367197221e-15
   121   -3.915189056305e-14
   122    6.591797790057e-02
   123   -1.499649822900e-13
   124   -1.258785380314e-13
   125   -2.599134818112e-14
   126   -8.326792080481e-03
   127    7.926421093933e-16
   128   -5.327557681178e-03
   129   -4.055569567881e-03
   130   -3.230632507814e-15
   131   -6.251011062266e-16
   132   -3.602771681534e-14
   133   -5.270093263058e-14
   134   -3.375752188974e-14
   135   -6.325142222719e-15
   136   -6.235279789511e-02
   137    1.242454109632e-13
   138   -4.016278039604e-14
   139   -2.248025369640e-14
   140   -1.040595990089e-01
   141    2.854000422506e-13
   142   -6.588026412466e-14
   143    5.373779721153e-14
   144   -1.005585621722e-01
   145    4.634236003267e-13
   146    7.934141488557e-13
   147    1.934790623992e-13
   148   -5.759455586179e-03
   149   -5.618881998727e-15
   150    1.168082586664e-02
   151    1.779809254557e-03
   152    3.070584178177e-17
   153    1.792256499839e-15
   154    4.009128333248e-14
   155    4.275234423480e-14
   156   -1.184020668089e-14
   157    3.437216137659e-15
   158    1.270076311208e-02
   159   -4.843922243659e-14
   160   -3.175776310311e-14
   161    6.072496483718e-15
   162    1.961687985192e-02
   163   -1.254544785783e-13
   164    6.319221188438e-14
   165    1.105101923703e-14
   166    1.724996644909e-02
   167    1.216713857404e-12
   168   -6.867352408803e-13
   169    2.602469080340e-13
   170   -4.263603105552e-03
   171   -2.503436205381e-16
   172    7.519285136687e-03
   173   -1.131515439754e-02
   174   -6.614155480798e-15
   175   -2.164927765585e-15
   176    8.963642948664e-15
   177   -5.557467773942e-15
   178   -3.377334238946e-15
   179   -8.465494883621e-15
   180    1.076011959014e-01
   181    5.639636376268e-14
   182   -1.461015743753e-14
   183   -1.778359503651e-14
   184    1.882485608254e-01
   185    1.010471094329e-13
   186   -6.704900719509e-14
   187    3.760354489460e-14
   188    1.582955761441e-01
   189    6.330161167531e-13
   190   -7.403916705951e-13
   191   -1.357144068342e-13
   192   -1.376796958734e-03
   193   -5.931853047605e-15
   194   -1.780760459337e-02
   195    3.175978856409e-03
   196    8.432240887701e-15
   197   -3.528181786036e-15
   198    2.012479099632e-14
   199    3.060436079699e-14
   200    8.416045092590e-14
   201    1.167868593579e-14
   202   -1.041604347149e-15
   203   -3.121205259911e-15
   204    8.350834732091e-03
Sym=X
Ene= 2.003714
Spin=Alpha
Occup=1
     1    8.327054287901e-03
     2    1.374757831301e-02
     3    1.731550234761e-02
     4   -2.963691996442e-02
     5    3.875883213548e-14
     6   -3.618946351812e-02
     7    2.969086607337e-02
     8   -4.988969150455e-02
     9    1.057718860823e-13
    10   -4.038568786116e-02
    11   -3.702103693259e-03
    12   -4.385051968102e-02
    13    6.404500541161e-14
    14   -9.883594342251e-02
    15    5.338759215074e-03
    16   -2.291566149903e-02
    17    1.235613923753e-13
    18    2.159807894791e-03
    19    1.319770208031e-14
    20    1.088928738808e-14
    21   -8.862013436325e-03
    22    5.583673592425e-03
    23    3.282121792333e-03
    24   -9.921867361170e-03
    25   -2.797526642138e-02
    26    3.140948057408e-02
    27   -6.548394190832e-04
    28    8.061010580873e-04
    29   -7.742002710215e-15
    30    1.947061479821e-02
    31    3.088730217452e-02
    32    1.100595761035e-02
    33   -7.723657433317e-03
    34    9.768215186410e-04
    35    7.475658722612e-04
    36   -1.765601516619e-15
    37    1.528877763696e-03
    38    1.299646057264e-02
    39    3.583186728298e-02
    40   -4.749550189643e-02
    41    1.833876567323e-03
    42   -5.432443806966e-04
    43    1.354202180388e-14
    44   -5.156253240023e-03
    45   -8.250509659540e-03
    46   -3.654200890350e-02
    47   -2.699529773939e-02
    48   -5.002277258781e-15
    49    2.328220643366e-02
    50   -6.019482529515e-02
    51   -5.156513709980e-02
    52   -1.150968072673e-13
    53    2.629499873274e-02
    54    4.079146062673e-02
    55    6.603699559363e-02
    56    1.745053576425e-13
    57    2.061641467449e-02
    58    5.305985318300e-02
    59    7.875361216706e-02
    60    1.068431067763e-14
    61   -1.462977489626e-03
    62   -2.822558060473e-14
    63   -8.960968960712e-15
    64   -5.560568884930e-02
    65   -2.973122545056e-02
    66   -9.467906594568e-03
    67   -1.372400178525e-02
    68    1.987324679915e-01
    69    2.634845285375e-01
    70    7.685853735364e-15
    71    4.568590808241e-02
    72    2.292839013640e-01
    73    3.017605961477e-01
    74   -8.605484311482e-15
    75    9.503570279756e-03
    76    1.476305834927e-01
    77    2.134718908999e-01
    78    4.952690527356e-15
    79   -1.538532840980e-02
    80   -3.610455319280e-03
    81    3.817950114653e-03
    82   -4.873235210584e-14
    83   -1.956680816088e-03
    84   -3.755204457952e-15
    85    1.394332467668e-15
    86    1.320344322372e-02
    87    3.342895138932e-03
    88   -1.287342772738e-02
    89   -2.128325648017e-02
    90   -3.187909481343e-02
    91    8.303701784531e-03
    92   -4.766957333344e-14
    93    5.757489689240e-02
    94   -5.562604038237e-02
    95    1.200663680316e-02
    96   -1.047597788299e-13
    97    5.012171938812e-02
    98   -5.756684260146e-02
    99    2.176835812231e-02
   100    8.519669809468e-15
   101   -2.237438512159e-01
   102   -2.392520384632e-02
   103    1.249346636924e-01
   104    2.209156956965e-13
   105   -2.432331026296e-03
   106    2.416339385270e-15
   107   -1.741980410242e-14
   108   -2.356152488984e-02
   109   -1.807684448315e-05
   110    3.105566560610e-03
   111    5.249450585732e-03
   112   -5.857014161828e-02
   113    9.899883648405e-02
   114   -9.742021379157e-14
   115   -1.596012865682e-02
   116   -9.051245424394e-02
   117    1.523292738906e-01
   118   -1.367942054540e-13
   119   -9.357016178996e-03
   120   -8.401645924137e-02
   121    1.390058350260e-01
   122   -1.316740624579e-13
   123    3.122953273388e-02
   124   -1.445990150602e-02
   125    1.914031036267e-03
   126   -1.092565052793e-13
   127    4.606357524029e-05
   128    6.622343959901e-15
   129    2.704731121465e-15
   130    6.910971792668e-03
   131   -3.231500103005e-03
   132    2.085451621844e-02
   133    3.453236830073e-02
   134    6.466090474431e-02
   135    1.993739387120e-02
   136   -4.611650614179e-14
   137   -9.132675426539e-02
   138    9.739477323553e-02
   139    2.227697007164e-02
   140   -8.430376572872e-14
   141   -1.906775158161e-01
   142    9.117796282915e-02
   143    4.193854037919e-02
   144   -8.077169698795e-14
   145   -1.911084381417e-01
   146   -1.312485537767e-02
   147   -2.300226756351e-03
   148   -1.476444264122e-13
   149   -8.107847574825e-04
   150   -8.399947161828e-15
   151    6.562792260353e-15
   152   -1.179857057525e-03
   153   -4.035445369337e-03
   154   -1.305978814173e-02
   155   -2.130352610780e-02
   156   -2.709295840780e-02
   157    6.439951605502e-02
   158    2.508556812246e-14
   159    5.554211105149e-02
   160   -4.725239788119e-02
   161    9.312372804179e-02
   162    4.213178781350e-14
   163    1.115802927077e-01
   164   -4.035695702650e-02
   165    9.900901096371e-02
   166    1.419610992784e-14
   167    1.314197192102e-01
   168   -4.711445981842e-03
   169    4.474495039441e-03
   170   -7.633791228428e-14
   171    6.158367477428e-04
   172    6.261870458520e-15
   173    5.396816386184e-15
   174   -2.634999490421e-03
   175   -2.208242383912e-04
   176   -4.287287509115e-03
   177   -6.917256251416e-03
   178    1.891897077579e-03
   179    1.383111001959e-02
   180    3.804092706695e-14
   181    1.693123305951e-02
   182    5.751875758147e-03
   183    1.689200233893e-02
   184    6.404315178821e-14
   185    5.880667508608e-02
   186   -7.572634653468e-03
   187    2.170701709675e-02
   188    7.823030681851e-14
   189    3.358069862174e-01
   190   -2.706440322595e-02
   191    6.442193725994e-02
   192   -1.862046117493e-13
   193    4.328722091760e-04
   194   -1.028185712310e-14
   195   -2.225354319157e-15
   196   -3.113201574369e-03
   197   -1.092376705996e-03
   198   -4.988013687850e-04
   199   -3.263262723671e-03
   200    3.645380110782e-04
   201    1.271075258029e-02
   202    4.891517615482e-04
   203   -3.735670859138e-04
   204   -9.658993479044e-16
Sym=X
Ene= 2.002526
Spin=Alpha
Occup=1
     1    1.713471182322e-13
     2    1.877445232289e-13
     3    5.812054583747e-14
     4    3.185164055183e-15
     5    9.032587321335e-02
     6   -2.357188657866e-13
     7    1.035513793319e-13
     8   -7.851601562612e-15
     9    1.559848486486e-01
    10   -1.761596730366e-14
    11    1.884958573058e-14
    12    8.821345710564e-14
    13    1.137660501751e-01
    14    3.961314698523e-12
    15    1.284530721422e-12
    16    2.626111745175e-13
    17    1.842755870095e-02
    18    1.041401935093e-14
    19   -8.041577681923e-03
    20    1.634309528848e-02
    21    1.124168505460e-14
    22    8.861523435392e-15
    23    1.107693789619e-14
    24    9.801345093625e-14
    25   -4.534475528888e-13
    26    1.711889716147e-13
    27    2.339051014532e-15
    28    2.828713637566e-15
    29    1.136677477069e-02
    30   -6.001550158517e-14
    31   -6.082598642344e-14
    32   -8.853822645816e-14
    33   -3.074780972737e-14
    34    3.287021990358e-15
    35   -1.157847220837e-14
    36    6.897654572316e-03
    37   -7.612467082066e-14
    38   -1.093581560544e-13
    39    4.381706347726e-13
    40   -2.579937710521e-13
    41   -8.457069099402e-16
    42    1.147613928261e-14
    43   -3.066821098605e-03
    44    1.138524485503e-13
    45    8.778049844022e-14
    46    2.829705112911e-14
    47   -2.235593769265e-15
    48    4.728064278422e-02
    49    3.312251928795e-14
    50    6.267480662892e-14
    51   -1.050370060701e-14
    52    8.206026205584e-02
    53   -3.925224443383e-14
    54   -4.353255211966e-14
    55   -2.252949257592e-15
    56    3.882782012665e-02
    57   -5.244643624469e-13
    58    5.548766908722e-14
    59    5.251123531074e-13
    60    2.046283173315e-02
    61    1.053937102604e-17
    62   -5.578746592264e-03
    63   -2.111845293185e-02
    64    2.308268293668e-14
    65    1.798920486971e-14
    66   -6.051086035131e-14
    67   -8.904963667996e-14
    68   -1.361011879128e-13
    69   -2.838439638840e-14
    70    2.360327200754e-02
    71    3.120320136155e-13
    72   -1.434619281454e-13
    73   -4.033651471931e-14
    74    2.957535534161e-02
    75    1.712276284416e-13
    76   -9.690508612828e-14
    77   -1.294617140459e-14
    78    1.374366296636e-02
    79   -1.322574308074e-13
    80   -3.678613827881e-14
    81   -1.575541628865e-14
    82   -1.546618260082e-02
    83    1.436613207515e-15
    84    4.585885124015e-03
    85   -3.349099792947e-03
    86   -4.376253019860e-15
    87    1.220243576962e-15
    88    1.270170949699e-13
    89    1.854519043275e-13
    90   -3.731510887440e-14
    91    3.062191222662e-15
    92   -7.190760955932e-02
    93   -4.367686995968e-13
    94   -5.749047536287e-14
    95   -1.924944029953e-14
    96   -1.292996363861e-01
    97   -3.673381910912e-13
    98   -1.987605193069e-14
    99   -4.431217364195e-16
   100   -1.058365992535e-01
   101   -4.972904260936e-12
   102   -5.533691979418e-13
   103    1.934655992700e-12
   104   -2.505342202492e-02
   105    1.970153359636e-14
   106   -2.087986421849e-02
   107   -2.565169350792e-02
   108    3.625091363760e-14
   109   -2.084998228428e-14
   110   -1.633190636629e-13
   111   -1.784630771126e-13
   112    2.049654903420e-13
   113   -1.642463744908e-14
   114   -1.580791223731e-01
   115    2.307004885316e-13
   116    3.231218985332e-13
   117   -3.159987123778e-14
   118   -2.470440922150e-01
   119    2.591081575405e-13
   120    2.241877454770e-13
   121   -5.421185628606e-14
   122   -2.337146951000e-01
   123    2.947087941900e-13
   124   -5.623553389363e-15
   125   -1.155407491495e-13
   126   -2.808879990492e-02
   127    8.186422496632e-15
   128    1.279915930226e-02
   129    8.435097766683e-03
   130   -1.223670606553e-14
   131   -1.242186608428e-14
   132   -8.499223934021e-14
   133   -4.860615950297e-14
   134   -5.569837408383e-14
   135   -7.775374307407e-14
   136   -2.913786552401e-02
   137   -1.199479519748e-13
   138   -8.837207313243e-14
   139   -1.127122268384e-13
   140   -4.947514622976e-02
   141   -4.135451897069e-14
   142   -2.606005160074e-14
   143   -1.433251718551e-13
   144   -3.660073394387e-02
   145   -1.439318216095e-13
   146   -2.143207936607e-13
   147   -8.407914393478e-13
   148    2.639360890652e-03
   149    7.946374924900e-15
   150   -7.537105747439e-03
   151    1.025802932455e-03
   152    1.571190786580e-15
   153    1.110459679777e-14
   154   -1.993377505790e-13
   155   -1.388277407683e-13
   156   -7.218715917007e-14
   157    2.060730651437e-14
   158    1.518079980340e-01
   159   -1.547009136186e-13
   160   -1.079864408276e-13
   161    4.412535879720e-14
   162    2.499774379364e-01
   163   -1.291849374775e-13
   164   -8.241383339663e-14
   165   -9.026597640568e-16
   166    2.267428342486e-01
   167    3.986819138275e-13
   168   -6.711366670664e-13
   169   -2.832443563294e-13
   170   -1.000564883168e-02
   171    6.669043565490e-15
   172    8.073604887326e-03
   173    3.625969389529e-03
   174   -1.598504031700e-15
   175    1.104585791004e-14
   176   -1.482935530869e-13
   177   -1.069520633227e-13
   178    3.216605732124e-14
   179   -9.887801898371e-14
   180    4.221536416145e-02
   181   -7.618828423394e-14
   182    6.131536439111e-14
   183   -1.480012583040e-13
   184    7.099759888097e-02
   185   -3.279670746672e-14
   186    6.819599643726e-14
   187   -1.109346214297e-13
   188    8.607848267363e-02
   189    1.552253859008e-12
   190    1.187420423243e-12
   191    2.208283557826e-12
   192    4.787674491556e-03
   193    4.138765623461e-15
   194   -1.405297217742e-02
   195   -1.157760656360e-02
   196    1.492217986251e-14
   197   -1.134834545435e-14
   198    5.137364161885e-14
   199    6.406701497196e-14
   200   -4.361825580991e-14
   201    1.228297080385e-14
   202   -1.546492821996e-15
   203   -2.199449923121e-15
   204    2.354735914598e-03
Sym=X
Ene= 2.001481
Spin=Alpha
Occup=1
     1    6.716923006160e-03
     2    1.070718050399e-02
     3    2.997284335091e-02
     4   -4.542639839344e-03
     5   -1.584842245722e-14
     6   -2.823261335484e-02
     7    5.289045498800e-02
     8   -9.317958262879e-03
     9   -1.399221906422e-14
    10   -9.683912071322e-03
    11    2.656885184923e-02
    12    9.124937080119e-03
    13   -9.683427788532e-14
    14    2.929161681588e-01
    15    7.537894654216e-02
    16    1.018005439055e-01
    17    5.594458362470e-14
    18    1.515272929650e-03
    19   -2.415353049468e-14
    20    1.660257215372e-14
    21   -7.364716917823e-04
    22    8.793679682635e-04
    23   -8.819337628183e-03
    24   -9.657838253297e-03
    25   -1.367604274946e-02
    26    3.250204930110e-03
    27   -1.947327707035e-03
    28    1.452855558334e-03
    29    1.370744422475e-14
    30   -3.600926350766e-03
    31   -1.498356730855e-03
    32    7.241143835995e-03
    33    4.176331525717e-02
    34    9.662463698943e-04
    35   -5.614991710136e-04
    36    4.323781479009e-16
    37   -1.421957022206e-02
    38   -9.435706055593e-03
    39    6.354658170090e-03
    40    2.516442527025e-02
    41   -2.616475844105e-03
    42    1.588562928744e-03
    43    2.484978659687e-14
    44    1.668285058929e-02
    45    2.576305355615e-02
    46    8.191271939810e-02
    47   -7.839999631903e-02
    48    2.226725864520e-13
    49   -7.360486765011e-02
    50    1.293724020578e-01
    51   -1.300849006233e-01
    52    3.532838276431e-13
    53   -9.529885453048e-02
    54    1.329922413660e-02
    55   -2.837870182596e-03
    56    2.438998718702e-13
    57   -4.728860572036e-02
    58   -5.422875112140e-03
    59    2.624361168975e-02
    60    5.928895518744e-14
    61    5.522402784237e-03
    62    4.619678146521e-14
    63    2.048378039726e-15
    64   -3.112554946461e-02
    65    1.193912684651e-02
    66    2.545584681541e-03
    67    3.169256613356e-03
    68   -1.104890406262e-01
    69    2.233969729809e-01
    70   -2.342417834330e-14
    71   -1.423901585752e-03
    72   -1.250830880378e-01
    73    2.545974805554e-01
    74   -2.072223895895e-14
    75    8.819405745911e-02
    76   -2.833895340240e-02
    77    1.439486751107e-01
    78   -4.455686031577e-14
    79    2.636580384425e-02
    80   -5.661587505487e-04
    81   -3.721433230914e-03
    82   -8.838190379472e-14
    83    9.589373281366e-03
    84    1.555937235563e-14
    85   -1.043524903010e-14
    86   -3.337782216785e-03
    87    1.768713358810e-02
    88    1.829738153583e-02
    89    3.043269369457e-02
    90   -1.282784622740e-02
    91    2.245042715152e-04
    92    2.780660292738e-13
    93   -8.518989128664e-02
    94   -2.188013938025e-02
    95    2.248542476971e-03
    96    4.885739810391e-13
    97   -8.724935370895e-02
    98    3.951141387268e-02
    99   -6.956590409075e-02
   100    3.729247304782e-13
   101    2.980131568909e-01
   102    5.835070770712e-02
   103   -1.425024032481e-01
   104    2.135237973669e-13
   105    3.597995290578e-03
   106    5.883264236000e-15
   107    7.324675070032e-14
   108    3.523732592735e-02
   109   -1.862108513192e-02
   110   -1.257872692592e-02
   111   -2.128001770225e-02
   112    1.329142953910e-01
   113   -1.152229732537e-01
   114    4.075811745527e-13
   115    6.425506353743e-02
   116    2.036748567998e-01
   117   -1.775293384781e-01
   118    6.467399694265e-13
   119    7.735495899033e-02
   120    1.784476439985e-01
   121   -1.770706463705e-01
   122    5.703364249233e-13
   123    1.757039506428e-02
   124   -1.539647839369e-03
   125   -1.067216241241e-02
   126    2.693733951312e-14
   127    2.119214053889e-03
   128   -4.024167835014e-14
   129   -2.115039165615e-14
   130   -1.003364764005e-02
   131    8.553386733242e-05
   132   -6.571652306123e-03
   133   -1.164841330038e-02
   134    1.107474688856e-02
   135   -3.084843727818e-02
   136    4.158849878802e-13
   137    3.265152362434e-02
   138    1.681211200190e-02
   139   -4.710930552787e-02
   140    6.822678146358e-13
   141    9.772397050278e-02
   142    4.611249052058e-02
   143   -6.425219160902e-02
   144    5.961945153728e-13