[Molden Format]
[Atoms] (Angs)
  C      1    6     -0.00754183     -1.75895763      0.00000000
  H      2    1     -2.09769850     -1.41880678     -0.00000000
  H      3    1     -0.13527422     -2.83956838     -0.00000000
  H      4    1      0.04053511      2.02026369      0.00000000
  C      5    6     -1.22066484      0.39918184     -0.00000000
  O      6    8     -2.25210141      1.05663720     -0.00000000
  C      7    6      1.24009552      0.27789184      0.00000000
  O      8    8      2.33767996      1.06122493      0.00000000
  N      9    7      0.03634586      1.00852936      0.00000000
  N     10    7     -1.18738304     -0.97903470     -0.00000000
  C     11    6      1.22288875     -1.12258096      0.00000000
  H     12    1      2.15640383     -1.68445878      0.00000000
[GTO]
1    0
S    6    1.000000
   4.56324000E+03    1.96665000E-03 
   6.82024000E+02    1.52306000E-02 
   1.54973000E+02    7.61269000E-02 
   4.44553000E+01    2.60801000E-01 
   1.30290000E+01    6.16462000E-01 
   1.82773000E+00    2.21006000E-01 
SP   3    1.000000
   2.09642000E+01    1.14660000E-01   4.02487000E-02 
   4.80331000E+00    9.19999000E-01   2.37594000E-01 
   1.45933000E+00   -3.03068000E-03   8.15854000E-01 
SP   1    1.000000
   4.83456000E-01    1.00000000E+00   1.00000000E+00 
SP   1    1.000000
   1.45585000E-01    1.00000000E+00   1.00000000E+00 
SP   1    1.000000
   4.38000000E-02    1.00000000E+00   1.00000000E+00 
D    1    1.000000
   6.26000000E-01    1.00000000E+00 

2    0
S    3    1.000000
   3.38650000E+01    2.54938000E-02 
   5.09479000E+00    1.90373000E-01 
   1.15879000E+00    8.52161000E-01 
S    1    1.000000
   3.25840000E-01    1.00000000E+00 
S    1    1.000000
   1.02741000E-01    1.00000000E+00 
S    1    1.000000
   3.60000000E-02    1.00000000E+00 
P    1    1.000000
   7.50000000E-01    1.00000000E+00 

3    0
S    3    1.000000
   3.38650000E+01    2.54938000E-02 
   5.09479000E+00    1.90373000E-01 
   1.15879000E+00    8.52161000E-01 
S    1    1.000000
   3.25840000E-01    1.00000000E+00 
S    1    1.000000
   1.02741000E-01    1.00000000E+00 
S    1    1.000000
   3.60000000E-02    1.00000000E+00 
P    1    1.000000
   7.50000000E-01    1.00000000E+00 

4    0
S    3    1.000000
   3.38650000E+01    2.54938000E-02 
   5.09479000E+00    1.90373000E-01 
   1.15879000E+00    8.52161000E-01 
S    1    1.000000
   3.25840000E-01    1.00000000E+00 
S    1    1.000000
   1.02741000E-01    1.00000000E+00 
S    1    1.000000
   3.60000000E-02    1.00000000E+00 
P    1    1.000000
   7.50000000E-01    1.00000000E+00 

5    0
S    6    1.000000
   4.56324000E+03    1.96665000E-03 
   6.82024000E+02    1.52306000E-02 
   1.54973000E+02    7.61269000E-02 
   4.44553000E+01    2.60801000E-01 
   1.30290000E+01    6.16462000E-01 
   1.82773000E+00    2.21006000E-01 
SP   3    1.000000
   2.09642000E+01    1.14660000E-01   4.02487000E-02 
   4.80331000E+00    9.19999000E-01   2.37594000E-01 
   1.45933000E+00   -3.03068000E-03   8.15854000E-01 
SP   1    1.000000
   4.83456000E-01    1.00000000E+00   1.00000000E+00 
SP   1    1.000000
   1.45585000E-01    1.00000000E+00   1.00000000E+00 
SP   1    1.000000
   4.38000000E-02    1.00000000E+00   1.00000000E+00 
D    1    1.000000
   6.26000000E-01    1.00000000E+00 

6    0
S    6    1.000000
   8.58850000E+03    1.89515000E-03 
   1.29723000E+03    1.43859000E-02 
   2.99296000E+02    7.07320000E-02 
   8.73771000E+01    2.40001000E-01 
   2.56789000E+01    5.94797000E-01 
   3.74004000E+00    2.80802000E-01 
SP   3    1.000000
   4.21175000E+01    1.13889000E-01   3.65114000E-02 
   9.62837000E+00    9.20811000E-01   2.37153000E-01 
   2.85332000E+00   -3.27447000E-03   8.19702000E-01 
SP   1    1.000000
   9.05661000E-01    1.00000000E+00   1.00000000E+00 
SP   1    1.000000
   2.55611000E-01    1.00000000E+00   1.00000000E+00 
SP   1    1.000000
   8.45000000E-02    1.00000000E+00   1.00000000E+00 
D    1    1.000000
   1.29200000E+00    1.00000000E+00 

7    0
S    6    1.000000
   4.56324000E+03    1.96665000E-03 
   6.82024000E+02    1.52306000E-02 
   1.54973000E+02    7.61269000E-02 
   4.44553000E+01    2.60801000E-01 
   1.30290000E+01    6.16462000E-01 
   1.82773000E+00    2.21006000E-01 
SP   3    1.000000
   2.09642000E+01    1.14660000E-01   4.02487000E-02 
   4.80331000E+00    9.19999000E-01   2.37594000E-01 
   1.45933000E+00   -3.03068000E-03   8.15854000E-01 
SP   1    1.000000
   4.83456000E-01    1.00000000E+00   1.00000000E+00 
SP   1    1.000000
   1.45585000E-01    1.00000000E+00   1.00000000E+00 
SP   1    1.000000
   4.38000000E-02    1.00000000E+00   1.00000000E+00 
D    1    1.000000
   6.26000000E-01    1.00000000E+00 

8    0
S    6    1.000000
   8.58850000E+03    1.89515000E-03 
   1.29723000E+03    1.43859000E-02 
   2.99296000E+02    7.07320000E-02 
   8.73771000E+01    2.40001000E-01 
   2.56789000E+01    5.94797000E-01 
   3.74004000E+00    2.80802000E-01 
SP   3    1.000000
   4.21175000E+01    1.13889000E-01   3.65114000E-02 
   9.62837000E+00    9.20811000E-01   2.37153000E-01 
   2.85332000E+00   -3.27447000E-03   8.19702000E-01 
SP   1    1.000000
   9.05661000E-01    1.00000000E+00   1.00000000E+00 
SP   1    1.000000
   2.55611000E-01    1.00000000E+00   1.00000000E+00 
SP   1    1.000000
   8.45000000E-02    1.00000000E+00   1.00000000E+00 
D    1    1.000000
   1.29200000E+00    1.00000000E+00 

9    0
S    6    1.000000
   6.29348000E+03    1.96979000E-03 
   9.49044000E+02    1.49613000E-02 
   2.18776000E+02    7.35006000E-02 
   6.36916000E+01    2.48937000E-01 
   1.88282000E+01    6.02460000E-01 
   2.72023000E+00    2.56202000E-01 
SP   3    1.000000
   3.06331000E+01    1.11906000E-01   3.83119000E-02 
   7.02614000E+00    9.21666000E-01   2.37403000E-01 
   2.11205000E+00   -2.56919000E-03   8.17592000E-01 
SP   1    1.000000
   6.84009000E-01    1.00000000E+00   1.00000000E+00 
SP   1    1.000000
   2.00878000E-01    1.00000000E+00   1.00000000E+00 
SP   1    1.000000
   6.39000000E-02    1.00000000E+00   1.00000000E+00 
D    1    1.000000
   9.13000000E-01    1.00000000E+00 

10    0
S    6    1.000000
   6.29348000E+03    1.96979000E-03 
   9.49044000E+02    1.49613000E-02 
   2.18776000E+02    7.35006000E-02 
   6.36916000E+01    2.48937000E-01 
   1.88282000E+01    6.02460000E-01 
   2.72023000E+00    2.56202000E-01 
SP   3    1.000000
   3.06331000E+01    1.11906000E-01   3.83119000E-02 
   7.02614000E+00    9.21666000E-01   2.37403000E-01 
   2.11205000E+00   -2.56919000E-03   8.17592000E-01 
SP   1    1.000000
   6.84009000E-01    1.00000000E+00   1.00000000E+00 
SP   1    1.000000
   2.00878000E-01    1.00000000E+00   1.00000000E+00 
SP   1    1.000000
   6.39000000E-02    1.00000000E+00   1.00000000E+00 
D    1    1.000000
   9.13000000E-01    1.00000000E+00 

11    0
S    6    1.000000
   4.56324000E+03    1.96665000E-03 
   6.82024000E+02    1.52306000E-02 
   1.54973000E+02    7.61269000E-02 
   4.44553000E+01    2.60801000E-01 
   1.30290000E+01    6.16462000E-01 
   1.82773000E+00    2.21006000E-01 
SP   3    1.000000
   2.09642000E+01    1.14660000E-01   4.02487000E-02 
   4.80331000E+00    9.19999000E-01   2.37594000E-01 
   1.45933000E+00   -3.03068000E-03   8.15854000E-01 
SP   1    1.000000
   4.83456000E-01    1.00000000E+00   1.00000000E+00 
SP   1    1.000000
   1.45585000E-01    1.00000000E+00   1.00000000E+00 
SP   1    1.000000
   4.38000000E-02    1.00000000E+00   1.00000000E+00 
D    1    1.000000
   6.26000000E-01    1.00000000E+00 

12    0
S    3    1.000000
   3.38650000E+01    2.54938000E-02 
   5.09479000E+00    1.90373000E-01 
   1.15879000E+00    8.52161000E-01 
S    1    1.000000
   3.25840000E-01    1.00000000E+00 
S    1    1.000000
   1.02741000E-01    1.00000000E+00 
S    1    1.000000
   3.60000000E-02    1.00000000E+00 
P    1    1.000000
   7.50000000E-01    1.00000000E+00 

[MO]
Sym=X
Ene= 2.002648
Spin=Alpha
Occup=1
     1   -1.267345908341e-13
     2   -1.181556068703e-13
     3    1.268897215564e-14
     4    1.445961276733e-14
     5   -5.987627738891e-02
     6    6.059756547246e-14
     7    2.984416802058e-14
     8    2.000504042520e-14
     9   -1.019616944007e-01
    10   -1.843499457183e-13
    11   -1.159925419399e-13
    12   -9.895823637506e-14
    13   -8.374296986881e-02
    14    2.679363566243e-12
    15    4.116509342962e-13
    16    9.335033448360e-13
    17   -5.879804624518e-03
    18   -3.628284439956e-15
    19   -2.697612720268e-05
    20   -8.644867983933e-03
    21    5.438380005881e-15
    22   -3.002480761313e-15
    23   -8.527969499878e-15
    24   -5.038067482641e-14
    25    2.325876938301e-13
    26   -6.153704353643e-13
    27   -4.829923978200e-15
    28    1.065827623499e-15
    29   -5.417752588304e-03
    30   -4.811534971294e-15
    31   -3.030873900029e-15
    32   -1.279761049651e-13
    33    4.618032830485e-13
    34    3.282404558473e-16
    35    4.440263000595e-15
    36   -5.018899874308e-03
    37    2.057223031089e-14
    38    6.549092147632e-14
    39   -7.984364916106e-13
    40    6.977745910572e-13
    41   -1.275984029575e-16
    42   -7.898564604100e-15
    43    5.081625599411e-03
    44   -8.316602465817e-14
    45   -4.675626284719e-14
    46    1.021180016135e-13
    47   -1.150761836147e-13
    48    1.350865992797e-03
    49   -1.241204898151e-13
    50    1.543340022192e-13
    51   -1.619791249687e-13
    52    3.820018453232e-03
    53    2.185319374942e-13
    54   -2.604359151759e-13
    55   -1.993925875032e-13
    56   -9.519736224433e-04
    57    4.204490299193e-13
    58   -4.952909994887e-13
    59   -1.092027707007e-12
    60   -1.221927984418e-02
    61    5.645567654673e-15
    62    1.618566346427e-03
    63    1.215725802052e-02
    64   -1.099946658211e-14
    65    3.617910557430e-14
    66   -1.815604272053e-13
    67   -7.128887499123e-14
    68   -1.167871975571e-13
    69   -1.888861125011e-14
    70    1.223669544167e-02
    71   -4.827027684821e-13
    72   -1.812622450788e-13
    73   -2.919018061443e-14
    74    1.905797481205e-02
    75   -3.946900824612e-13
    76   -1.506248356609e-13
    77   -4.772307026295e-14
    78    1.744851325907e-02
    79   -1.171944180630e-13
    80   -4.261046246938e-15
    81    2.213142105933e-13
    82    1.014388277947e-02
    83    9.871450976629e-15
    84    8.919181490239e-04
    85   -4.130664985612e-04
    86   -1.364841224339e-14
    87    1.125492927672e-14
    88   -1.738796450478e-13
    89   -1.588294454953e-13
    90    1.800242235273e-14
    91    1.009452503318e-14
    92    6.551469488529e-02
    93    8.115258296748e-14
    94    2.212553150003e-14
    95    3.607673142818e-14
    96    1.161121247052e-01
    97   -8.679044570242e-14
    98    1.358040746566e-13
    99   -1.784382451217e-13
   100    6.946466539094e-02
   101   -2.391382340986e-13
   102    1.235068963333e-12
   103   -1.140801650610e-12
   104    3.799916190542e-02
   105    1.764010693806e-15
   106    2.238946675749e-02
   107    2.954637870953e-02
   108   -6.054001109167e-17
   109    7.493647516275e-15
   110    5.357980448535e-14
   111    6.656946908049e-14
   112   -5.259964879994e-14
   113   -4.800683231603e-14
   114    2.550207319219e-01
   115   -1.226153296533e-13
   116   -8.942332749684e-14
   117   -6.390915559006e-14
   118    3.926476596806e-01
   119   -9.870125473843e-14
   120   -4.096831377496e-14
   121   -6.254317137090e-14
   122    3.312516824471e-01
   123   -2.052910790781e-13
   124   -5.455996737587e-14
   125    1.783925887250e-14
   126    2.472008235320e-02
   127   -2.088545133804e-15
   128   -1.493224129154e-02
   129   -9.718586835777e-03
   130    2.732814171465e-15
   131    4.921147250300e-15
   132    4.071234897915e-14
   133    1.358728945843e-14
   134   -1.433755639372e-14
   135    1.326484873104e-14
   136    4.943128644997e-02
   137    1.081583167697e-13
   138   -1.426934075085e-14
   139    2.175974014643e-14
   140    8.165029159386e-02
   141    1.334922338756e-13
   142   -7.893394640794e-14
   143   -2.089746691108e-14
   144    7.142937461672e-02
   145    3.798968942439e-12
   146    2.635606082763e-13
   147    1.459823992815e-13
   148   -3.872576289245e-03
   149    1.815768018198e-15
   150    4.481360516697e-03
   151   -2.088432135774e-03
   152   -4.093391712069e-15
   153    2.105095380737e-15
   154    3.722426514627e-13
   155    2.895010682799e-13
   156    2.881466316247e-14
   157    4.375343075910e-14
   158   -6.511709680284e-02
   159    1.163217716382e-13
   160    3.633464600332e-14
   161    6.941729505144e-14
   162   -1.070161379194e-01
   163    2.569616105474e-13
   164    1.332640153416e-13
   165   -1.571657247975e-14
   166   -9.581144417697e-02
   167   -2.586407945679e-12
   168   -3.082910297425e-13
   169   -4.229600066136e-13
   170    2.889854551618e-03
   171   -9.527350634869e-15
   172   -4.853232470730e-03
   173    1.602113767136e-03
   174   -7.868701597181e-15
   175    4.402403100752e-15
   176    1.004277603545e-13
   177    6.611271583639e-14
   178   -7.595007580395e-15
   179   -3.230404834759e-14
   180   -4.113555593773e-02
   181    8.260037134369e-14
   182   -8.755029186364e-15
   183   -4.258577574405e-14
   184   -6.700865722405e-02
   185   -3.651970602036e-15
   186   -3.068975377517e-13
   187   -1.640777257499e-13
   188   -8.525138424656e-02
   189   -4.134901135541e-12
   190   -1.726516222139e-13
   191   -2.267771718387e-13
   192   -2.485074704106e-02
   193   -7.295837705724e-15
   194    9.166609236970e-03
   195    1.041239683967e-02
   196    2.162312933858e-16
   197   -1.381957446576e-15
   198    3.784894662944e-14
   199    8.171743354765e-14
   200    4.331549456650e-13
   201    6.118599433255e-14
   202   -6.139408907285e-15
   203    2.494494018439e-15
   204   -2.986017574112e-03
Sym=X
Ene= 2.000608
Spin=Alpha
Occup=1
     1    5.799905606800e-13
     2    4.420027778616e-13
     3    4.568372156821e-14
     4   -8.338166224791e-14
     5    1.957467270442e-02
     6    1.973433142003e-13
     7    7.901922839407e-14
     8   -1.374797910429e-13
     9    3.355231790332e-02
    10   -2.672027375648e-14
    11   -5.000012704569e-14
    12   -1.718493811604e-13
    13    1.444541686040e-02
    14    5.769776194591e-13
    15   -2.264745743030e-13
    16    4.737491493285e-13
    17   -1.199476008086e-03
    18   -3.432891988142e-15
    19   -8.787708057553e-03
    20    4.805380217056e-03
    21   -2.908559092459e-14
    22    1.438690254843e-14
    23   -2.073938033461e-13
    24   -2.650186917165e-13
    25    2.362769149409e-13
    26   -5.936497997465e-14
    27   -3.901174152075e-14
    28   -1.132354769376e-14
    29    5.723267415165e-03
    30    1.186624550689e-13
    31    1.719549225882e-13
    32    5.096492955733e-14
    33    1.590598608738e-13
    34    3.772232623192e-15
    35    1.597503961579e-14
    36    1.473573107175e-03
    37   -1.816057613186e-14
    38    3.329778076312e-14
    39   -3.162955488813e-13
    40    2.406875126241e-13
    41   -7.841593652346e-16
    42    5.189377761709e-16
    43   -1.347414404796e-03
    44   -5.040827874599e-13
    45   -3.053091229066e-13
    46    3.232183383669e-13
    47   -2.139054547628e-13
    48   -1.068801963601e-01
    49   -6.543722163160e-13
    50    5.165318653470e-13
    51   -3.458641053080e-13
    52   -1.845028480573e-01
    53   -4.635388433060e-13
    54    9.494203195128e-14
    55   -1.534117278863e-13
    56   -1.297239121679e-01
    57   -4.462315954350e-13
    58   -2.344040709531e-13
    59   -1.469789801507e-13
    60   -4.222742227474e-02
    61    3.187686885883e-14
    62    4.247677557694e-02
    63   -3.818895910320e-02
    64   -7.968858157193e-15
    65    5.535262252486e-14
    66   -9.810662262719e-13
    67   -8.758087272261e-13
    68   -4.949114130253e-13
    69    2.819793150673e-13
    70   -2.395212351343e-01
    71    2.336324324438e-13
    72   -7.491521002892e-13
    73    4.274025732505e-13
    74   -3.757893228769e-01
    75    6.102232550779e-13
    76   -4.377595209082e-13
    77    2.357524829624e-13
    78   -3.428933205021e-01
    79    3.306059692256e-13
    80    4.814474451286e-14
    81    1.573304593780e-14
    82   -2.876873054776e-02
    83    3.267146835595e-14
    84   -2.156861355946e-02
    85    1.341739812517e-02
    86   -2.777404379608e-14
    87    5.312016290509e-14
    88   -1.257912172808e-12
    89   -1.023672226504e-12
    90   -1.150449204154e-13
    91   -4.180956992863e-14
    92    8.401576573455e-03
    93   -1.061546740734e-13
    94   -2.133642985456e-13
    95   -5.650761124092e-14
    96    1.371646919463e-02
    97   -2.430036674709e-13
    98    4.566743656153e-14
    99   -1.823969756797e-14
   100    1.421375680288e-02
   101    3.785706916870e-12
   102    4.459768825354e-13
   103   -1.497155763149e-12
   104    2.161372109613e-02
   105    8.382616880856e-15
   106    3.587619032123e-03
   107    4.580644757254e-03
   108    7.934492174791e-15
   109   -3.312917408692e-14
   110    2.576015952127e-13
   111    1.958976765562e-13
   112    1.679858532962e-13
   113    1.088358230555e-13
   114    4.167823449683e-02
   115    1.556085325364e-13
   116    2.530020431735e-13
   117    1.763276445826e-13
   118    6.394632012022e-02
   119    2.180568413795e-13
   120    1.754282901730e-13
   121    8.374786839150e-14
   122    5.533587001684e-02
   123   -1.831154368511e-13
   124   -1.473451134624e-14
   125    1.003999806464e-13
   126   -4.778614475410e-03
   127    8.574004104215e-15
   128   -2.405718867880e-03
   129   -1.434477976114e-03
   130   -4.390185379715e-15
   131   -1.655024816003e-14
   132   -7.247361371302e-13
   133   -6.431066840136e-13
   134    2.165138377785e-14
   135   -8.362392191917e-14
   136   -1.035010283373e-02
   137    1.806057573101e-13
   138    4.147709135778e-14
   139   -1.276580389697e-13
   140   -2.037949122874e-02
   141    2.865496715971e-13
   142   -8.704774011602e-15
   143   -1.525994569333e-13
   144    7.937919621005e-03
   145    8.183210188056e-13
   146    1.604256170618e-13
   147    3.654656801930e-13
   148    2.029850214387e-02
   149   -1.849415018152e-15
   150    8.133706515722e-03
   151    2.339865051781e-03
   152   -1.570639001313e-14
   153    3.450468973411e-15
   154   -2.499515212649e-13
   155   -1.345731849014e-13
   156    1.398933298413e-13
   157    1.317099218021e-13
   158    6.840879551590e-02
   159   -4.128996541222e-13
   160    2.199463722424e-13
   161    1.969051945573e-13
   162    1.073075011122e-01
   163   -2.746898091025e-13
   164    1.746456277157e-13
   165    1.825369004760e-13
   166    1.447756799545e-01
   167   -3.775523349289e-13
   168    2.583582242822e-13
   169    2.025520886840e-13
   170    4.952831334038e-02
   171    7.998493560374e-15
   172    2.714303390051e-03
   173   -7.537574260328e-03
   174   -1.502674402928e-14
   175    2.712856794334e-15
   176   -9.472692748838e-13
   177   -8.042772295007e-13
   178   -1.446887819892e-14
   179   -2.432521044585e-14
   180   -6.998667960169e-03
   181    7.302787394475e-14
   182   -2.038636789005e-14
   183   -3.474275339581e-14
   184   -1.037940679593e-02
   185    2.181724536275e-13
   186   -1.094159551710e-13
   187    3.484823793534e-14
   188   -2.929704223110e-02
   189   -4.243990405784e-12
   190    1.010294788462e-14
   191   -1.374796226515e-12
   192   -1.832172341164e-02
   193   -1.079352876365e-14
   194   -2.086001369508e-03
   195   -7.225471906673e-05
   196   -4.081435206936e-15
   197   -1.738711562249e-15
   198    2.452110244990e-14
   199    3.103481253596e-14
   200    1.095545971297e-13
   201   -2.531663707663e-13
   202   -1.225515678044e-15
   203    1.512103158349e-15
   204   -7.634196333788e-04
Sym=X
Ene= 2.000155
Spin=Alpha
Occup=1
     1    2.992813400464e-02
     2    3.470801441581e-02
     3    1.371383658953e-02
     4   -2.106965103980e-02
     5    2.660035299659e-14
     6   -5.168120605767e-02
     7    2.546852067360e-02
     8   -3.567379842030e-02
     9    4.463205295923e-14
    10   -6.876454266695e-02
    11    1.399233140542e-02
    12   -3.511519944520e-02
    13    1.404072245457e-14
    14    1.265483448075e-01
    15    3.690355711047e-02
    16    4.898841406812e-02
    17    7.043440136945e-15
    18    2.040852879992e-03
    19   -1.267575627189e-14
    20    8.476893207029e-15
    21   -4.539283890953e-03
    22    1.477959302704e-03
    23    1.249427762855e-02
    24    1.416050532974e-02
    25   -1.977878829359e-02
    26    2.395728648324e-02
    27    4.463277313326e-04
    28    6.823116015536e-04
    29    1.432445182264e-14
    30    8.340720333464e-03
    31    1.570446530657e-02
    32    1.194375669852e-02
    33    2.511654015842e-02
    34    6.989394940700e-04
    35   -2.378271645487e-04
    36    2.128046312573e-15
    37   -1.294353243796e-02
    38   -5.626456716392e-03
    39    2.661937779944e-02
    40   -2.572869383589e-02
    41   -4.341882008137e-03
    42   -3.110295747111e-04
    43   -5.959262515199e-16
    44    1.874249628419e-02
    45    3.761482090675e-02
    46    1.337260388842e-01
    47   -4.968352431170e-02
    48    2.934759329896e-13
    49   -1.336008233148e-01
    50    2.176242869353e-01
    51   -8.542073805568e-02
    52    5.032322883265e-13
    53   -1.219923126486e-01
    54    1.055246401473e-01
    55    4.303909449989e-02
    56    3.293700154138e-13
    57   -8.110470410968e-02
    58    1.770233434255e-02
    59    9.474729053558e-02
    60    1.370088562787e-13
    61    6.189661229422e-03
    62   -8.439791469682e-14
    63    3.093084714246e-14
    64   -4.820081022765e-02
    65    9.369789065479e-03
    66   -1.328723220200e-02
    67   -2.304723806732e-02
    68   -6.482349780798e-02
    69    2.408325005184e-01
    70    4.711823392123e-13
    71    7.577943604981e-02
    72   -9.290929395461e-02
    73    3.683960082373e-01
    74    7.420753100753e-13
    75    1.989603556089e-01
    76   -1.258362279045e-02
    77    2.885928627116e-01
    78    6.646134495871e-13
    79    7.926984132378e-02
    80    1.224294971473e-02
    81    3.495566781142e-03
    82   -4.299001941328e-15
    83    9.887430037970e-03
    84    4.737872078441e-14
    85   -3.062341385699e-14
    86    3.374481721036e-03
    87    2.195989337855e-02
    88   -2.893826574694e-02
    89   -2.872123223526e-02
    90    1.361847283228e-02
    91    2.315375484558e-03
    92   -3.045992327939e-14
    93    2.332706778991e-02
    94    2.420469776451e-02
    95    7.229013630601e-03
    96   -5.546627492635e-14
    97    1.858450954338e-02
    98    1.214668980732e-02
    99    2.516919490879e-03
   100   -3.884515282717e-14
   101    1.146954029007e-01
   102   -2.124203063004e-02
   103   -3.082732905023e-03
   104   -2.365624872875e-14
   105   -1.870729449275e-03
   106    1.909595709419e-15
   107   -3.563095860036e-15
   108    2.593830936730e-03
   109    3.699534635332e-03
   110    1.103607263911e-03
   111    1.921314623202e-03
   112   -2.456234300453e-02
   113   -1.011530069233e-02
   114   -1.144248133858e-14
   115   -6.441736869611e-03
   116   -3.798349326692e-02
   117   -1.539850359853e-02
   118   -1.898124218950e-14
   119   -1.872170512850e-02
   120   -2.527862650195e-02
   121   -6.165048696041e-03
   122   -1.391327609039e-14
   123   -4.575684992955e-03
   124   -4.335499453528e-03
   125    3.718959440925e-03
   126    3.201390207467e-14
   127   -1.193772251847e-03
   128    2.439764562144e-15
   129    1.686954330317e-15
   130    8.202122197344e-04
   131    2.162593416922e-03
   132    2.178209018569e-03
   133   -8.582585084621e-05
   134   -2.142258664675e-02
   135   -2.176187031851e-02
   136   -7.767407234233e-15
   137    1.058631549634e-02
   138   -3.677534993296e-02
   139   -4.076863519483e-02
   140   -7.640628973919e-15
   141   -4.902398130238e-02
   142    2.022219710018e-03
   143   -2.740976923371e-02
   144   -7.295558770083e-14
   145   -1.183241642999e-01
   146   -4.648343830777e-03
   147   -1.144851894954e-02
   148   -9.594719295989e-14
   149   -2.021468443934e-03
   150   -2.232477098296e-14
   151   -7.346424514566e-15
   152    7.374808675451e-04
   153    7.321751331544e-03
   154   -2.010129421996e-02
   155   -2.816029237649e-02
   156   -1.868024061140e-02
   157    4.493360936108e-02
   158    1.652247642706e-13
   159    5.928444714368e-02
   160   -3.271626347552e-02
   161    6.376438355414e-02
   162    2.768334916046e-13
   163    1.335017999149e-01
   164   -2.568447256550e-02
   165    8.110467567191e-02
   166    2.128881963541e-13
   167    1.406436989876e-01
   168   -7.800713639611e-03
   169    1.640187248586e-03
   170   -6.471892765234e-14
   171    8.234132041916e-04
   172    8.517730507405e-16
   173    2.443759413545e-14
   174   -1.936676093742e-04
   175    9.165077989556e-03
   176   -5.497569502994e-03
   177   -6.306044001978e-03
   178    1.726344385478e-02
   179   -2.697038963959e-03
   180   -7.545095637749e-15
   181    8.281221644933e-03
   182    2.762927899740e-02
   183   -2.647855127840e-03
   184   -1.191486968640e-14
   185    2.076774580578e-02
   186    2.555928154354e-03
   187   -3.677321753174e-03
   188   -3.699643982034e-15
   189   -1.902202116172e-01
   190    4.456692473518e-02
   191   -1.248209747691e-02
   192    1.488044155711e-15
   193   -4.716147684688e-04
   194   -1.885666752909e-15
   195   -5.084717943616e-15
   196   -3.780737245465e-03
   197    4.698951375132e-04
   198    1.348905761736e-02
   199    2.140193033490e-02
   200    2.052758491078e-03
   201   -1.120759649247e-02
   202   -2.212301122908e-03
   203    1.884271356082e-03
   204   -5.673757536205e-16
Sym=X
Ene= 2.000000
Spin=Alpha
Occup=1
     1    3.777386767376e-07
     2   -7.705535080455e-07
     3    3.652095006452e-06
     4   -4.861365370829e-06
     5    2.809828150226e-16
     6    3.364202051438e-06
     7   -1.551952374423e-05
     8    2.081944958770e-05
     9   -1.486665750465e-15
    10    1.301464077697e-04
    11   -8.512798488329e-05
    12   -5.733393049832e-05
    13    8.495920081844e-15
    14   -4.884903495479e-04
    15   -4.859707733045e-04
    16   -2.452934794106e-04
    17    4.576494677483e-15
    18   -2.062051457125e-06
    19    8.299833515251e-15
    20   -4.087215074874e-16
    21   -3.897600617230e-06
    22   -1.378088800671e-06
    23   -3.788633112233e-06
    24   -4.027677066389e-05
    25   -1.295825239104e-04
    26   -2.426143265855e-04
    27   -9.369192737471e-06
    28    8.599384176305e-06
    29   -3.544723851632e-15
    30    4.078199218669e-06
    31   -3.060517821159e-05
    32   -2.799789617539e-05
    33   -1.302887256603e-04
    34    3.091239808308e-06
    35   -3.666528471407e-06
    36    1.756447505888e-15
    37   -1.877540541485e-06
    38   -4.805560054088e-05
    39   -4.796336323208e-05
    40   -2.840436649209e-04
    41   -1.138803176839e-05
    42    4.361106791070e-06
    43    6.806097198620e-15
    44   -4.591225619696e-06
    45    7.376510216482e-05
    46    5.516714342289e-05
    47   -3.406276218752e-05
    48    2.270640452274e-13
    49   -2.871922158219e-04
    50    3.469856734631e-04
    51   -2.192698796617e-04
    52    3.983305227900e-13
    53    4.156482147501e-05
    54    3.558834528514e-04
    55   -2.812347318511e-04
    56    2.534764520298e-13
    57   -4.542269189892e-04
    58   -5.719069678366e-04
    59    4.011430515316e-04
    60    8.755948351300e-14
    61    5.671481573093e-05
    62   -6.262411735777e-14
    63    5.574930482533e-14
    64   -8.800080338596e-05
    65    1.793250381957e-04
    66   -5.340142533489e-01
    67   -4.567362167199e-01
    68   -1.473118395594e-03
    69    9.846465983141e-04
    70    4.057382530418e-13
    71   -5.328249798885e-03
    72    6.017447488421e-04
    73   -4.086333250609e-04
    74    6.396105188336e-13
    75    1.242037706413e-03
    76   -1.334958409841e-04
    77    1.115939173376e-04
    78    5.719508058838e-13
    79   -1.489811825327e-03
    80   -1.061803819399e-04
    81    2.146495748053e-05
    82    3.022226742632e-14
    83    8.142644778397e-05
    84    3.941343950544e-14
    85   -2.372449621559e-14
    86    3.087082316066e-05
    87   -7.934310711076e-05
    88    2.146330408351e-07
    89   -1.333742569641e-05
    90    5.320533902831e-06
    91   -4.295777014721e-07
    92   -3.374323021426e-14
    93    4.530383146623e-05
    94    6.303507576219e-05
    95    7.115446172330e-05
    96   -5.967984107409e-14
    97    8.828710190282e-05
    98   -5.197993946624e-05
    99    8.487136750365e-05
   100   -5.686149642614e-14
   101   -1.494181278078e-03
   102   -2.693176250332e-04
   103    8.170302200559e-04
   104   -4.690512315800e-14
   105   -1.339838203991e-05
   106   -2.791262913860e-14
   107   -1.691388104186e-14
   108    2.757600199107e-05
   109    4.881998106365e-05
   110    1.377361403769e-01
   111    1.177948710568e-01
   112   -3.465534060999e-04
   113   -2.473309570990e-04
   114   -2.164442971049e-13
   115    1.296414953385e-03
   116    1.543881811934e-04
   117    1.119394523331e-04
   118   -3.290044982923e-13
   119   -2.426107659451e-04
   120   -4.853072451226e-05
   121   -3.828005625972e-05
   122   -2.844190107498e-13
   123    5.305125739852e-04
   124   -1.080364204476e-04
   125   -6.503526216350e-05
   126   -1.068686663686e-14
   127   -1.302064683732e-05
   128    1.156693769204e-14
   129    7.507308319331e-15
   130   -1.229521143338e-05
   131   -4.364683164291e-05
   132   -1.263115240537e-07
   133   -1.396239524920e-06
   134   -1.447113028079e-05
   135    1.182687882218e-06
   136    8.309243687488e-14
   137    2.039360735351e-05
   138    4.003707619020e-05
   139   -5.975951321240e-06
   140    1.374439438540e-13
   141   -1.901379685219e-04
   142   -6.151461065592e-05
   143    1.933862622292e-04
   144    1.005377903345e-13