[Molden Format]
[Atoms] (Angs)
  C      1    6     -0.00754183     -1.75895763      0.00000000
  H      2    1     -2.09769850     -1.41880678     -0.00000000
  H      3    1     -0.13527422     -2.83956838     -0.00000000
  H      4    1      0.04053511      2.02026369      0.00000000
  C      5    6     -1.22066484      0.39918184     -0.00000000
  O      6    8     -2.25210141      1.05663720     -0.00000000
  C      7    6      1.24009552      0.27789184      0.00000000
  O      8    8      2.33767996      1.06122493      0.00000000
  N      9    7      0.03634586      1.00852936      0.00000000
  N     10    7     -1.18738304     -0.97903470     -0.00000000
  C     11    6      1.22288875     -1.12258096      0.00000000
  H     12    1      2.15640383     -1.68445878      0.00000000
[GTO]
1    0
S    6    1.000000
   4.56324000E+03    1.96665000E-03 
   6.82024000E+02    1.52306000E-02 
   1.54973000E+02    7.61269000E-02 
   4.44553000E+01    2.60801000E-01 
   1.30290000E+01    6.16462000E-01 
   1.82773000E+00    2.21006000E-01 
SP   3    1.000000
   2.09642000E+01    1.14660000E-01   4.02487000E-02 
   4.80331000E+00    9.19999000E-01   2.37594000E-01 
   1.45933000E+00   -3.03068000E-03   8.15854000E-01 
SP   1    1.000000
   4.83456000E-01    1.00000000E+00   1.00000000E+00 
SP   1    1.000000
   1.45585000E-01    1.00000000E+00   1.00000000E+00 
SP   1    1.000000
   4.38000000E-02    1.00000000E+00   1.00000000E+00 
D    1    1.000000
   6.26000000E-01    1.00000000E+00 

2    0
S    3    1.000000
   3.38650000E+01    2.54938000E-02 
   5.09479000E+00    1.90373000E-01 
   1.15879000E+00    8.52161000E-01 
S    1    1.000000
   3.25840000E-01    1.00000000E+00 
S    1    1.000000
   1.02741000E-01    1.00000000E+00 
S    1    1.000000
   3.60000000E-02    1.00000000E+00 
P    1    1.000000
   7.50000000E-01    1.00000000E+00 

3    0
S    3    1.000000
   3.38650000E+01    2.54938000E-02 
   5.09479000E+00    1.90373000E-01 
   1.15879000E+00    8.52161000E-01 
S    1    1.000000
   3.25840000E-01    1.00000000E+00 
S    1    1.000000
   1.02741000E-01    1.00000000E+00 
S    1    1.000000
   3.60000000E-02    1.00000000E+00 
P    1    1.000000
   7.50000000E-01    1.00000000E+00 

4    0
S    3    1.000000
   3.38650000E+01    2.54938000E-02 
   5.09479000E+00    1.90373000E-01 
   1.15879000E+00    8.52161000E-01 
S    1    1.000000
   3.25840000E-01    1.00000000E+00 
S    1    1.000000
   1.02741000E-01    1.00000000E+00 
S    1    1.000000
   3.60000000E-02    1.00000000E+00 
P    1    1.000000
   7.50000000E-01    1.00000000E+00 

5    0
S    6    1.000000
   4.56324000E+03    1.96665000E-03 
   6.82024000E+02    1.52306000E-02 
   1.54973000E+02    7.61269000E-02 
   4.44553000E+01    2.60801000E-01 
   1.30290000E+01    6.16462000E-01 
   1.82773000E+00    2.21006000E-01 
SP   3    1.000000
   2.09642000E+01    1.14660000E-01   4.02487000E-02 
   4.80331000E+00    9.19999000E-01   2.37594000E-01 
   1.45933000E+00   -3.03068000E-03   8.15854000E-01 
SP   1    1.000000
   4.83456000E-01    1.00000000E+00   1.00000000E+00 
SP   1    1.000000
   1.45585000E-01    1.00000000E+00   1.00000000E+00 
SP   1    1.000000
   4.38000000E-02    1.00000000E+00   1.00000000E+00 
D    1    1.000000
   6.26000000E-01    1.00000000E+00 

6    0
S    6    1.000000
   8.58850000E+03    1.89515000E-03 
   1.29723000E+03    1.43859000E-02 
   2.99296000E+02    7.07320000E-02 
   8.73771000E+01    2.40001000E-01 
   2.56789000E+01    5.94797000E-01 
   3.74004000E+00    2.80802000E-01 
SP   3    1.000000
   4.21175000E+01    1.13889000E-01   3.65114000E-02 
   9.62837000E+00    9.20811000E-01   2.37153000E-01 
   2.85332000E+00   -3.27447000E-03   8.19702000E-01 
SP   1    1.000000
   9.05661000E-01    1.00000000E+00   1.00000000E+00 
SP   1    1.000000
   2.55611000E-01    1.00000000E+00   1.00000000E+00 
SP   1    1.000000
   8.45000000E-02    1.00000000E+00   1.00000000E+00 
D    1    1.000000
   1.29200000E+00    1.00000000E+00 

7    0
S    6    1.000000
   4.56324000E+03    1.96665000E-03 
   6.82024000E+02    1.52306000E-02 
   1.54973000E+02    7.61269000E-02 
   4.44553000E+01    2.60801000E-01 
   1.30290000E+01    6.16462000E-01 
   1.82773000E+00    2.21006000E-01 
SP   3    1.000000
   2.09642000E+01    1.14660000E-01   4.02487000E-02 
   4.80331000E+00    9.19999000E-01   2.37594000E-01 
   1.45933000E+00   -3.03068000E-03   8.15854000E-01 
SP   1    1.000000
   4.83456000E-01    1.00000000E+00   1.00000000E+00 
SP   1    1.000000
   1.45585000E-01    1.00000000E+00   1.00000000E+00 
SP   1    1.000000
   4.38000000E-02    1.00000000E+00   1.00000000E+00 
D    1    1.000000
   6.26000000E-01    1.00000000E+00 

8    0
S    6    1.000000
   8.58850000E+03    1.89515000E-03 
   1.29723000E+03    1.43859000E-02 
   2.99296000E+02    7.07320000E-02 
   8.73771000E+01    2.40001000E-01 
   2.56789000E+01    5.94797000E-01 
   3.74004000E+00    2.80802000E-01 
SP   3    1.000000
   4.21175000E+01    1.13889000E-01   3.65114000E-02 
   9.62837000E+00    9.20811000E-01   2.37153000E-01 
   2.85332000E+00   -3.27447000E-03   8.19702000E-01 
SP   1    1.000000
   9.05661000E-01    1.00000000E+00   1.00000000E+00 
SP   1    1.000000
   2.55611000E-01    1.00000000E+00   1.00000000E+00 
SP   1    1.000000
   8.45000000E-02    1.00000000E+00   1.00000000E+00 
D    1    1.000000
   1.29200000E+00    1.00000000E+00 

9    0
S    6    1.000000
   6.29348000E+03    1.96979000E-03 
   9.49044000E+02    1.49613000E-02 
   2.18776000E+02    7.35006000E-02 
   6.36916000E+01    2.48937000E-01 
   1.88282000E+01    6.02460000E-01 
   2.72023000E+00    2.56202000E-01 
SP   3    1.000000
   3.06331000E+01    1.11906000E-01   3.83119000E-02 
   7.02614000E+00    9.21666000E-01   2.37403000E-01 
   2.11205000E+00   -2.56919000E-03   8.17592000E-01 
SP   1    1.000000
   6.84009000E-01    1.00000000E+00   1.00000000E+00 
SP   1    1.000000
   2.00878000E-01    1.00000000E+00   1.00000000E+00 
SP   1    1.000000
   6.39000000E-02    1.00000000E+00   1.00000000E+00 
D    1    1.000000
   9.13000000E-01    1.00000000E+00 

10    0
S    6    1.000000
   6.29348000E+03    1.96979000E-03 
   9.49044000E+02    1.49613000E-02 
   2.18776000E+02    7.35006000E-02 
   6.36916000E+01    2.48937000E-01 
   1.88282000E+01    6.02460000E-01 
   2.72023000E+00    2.56202000E-01 
SP   3    1.000000
   3.06331000E+01    1.11906000E-01   3.83119000E-02 
   7.02614000E+00    9.21666000E-01   2.37403000E-01 
   2.11205000E+00   -2.56919000E-03   8.17592000E-01 
SP   1    1.000000
   6.84009000E-01    1.00000000E+00   1.00000000E+00 
SP   1    1.000000
   2.00878000E-01    1.00000000E+00   1.00000000E+00 
SP   1    1.000000
   6.39000000E-02    1.00000000E+00   1.00000000E+00 
D    1    1.000000
   9.13000000E-01    1.00000000E+00 

11    0
S    6    1.000000
   4.56324000E+03    1.96665000E-03 
   6.82024000E+02    1.52306000E-02 
   1.54973000E+02    7.61269000E-02 
   4.44553000E+01    2.60801000E-01 
   1.30290000E+01    6.16462000E-01 
   1.82773000E+00    2.21006000E-01 
SP   3    1.000000
   2.09642000E+01    1.14660000E-01   4.02487000E-02 
   4.80331000E+00    9.19999000E-01   2.37594000E-01 
   1.45933000E+00   -3.03068000E-03   8.15854000E-01 
SP   1    1.000000
   4.83456000E-01    1.00000000E+00   1.00000000E+00 
SP   1    1.000000
   1.45585000E-01    1.00000000E+00   1.00000000E+00 
SP   1    1.000000
   4.38000000E-02    1.00000000E+00   1.00000000E+00 
D    1    1.000000
   6.26000000E-01    1.00000000E+00 

12    0
S    3    1.000000
   3.38650000E+01    2.54938000E-02 
   5.09479000E+00    1.90373000E-01 
   1.15879000E+00    8.52161000E-01 
S    1    1.000000
   3.25840000E-01    1.00000000E+00 
S    1    1.000000
   1.02741000E-01    1.00000000E+00 
S    1    1.000000
   3.60000000E-02    1.00000000E+00 
P    1    1.000000
   7.50000000E-01    1.00000000E+00 

[MO]
Sym=X
Ene= 2.000000
Spin=Alpha
Occup=1
     1    3.952074391394e-07
     2   -1.034222167971e-06
     3    3.507572325242e-06
     4   -4.906113464582e-06
     5   -2.039141700571e-15
     6    5.264255950188e-06
     7   -1.396612777846e-05
     8    2.162797353520e-05
     9   -4.916339499429e-15
    10    9.265843106453e-05
    11   -9.024294348932e-05
    12   -7.576826688814e-05
    13   -4.726987480179e-15
    14   -4.908192798800e-04
    15   -4.486737614744e-04
    16   -2.985948046026e-04
    17   -1.990206198532e-15
    18   -1.885956431921e-06
    19    6.004832297065e-16
    20    2.449177309772e-16
    21   -4.053540173901e-06
    22   -1.234091354054e-07
    23   -3.630477527643e-06
    24   -3.803485960568e-05
    25   -1.318454587749e-04
    26   -2.300083903171e-04
    27   -9.299853341759e-06
    28    8.475756381624e-06
    29   -1.786559908296e-15
    30    3.916953120858e-06
    31   -3.019421074634e-05
    32   -4.074872240961e-05
    33   -1.561522283563e-04
    34    3.469776843004e-06
    35   -3.559943446830e-06
    36    1.456571100094e-15
    37   -1.374186509623e-06
    38   -4.291753636667e-05
    39   -4.149360120027e-05
    40   -2.675694126881e-04
    41   -1.141300833295e-05
    42    3.257570276026e-06
    43    3.282829950370e-15
    44   -4.480894498406e-06
    45    7.156748096341e-05
    46    5.368699934646e-05
    47   -3.306772678651e-05
    48   -1.543844392850e-15
    49   -2.785746899114e-04
    50    3.368141588302e-04
    51   -2.127786358338e-04
    52    1.822991343627e-15
    53    2.741300415619e-05
    54    3.310128467284e-04
    55   -2.715523887505e-04
    56   -8.366382086133e-15
    57   -4.572424095470e-04
    58   -5.531640776571e-04
    59    3.720578746734e-04
    60    7.696639898258e-16
    61    5.539049741201e-05
    62    9.633225816634e-15
    63    1.946589879150e-16
    64   -8.531047997805e-05
    65    1.744492561150e-04
    66   -5.184328311390e-01
    67   -4.434095934865e-01
    68   -1.430189073281e-03
    69    9.559401860828e-04
    70   -2.279211920381e-14
    71   -5.172935529673e-03
    72    5.842481616469e-04
    73   -3.968978405636e-04
    74   -3.408944850575e-14
    75    1.205858501229e-03
    76   -1.292358037964e-04
    77    1.093684135832e-04
    78   -3.283814929368e-14
    79   -1.472961600600e-03
    80   -1.170616414292e-04
    81    2.499969077444e-05
    82   -5.443427136559e-15
    83    7.906364479118e-05
    84   -1.671536982579e-15
    85    1.921044643983e-15
    86    3.008170034394e-05
    87   -7.707404293165e-05
    88    1.415390106844e-07
    89   -1.799387224731e-05
    90    5.799679126550e-06
    91    4.272326346197e-07
    92    2.076805517673e-14
    93    6.002349368553e-05
    94    9.239462496656e-05
    95    9.164714568027e-05
    96    3.601548996411e-14
    97    5.230479202218e-05
    98   -4.934503755807e-05
    99    9.668190052974e-05
   100    1.882054960867e-14
   101   -1.646097453932e-03
   102   -3.369721555023e-04
   103    8.259461420048e-04
   104    9.662296777193e-15
   105   -1.743004562321e-05
   106   -4.938793588327e-15
   107    2.910274941074e-15
   108    3.534720496841e-05
   109    6.678902387276e-05
   110    1.880816072279e-01
   111    1.608517306289e-01
   112   -4.730940218691e-04
   113   -3.379534206981e-04
   114    5.455078501815e-15
   115    1.766902478582e-03
   116    2.111723983705e-04
   117    1.536320462309e-04
   118    1.267177372674e-14
   119   -3.132239234420e-04
   120   -7.209444339027e-05
   121   -5.686650556699e-05
   122    5.913906991591e-15
   123    6.631150862454e-04
   124   -1.140553557058e-04
   125   -6.557052520191e-05
   126   -6.001454711918e-15
   127   -1.768618484419e-05
   128   -1.338470011391e-15
   129   -1.073408696840e-15
   130   -1.645502699015e-05
   131   -5.933795753913e-05
   132   -6.346104189841e-08
   133   -1.384606696486e-06
   134   -1.542053307412e-05
   135    1.731086370928e-06
   136    4.780497483553e-14
   137    1.863177862809e-05
   138    4.302322510431e-05
   139   -8.106882439822e-06
   140    7.481039732973e-14
   141   -1.707583579107e-04
   142   -6.634557913174e-05
   143    1.757349912611e-04
   144    8.224380770776e-14
   145   -4.227549133977e-05
   146   -6.901314280535e-04
   147    8.381328788275e-06
   148    1.137543484407e-15
   149    4.000622581500e-06
   150    1.657983362876e-15
   151   -1.447240131439e-15
   152   -1.296274163075e-05
   153   -1.703877907573e-05
   154   -3.736955508959e-07
   155   -1.371390402116e-06
   156   -5.583909810809e-06
   157    9.390609022438e-06
   158   -6.864842891178e-15
   159    2.287816891891e-05
   160    1.902811597137e-05
   161   -2.706242470496e-05
   162   -1.035866917387e-14
   163   -2.205105976058e-04
   164   -1.818058753600e-04
   165   -7.043193287255e-05
   166   -6.189680516068e-15
   167    1.226281549169e-04
   168   -3.164564719941e-04
   169    3.106935682533e-04
   170    2.004770103082e-15
   171    7.822539458426e-06
   172   -3.308159897910e-16
   173   -1.503573838256e-16
   174    1.911274295208e-05
   175    1.143852896190e-05
   176    4.919866893897e-07
   177   -8.013330195516e-08
   178   -3.959965191966e-06
   179   -5.972299232243e-06
   180    4.188734842793e-15
   181   -9.529889036775e-06
   182    1.522104712401e-05
   183    3.301357149990e-05
   184    6.856065643811e-15
   185    1.750359655527e-04
   186   -1.494375247394e-04
   187    4.183654811815e-05
   188    1.916064901859e-15
   189    3.366309318184e-03
   190   -3.961508870280e-04
   191    6.425035244690e-04
   192   -4.576584201087e-15
   193   -5.103750707800e-06
   194    1.543320127594e-16
   195    2.695417348699e-15
   196   -1.915180446526e-05
   197    1.377423576027e-05
   198   -2.164595921049e-07
   199    3.914631801182e-05
   200    4.296219325051e-05
   201    2.583756087916e-04
   202   -7.419535925436e-06
   203    4.180488028376e-06
   204    9.899243133234e-16
Sym=X
Ene= 2.000000
Spin=Alpha
Occup=1
     1   -1.625732250724e-07
     2    2.714469054587e-06
     3    1.682014906408e-06
     4    2.342116839326e-07
     5    5.596315967489e-15
     6   -1.965643763856e-05
     7   -1.694404438116e-05
     8   -7.437012595992e-06
     9    7.461013753468e-15
    10    3.972198455471e-04
    11    4.927675153172e-05
    12    1.895256253148e-04
    13    1.258883977429e-14
    14    9.264106617578e-07
    15   -4.122470078836e-04
    16    5.441940651164e-04
    17   -1.190580998033e-14
    18   -1.935280073719e-06
    19    8.350732512290e-16
    20    1.878708476303e-15
    21    1.440009577326e-06
    22   -1.315207642948e-05
    23   -1.830715799497e-06
    24   -2.530922023463e-05
    25    1.740427340967e-05
    26   -1.430825588344e-04
    27   -1.171315209280e-06
    28    1.700740594010e-06
    29    1.188969794801e-15
    30    1.876828154574e-06
    31   -5.750183945736e-06
    32    1.316504331122e-04
    33    2.635215267495e-04
    34   -3.800243864714e-06
    35   -1.287038665853e-06
    36   -7.852145911421e-16
    37   -5.339885708179e-06
    38   -5.588803711629e-05
    39   -6.977287354862e-05
    40   -1.854100808185e-04
    41   -2.841720926189e-07
    42    1.171837627101e-05
    43   -2.118192343635e-15
    44   -1.369842508871e-06
    45    2.644952593587e-05
    46    1.807629243067e-05
    47   -1.200751144095e-05
    48   -4.328690100852e-15
    49   -1.036162696751e-04
    50    1.226837309720e-04
    51   -7.819081275801e-05
    52   -2.723277218299e-15
    53    1.495895852372e-04
    54    2.764190261033e-04
    55   -1.144371494121e-04
    56   -2.844124298011e-15
    57    9.725635813769e-06
    58   -2.228402302883e-04
    59    3.225412059268e-04
    60   -7.322327217968e-15
    61    1.652513339588e-05
    62   -3.442898320346e-15
    63   -1.513806274864e-16
    64   -3.226874790773e-05
    65    5.943085882170e-05
    66   -1.880539810727e-01
    67   -1.608405310291e-01
    68   -5.182064598128e-04
    69    3.464993467040e-04
    70    2.759606844613e-15
    71   -1.874756414443e-03
    72    2.112679534167e-04
    73   -1.419447387265e-04
    74    6.638788630871e-15
    75    4.367509815402e-04
    76   -5.081706483032e-05
    77    2.854890671465e-05
    78    2.477383688588e-15
    79   -2.470027322756e-04
    80    1.084116591232e-04
    81   -3.584018225066e-05
    82    5.917278221503e-15
    83    2.853834448948e-05
    84    4.519710848339e-16
    85    5.872293780307e-16
    86    9.706954113690e-06
    87   -2.746100543311e-05
    88    7.709231016528e-07
    89    4.792684292230e-05
    90   -4.742998036218e-06
    91   -8.956964354160e-06
    92   -6.202008907708e-16
    93   -1.513574648701e-04
    94   -3.032016570426e-04
    95   -2.103328966863e-04
    96   -2.182891171996e-15
    97    3.795137612048e-04
    98   -2.996788196394e-05
    99   -1.191230530418e-04
   100    3.770665298828e-15
   101    1.513001133036e-03
   102    6.927470944349e-04
   103   -5.391375792851e-05
   104   -1.145949723140e-14
   105    4.140892440888e-05
   106    3.116420940346e-15
   107   -1.164422652915e-17
   108   -7.973373937117e-05
   109   -1.850798874164e-04
   110   -5.185092117383e-01
   111   -4.434437100801e-01
   112    1.303227718411e-03
   113    9.333514950638e-04
   114    5.440061020833e-15
   115   -4.845120532297e-03
   116   -5.848680553768e-04
   117   -4.294946487453e-04
   118    8.824561394910e-15
   119    7.248826159427e-04
   120    2.434455557569e-04
   121    1.920234628259e-04
   122    4.718217360068e-15
   123   -1.357653805695e-03
   124    5.760943355042e-05
   125    2.472112784287e-06
   126    4.290661659784e-15
   127    4.803822316018e-05
   128    2.000885405374e-16
   129   -2.384585231331e-16
   130    4.279829191699e-05
   131    1.615689134194e-04
   132   -6.844557396404e-07
   133   -2.072557316788e-07
   134    9.210120237110e-06
   135   -5.663271108079e-06
   136   -1.693379003632e-14
   137    1.935043594600e-05
   138   -2.923003388868e-05
   139    2.193933938560e-05
   140   -2.569515413865e-14
   141   -2.112212796718e-04
   142    4.744425315673e-05
   143    1.933500178247e-04
   144   -2.931996198626e-14
   145    3.114105293218e-04
   146    3.375151108588e-04
   147    3.494396695353e-05
   148    3.310342447445e-15
   149    9.458860417237e-06
   150   -4.846519156227e-16
   151    1.099392901744e-15
   152   -2.562280486479e-05
   153    1.892208570320e-05
   154   -2.040257535231e-07
   155   -2.517864672064e-07
   156   -1.156176361371e-06
   157    3.559429199306e-06
   158    3.113060604236e-15
   159    1.286004558803e-05
   160    2.876470650136e-06
   161   -1.031904241083e-05
   162    6.255710443920e-15
   163   -1.985065610908e-04
   164   -1.336849347772e-04
   165   -3.049183931563e-05
   166    2.102509394214e-15
   167   -1.739687766370e-04
   168   -5.118083154132e-05
   169    1.367924106372e-04
   170    6.673484451183e-15
   171    2.873994401267e-06
   172    7.780556574220e-16
   173   -7.702226952141e-16
   174    7.320214582504e-06
   175    6.578399949284e-06
   176   -1.688601696634e-06
   177    1.957179142730e-06
   178    5.535039099251e-06
   179    1.825674197671e-05
   180    3.420073157347e-15
   181   -1.673268472975e-06
   182   -1.360904061296e-05
   183   -1.006192731500e-04
   184    1.093385004987e-14
   185   -3.579724924202e-04
   186    2.912992088858e-04
   187   -5.050548819395e-05
   188   -2.529925157977e-15
   189   -6.201333531220e-04
   190   -1.904569123185e-04
   191   -8.763742019497e-04
   192    1.861317830499e-14
   193    3.460883754542e-06
   194   -2.240176356168e-16
   195   -5.583573581991e-16
   196    4.685977415426e-05
   197   -3.018202814059e-05
   198   -2.204172633589e-06
   199   -8.459639146629e-05
   200   -7.180168200362e-05
   201   -2.602477310895e-04
   202    2.097368299041e-05
   203   -1.240833916029e-05
   204    9.682977960641e-16
Sym=X
Ene= 1.999999
Spin=Alpha
Occup=1
     1   -3.230516382938e-04
     2   -2.733166001931e-04
     3   -1.368481088493e-05
     4   -3.346806050068e-05
     5    8.204655790450e-16
     6    1.406961911680e-07
     7   -3.421903847956e-05
     8   -9.597597828154e-06
     9   -3.493864062008e-15
    10    1.397438376353e-03
    11    1.229019978676e-04
    12    5.618831578797e-04
    13    5.432650985540e-15
    14    3.384460402557e-03
    15    4.026554277069e-04
    16    1.337894927693e-03
    17   -7.469966739822e-15
    18   -1.620216378621e-05
    19   -1.189869834814e-15
    20    5.008404058162e-16
    21   -6.050340472686e-06
    22   -5.644810165780e-06
    23   -2.900263948985e-06
    24   -1.351428566121e-04
    25   -4.045885767671e-04
    26   -2.044199461931e-04
    27   -1.124804663083e-05
    28   -9.265257558942e-06
    29    9.083877719956e-16
    30    3.092691727311e-05
    31    4.646635713244e-05
    32    2.655046906680e-04
    33    5.148451720480e-04
    34   -2.084877040106e-06
    35    4.060429150717e-07
    36   -8.855046613250e-16
    37   -6.466416630842e-05
    38   -7.131465247084e-04
    39    7.944498945975e-04
    40    1.466945119763e-05
    41    6.809203307431e-06
    42    1.578937989613e-04
    43    2.076985097939e-16
    44   -4.126119639033e-03
    45   -3.444185837670e-03
    46    1.687383710712e-05
    47    1.026876935674e-04
    48    1.274984795286e-14
    49    1.432982730868e-04
    50    1.623002796519e-04
    51    1.299871302591e-04
    52    1.569522620605e-14
    53    7.388770586039e-04
    54    1.098925440191e-03
    55   -2.228898216126e-04
    56    1.907516024439e-14
    57   -5.051250203326e-04
    58    2.247947081664e-05
    59    3.909557856301e-04
    60    2.327631347464e-14
    61    1.045503121661e-05
    62   -8.319911179840e-16
    63    9.473471303345e-16
    64    3.298140153800e-05
    65    7.274338133140e-06
    66    4.693680191813e-05
    67    7.915740156574e-05
    68    1.840997248115e-04
    69    1.310574941273e-04
    70    1.466782181737e-14
    71   -2.469003170093e-04
    72    3.103799787841e-04
    73    2.169920467021e-04
    74    2.230051389321e-14
    75    1.134061181754e-04
    76    2.787540677434e-04
    77    1.006794981476e-04
    78    2.289617425704e-14
    79    5.430530752528e-04
    80    1.694559319292e-04
    81   -1.325742662364e-04
    82   -1.129200960083e-14
    83   -6.558980457455e-06
    84    1.843652476795e-15
    85   -5.264930819230e-16
    86    2.387540741557e-05
    87   -1.421805125468e-06
    88    1.148688626399e-02
    89    9.536339515789e-03
    90    4.935404431753e-05
    91    5.912881910827e-05
    92    4.565909696479e-15
    93   -5.665559020744e-05
    94    1.848216404684e-05
    95    7.293956388578e-05
    96    8.437125690104e-15
    97    7.226532898919e-04
    98   -1.113632661705e-03
    99   -7.107691668771e-05
   100    9.572556532927e-15
   101   -1.513132356225e-03
   102   -1.602127417190e-05
   103    7.533135265328e-04
   104   -1.310005308604e-14
   105    1.184008999485e-05
   106    3.071590511528e-16
   107    2.063148559397e-15
   108   -5.343025537140e-06
   109    1.111360698239e-05
   110    8.127359763950e-06
   111    1.399013867540e-05
   112   -2.773356502572e-04
   113    2.909324338942e-04
   114    5.223239278569e-15
   115   -5.884853778205e-05
   116   -4.568404506424e-04
   117    4.551751969363e-04
   118    1.004046924147e-14
   119    2.294964124604e-04
   120   -4.058250503368e-04
   121    3.057832824742e-04
   122    2.167709004478e-15
   123    3.748778153773e-04
   124   -1.433631586092e-04
   125   -8.963849002748e-05
   126    7.493861326237e-15
   127   -6.474875889240e-06
   128   -7.483691446223e-16
   129    3.892038547146e-16
   130    2.277523412056e-05
   131    5.282757025715e-06
   132    5.577392508816e-01
   133    4.685432076318e-01
   134   -1.265900445333e-04
   135   -3.932109666160e-04
   136    7.833271415947e-15
   137    4.300170140095e-03
   138   -1.605377100391e-04
   139   -1.664838499367e-05
   140    1.120179855814e-14
   141   -3.416219463779e-03
   142   -1.370323420083e-04
   143    7.493860418070e-04
   144    8.443131040705e-15
   145    2.152609608687e-04
   146    1.478059465832e-05
   147   -1.077081693673e-03
   148   -1.022772743179e-14
   149    1.933325819750e-05
   150   -6.525477135247e-16
   151   -1.050682532187e-15
   152   -5.117862845989e-05
   153    5.647012702412e-06
   154    2.972418415276e-04
   155    2.511907991470e-04
   156   -2.169516760183e-06
   157   -2.645923343443e-05
   158    2.920262672981e-15
   159    1.594589802157e-05
   160    3.490744361080e-05
   161   -2.018870247906e-05
   162    2.726717585606e-15
   163   -4.349990385756e-04
   164   -5.770375540026e-04
   165   -1.560700833199e-04
   166   -3.057474949981e-16
   167   -1.448308851592e-03
   168   -9.673001047471e-04
   169   -4.552157840034e-04
   170   -9.843261536072e-15
   171    3.424672341859e-07
   172    7.024851449340e-16
   173    1.820908799708e-15
   174    3.135619627016e-06
   175    4.007574223134e-06
   176    8.664577212615e-04
   177    7.422606856698e-04
   178   -3.295355394300e-05
   179    2.873709472205e-06
   180   -5.211402410353e-17
   181   -9.238517820291e-05
   182   -1.080455603440e-05
   183   -1.267067419145e-05
   184    1.704854348376e-15
   185   -9.564507121300e-04
   186    9.488913463756e-04
   187   -1.943302194022e-04
   188   -3.569312889168e-15
   189   -1.208296487004e-03
   190    9.098605545240e-04
   191    7.483105845354e-05
   192    1.207758335575e-14
   193    1.062669693754e-05
   194    2.203017794330e-16
   195   -4.360299478835e-16
   196    6.468614155841e-06
   197    6.963931897823e-06
   198   -3.701942401887e-05
   199   -2.712517852536e-04
   200   -3.453651185295e-04
   201   -2.834649762125e-04
   202    1.975084287706e-05
   203   -2.552493116100e-05
   204   -7.939743295898e-16
Sym=X
Ene= 1.999999
Spin=Alpha
Occup=1
     1   -4.178149452368e-03
     2   -3.444897985687e-03
     3    1.719854118361e-04
     4   -1.526585089314e-04
     5    3.795216153473e-15
     6    8.716086405653e-05
     7    2.451942884695e-04
     8   -1.338240694184e-04
     9    7.809884138894e-15
    10   -2.037697208727e-03
    11    3.314285357689e-04
    12   -8.922122602570e-04
    13    2.917787884223e-15
    14   -7.072671411429e-03
    15   -1.612424364827e-03
    16   -1.320894343430e-03
    17   -1.636472578912e-15
    18    7.190646819967e-05
    19   -7.476567474094e-16
    20    8.076911502504e-16
    21   -4.760056431757e-05
    22    4.867890299375e-05
    23   -5.656969125772e-04
    24   -1.037620416779e-03
    25    4.949370552428e-06
    26    1.572792432173e-03
    27   -1.494920582036e-04
    28   -2.369809669442e-04
    29   -8.293101286002e-16
    30    8.715330592749e-05
    31    2.039882161317e-04
    32   -1.636735371998e-04
    33   -3.978915733182e-04
    34    9.421380620909e-06
    35    3.173610142883e-05
    36    2.780084054484e-16
    37    5.058504469316e-03
    38    6.400559161348e-03
    39   -1.336980414368e-03
    40   -1.280765713247e-03
    41   -3.056252667985e-04
    42   -1.319808437892e-03
    43   -2.616681997413e-15
    44    5.578100638384e-01
    45    4.605064057611e-01
    46    2.069235779120e-03
    47    4.498992361821e-03
    48   -2.500867629868e-15
    49    1.113124496409e-02
    50    1.904794768078e-03
    51    9.014795619229e-03
    52   -2.095491366839e-15
    53    2.065610704316e-03
    54    2.738092877605e-03
    55    4.118388888978e-03
    56   -3.866259903174e-15
    57   -1.586141043926e-03
    58    1.702507517746e-03
    59    4.251154125704e-03
    60   -1.257891896985e-15
    61   -8.370729532627e-04
    62   -9.201864491584e-15
    63   -6.055618657485e-17
    64   -1.032315093621e-03
    65   -8.775605516737e-04
    66   -1.306166172927e-03
    67   -2.135719005386e-03
    68    7.111594131818e-03
    69    6.625069810321e-03
    70    1.695913176291e-14
    71    5.668331993943e-03
    72    1.105983930189e-02
    73    1.026095719264e-02
    74    2.688237099842e-14
    75    1.958953098833e-03
    76    7.555863811986e-03
    77    9.892132784660e-03
    78    2.777132553289e-14
    79   -8.071442881473e-04
    80    2.240555363517e-04
    81   -9.919278671572e-05
    82    6.207478047340e-15
    83   -2.591949363357e-04
    84   -4.166230100747e-17
    85   -8.729857713969e-16
    86    1.016790887872e-03
    87   -7.846091721901e-05
    88    5.392875547020e-02
    89    4.475839477783e-02
    90    1.224980518719e-03
    91    1.801094090362e-04
    92   -1.360699080704e-14
    93   -4.962006853327e-04
    94    2.029307541839e-03
    95    4.144396643927e-04
    96   -2.326116676715e-14
    97   -2.014988170658e-04
    98    1.459113365529e-03
    99    2.536835326589e-04
   100   -1.003797712963e-14
   101    3.529609916719e-03
   102    2.782981715691e-04
   103   -8.312331597317e-04
   104   -1.121869687270e-14
   105   -6.493528166903e-05
   106    5.421602202743e-15
   107   -2.788712408883e-15
   108   -3.489553265954e-04
   109    1.083726849081e-04
   110   -2.810623263675e-04
   111   -4.703066489508e-04
   112   -1.386410503693e-03
   113    7.225934826047e-04
   114   -3.120908826395e-16
   115    1.352456691383e-03
   116   -2.213276005826e-03
   117    1.047220583567e-03
   118    3.932436995446e-15
   119    3.698844208892e-04
   120   -1.565841044241e-03
   121    1.368677405953e-03
   122    1.874594290716e-16
   123   -1.053459965880e-03
   124    1.015371683927e-05
   125    2.652067930918e-04
   126    6.968237679992e-15
   127   -6.427947801399e-05
   128    4.551972604534e-16
   129    2.714449301637e-16
   130    9.281301961712e-05
   131    6.396349851056e-05
   132   -7.589917645648e-05
   133   -2.572682115586e-03
   134   -3.069186999201e-03
   135    3.903993717915e-03
   136   -4.233397617941e-14
   137    1.361745000043e-02
   138   -5.428000420317e-03
   139    5.584498189639e-03
   140   -6.952287199987e-14
   141    6.381233588555e-03
   142   -1.101888795077e-03
   143    4.151541226212e-03
   144   -6.894465337491e-14