[Molden Format]
[Atoms] (Angs)
  C      1    6     -0.00754183     -1.75895763      0.00000000
  H      2    1     -2.09769850     -1.41880678     -0.00000000
  H      3    1     -0.13527422     -2.83956838     -0.00000000
  H      4    1      0.04053511      2.02026369      0.00000000
  C      5    6     -1.22066484      0.39918184     -0.00000000
  O      6    8     -2.25210141      1.05663720     -0.00000000
  C      7    6      1.24009552      0.27789184      0.00000000
  O      8    8      2.33767996      1.06122493      0.00000000
  N      9    7      0.03634586      1.00852936      0.00000000
  N     10    7     -1.18738304     -0.97903470     -0.00000000
  C     11    6      1.22288875     -1.12258096      0.00000000
  H     12    1      2.15640383     -1.68445878      0.00000000
[GTO]
1    0
S    6    1.000000
   4.56324000E+03    1.96665000E-03 
   6.82024000E+02    1.52306000E-02 
   1.54973000E+02    7.61269000E-02 
   4.44553000E+01    2.60801000E-01 
   1.30290000E+01    6.16462000E-01 
   1.82773000E+00    2.21006000E-01 
SP   3    1.000000
   2.09642000E+01    1.14660000E-01   4.02487000E-02 
   4.80331000E+00    9.19999000E-01   2.37594000E-01 
   1.45933000E+00   -3.03068000E-03   8.15854000E-01 
SP   1    1.000000
   4.83456000E-01    1.00000000E+00   1.00000000E+00 
SP   1    1.000000
   1.45585000E-01    1.00000000E+00   1.00000000E+00 
SP   1    1.000000
   4.38000000E-02    1.00000000E+00   1.00000000E+00 
D    1    1.000000
   6.26000000E-01    1.00000000E+00 

2    0
S    3    1.000000
   3.38650000E+01    2.54938000E-02 
   5.09479000E+00    1.90373000E-01 
   1.15879000E+00    8.52161000E-01 
S    1    1.000000
   3.25840000E-01    1.00000000E+00 
S    1    1.000000
   1.02741000E-01    1.00000000E+00 
S    1    1.000000
   3.60000000E-02    1.00000000E+00 
P    1    1.000000
   7.50000000E-01    1.00000000E+00 

3    0
S    3    1.000000
   3.38650000E+01    2.54938000E-02 
   5.09479000E+00    1.90373000E-01 
   1.15879000E+00    8.52161000E-01 
S    1    1.000000
   3.25840000E-01    1.00000000E+00 
S    1    1.000000
   1.02741000E-01    1.00000000E+00 
S    1    1.000000
   3.60000000E-02    1.00000000E+00 
P    1    1.000000
   7.50000000E-01    1.00000000E+00 

4    0
S    3    1.000000
   3.38650000E+01    2.54938000E-02 
   5.09479000E+00    1.90373000E-01 
   1.15879000E+00    8.52161000E-01 
S    1    1.000000
   3.25840000E-01    1.00000000E+00 
S    1    1.000000
   1.02741000E-01    1.00000000E+00 
S    1    1.000000
   3.60000000E-02    1.00000000E+00 
P    1    1.000000
   7.50000000E-01    1.00000000E+00 

5    0
S    6    1.000000
   4.56324000E+03    1.96665000E-03 
   6.82024000E+02    1.52306000E-02 
   1.54973000E+02    7.61269000E-02 
   4.44553000E+01    2.60801000E-01 
   1.30290000E+01    6.16462000E-01 
   1.82773000E+00    2.21006000E-01 
SP   3    1.000000
   2.09642000E+01    1.14660000E-01   4.02487000E-02 
   4.80331000E+00    9.19999000E-01   2.37594000E-01 
   1.45933000E+00   -3.03068000E-03   8.15854000E-01 
SP   1    1.000000
   4.83456000E-01    1.00000000E+00   1.00000000E+00 
SP   1    1.000000
   1.45585000E-01    1.00000000E+00   1.00000000E+00 
SP   1    1.000000
   4.38000000E-02    1.00000000E+00   1.00000000E+00 
D    1    1.000000
   6.26000000E-01    1.00000000E+00 

6    0
S    6    1.000000
   8.58850000E+03    1.89515000E-03 
   1.29723000E+03    1.43859000E-02 
   2.99296000E+02    7.07320000E-02 
   8.73771000E+01    2.40001000E-01 
   2.56789000E+01    5.94797000E-01 
   3.74004000E+00    2.80802000E-01 
SP   3    1.000000
   4.21175000E+01    1.13889000E-01   3.65114000E-02 
   9.62837000E+00    9.20811000E-01   2.37153000E-01 
   2.85332000E+00   -3.27447000E-03   8.19702000E-01 
SP   1    1.000000
   9.05661000E-01    1.00000000E+00   1.00000000E+00 
SP   1    1.000000
   2.55611000E-01    1.00000000E+00   1.00000000E+00 
SP   1    1.000000
   8.45000000E-02    1.00000000E+00   1.00000000E+00 
D    1    1.000000
   1.29200000E+00    1.00000000E+00 

7    0
S    6    1.000000
   4.56324000E+03    1.96665000E-03 
   6.82024000E+02    1.52306000E-02 
   1.54973000E+02    7.61269000E-02 
   4.44553000E+01    2.60801000E-01 
   1.30290000E+01    6.16462000E-01 
   1.82773000E+00    2.21006000E-01 
SP   3    1.000000
   2.09642000E+01    1.14660000E-01   4.02487000E-02 
   4.80331000E+00    9.19999000E-01   2.37594000E-01 
   1.45933000E+00   -3.03068000E-03   8.15854000E-01 
SP   1    1.000000
   4.83456000E-01    1.00000000E+00   1.00000000E+00 
SP   1    1.000000
   1.45585000E-01    1.00000000E+00   1.00000000E+00 
SP   1    1.000000
   4.38000000E-02    1.00000000E+00   1.00000000E+00 
D    1    1.000000
   6.26000000E-01    1.00000000E+00 

8    0
S    6    1.000000
   8.58850000E+03    1.89515000E-03 
   1.29723000E+03    1.43859000E-02 
   2.99296000E+02    7.07320000E-02 
   8.73771000E+01    2.40001000E-01 
   2.56789000E+01    5.94797000E-01 
   3.74004000E+00    2.80802000E-01 
SP   3    1.000000
   4.21175000E+01    1.13889000E-01   3.65114000E-02 
   9.62837000E+00    9.20811000E-01   2.37153000E-01 
   2.85332000E+00   -3.27447000E-03   8.19702000E-01 
SP   1    1.000000
   9.05661000E-01    1.00000000E+00   1.00000000E+00 
SP   1    1.000000
   2.55611000E-01    1.00000000E+00   1.00000000E+00 
SP   1    1.000000
   8.45000000E-02    1.00000000E+00   1.00000000E+00 
D    1    1.000000
   1.29200000E+00    1.00000000E+00 

9    0
S    6    1.000000
   6.29348000E+03    1.96979000E-03 
   9.49044000E+02    1.49613000E-02 
   2.18776000E+02    7.35006000E-02 
   6.36916000E+01    2.48937000E-01 
   1.88282000E+01    6.02460000E-01 
   2.72023000E+00    2.56202000E-01 
SP   3    1.000000
   3.06331000E+01    1.11906000E-01   3.83119000E-02 
   7.02614000E+00    9.21666000E-01   2.37403000E-01 
   2.11205000E+00   -2.56919000E-03   8.17592000E-01 
SP   1    1.000000
   6.84009000E-01    1.00000000E+00   1.00000000E+00 
SP   1    1.000000
   2.00878000E-01    1.00000000E+00   1.00000000E+00 
SP   1    1.000000
   6.39000000E-02    1.00000000E+00   1.00000000E+00 
D    1    1.000000
   9.13000000E-01    1.00000000E+00 

10    0
S    6    1.000000
   6.29348000E+03    1.96979000E-03 
   9.49044000E+02    1.49613000E-02 
   2.18776000E+02    7.35006000E-02 
   6.36916000E+01    2.48937000E-01 
   1.88282000E+01    6.02460000E-01 
   2.72023000E+00    2.56202000E-01 
SP   3    1.000000
   3.06331000E+01    1.11906000E-01   3.83119000E-02 
   7.02614000E+00    9.21666000E-01   2.37403000E-01 
   2.11205000E+00   -2.56919000E-03   8.17592000E-01 
SP   1    1.000000
   6.84009000E-01    1.00000000E+00   1.00000000E+00 
SP   1    1.000000
   2.00878000E-01    1.00000000E+00   1.00000000E+00 
SP   1    1.000000
   6.39000000E-02    1.00000000E+00   1.00000000E+00 
D    1    1.000000
   9.13000000E-01    1.00000000E+00 

11    0
S    6    1.000000
   4.56324000E+03    1.96665000E-03 
   6.82024000E+02    1.52306000E-02 
   1.54973000E+02    7.61269000E-02 
   4.44553000E+01    2.60801000E-01 
   1.30290000E+01    6.16462000E-01 
   1.82773000E+00    2.21006000E-01 
SP   3    1.000000
   2.09642000E+01    1.14660000E-01   4.02487000E-02 
   4.80331000E+00    9.19999000E-01   2.37594000E-01 
   1.45933000E+00   -3.03068000E-03   8.15854000E-01 
SP   1    1.000000
   4.83456000E-01    1.00000000E+00   1.00000000E+00 
SP   1    1.000000
   1.45585000E-01    1.00000000E+00   1.00000000E+00 
SP   1    1.000000
   4.38000000E-02    1.00000000E+00   1.00000000E+00 
D    1    1.000000
   6.26000000E-01    1.00000000E+00 

12    0
S    3    1.000000
   3.38650000E+01    2.54938000E-02 
   5.09479000E+00    1.90373000E-01 
   1.15879000E+00    8.52161000E-01 
S    1    1.000000
   3.25840000E-01    1.00000000E+00 
S    1    1.000000
   1.02741000E-01    1.00000000E+00 
S    1    1.000000
   3.60000000E-02    1.00000000E+00 
P    1    1.000000
   7.50000000E-01    1.00000000E+00 

[MO]
Sym=X
Ene= 2.000000
Spin=Alpha
Occup=1
     1   -4.027746688274e-07
     2    1.160566867363e-06
     3   -3.424500283227e-06
     4    4.911700642456e-06
     5    4.421776331256e-15
     6   -6.183747352773e-06
     7    1.315300064037e-05
     8   -2.195409329360e-05
     9    8.319560649799e-15
    10   -7.385647310985e-05
    11    9.246261119461e-05
    12    8.460623442412e-05
    13    7.453996582061e-15
    14    4.903187711694e-04
    15    4.287697091327e-04
    16    3.238818431057e-04
    17    3.342414610485e-15
    18    1.792761504466e-06
    19   -5.730523056605e-16
    20    8.893702308183e-16
    21    4.116835247404e-06
    22   -4.958653294389e-07
    23    3.540273446190e-06
    24    3.680125868358e-05
    25    1.325185992130e-04
    26    2.230177364041e-04
    27    9.234403736447e-06
    28   -8.386295824391e-06
    29    1.957049227399e-15
    30   -3.824258233268e-06
    31    2.989004486187e-05
    32    4.690102274451e-05
    33    1.683844523783e-04
    34   -3.644827489364e-06
    35    3.495409184895e-06
    36   -1.366550582145e-15
    37    1.121268934372e-06
    38    4.023899203909e-05
    39    3.816302643908e-05
    40    2.585445489512e-04
    41    1.138697879151e-05
    42   -2.702309133267e-06
    43   -1.978074887948e-16
    44    4.410791511563e-06
    45   -7.024355244423e-05
    46   -5.277654014751e-05
    47    3.246579116102e-05
    48    7.418751613815e-15
    49    2.733880553007e-04
    50   -3.306653919368e-04
    51    2.088618532855e-04
    52    8.758726647678e-15
    53   -2.034065381119e-05
    54   -3.176333857141e-04
    55    2.658641577451e-04
    56    1.081930772467e-14
    57    4.571933212434e-04
    58    5.420605396495e-04
    59   -3.564616978418e-04
    60    1.146178690334e-15
    61   -5.455116176363e-05
    62   -8.953711291429e-16
    63   -6.827584799663e-16
    64    8.369684470727e-05
    65   -1.714581273429e-04
    66    5.090053795350e-01
    67    4.353463967774e-01
    68    1.404208761596e-03
    69   -9.385688602618e-04
    70    7.713065260461e-15
    71    5.078945885429e-03
    72   -5.736549805680e-04
    73    3.897756933223e-04
    74    1.107565481686e-14
    75   -1.183961463538e-03
    76    1.267002697898e-04
    77   -1.079032515200e-04
    78    8.746522188772e-15
    79    1.459700880914e-03
    80    1.220353667156e-04
    81   -2.665916011008e-05
    82   -5.075082382935e-17
    83   -7.763253995021e-05
    84    1.168306952341e-15
    85   -1.474432868001e-15
    86   -2.959139649887e-05
    87    7.569586048354e-05
    88   -1.052554565516e-07
    89    2.022995575086e-05
    90   -6.016531753326e-06
    91   -8.484108345883e-07
    92   -4.451355298087e-15
    93   -6.708214298837e-05
    94   -1.065654936944e-04
    95   -1.014470170530e-04
    96   -7.344067337640e-15
    97   -3.438110370376e-05
    98    4.787958441622e-05
    99   -1.021824610930e-04
   100   -2.848175744105e-15
   101    1.715497415630e-03
   102    3.692098101948e-04
   103   -8.275684562995e-04
   104   -2.602265240839e-15
   105    1.936005772424e-05
   106   -4.503618901743e-16
   107   -8.940063358332e-16
   108   -3.906150220934e-05
   109   -7.542766074075e-05
   110   -2.122820422974e-01
   111   -1.815486267022e-01
   112    5.339193050254e-04
   113    3.815165036458e-04
   114   -4.168250159453e-15
   115   -1.993028877712e-03
   116   -2.384710838823e-04
   117   -1.736802932431e-04
   118   -1.023539810907e-14
   119    3.470006965339e-04
   120    8.347478311354e-05
   121    6.584300979918e-05
   122   -6.498662836983e-15
   123   -7.262918151265e-04
   124    1.166408869069e-04
   125    6.561420490761e-05
   126    4.790316613868e-16
   127    1.992798884054e-05
   128    4.101597910906e-16
   129    5.091124102375e-16
   130    1.845152414834e-05
   131    6.687806939830e-05
   132    2.933600102666e-08
   133    1.371783941182e-06
   134    1.583701649231e-05
   135   -1.995778985167e-06
   136   -4.544890643095e-15
   137   -1.770026132717e-05
   138   -4.435152036477e-05
   139    9.130675823746e-06
   140   -4.030440489456e-15
   141    1.606257365528e-04
   142    6.850547975254e-05
   143   -1.664381769828e-04
   144   -1.101345113335e-14
   145    5.688837272314e-05
   146    7.052549154758e-04
   147   -6.727048484949e-06
   148   -4.441690033543e-16
   149   -3.550907388450e-06
   150   -1.346970356794e-15
   151   -9.949329147495e-16
   152    1.174216998955e-05
   153    1.791064929311e-05
   154    3.636822686979e-07
   155    1.358019244666e-06
   156    5.523290060889e-06
   157   -9.212633960464e-06
   158    1.199119765394e-14
   159   -2.224740079752e-05
   160   -1.887161224256e-05
   161    2.654665570285e-05
   162    1.847340001790e-14
   163    2.109213807235e-04
   164    1.753110653893e-04
   165    6.891843678062e-05
   166    1.431460756344e-14
   167   -1.306818556631e-04
   168    3.136962773309e-04
   169   -3.039095843240e-04
   170   -3.903022262530e-15
   171   -7.678573652590e-06
   172    8.898583979761e-16
   173    7.858274722774e-16
   174   -1.874695323286e-05
   175   -1.111616779791e-05
   176   -5.713619482122e-07
   177    1.718226946103e-07
   178    4.216136914896e-06
   179    6.825116220989e-06
   180    5.346202299910e-16
   181    9.440554151262e-06
   182   -1.584482423982e-05
   183   -3.771365229153e-05
   184    1.523265785169e-15
   185   -1.916935531079e-04
   186    1.629848330438e-04
   187   -4.416772580090e-05
   188    1.343893857503e-15
   189   -3.391770204215e-03
   190    3.867458965970e-04
   191   -6.830467454408e-04
   192   -7.011453159168e-16
   193    5.261014223523e-06
   194   -8.848780063218e-16
   195   -8.098048913503e-16
   196    2.133650805906e-05
   197   -1.517979167323e-05
   198    1.124582624469e-07
   199   -4.308531289169e-05
   200   -4.629464551618e-05
   201   -2.703403898562e-04
   202    8.398651448197e-06
   203   -4.759979033503e-06
   204   -7.661432253953e-16
Sym=X
Ene= 2.000000
Spin=Alpha
Occup=1
     1    1.428730881890e-07
     2   -2.663531712933e-06
     3   -1.845267175078e-06
     4   -2.997800200021e-09
     5   -1.019095862424e-14
     6    1.938682513362e-05
     7    1.758271864985e-05
     8    6.410623100886e-06
     9   -1.496316372393e-14
    10   -4.011413903053e-04
    11   -4.497391045504e-05
    12   -1.857487005896e-04
    13   -1.822859439339e-14
    14    2.218003106816e-05
    15    4.329113945039e-04
    16   -5.295343255780e-04
    17    1.066838850408e-14
    18    2.021917287158e-06
    19   -5.121835067022e-16
    20   -2.986004298707e-15
    21   -1.247591984671e-06
    22    1.314330479579e-05
    23    1.999589969255e-06
    24    2.707165868763e-05
    25   -1.117831718121e-05
    26    1.537516364471e-04
    27    1.607808848006e-06
    28   -2.097854117842e-06
    29   -1.578545508416e-15
    30   -2.059138013933e-06
    31    7.165212141178e-06
    32   -1.295862236853e-04
    33   -2.558784704370e-04
    34    3.632690184448e-06
    35    1.453197344577e-06
    36    3.655717948278e-16
    37    5.398664261721e-06
    38    5.784644397715e-05
    39    7.164883567350e-05
    40    1.978004206322e-04
    41    8.211267699106e-07
    42   -1.185873849234e-05
    43    9.716259791752e-16
    44    1.580014881474e-06
    45   -2.978863866505e-05
    46   -2.058357827199e-05
    47    1.355087914529e-05
    48    3.427347993304e-16
    49    1.166153810491e-04
    50   -1.384033262848e-04
    51    8.812075204830e-05
    52   -4.866196246305e-15
    53   -1.507142156490e-04
    54   -2.916950855532e-04
    55    1.270936824438e-04
    56    7.447159222873e-16
    57    1.180994926464e-05
    58    2.486335199693e-04
    59   -3.396983328305e-04
    60    5.433362162538e-15
    61   -1.911433539641e-05
    62    2.165323017266e-16
    63    9.811963684744e-16
    64    3.624898348334e-05
    65   -6.757721504650e-05
    66    2.122508511331e-01
    67    1.815358334701e-01
    68    5.849584732810e-04
    69   -3.911163124996e-04
    70    2.295200690628e-15
    71    2.116195218608e-03
    72   -2.385373417802e-04
    73    1.604714572313e-04
    74    9.821289365872e-16
    75   -4.930328668709e-04
    76    5.684454796761e-05
    77   -3.366578273074e-05
    78    5.805028815342e-15
    79    3.160689291967e-04
    80   -1.027807619216e-04
    81    3.462358158595e-05
    82   -3.221538843453e-15
    83   -3.222864681176e-05
    84   -4.340210655460e-16
    85   -6.607125496141e-16
    86   -1.111229433882e-05
    87    3.105884085929e-05
    88   -7.763471164389e-07
    89   -4.702632532145e-05
    90    4.464721182587e-06
    91    8.926921913274e-06
    92   -5.405178591395e-15
    93    1.483640476255e-04
    94    2.985160171808e-04
    95    2.057853988067e-04
    96   -8.132043185284e-15
    97   -3.815552705608e-04
    98    3.225759452032e-05
    99    1.144396624726e-04
   100   -8.937563726057e-15
   101   -1.433833264119e-03
   102   -6.761160283868e-04
   103    1.497235643165e-05
   104    8.555921994385e-15
   105   -4.054249303383e-05
   106   -3.840287880375e-16
   107   -3.012745492698e-16
   108    7.798136271961e-05
   109    1.817305884895e-04
   110    5.090803749423e-01
   111    4.353799483168e-01
   112   -1.279511872058e-03
   113   -9.164074891591e-04
   114   -3.191186307760e-15
   115    4.756571590854e-03
   116    5.742786390901e-04
   117    4.217862181397e-04
   118   -5.663642923750e-15
   119   -7.093338768791e-04
   120   -2.397817977292e-04
   121   -1.891335698394e-04
   122   -3.577826123065e-16
   123    1.324932322553e-03
   124   -5.217637944990e-05
   125    6.173780326839e-07
   126   -1.439185288868e-15
   127   -4.715238397234e-05
   128   -3.728209099892e-18
   129    3.147284854429e-16
   130   -4.197621868705e-05
   131   -1.585964395505e-04
   132    6.841233936907e-07
   133    2.700515525051e-07
   134   -8.473988116292e-06
   135    5.575509846111e-06
   136    2.221643690571e-18
   137   -2.020607867129e-05
   138    2.717229159436e-05
   139   -2.153337288844e-05
   140   -1.782158657185e-15
   141    2.190256233558e-04
   142   -4.426842082422e-05
   143   -2.014084236035e-04
   144    1.418547865136e-15
   145   -3.090751671944e-04
   146   -3.046528110475e-04
   147   -3.529976925941e-05
   148   -3.014236824479e-15
   149   -9.636705024787e-06
   150    6.785049917152e-16
   151   -1.015090701849e-16
   152    2.620462306628e-05
   153   -1.809900224213e-05
   154    2.218578901504e-07
   155    3.164603379354e-07
   156    1.417759158146e-06
   157   -3.997549891490e-06
   158   -1.038985789646e-14
   159   -1.392279399724e-05
   160   -3.769035762103e-06
   161    1.158157061098e-05
   162   -1.819981940917e-14
   163    2.086670720970e-04
   164    1.420952827840e-04
   165    3.377363488186e-05
   166   -1.313943546965e-14
   167    1.680031745397e-04
   168    6.602136541566e-05
   169   -1.512667280690e-04
   170   -5.309557963998e-15
   171   -3.239055585061e-06
   172   -1.235988696576e-15
   173    1.858842688259e-16
   174   -8.211836130222e-06
   175   -7.109578008080e-06
   176    1.663777414927e-06
   177   -1.951064844591e-06
   178   -5.342486612240e-06
   179   -1.795535269800e-05
   180   -7.450950699843e-15
   181    2.120038725527e-06
   182    1.287741708406e-05
   183    9.895360052034e-05
   184   -1.773047783229e-14
   185    3.493357662417e-04
   186   -2.839414547726e-04
   187    4.848003069575e-05
   188   -2.279063148547e-15
   189    4.609759840875e-04
   190    2.088946573774e-04
   191    8.451565865854e-04
   192   -1.616053889804e-14
   193   -3.216786773775e-06
   194    1.069786717204e-15
   195    4.802135063055e-17
   196   -4.590624728462e-05
   197    2.950014159287e-05
   198    2.211918228124e-06
   199    8.265978007741e-05
   200    6.969962371305e-05
   201    2.477961110818e-04
   202   -2.060115390787e-05
   203    1.219778525192e-05
   204   -1.215577431177e-15
Sym=X
Ene= 1.999998
Spin=Alpha
Occup=1
     1    1.546753110857e-02
     2    1.287558226483e-02
     3   -1.655092210977e-04
     4   -1.515406211674e-04
     5   -7.595612284073e-15
     6   -2.207243194840e-04
     7   -1.542466474336e-04
     8   -3.298410846613e-04
     9   -1.381669294276e-14
    10    6.080722612235e-04
    11   -2.721642883441e-04
    12    2.287594388653e-04
    13   -6.816092619696e-15
    14   -3.420752443171e-03
    15   -8.573931596250e-05
    16   -8.445475780709e-04
    17    1.577373595031e-15
    18    7.250033578867e-06
    19    9.668334690015e-16
    20   -2.068236884077e-15
    21    1.476786950703e-05
    22    6.147989996104e-05
    23   -1.354351165441e-04
    24   -2.990882600834e-04
    25    1.206927459437e-04
    26    2.138228675130e-04
    27   -1.066469860530e-04
    28   -1.139831383944e-04
    29    5.596651190725e-16
    30    7.657688942870e-05
    31    5.231645861017e-05
    32    1.477122974372e-04
    33   -1.963138272635e-04
    34    1.647940886113e-05
    35   -1.361440740126e-05
    36   -6.022455460852e-16
    37    4.458661311527e-05
    38   -7.068607380210e-05
    39    5.552802746530e-05
    40   -1.841611986753e-04
    41    3.271604753259e-05
    42    7.538861807197e-05
    43   -2.160810600076e-16
    44   -5.620904013684e-01
    45   -4.648907572501e-01
    46   -4.367620821852e-04
    47    7.428424719237e-04
    48   -4.705060847016e-15
    49   -6.653264758956e-03
    50    1.213143978560e-03
    51    7.465470998464e-06
    52   -9.504755067636e-15
    53   -7.154468301053e-04
    54    4.296669725470e-04
    55    1.912569281324e-04
    56    1.057338026819e-15
    57    2.513745049039e-03
    58    1.258941746740e-03
    59   -2.881567466114e-04
    60   -1.571519564517e-15
    61    5.775598043974e-04
    62    1.189249273299e-15
    63    6.182046462685e-16
    64   -2.662144408457e-04
    65    4.173110436550e-04
    66    5.495492979459e-04
    67    8.812266026094e-04
    68   -2.594302646239e-04
    69    9.762861090411e-04
    70   -3.252082016943e-15
    71   -2.249221485289e-03
    72   -3.595794772128e-04
    73    1.497127896346e-03
    74   -5.555261835029e-15
    75   -1.237365516640e-04
    76    7.200150810319e-04
    77    6.091631797862e-04
    78   -6.547132973303e-15
    79   -3.225779576818e-05
    80   -4.205659253037e-04
    81    2.306806218999e-04
    82   -1.910195475947e-16
    83    8.294840762299e-05
    84    3.780054330860e-16
    85    4.029003191575e-16
    86   -3.083180666699e-05
    87    2.356114074969e-04
    88   -1.988708967451e-03
    89   -1.650976120163e-03
    90    5.022895681638e-05
    91    2.126193367260e-04
    92    6.726808750989e-17
    93    2.259552656649e-05
    94    1.510624880559e-04
    95    3.404503444861e-04
    96   -1.397265263726e-15
    97    9.557478578173e-04
    98   -6.835686676891e-04
    99    2.513459335592e-04
   100   -2.244208154563e-15
   101   -3.157153445367e-03
   102    4.695868849943e-04
   103    6.038072631534e-04
   104    9.501179561517e-15
   105   -7.236312446951e-06
   106    2.202564413039e-16
   107    1.341069961698e-15
   108   -1.071933592908e-04
   109    3.370496410965e-05
   110   -1.461465850701e-05
   111   -2.364905302193e-05
   112   -3.983466976686e-04
   113    2.970949834575e-04
   114    2.655444788850e-15
   115    5.815206355650e-05
   116   -6.018769387976e-04
   117    4.647579510665e-04
   118   -1.607017309632e-15
   119   -4.221441606991e-05
   120   -4.461397742722e-04
   121    3.847340920218e-04
   122    6.012245754264e-15
   123    3.272244296162e-04
   124   -1.219344670564e-04
   125   -7.781491887654e-05
   126   -3.525082427597e-15
   127   -1.100968430981e-05
   128    1.970032883670e-16
   129    5.358224974466e-17
   130    2.995983495923e-05
   131    2.341632167584e-06
   132    1.234918187663e-02
   133    1.056668574027e-02
   134    3.564142466826e-04
   135    2.925925466456e-04
   136    1.287753577897e-15
   137   -8.624584489294e-04
   138    9.469876922667e-04
   139    6.172616479324e-04
   140    2.216233352941e-15
   141   -1.000347139866e-03
   142   -2.007081878991e-04
   143    5.864157530088e-04
   144    1.868901171667e-15
   145   -1.523382688048e-03
   146    8.046872388275e-05
   147    3.875298819919e-04
   148   -2.584167723890e-15
   149    4.873816535132e-05
   150   -8.265594902206e-17
   151   -8.198377109308e-16
   152   -1.714221783452e-04
   153   -2.023460565437e-04
   154    2.119850025390e-02
   155    1.820579751340e-02
   156    2.991001399515e-05
   157   -6.630097871025e-04
   158   -1.162267675475e-14
   159   -1.929480311836e-03
   160    4.001994770590e-05
   161   -1.480810332562e-03
   162   -1.871638292065e-14
   163   -1.119634920120e-03
   164   -4.651997900884e-04
   165   -1.376812177725e-04
   166   -2.012690678011e-14
   167    1.138608174509e-04
   168    2.593772000766e-05
   169   -6.245046571779e-05
   170   -2.148158098527e-16
   171    9.321777682028e-05
   172    7.651752968284e-18
   173   -9.271811794116e-16
   174    3.074546902020e-04
   175    3.954159501624e-05
   176    4.874642838449e-03
   177    4.120888764164e-03
   178    1.640881092980e-04
   179   -2.573865031923e-05
   180   -3.833229245892e-15
   181   -3.861648796192e-04
   182    3.607976258453e-04
   183   -9.452482953672e-05
   184   -1.074738532343e-14
   185   -3.195948693452e-04
   186    4.613222753113e-04
   187   -1.128151000247e-04
   188   -4.093096045309e-15
   189    4.483375592603e-03
   190   -9.860312693456e-04
   191    5.212049947506e-04
   192   -7.596840341531e-15
   193    2.270903031463e-05
   194    9.806215701534e-16
   195   -1.407492796639e-17
   196    1.401447329170e-05
   197   -3.768778653054e-05
   198    5.638698102730e-05
   199   -4.547991861366e-05
   200    1.965123639555e-06
   201    2.276268485918e-04
   202    2.015844290184e-05
   203   -1.654389465886e-05
   204   -7.880852650447e-16
Sym=X
Ene= 1.999998
Spin=Alpha
Occup=1
     1    5.623839226664e-01
     2    4.665458576039e-01
     3   -2.078777154883e-03
     4    9.031761616131e-04
     5    1.035149231662e-14
     6   -5.987217573908e-04
     7   -9.464841915881e-04
     8    4.909887868748e-05
     9    1.960552770532e-14
    10   -3.899520899724e-03
    11   -1.023923703411e-03
    12    3.028959495777e-04
    13    1.220857316789e-14
    14   -3.088243611519e-03
    15    2.854240757048e-05
    16    6.480259772946e-04
    17    1.113473081808e-14
    18   -2.516347372312e-04
    19    3.849998817599e-16
    20    1.696612055697e-15
    21    2.487713194250e-05
    22    1.384000188000e-04
    23    1.701981166292e-04
    24    2.259308924918e-04
    25    2.463084616848e-04
    26    7.364305812826e-04
    27    1.204718538971e-04
    28    1.141490651344e-05
    29    9.239411926767e-16
    30   -6.600987824087e-04
    31   -1.697748223495e-03
    32    7.657754002132e-04
    33    4.796423499362e-04
    34   -5.626639123521e-05
    35   -2.496419732581e-04
    36    3.234098513879e-16
    37    7.899184961917e-06
    38    5.540604709069e-05
    39   -2.629001153939e-04
    40   -2.631414048979e-04
    41    5.986740090348e-07
    42   -5.020449546028e-06
    43    1.304115791015e-15
    44    1.543364662415e-02
    45    1.280434660836e-02
    46    5.350654045367e-05
    47    1.199012801288e-04
    48    3.654007104881e-17
    49   -1.372134834730e-05
    50    2.232108282202e-05
    51    1.615839880883e-04
    52   -2.667727225073e-16
    53   -9.590335222744e-04
    54   -7.334974345355e-05
    55    8.366780567808e-04
    56   -4.436202452229e-16
    57   -5.372611503008e-04
    58    9.562963036209e-05
    59    8.281307605326e-04
    60   -5.135547285196e-16
    61    6.181340945295e-06
    62    5.006042927776e-16
    63   -7.511993070859e-16
    64   -5.959145887574e-05
    65   -4.124971087796e-05
    66    2.032751874330e-05
    67    3.239372676917e-05
    68    9.119959427265e-05
    69    9.414872594905e-05
    70   -4.089665164117e-15
    71   -8.040140259442e-05
    72    1.522829992679e-04
    73    1.331424347184e-04
    74   -7.300359074619e-15
    75   -2.224641046988e-04
    76    4.915335286293e-05
    77    7.155992380278e-05
    78   -7.908001943617e-15
    79    2.642252268144e-04
    80    1.146110221285e-04
    81   -2.068559652436e-04
    82    1.897543425695e-15
    83   -1.327591841641e-06
    84    1.974211400556e-16
    85    3.662413348820e-16
    86    6.857376939801e-06
    87   -3.932320957493e-06
    88   -2.948014105493e-02
    89   -2.443964317503e-02
    90    1.521156840167e-04
    91   -5.347787496958e-05
    92    3.533969833322e-15
    93    2.317927388050e-05
    94    1.649121399791e-04
    95    4.740196359403e-05
    96    8.038760602851e-15
    97    1.668360612430e-04
    98    1.218969791421e-05
    99   -3.710437251694e-04
   100    6.434353742126e-15
   101   -3.780882742324e-03
   102    9.362951279141e-04
   103    8.169893811155e-04
   104    1.035552064938e-14
   105    3.889167335693e-05
   106    1.444668943300e-16
   107   -9.979835036478e-16
   108    2.483891060804e-05
   109   -9.572217127400e-05
   110   -6.410747159702e-05
   111   -1.060313452121e-04
   112   -7.272910856375e-05
   113    1.476485434855e-04
   114    3.143580550258e-16
   115    2.962720628535e-04
   116   -1.204865871864e-04
   117    2.121314415999e-04
   118    4.737224162928e-15
   119    3.256949657311e-04
   120   -1.345405934548e-04
   121    2.603733313798e-04
   122    9.321755030607e-16
   123   -2.249709374048e-04
   124    6.069185755503e-05
   125   -9.046363317829e-05
   126   -3.452794469850e-15
   127   -7.610251642281e-06
   128   -3.426542689449e-16
   129    5.974458739628e-16
   130    7.165563760092e-06
   131    1.225676392315e-07
   132   -1.499420892104e-03
   133   -1.258932508663e-03
   134   -4.142471777281e-06
   135    3.369242253552e-05
   136    1.467991318171e-16
   137   -6.105192669026e-06
   138   -1.097892462676e-04
   139    3.213508703060e-05
   140   -4.554181984314e-15
   141    3.519929657287e-05
   142    1.548378737939e-04
   143   -6.092825673312e-05
   144   -4.118876566636e-15