[Molden Format]
[Atoms] (Angs)
  C      1    6     -0.00754183     -1.75895763      0.00000000
  H      2    1     -2.09769850     -1.41880678     -0.00000000
  H      3    1     -0.13527422     -2.83956838     -0.00000000
  H      4    1      0.04053511      2.02026369      0.00000000
  C      5    6     -1.22066484      0.39918184     -0.00000000
  O      6    8     -2.25210141      1.05663720     -0.00000000
  C      7    6      1.24009552      0.27789184      0.00000000
  O      8    8      2.33767996      1.06122493      0.00000000
  N      9    7      0.03634586      1.00852936      0.00000000
  N     10    7     -1.18738304     -0.97903470     -0.00000000
  C     11    6      1.22288875     -1.12258096      0.00000000
  H     12    1      2.15640383     -1.68445878      0.00000000
[GTO]
1    0
S    6    1.000000
   4.56324000E+03    1.96665000E-03 
   6.82024000E+02    1.52306000E-02 
   1.54973000E+02    7.61269000E-02 
   4.44553000E+01    2.60801000E-01 
   1.30290000E+01    6.16462000E-01 
   1.82773000E+00    2.21006000E-01 
SP   3    1.000000
   2.09642000E+01    1.14660000E-01   4.02487000E-02 
   4.80331000E+00    9.19999000E-01   2.37594000E-01 
   1.45933000E+00   -3.03068000E-03   8.15854000E-01 
SP   1    1.000000
   4.83456000E-01    1.00000000E+00   1.00000000E+00 
SP   1    1.000000
   1.45585000E-01    1.00000000E+00   1.00000000E+00 
SP   1    1.000000
   4.38000000E-02    1.00000000E+00   1.00000000E+00 
D    1    1.000000
   6.26000000E-01    1.00000000E+00 

2    0
S    3    1.000000
   3.38650000E+01    2.54938000E-02 
   5.09479000E+00    1.90373000E-01 
   1.15879000E+00    8.52161000E-01 
S    1    1.000000
   3.25840000E-01    1.00000000E+00 
S    1    1.000000
   1.02741000E-01    1.00000000E+00 
S    1    1.000000
   3.60000000E-02    1.00000000E+00 
P    1    1.000000
   7.50000000E-01    1.00000000E+00 

3    0
S    3    1.000000
   3.38650000E+01    2.54938000E-02 
   5.09479000E+00    1.90373000E-01 
   1.15879000E+00    8.52161000E-01 
S    1    1.000000
   3.25840000E-01    1.00000000E+00 
S    1    1.000000
   1.02741000E-01    1.00000000E+00 
S    1    1.000000
   3.60000000E-02    1.00000000E+00 
P    1    1.000000
   7.50000000E-01    1.00000000E+00 

4    0
S    3    1.000000
   3.38650000E+01    2.54938000E-02 
   5.09479000E+00    1.90373000E-01 
   1.15879000E+00    8.52161000E-01 
S    1    1.000000
   3.25840000E-01    1.00000000E+00 
S    1    1.000000
   1.02741000E-01    1.00000000E+00 
S    1    1.000000
   3.60000000E-02    1.00000000E+00 
P    1    1.000000
   7.50000000E-01    1.00000000E+00 

5    0
S    6    1.000000
   4.56324000E+03    1.96665000E-03 
   6.82024000E+02    1.52306000E-02 
   1.54973000E+02    7.61269000E-02 
   4.44553000E+01    2.60801000E-01 
   1.30290000E+01    6.16462000E-01 
   1.82773000E+00    2.21006000E-01 
SP   3    1.000000
   2.09642000E+01    1.14660000E-01   4.02487000E-02 
   4.80331000E+00    9.19999000E-01   2.37594000E-01 
   1.45933000E+00   -3.03068000E-03   8.15854000E-01 
SP   1    1.000000
   4.83456000E-01    1.00000000E+00   1.00000000E+00 
SP   1    1.000000
   1.45585000E-01    1.00000000E+00   1.00000000E+00 
SP   1    1.000000
   4.38000000E-02    1.00000000E+00   1.00000000E+00 
D    1    1.000000
   6.26000000E-01    1.00000000E+00 

6    0
S    6    1.000000
   8.58850000E+03    1.89515000E-03 
   1.29723000E+03    1.43859000E-02 
   2.99296000E+02    7.07320000E-02 
   8.73771000E+01    2.40001000E-01 
   2.56789000E+01    5.94797000E-01 
   3.74004000E+00    2.80802000E-01 
SP   3    1.000000
   4.21175000E+01    1.13889000E-01   3.65114000E-02 
   9.62837000E+00    9.20811000E-01   2.37153000E-01 
   2.85332000E+00   -3.27447000E-03   8.19702000E-01 
SP   1    1.000000
   9.05661000E-01    1.00000000E+00   1.00000000E+00 
SP   1    1.000000
   2.55611000E-01    1.00000000E+00   1.00000000E+00 
SP   1    1.000000
   8.45000000E-02    1.00000000E+00   1.00000000E+00 
D    1    1.000000
   1.29200000E+00    1.00000000E+00 

7    0
S    6    1.000000
   4.56324000E+03    1.96665000E-03 
   6.82024000E+02    1.52306000E-02 
   1.54973000E+02    7.61269000E-02 
   4.44553000E+01    2.60801000E-01 
   1.30290000E+01    6.16462000E-01 
   1.82773000E+00    2.21006000E-01 
SP   3    1.000000
   2.09642000E+01    1.14660000E-01   4.02487000E-02 
   4.80331000E+00    9.19999000E-01   2.37594000E-01 
   1.45933000E+00   -3.03068000E-03   8.15854000E-01 
SP   1    1.000000
   4.83456000E-01    1.00000000E+00   1.00000000E+00 
SP   1    1.000000
   1.45585000E-01    1.00000000E+00   1.00000000E+00 
SP   1    1.000000
   4.38000000E-02    1.00000000E+00   1.00000000E+00 
D    1    1.000000
   6.26000000E-01    1.00000000E+00 

8    0
S    6    1.000000
   8.58850000E+03    1.89515000E-03 
   1.29723000E+03    1.43859000E-02 
   2.99296000E+02    7.07320000E-02 
   8.73771000E+01    2.40001000E-01 
   2.56789000E+01    5.94797000E-01 
   3.74004000E+00    2.80802000E-01 
SP   3    1.000000
   4.21175000E+01    1.13889000E-01   3.65114000E-02 
   9.62837000E+00    9.20811000E-01   2.37153000E-01 
   2.85332000E+00   -3.27447000E-03   8.19702000E-01 
SP   1    1.000000
   9.05661000E-01    1.00000000E+00   1.00000000E+00 
SP   1    1.000000
   2.55611000E-01    1.00000000E+00   1.00000000E+00 
SP   1    1.000000
   8.45000000E-02    1.00000000E+00   1.00000000E+00 
D    1    1.000000
   1.29200000E+00    1.00000000E+00 

9    0
S    6    1.000000
   6.29348000E+03    1.96979000E-03 
   9.49044000E+02    1.49613000E-02 
   2.18776000E+02    7.35006000E-02 
   6.36916000E+01    2.48937000E-01 
   1.88282000E+01    6.02460000E-01 
   2.72023000E+00    2.56202000E-01 
SP   3    1.000000
   3.06331000E+01    1.11906000E-01   3.83119000E-02 
   7.02614000E+00    9.21666000E-01   2.37403000E-01 
   2.11205000E+00   -2.56919000E-03   8.17592000E-01 
SP   1    1.000000
   6.84009000E-01    1.00000000E+00   1.00000000E+00 
SP   1    1.000000
   2.00878000E-01    1.00000000E+00   1.00000000E+00 
SP   1    1.000000
   6.39000000E-02    1.00000000E+00   1.00000000E+00 
D    1    1.000000
   9.13000000E-01    1.00000000E+00 

10    0
S    6    1.000000
   6.29348000E+03    1.96979000E-03 
   9.49044000E+02    1.49613000E-02 
   2.18776000E+02    7.35006000E-02 
   6.36916000E+01    2.48937000E-01 
   1.88282000E+01    6.02460000E-01 
   2.72023000E+00    2.56202000E-01 
SP   3    1.000000
   3.06331000E+01    1.11906000E-01   3.83119000E-02 
   7.02614000E+00    9.21666000E-01   2.37403000E-01 
   2.11205000E+00   -2.56919000E-03   8.17592000E-01 
SP   1    1.000000
   6.84009000E-01    1.00000000E+00   1.00000000E+00 
SP   1    1.000000
   2.00878000E-01    1.00000000E+00   1.00000000E+00 
SP   1    1.000000
   6.39000000E-02    1.00000000E+00   1.00000000E+00 
D    1    1.000000
   9.13000000E-01    1.00000000E+00 

11    0
S    6    1.000000
   4.56324000E+03    1.96665000E-03 
   6.82024000E+02    1.52306000E-02 
   1.54973000E+02    7.61269000E-02 
   4.44553000E+01    2.60801000E-01 
   1.30290000E+01    6.16462000E-01 
   1.82773000E+00    2.21006000E-01 
SP   3    1.000000
   2.09642000E+01    1.14660000E-01   4.02487000E-02 
   4.80331000E+00    9.19999000E-01   2.37594000E-01 
   1.45933000E+00   -3.03068000E-03   8.15854000E-01 
SP   1    1.000000
   4.83456000E-01    1.00000000E+00   1.00000000E+00 
SP   1    1.000000
   1.45585000E-01    1.00000000E+00   1.00000000E+00 
SP   1    1.000000
   4.38000000E-02    1.00000000E+00   1.00000000E+00 
D    1    1.000000
   6.26000000E-01    1.00000000E+00 

12    0
S    3    1.000000
   3.38650000E+01    2.54938000E-02 
   5.09479000E+00    1.90373000E-01 
   1.15879000E+00    8.52161000E-01 
S    1    1.000000
   3.25840000E-01    1.00000000E+00 
S    1    1.000000
   1.02741000E-01    1.00000000E+00 
S    1    1.000000
   3.60000000E-02    1.00000000E+00 
P    1    1.000000
   7.50000000E-01    1.00000000E+00 

[MO]
Sym=X
Ene= -0.487845
Spin=Alpha
Occup=1
     1    9.195998675013e-03
     2    1.582768757343e-02
     3    2.227644703329e-02
     4    1.872992980151e-02
     5    4.424888762515e-15
     6   -4.255749574148e-02
     7    2.635743434511e-02
     8    2.017538293066e-02
     9    3.222110503695e-14
    10   -2.064222223681e-01
    11    1.702855551448e-01
    12    1.027749127498e-01
    13   -1.000843206433e-13
    14   -3.147253795800e+00
    15    7.432724564773e-01
    16    3.492943632802e+00
    17   -1.531665445211e-13
    18   -4.166860603276e-03
    19   -6.446477618793e-15
    20   -1.233840014149e-15
    21    9.208876636981e-03
    22   -1.018148303785e-02
    23   -5.774713934931e-03
    24   -5.274035770822e-03
    25   -6.662688287774e-01
    26   -1.862252003212e+00
    27    8.186638572802e-03
    28    1.945692359132e-03
    29    7.508987604397e-15
    30   -8.061501547319e-03
    31   -4.968966319968e-02
    32    5.355385744987e-01
    33    5.785209595562e+00
    34    4.088474095309e-03
    35   -8.370432139858e-03
    36    5.684992257690e-16
    37   -1.500002837998e-02
    38   -6.009332996950e-02
    39    3.134415201403e-02
    40    4.640531034054e-03
    41    4.455405165000e-03
    42   -3.340572410206e-03
    43    1.820639534453e-15
    44   -1.130193490769e-03
    45   -2.813382643641e-03
    46    1.102394987214e-02
    47    1.267111853549e-02
    48   -2.349188717458e-14
    49    2.984628691817e-02
    50    2.624258270757e-02
    51    2.838188224970e-02
    52   -1.010106839226e-14
    53   -1.190506442545e-01
    54    3.363324608228e-02
    55   -1.269160871177e-01
    56   -1.481376338376e-13
    57   -1.604290482750e+00
    58   -5.720086045623e-01
    59   -2.713777971829e-01
    60   -1.865763212081e-13
    61   -5.709605788656e-03
    62    3.604511798135e-15
    63    4.862602823468e-17
    64   -3.490146460220e-04
    65    4.413056353954e-03
    66   -7.108527582150e-03
    67   -1.233187640239e-02
    68   -1.125115095063e-02
    69   -8.477031460942e-03
    70    2.854014572762e-16
    71    4.092746440953e-02
    72   -1.780205266760e-02
    73   -1.433599499220e-02
    74    1.234528675494e-14
    75    7.504829508104e-02
    76    9.424389863137e-03
    77   -2.284782178838e-02
    78   -1.578630160722e-14
    79    4.074691533927e-01
    80    1.035250524871e-02
    81   -4.655155107825e-02
    82    1.483377444128e-13
    83   -9.470218943074e-04
    84   -1.400805108573e-15
    85    8.446372702049e-17
    86    1.149609367965e-03
    87   -1.443113548668e-03
    88   -1.398856977002e-02
    89   -2.502439151326e-02
    90    4.996838544036e-02
    91    1.445342260802e-02
    92    5.728778651272e-15
    93    7.870432975858e-02
    94    9.128609433644e-02
    95    2.894602887769e-02
    96   -1.697173638743e-15
    97    3.541374607302e-01
    98    2.806044170090e-01
    99    1.555490419877e-01
   100    4.436530932036e-14
   101   -9.817054012997e-01
   102    7.333541297351e-01
   103    2.016645008706e+00
   104   -4.717715818334e-13
   105    1.108981173647e-02
   106    9.356588609000e-16
   107    6.548364867261e-15
   108   -8.271187737801e-04
   109   -1.818071191525e-02
   110    1.532443427459e-02
   111    2.637804113513e-02
   112    5.376023755684e-02
   113    1.202560833710e-02
   114   -2.590557866414e-15
   115   -8.500522896545e-02
   116    7.220212719056e-02
   117    1.230663829641e-02
   118   -3.562123268103e-16
   119   -2.444971407443e-01
   120    1.328049710687e-01
   121    7.758642774868e-02
   122   -1.615019159367e-14
   123   -4.866590556984e-01
   124   -1.163280770197e-03
   125   -2.843600074455e-02
   126    3.753536117254e-14
   127   -3.144674218123e-04
   128   -6.997702269899e-16
   129   -5.128114407123e-16
   130   -1.978601653679e-03
   131    5.170251032050e-03
   132   -5.132535369989e-03
   133   -9.119328896028e-03
   134   -9.240507734568e-03
   135    4.291034661747e-03
   136   -2.312967909838e-15
   137    3.421651103590e-02
   138   -1.822087425032e-02
   139    7.191215438318e-03
   140    7.510691862782e-15
   141    4.877884664098e-02
   142   -3.248089495060e-02
   143    1.880266351857e-02
   144   -3.207990582551e-14
   145    1.294867476776e+00
   146   -6.970262319655e-01
   147   -7.595726123450e-01
   148    2.801952216547e-13
   149    8.810768364885e-04
   150    5.584326514318e-15
   151   -6.599043914924e-16
   152    9.273033178564e-03
   153    4.275017365740e-03
   154   -1.718265082181e-02
   155   -2.976717608632e-02
   156   -2.069810200000e-03
   157   -1.758235855965e-02
   158   -3.733892959633e-15
   159    9.154409746882e-02
   160   -5.352972656756e-06
   161   -2.348289469769e-02
   162   -2.318834806476e-15
   163    2.509152845720e-01
   164   -2.783355844946e-03
   165   -8.564342196314e-02
   166   -1.475567961066e-14
   167    4.648966630836e-01
   168   -8.347573176126e-01
   169   -1.120219772331e+00
   170    2.701092012526e-13
   171    2.086815006398e-04
   172   -9.798589016945e-16
   173   -5.846782228328e-15
   174   -1.573871961131e-03
   175    1.481959833446e-03
   176   -4.530277812105e-03
   177   -7.962808306316e-03
   178    9.992608686687e-03
   179   -2.301323761989e-02
   180   -1.366191316295e-14
   181    2.554839118656e-02
   182    1.363046773927e-02
   183   -3.280964871829e-02
   184   -3.036138286603e-14
   185    5.941076290133e-02
   186    4.315762702404e-02
   187   -5.810894468473e-02
   188   -2.039070710451e-14
   189    2.788242133016e+00
   190    2.195566638968e-01
   191   -1.206672926180e+00
   192    4.358205204540e-13
   193    2.833211285679e-03
   194   -1.380578007712e-15
   195   -2.677420549195e-15
   196   -9.588816674453e-03
   197    1.475105182640e-02
   198   -1.957474448118e-02
   199   -3.492870323815e-02
   200   -3.285173603902e-01
   201   -2.378653676484e+00
   202   -1.074343211430e-02
   203   -1.772275705707e-03
   204   -1.334471134529e-15
Sym=X
Ene= 0.487845
Spin=Alpha
Occup=0
     1    1.115848619433e-15
     2    4.728274140075e-16
     3   -2.035447714853e-15
     4    9.169494483705e-15
     5    1.369948345805e-01
     6   -1.120004946631e-14
     7   -1.410657479208e-14
     8    4.533381753501e-14
     9    2.228124123115e-01
    10    4.467578216917e-13
    11    3.628278757569e-13
    12    2.954958040682e-13
    13    4.267408435782e-01
    14   -4.366895767276e-11
    15   -5.794009896353e-12
    16   -1.048924097297e-11
    17    6.827150660276e-01
    18   -1.071392147408e-14
    19   -2.655608252033e-02
    20   -8.723556126573e-03
    21    7.545434446238e-15
    22   -7.906083528842e-16
    23    3.708902177165e-15
    24    9.305606306629e-15
    25   -3.638226517179e-13
    26   -3.466707213426e-14
    27   -6.096677933919e-15
    28   -2.549941125914e-15
    29    1.277625389348e-03
    30    1.010163354026e-14
    31    3.285109943356e-14
    32    4.894633169501e-13
    33   -2.484623308657e-12
    34   -8.258204111477e-15
    35    5.349251449400e-15
    36    1.655615805022e-02
    37    1.489595610305e-14
    38   -5.036178623427e-14
    39    2.983615418754e-13
    40   -5.490599279289e-13
    41    5.049231674115e-15
    42    1.097698637534e-14
    43    4.077494670152e-03
    44    2.870493330819e-15
    45    3.096411825923e-15
    46    9.286614678001e-15
    47    5.494722591150e-15
    48   -1.277191297096e-01
    49   -3.028988074001e-14
    50    2.528837694143e-14
    51   -2.145513949841e-14
    52   -2.116187166705e-01
    53    1.773365659625e-13
    54    3.789583657823e-13
    55    5.518856394710e-14
    56   -3.698071494272e-01
    57    1.248331955330e-11
    58    3.545636180478e-12
    59   -2.758626845327e-12
    60   -1.614127195275e-01
    61    1.237176022699e-14
    62   -2.528334755036e-02
    63    1.982157821453e-02
    64    9.131714702378e-15
    65   -6.244707646869e-15
    66    9.829032770121e-16
    67    2.090489413952e-15
    68   -3.626117252457e-15
    69    8.320650892407e-15
    70    8.853217133047e-02
    71   -8.289966719553e-15
    72   -7.974535656865e-15
    73    9.655985698913e-15
    74    1.298219726883e-01
    75    2.273960647506e-14
    76    4.291301651878e-14
    77   -1.052698320658e-14
    78    1.895726672401e-01
    79    5.102741629650e-13
    80   -1.898360009573e-14
    81   -9.476241643186e-14
    82    1.695790004632e-01
    83    1.400026378153e-15
    84   -3.593930116578e-03
    85    2.758915385917e-03
    86   -1.753398515731e-15
    87    5.495167879360e-16
    88    5.114874506127e-15
    89    9.291850096541e-15
    90    1.988132353625e-15
    91    1.123427566455e-14
    92    1.052936452815e-01
    93   -4.420263424874e-14
    94    2.367646461514e-14
    95    8.060693218122e-15
    96    1.817200549492e-01
    97    3.898926379279e-13
    98   -5.736136924992e-13
    99   -2.269735160133e-13
   100    3.073874666055e-01
   101   -1.830231531942e-11
   102    9.850825097911e-13
   103    3.289731911119e-12
   104    1.186342329856e-01
   105   -1.818606554526e-14
   106   -1.037383094428e-02
   107    4.243311629166e-02
   108   -5.919192690826e-15
   109   -1.152143930258e-14
   110   -5.714083996158e-15
   111   -9.614366394321e-15
   112    1.609672882884e-15
   113   -7.199051274873e-15
   114   -3.096259314290e-02
   115    3.838113904892e-14
   116    1.970459445478e-14
   117   -2.202257917420e-14
   118   -4.031389873584e-02
   119    5.218741554859e-14
   120   -8.100400500246e-14
   121   -3.180988974637e-14
   122   -5.625155463297e-02
   123    1.585338294107e-12
   124   -3.476591480461e-14
   125   -3.594999186830e-13
   126   -4.538534420973e-02
   127    4.947609667846e-15
   128   -8.396317429925e-03
   129   -1.870749751631e-03
   130    2.507953389383e-15
   131    1.857179411819e-15
   132    1.086912896073e-15
   133   -7.776026237547e-16
   134    1.956399506538e-14
   135   -1.681867807405e-14
   136    2.262744186367e-02
   137   -8.671424682476e-16
   138    3.366366023319e-14
   139   -3.351447433940e-14
   140    3.503890751268e-02
   141   -4.693263201458e-15
   142    6.209246510390e-14
   143    1.747519694028e-13
   144    4.510913786346e-02
   145   -5.676574655864e-12
   146    7.300033556110e-13
   147    1.669849178518e-12
   148    1.364236101879e-01
   149   -3.077112640773e-15
   150    2.490152774190e-02
   151    3.459201719546e-03
   152   -3.870131249643e-15
   153   -1.962993148248e-15
   154    7.377600387770e-15
   155    1.044973395137e-14
   156    4.483389389167e-15
   157   -1.176945473945e-15
   158   -1.039587854671e-02
   159   -7.804526479815e-15
   160    2.684496119522e-14
   161   -1.145904452318e-14
   162   -1.699607146723e-02
   163   -3.798272475738e-13
   164   -1.854900405745e-13
   165    2.678477050576e-14
   166   -2.010161351202e-02
   167    3.635617677450e-12
   168    1.645783202130e-12
   169   -9.913275019269e-13
   170   -8.408129397216e-02
   171    1.528718623179e-15
   172    1.093794837773e-02
   173   -2.587241810147e-02
   174   -1.734975806131e-15
   175    2.753341844985e-15
   176   -1.242952745884e-14
   177   -2.450286045696e-14
   178    2.007451408699e-14
   179   -9.924444730580e-15
   180   -1.327858342924e-01
   181    1.221789181131e-13
   182    7.043007542842e-14
   183   -1.799475620325e-14
   184   -2.123111910859e-01
   185   -7.204455398999e-13
   186    5.716717599658e-13
   187   -8.022044715945e-14
   188   -4.662225867215e-01
   189    4.710308208084e-11
   190   -1.241679609472e-11
   191    3.243429831253e-12
   192   -8.420705006267e-01
   193    1.332169285233e-14
   194   -2.354181361476e-02
   195   -3.393573347129e-03
   196    1.588324388231e-14
   197   -8.420634138948e-15
   198    3.225844159826e-15
   199   -7.947950331744e-14
   200   -1.205208707834e-13
   201    5.087575994287e-12
   202   -1.774800168042e-15
   203   -3.278487375075e-16
   204   -1.946618793762e-02
[5D]
