[Molden Format]
[Atoms] (Angs)
  C      1    6     -0.00754183     -1.75895763      0.00000000
  H      2    1     -2.09769850     -1.41880678     -0.00000000
  H      3    1     -0.13527422     -2.83956838     -0.00000000
  H      4    1      0.04053511      2.02026369      0.00000000
  C      5    6     -1.22066484      0.39918184     -0.00000000
  O      6    8     -2.25210141      1.05663720     -0.00000000
  C      7    6      1.24009552      0.27789184      0.00000000
  O      8    8      2.33767996      1.06122493      0.00000000
  N      9    7      0.03634586      1.00852936      0.00000000
  N     10    7     -1.18738304     -0.97903470     -0.00000000
  C     11    6      1.22288875     -1.12258096      0.00000000
  H     12    1      2.15640383     -1.68445878      0.00000000
[GTO]
1    0
S    6    1.000000
   4.56324000E+03    1.96665000E-03 
   6.82024000E+02    1.52306000E-02 
   1.54973000E+02    7.61269000E-02 
   4.44553000E+01    2.60801000E-01 
   1.30290000E+01    6.16462000E-01 
   1.82773000E+00    2.21006000E-01 
SP   3    1.000000
   2.09642000E+01    1.14660000E-01   4.02487000E-02 
   4.80331000E+00    9.19999000E-01   2.37594000E-01 
   1.45933000E+00   -3.03068000E-03   8.15854000E-01 
SP   1    1.000000
   4.83456000E-01    1.00000000E+00   1.00000000E+00 
SP   1    1.000000
   1.45585000E-01    1.00000000E+00   1.00000000E+00 
SP   1    1.000000
   4.38000000E-02    1.00000000E+00   1.00000000E+00 
D    1    1.000000
   6.26000000E-01    1.00000000E+00 

2    0
S    3    1.000000
   3.38650000E+01    2.54938000E-02 
   5.09479000E+00    1.90373000E-01 
   1.15879000E+00    8.52161000E-01 
S    1    1.000000
   3.25840000E-01    1.00000000E+00 
S    1    1.000000
   1.02741000E-01    1.00000000E+00 
S    1    1.000000
   3.60000000E-02    1.00000000E+00 
P    1    1.000000
   7.50000000E-01    1.00000000E+00 

3    0
S    3    1.000000
   3.38650000E+01    2.54938000E-02 
   5.09479000E+00    1.90373000E-01 
   1.15879000E+00    8.52161000E-01 
S    1    1.000000
   3.25840000E-01    1.00000000E+00 
S    1    1.000000
   1.02741000E-01    1.00000000E+00 
S    1    1.000000
   3.60000000E-02    1.00000000E+00 
P    1    1.000000
   7.50000000E-01    1.00000000E+00 

4    0
S    3    1.000000
   3.38650000E+01    2.54938000E-02 
   5.09479000E+00    1.90373000E-01 
   1.15879000E+00    8.52161000E-01 
S    1    1.000000
   3.25840000E-01    1.00000000E+00 
S    1    1.000000
   1.02741000E-01    1.00000000E+00 
S    1    1.000000
   3.60000000E-02    1.00000000E+00 
P    1    1.000000
   7.50000000E-01    1.00000000E+00 

5    0
S    6    1.000000
   4.56324000E+03    1.96665000E-03 
   6.82024000E+02    1.52306000E-02 
   1.54973000E+02    7.61269000E-02 
   4.44553000E+01    2.60801000E-01 
   1.30290000E+01    6.16462000E-01 
   1.82773000E+00    2.21006000E-01 
SP   3    1.000000
   2.09642000E+01    1.14660000E-01   4.02487000E-02 
   4.80331000E+00    9.19999000E-01   2.37594000E-01 
   1.45933000E+00   -3.03068000E-03   8.15854000E-01 
SP   1    1.000000
   4.83456000E-01    1.00000000E+00   1.00000000E+00 
SP   1    1.000000
   1.45585000E-01    1.00000000E+00   1.00000000E+00 
SP   1    1.000000
   4.38000000E-02    1.00000000E+00   1.00000000E+00 
D    1    1.000000
   6.26000000E-01    1.00000000E+00 

6    0
S    6    1.000000
   8.58850000E+03    1.89515000E-03 
   1.29723000E+03    1.43859000E-02 
   2.99296000E+02    7.07320000E-02 
   8.73771000E+01    2.40001000E-01 
   2.56789000E+01    5.94797000E-01 
   3.74004000E+00    2.80802000E-01 
SP   3    1.000000
   4.21175000E+01    1.13889000E-01   3.65114000E-02 
   9.62837000E+00    9.20811000E-01   2.37153000E-01 
   2.85332000E+00   -3.27447000E-03   8.19702000E-01 
SP   1    1.000000
   9.05661000E-01    1.00000000E+00   1.00000000E+00 
SP   1    1.000000
   2.55611000E-01    1.00000000E+00   1.00000000E+00 
SP   1    1.000000
   8.45000000E-02    1.00000000E+00   1.00000000E+00 
D    1    1.000000
   1.29200000E+00    1.00000000E+00 

7    0
S    6    1.000000
   4.56324000E+03    1.96665000E-03 
   6.82024000E+02    1.52306000E-02 
   1.54973000E+02    7.61269000E-02 
   4.44553000E+01    2.60801000E-01 
   1.30290000E+01    6.16462000E-01 
   1.82773000E+00    2.21006000E-01 
SP   3    1.000000
   2.09642000E+01    1.14660000E-01   4.02487000E-02 
   4.80331000E+00    9.19999000E-01   2.37594000E-01 
   1.45933000E+00   -3.03068000E-03   8.15854000E-01 
SP   1    1.000000
   4.83456000E-01    1.00000000E+00   1.00000000E+00 
SP   1    1.000000
   1.45585000E-01    1.00000000E+00   1.00000000E+00 
SP   1    1.000000
   4.38000000E-02    1.00000000E+00   1.00000000E+00 
D    1    1.000000
   6.26000000E-01    1.00000000E+00 

8    0
S    6    1.000000
   8.58850000E+03    1.89515000E-03 
   1.29723000E+03    1.43859000E-02 
   2.99296000E+02    7.07320000E-02 
   8.73771000E+01    2.40001000E-01 
   2.56789000E+01    5.94797000E-01 
   3.74004000E+00    2.80802000E-01 
SP   3    1.000000
   4.21175000E+01    1.13889000E-01   3.65114000E-02 
   9.62837000E+00    9.20811000E-01   2.37153000E-01 
   2.85332000E+00   -3.27447000E-03   8.19702000E-01 
SP   1    1.000000
   9.05661000E-01    1.00000000E+00   1.00000000E+00 
SP   1    1.000000
   2.55611000E-01    1.00000000E+00   1.00000000E+00 
SP   1    1.000000
   8.45000000E-02    1.00000000E+00   1.00000000E+00 
D    1    1.000000
   1.29200000E+00    1.00000000E+00 

9    0
S    6    1.000000
   6.29348000E+03    1.96979000E-03 
   9.49044000E+02    1.49613000E-02 
   2.18776000E+02    7.35006000E-02 
   6.36916000E+01    2.48937000E-01 
   1.88282000E+01    6.02460000E-01 
   2.72023000E+00    2.56202000E-01 
SP   3    1.000000
   3.06331000E+01    1.11906000E-01   3.83119000E-02 
   7.02614000E+00    9.21666000E-01   2.37403000E-01 
   2.11205000E+00   -2.56919000E-03   8.17592000E-01 
SP   1    1.000000
   6.84009000E-01    1.00000000E+00   1.00000000E+00 
SP   1    1.000000
   2.00878000E-01    1.00000000E+00   1.00000000E+00 
SP   1    1.000000
   6.39000000E-02    1.00000000E+00   1.00000000E+00 
D    1    1.000000
   9.13000000E-01    1.00000000E+00 

10    0
S    6    1.000000
   6.29348000E+03    1.96979000E-03 
   9.49044000E+02    1.49613000E-02 
   2.18776000E+02    7.35006000E-02 
   6.36916000E+01    2.48937000E-01 
   1.88282000E+01    6.02460000E-01 
   2.72023000E+00    2.56202000E-01 
SP   3    1.000000
   3.06331000E+01    1.11906000E-01   3.83119000E-02 
   7.02614000E+00    9.21666000E-01   2.37403000E-01 
   2.11205000E+00   -2.56919000E-03   8.17592000E-01 
SP   1    1.000000
   6.84009000E-01    1.00000000E+00   1.00000000E+00 
SP   1    1.000000
   2.00878000E-01    1.00000000E+00   1.00000000E+00 
SP   1    1.000000
   6.39000000E-02    1.00000000E+00   1.00000000E+00 
D    1    1.000000
   9.13000000E-01    1.00000000E+00 

11    0
S    6    1.000000
   4.56324000E+03    1.96665000E-03 
   6.82024000E+02    1.52306000E-02 
   1.54973000E+02    7.61269000E-02 
   4.44553000E+01    2.60801000E-01 
   1.30290000E+01    6.16462000E-01 
   1.82773000E+00    2.21006000E-01 
SP   3    1.000000
   2.09642000E+01    1.14660000E-01   4.02487000E-02 
   4.80331000E+00    9.19999000E-01   2.37594000E-01 
   1.45933000E+00   -3.03068000E-03   8.15854000E-01 
SP   1    1.000000
   4.83456000E-01    1.00000000E+00   1.00000000E+00 
SP   1    1.000000
   1.45585000E-01    1.00000000E+00   1.00000000E+00 
SP   1    1.000000
   4.38000000E-02    1.00000000E+00   1.00000000E+00 
D    1    1.000000
   6.26000000E-01    1.00000000E+00 

12    0
S    3    1.000000
   3.38650000E+01    2.54938000E-02 
   5.09479000E+00    1.90373000E-01 
   1.15879000E+00    8.52161000E-01 
S    1    1.000000
   3.25840000E-01    1.00000000E+00 
S    1    1.000000
   1.02741000E-01    1.00000000E+00 
S    1    1.000000
   3.60000000E-02    1.00000000E+00 
P    1    1.000000
   7.50000000E-01    1.00000000E+00 

[MO]
Sym=X
Ene= -0.495306
Spin=Alpha
Occup=1
     1   -7.142142444260e-15
     2   -1.449304045044e-14
     3   -2.503684155223e-14
     4    3.880749011592e-14
     5   -2.905418117697e-02
     6    3.309553012845e-14
     7   -1.804484272462e-14
     8    9.977498307094e-14
     9   -4.526827532313e-02
    10    5.628326325430e-13
    11   -4.746249993494e-13
    12    5.271045036084e-13
    13   -8.939873914276e-02
    14    1.815358487753e-12
    15    4.318903972004e-12
    16   -2.666123429119e-12
    17    4.553679495860e-01
    18   -8.024277632838e-15
    19    2.687671343852e-03
    20   -4.857991375340e-03
    21   -5.252706237188e-15
    22    1.399680613353e-14
    23   -8.412673226688e-15
    24    1.013887098442e-13
    25   -2.773442650381e-12
    26    2.644276132292e-13
    27    5.764058433559e-15
    28    1.214127067165e-14
    29    4.490094729465e-03
    30    1.560050103953e-14
    31    1.345568284426e-13
    32    5.179778490816e-13
    33   -1.320633673022e-12
    34   -7.499229293201e-15
    35    4.014826282912e-15
    36   -1.631611072589e-04
    37   -2.065030927309e-14
    38   -1.614244983630e-13
    39    1.684270052308e-13
    40   -1.166840982107e-12
    41    6.328928751872e-15
    42    7.596207512468e-15
    43    1.278573371493e-03
    44    3.866420385025e-15
    45    4.608727314199e-15
    46   -1.301661961794e-14
    47    9.775285283693e-15
    48   -4.952485337575e-02
    49   -5.723543334381e-14
    50   -7.340287588969e-15
    51    4.641401085126e-15
    52   -9.104208414028e-02
    53    8.355961749232e-13
    54    1.219422249372e-13
    55    2.405062904559e-13
    56   -1.023134378332e-01
    57    3.814250939825e-12
    58    1.611234470149e-12
    59   -2.092062352293e-13
    60    1.733193543452e+00
    61   -6.417390585266e-15
    62    1.292706196532e-03
    63   -3.432557218094e-03
    64    7.598546984048e-15
    65    7.588324657450e-15
    66    8.416506301399e-16
    67   -1.117323001858e-15
    68   -3.103798172881e-15
    69    1.723484850258e-15
    70   -4.597922326396e-02
    71    2.789567089172e-15
    72    1.299364594114e-14
    73    2.557992732245e-14
    74   -7.095257367684e-02
    75   -1.805290024030e-14
    76   -1.272726313118e-13
    77   -9.924728549274e-14
    78   -2.213818030336e-02
    79   -8.057012358311e-13
    80    2.188900629670e-13
    81    1.293383533264e-12
    82   -1.050135983746e-01
    83   -1.370076748720e-15
    84   -7.498445849433e-03
    85    4.212541981160e-03
    86   -5.404120681121e-15
    87   -4.698924763932e-15
    88    1.787341244588e-14
    89    2.944306683622e-14
    90    1.185191081095e-14
    91   -2.113218240839e-14
    92   -3.687552641796e-03
    93   -6.977411097522e-14
    94    7.507044787692e-14
    95   -3.530044979967e-14
    96   -1.096680130516e-02
    97   -6.139552683828e-13
    98   -4.037452447082e-13
    99   -1.014362473030e-12
   100    1.297985203802e-02
   101   -2.298917554786e-11
   102   -2.635369839990e-14
   103    6.389101467365e-12
   104    3.136844712089e-01
   105   -1.033654645679e-14
   106    2.065500348854e-03
   107   -2.752388960985e-03
   108   -6.313244363371e-15
   109   -5.389688282183e-15
   110   -1.485953885621e-15
   111   -2.790086870609e-15
   112   -2.980938432916e-15
   113   -1.743796931463e-14
   114   -1.059961728605e-02
   115    1.072282064193e-15
   116   -2.904889163965e-15
   117   -3.304864931744e-14
   118   -1.537880170703e-02
   119    1.807105341844e-13
   120   -1.238501296630e-13
   121   -2.499214980707e-14
   122   -2.225408588156e-02
   123    1.248333866700e-12
   124   -5.072642294940e-13
   125   -8.334458905596e-13
   126    6.956477422030e-04
   127    4.969402557003e-15
   128    6.829177514138e-04
   129    4.666516363978e-04
   130   -2.107898830924e-15
   131   -3.673835907642e-15
   132   -9.944137156709e-15
   133   -1.741593303252e-14
   134    5.539246640776e-15
   135   -1.234850359445e-14
   136   -2.424991326419e-02
   137    3.189810624736e-14
   138    5.308427246478e-15
   139   -2.451831999864e-14
   140   -5.489960370649e-02
   141    3.029096545514e-13
   142    2.930987304266e-13
   143    1.474214041576e-13
   144    1.335520936217e-02
   145   -1.825162924917e-12
   146    1.724555377682e-12
   147   -4.136085289202e-13
   148   -6.286360196971e-01
   149    5.859762479837e-15
   150    2.087310790657e-03
   151    2.966470264485e-03
   152   -1.885502396485e-15
   153    2.045925105183e-15
   154    7.407887393194e-15
   155    1.564711605138e-14
   156   -2.976066864403e-14
   157    1.450345929290e-14
   158   -2.311475898934e-02
   159   -2.643993101013e-14
   160   -3.593522827415e-14
   161    2.242130577447e-14
   162   -5.204914846762e-02
   163   -3.689328661421e-13
   164   -2.836834065304e-13
   165    1.253491134954e-13
   166    1.142080858149e-02
   167    3.980108715658e-12
   168   -3.727751614797e-12
   169   -1.573964728336e-13
   170   -5.159482481363e-01
   171    1.319065516064e-15
   172   -5.066162032843e-03
   173   -2.380453942349e-03
   174    4.464293807086e-15
   175   -1.046431913919e-14
   176   -4.945271474630e-15
   177   -5.714816944141e-15
   178   -2.452243479602e-14
   179    1.678083413428e-14
   180   -8.314296357554e-03
   181    6.746654545658e-14
   182   -6.724883657459e-15
   183    3.585698177964e-14
   184   -1.229512733834e-02
   185   -8.414758369269e-13
   186   -1.468701174536e-13
   187   -5.094590651925e-13
   188   -1.113898404530e-02
   189    1.267529342088e-11
   190   -2.730243400712e-12
   191    1.014956389371e-11
   192   -4.045541375009e-01
   193   -7.625113318278e-15
   194    2.454356342358e-03
   195    1.594439643008e-03
   196    2.124380301318e-14
   197   -1.836588344781e-14
   198    3.828498505802e-14
   199   -1.418596722225e-14
   200    1.382258370288e-12
   201    4.938413272726e-12
   202    7.661498847886e-15
   203   -1.352543126094e-15
   204    2.023479940535e-04
Sym=X
Ene= 0.495306
Spin=Alpha
Occup=0
     1    3.164411131836e-15
     2    4.777487970039e-15
     3   -1.718329948720e-14
     4    3.806766537062e-14
     5    2.852432927385e-02
     6   -2.962997942355e-14
     7    2.403636788276e-14
     8    8.497439513399e-14
     9    6.036992104064e-02
    10    2.623420466741e-13
    11   -2.659538551468e-13
    12    2.027360911729e-13
    13    2.191508422942e-02
    14   -6.641195034327e-12
    15   -2.791261213267e-12
    16   -3.349112845259e-12
    17    4.501173429831e-01
    18   -5.366302978132e-15
    19   -2.379112906179e-03
    20   -5.617587400387e-03
    21    3.380051182498e-15
    22    1.553514054627e-14
    23   -2.443124921270e-14
    24    1.321671691038e-13
    25   -1.846717444905e-12
    26   -9.682755654200e-13
    27    1.865785346876e-14
    28    6.508197789968e-15
    29    4.736112395411e-03
    30    2.906271779161e-15
    31    5.264539331431e-14
    32   -2.451636536466e-14
    33   -2.702372128230e-12
    34    9.687127010893e-16
    35   -9.573225855875e-15
    36    8.030701360685e-03
    37    3.322070151820e-15
    38    6.768054443412e-14
    39   -6.126497942106e-13
    40   -1.990981459171e-13
    41    2.828517104211e-15
    42    6.247553606391e-15
    43   -9.507900809826e-03
    44   -4.248123954808e-15
    45   -3.968842290778e-15
    46   -1.056613486680e-14
    47   -7.235801068242e-15
    48    1.888983831766e-02
    49    1.169860935132e-14
    50    1.288261284348e-14
    51   -4.462908303662e-14
    52    4.586419303763e-02
    53    3.354978910167e-13
    54   -2.953402032769e-13
    55    1.912660157104e-13
    56    6.230779775065e-03
    57    1.058248153952e-12
    58   -3.165898733766e-13
    59   -2.609228345269e-13
    60    4.045524195066e-01
    61   -2.041369180048e-15
    62   -3.841355549947e-03
    63    2.172513498455e-03
    64    1.183632069313e-14
    65    8.425276990976e-15
    66    7.729982008675e-16
    67    1.211420536488e-15
    68   -9.003330490394e-18
    69   -6.754652539859e-16
    70   -2.981476190429e-02
    71   -1.156499742258e-14
    72    2.319240875011e-14
    73    1.244640231536e-14
    74   -4.031638923184e-02
    75    9.128126109110e-15
    76   -9.472076846568e-14
    77   -5.467812188341e-14
    78   -4.847970841168e-02
    79   -1.413573855084e-12
    80    1.060335194125e-13
    81    1.095283907761e-12
    82    5.731323393095e-02
    83   -3.627620323810e-15
    84   -1.435016614508e-03
    85   -2.103336819659e-03
    86   -3.041524961659e-15
    87   -4.740782459260e-15
    88    1.369633715099e-14
    89    1.849557977982e-14
    90   -1.011618171154e-14
    91    4.597621698338e-15
    92    8.977790964500e-02
    93   -5.325125684612e-14
    94    3.675680931758e-14
    95    2.033231843869e-14
    96    1.123332743317e-01
    97   -5.786580666021e-13
    98   -1.923375499922e-13
    99   -3.583966978698e-13
   100    3.932018824625e-01
   101   -5.133767705557e-12
   102    2.427426306514e-12
   103   -1.470664570416e-13
   104   -1.250659634567e+00
   105   -1.479602150978e-14
   106   -7.170437744654e-03
   107    2.020118051357e-03
   108   -1.439594879580e-15
   109    3.421277643542e-15
   110    1.154103229902e-15
   111    1.332672136839e-15
   112   -7.717234974845e-15
   113   -1.437625014891e-14
   114    2.713043291230e-03
   115   -8.742422062957e-15
   116   -7.413092049504e-15
   117   -3.404063773917e-14
   118    1.885912297664e-02
   119    1.033043142798e-13
   120   -2.667748337667e-14
   121   -4.191334974254e-14
   122   -7.362751295380e-02
   123   -2.293755012634e-13
   124   -3.619878652988e-13
   125   -1.098297216447e-13
   126    3.421902009714e-01
   127    3.682113591896e-15
   128   -4.358126101270e-03
   129   -2.868773272829e-03
   130   -2.258358068869e-15
   131   -5.214014924535e-15
   132   -4.882666634738e-15
   133   -5.967310519565e-15
   134   -1.074176036827e-14
   135   -2.507194674609e-14
   136    4.064287684402e-03
   137    1.198916455605e-14
   138    1.440506329702e-15
   139   -3.875720740386e-14
   140    6.007569969980e-03
   141    2.255247772075e-13
   142   -2.291605979560e-14
   143   -1.445306356694e-13
   144    3.361052291046e-03
   145    1.745679020947e-12
   146    1.641142751730e-12
   147    1.250278885027e-12
   148   -2.566518622151e-01
   149   -4.331009613985e-15
   150    3.869073277988e-03
   151   -9.104230005684e-03
   152   -2.989183180985e-15
   153    4.880165046509e-15
   154    5.365740632892e-15
   155    1.172971848357e-14
   156   -2.615171401344e-14
   157   -1.089151641165e-14
   158   -5.272346718825e-02
   159   -3.167616968831e-14
   160   -2.647184388395e-14
   161   -1.539124953910e-14
   162   -7.356684929588e-02
   163   -1.735082115270e-13
   164   -9.295317100164e-14
   165    2.883549225843e-14
   166   -1.781019977547e-01
   167    3.089320883162e-12
   168   -1.616740835454e-12
   169    1.713898173013e-12
   170    4.367848823161e-01
   171    4.252098729602e-15
   172   -1.921871050319e-03
   173   -3.725762265323e-03
   174   -9.304644032502e-16
   175   -1.205701114761e-14
   176    2.415389525269e-15
   177   -2.698566630401e-15
   178   -2.650277386634e-14
   179    1.748968637869e-14
   180    1.685456748695e-03
   181    2.496466444693e-14
   182    1.801436407009e-17
   183   -1.391379630744e-15
   184   -2.056979912568e-02
   185   -3.092148887421e-13
   186   -1.163971973220e-13
   187    9.157096129130e-14
   188    4.705724796631e-02
   189    1.294774188314e-11
   190   -4.006110654787e-12
   191    3.428565545814e-13
   192   -5.273515762098e-01
   193    1.498197521436e-14
   194   -1.131479601542e-02
   195    8.412573402946e-03
   196    1.119297884335e-14
   197   -1.024856402387e-14
   198    1.467056914480e-15
   199    3.156514669432e-14
   200    1.242481787015e-13
   201    6.227107316388e-13
   202    1.572361245324e-15
   203    6.014224484946e-15
   204   -8.981139294510e-03
[5D]
