[Molden Format]
[Atoms] (Angs)
  C      1    6     -0.00754183     -1.75895763      0.00000000
  H      2    1     -2.09769850     -1.41880678     -0.00000000
  H      3    1     -0.13527422     -2.83956838     -0.00000000
  H      4    1      0.04053511      2.02026369      0.00000000
  C      5    6     -1.22066484      0.39918184     -0.00000000
  O      6    8     -2.25210141      1.05663720     -0.00000000
  C      7    6      1.24009552      0.27789184      0.00000000
  O      8    8      2.33767996      1.06122493      0.00000000
  N      9    7      0.03634586      1.00852936      0.00000000
  N     10    7     -1.18738304     -0.97903470     -0.00000000
  C     11    6      1.22288875     -1.12258096      0.00000000
  H     12    1      2.15640383     -1.68445878      0.00000000
[GTO]
1    0
S    6    1.000000
   4.56324000E+03    1.96665000E-03 
   6.82024000E+02    1.52306000E-02 
   1.54973000E+02    7.61269000E-02 
   4.44553000E+01    2.60801000E-01 
   1.30290000E+01    6.16462000E-01 
   1.82773000E+00    2.21006000E-01 
SP   3    1.000000
   2.09642000E+01    1.14660000E-01   4.02487000E-02 
   4.80331000E+00    9.19999000E-01   2.37594000E-01 
   1.45933000E+00   -3.03068000E-03   8.15854000E-01 
SP   1    1.000000
   4.83456000E-01    1.00000000E+00   1.00000000E+00 
SP   1    1.000000
   1.45585000E-01    1.00000000E+00   1.00000000E+00 
SP   1    1.000000
   4.38000000E-02    1.00000000E+00   1.00000000E+00 
D    1    1.000000
   6.26000000E-01    1.00000000E+00 

2    0
S    3    1.000000
   3.38650000E+01    2.54938000E-02 
   5.09479000E+00    1.90373000E-01 
   1.15879000E+00    8.52161000E-01 
S    1    1.000000
   3.25840000E-01    1.00000000E+00 
S    1    1.000000
   1.02741000E-01    1.00000000E+00 
S    1    1.000000
   3.60000000E-02    1.00000000E+00 
P    1    1.000000
   7.50000000E-01    1.00000000E+00 

3    0
S    3    1.000000
   3.38650000E+01    2.54938000E-02 
   5.09479000E+00    1.90373000E-01 
   1.15879000E+00    8.52161000E-01 
S    1    1.000000
   3.25840000E-01    1.00000000E+00 
S    1    1.000000
   1.02741000E-01    1.00000000E+00 
S    1    1.000000
   3.60000000E-02    1.00000000E+00 
P    1    1.000000
   7.50000000E-01    1.00000000E+00 

4    0
S    3    1.000000
   3.38650000E+01    2.54938000E-02 
   5.09479000E+00    1.90373000E-01 
   1.15879000E+00    8.52161000E-01 
S    1    1.000000
   3.25840000E-01    1.00000000E+00 
S    1    1.000000
   1.02741000E-01    1.00000000E+00 
S    1    1.000000
   3.60000000E-02    1.00000000E+00 
P    1    1.000000
   7.50000000E-01    1.00000000E+00 

5    0
S    6    1.000000
   4.56324000E+03    1.96665000E-03 
   6.82024000E+02    1.52306000E-02 
   1.54973000E+02    7.61269000E-02 
   4.44553000E+01    2.60801000E-01 
   1.30290000E+01    6.16462000E-01 
   1.82773000E+00    2.21006000E-01 
SP   3    1.000000
   2.09642000E+01    1.14660000E-01   4.02487000E-02 
   4.80331000E+00    9.19999000E-01   2.37594000E-01 
   1.45933000E+00   -3.03068000E-03   8.15854000E-01 
SP   1    1.000000
   4.83456000E-01    1.00000000E+00   1.00000000E+00 
SP   1    1.000000
   1.45585000E-01    1.00000000E+00   1.00000000E+00 
SP   1    1.000000
   4.38000000E-02    1.00000000E+00   1.00000000E+00 
D    1    1.000000
   6.26000000E-01    1.00000000E+00 

6    0
S    6    1.000000
   8.58850000E+03    1.89515000E-03 
   1.29723000E+03    1.43859000E-02 
   2.99296000E+02    7.07320000E-02 
   8.73771000E+01    2.40001000E-01 
   2.56789000E+01    5.94797000E-01 
   3.74004000E+00    2.80802000E-01 
SP   3    1.000000
   4.21175000E+01    1.13889000E-01   3.65114000E-02 
   9.62837000E+00    9.20811000E-01   2.37153000E-01 
   2.85332000E+00   -3.27447000E-03   8.19702000E-01 
SP   1    1.000000
   9.05661000E-01    1.00000000E+00   1.00000000E+00 
SP   1    1.000000
   2.55611000E-01    1.00000000E+00   1.00000000E+00 
SP   1    1.000000
   8.45000000E-02    1.00000000E+00   1.00000000E+00 
D    1    1.000000
   1.29200000E+00    1.00000000E+00 

7    0
S    6    1.000000
   4.56324000E+03    1.96665000E-03 
   6.82024000E+02    1.52306000E-02 
   1.54973000E+02    7.61269000E-02 
   4.44553000E+01    2.60801000E-01 
   1.30290000E+01    6.16462000E-01 
   1.82773000E+00    2.21006000E-01 
SP   3    1.000000
   2.09642000E+01    1.14660000E-01   4.02487000E-02 
   4.80331000E+00    9.19999000E-01   2.37594000E-01 
   1.45933000E+00   -3.03068000E-03   8.15854000E-01 
SP   1    1.000000
   4.83456000E-01    1.00000000E+00   1.00000000E+00 
SP   1    1.000000
   1.45585000E-01    1.00000000E+00   1.00000000E+00 
SP   1    1.000000
   4.38000000E-02    1.00000000E+00   1.00000000E+00 
D    1    1.000000
   6.26000000E-01    1.00000000E+00 

8    0
S    6    1.000000
   8.58850000E+03    1.89515000E-03 
   1.29723000E+03    1.43859000E-02 
   2.99296000E+02    7.07320000E-02 
   8.73771000E+01    2.40001000E-01 
   2.56789000E+01    5.94797000E-01 
   3.74004000E+00    2.80802000E-01 
SP   3    1.000000
   4.21175000E+01    1.13889000E-01   3.65114000E-02 
   9.62837000E+00    9.20811000E-01   2.37153000E-01 
   2.85332000E+00   -3.27447000E-03   8.19702000E-01 
SP   1    1.000000
   9.05661000E-01    1.00000000E+00   1.00000000E+00 
SP   1    1.000000
   2.55611000E-01    1.00000000E+00   1.00000000E+00 
SP   1    1.000000
   8.45000000E-02    1.00000000E+00   1.00000000E+00 
D    1    1.000000
   1.29200000E+00    1.00000000E+00 

9    0
S    6    1.000000
   6.29348000E+03    1.96979000E-03 
   9.49044000E+02    1.49613000E-02 
   2.18776000E+02    7.35006000E-02 
   6.36916000E+01    2.48937000E-01 
   1.88282000E+01    6.02460000E-01 
   2.72023000E+00    2.56202000E-01 
SP   3    1.000000
   3.06331000E+01    1.11906000E-01   3.83119000E-02 
   7.02614000E+00    9.21666000E-01   2.37403000E-01 
   2.11205000E+00   -2.56919000E-03   8.17592000E-01 
SP   1    1.000000
   6.84009000E-01    1.00000000E+00   1.00000000E+00 
SP   1    1.000000
   2.00878000E-01    1.00000000E+00   1.00000000E+00 
SP   1    1.000000
   6.39000000E-02    1.00000000E+00   1.00000000E+00 
D    1    1.000000
   9.13000000E-01    1.00000000E+00 

10    0
S    6    1.000000
   6.29348000E+03    1.96979000E-03 
   9.49044000E+02    1.49613000E-02 
   2.18776000E+02    7.35006000E-02 
   6.36916000E+01    2.48937000E-01 
   1.88282000E+01    6.02460000E-01 
   2.72023000E+00    2.56202000E-01 
SP   3    1.000000
   3.06331000E+01    1.11906000E-01   3.83119000E-02 
   7.02614000E+00    9.21666000E-01   2.37403000E-01 
   2.11205000E+00   -2.56919000E-03   8.17592000E-01 
SP   1    1.000000
   6.84009000E-01    1.00000000E+00   1.00000000E+00 
SP   1    1.000000
   2.00878000E-01    1.00000000E+00   1.00000000E+00 
SP   1    1.000000
   6.39000000E-02    1.00000000E+00   1.00000000E+00 
D    1    1.000000
   9.13000000E-01    1.00000000E+00 

11    0
S    6    1.000000
   4.56324000E+03    1.96665000E-03 
   6.82024000E+02    1.52306000E-02 
   1.54973000E+02    7.61269000E-02 
   4.44553000E+01    2.60801000E-01 
   1.30290000E+01    6.16462000E-01 
   1.82773000E+00    2.21006000E-01 
SP   3    1.000000
   2.09642000E+01    1.14660000E-01   4.02487000E-02 
   4.80331000E+00    9.19999000E-01   2.37594000E-01 
   1.45933000E+00   -3.03068000E-03   8.15854000E-01 
SP   1    1.000000
   4.83456000E-01    1.00000000E+00   1.00000000E+00 
SP   1    1.000000
   1.45585000E-01    1.00000000E+00   1.00000000E+00 
SP   1    1.000000
   4.38000000E-02    1.00000000E+00   1.00000000E+00 
D    1    1.000000
   6.26000000E-01    1.00000000E+00 

12    0
S    3    1.000000
   3.38650000E+01    2.54938000E-02 
   5.09479000E+00    1.90373000E-01 
   1.15879000E+00    8.52161000E-01 
S    1    1.000000
   3.25840000E-01    1.00000000E+00 
S    1    1.000000
   1.02741000E-01    1.00000000E+00 
S    1    1.000000
   3.60000000E-02    1.00000000E+00 
P    1    1.000000
   7.50000000E-01    1.00000000E+00 

[MO]
Sym=X
Ene= -0.493930
Spin=Alpha
Occup=1
     1    9.854516990542e-03
     2    1.715120751658e-02
     3   -1.486781897835e-02
     4    6.609743162478e-03
     5   -3.239349864626e-14
     6   -5.206581881902e-02
     7   -1.857386754542e-02
     8    7.159875934998e-03
     9   -5.650277767605e-14
    10   -1.711180373184e-01
    11   -8.792900772247e-02
    12    6.970134469720e-02
    13   -1.286377931893e-13
    14    3.841138818697e+00
    15    1.014776109907e-01
    16    2.043630681985e+00
    17    1.461883936223e-12
    18   -3.038468900222e-03
    19    1.641590587456e-14
    20    3.911847571245e-15
    21   -2.894447723713e-03
    22    3.610749477604e-03
    23    4.334816038837e-03
    24    1.121295796880e-02
    25    3.281968980393e-01
    26    2.981943878266e-01
    27   -4.881251561320e-03
    28   -6.016010340983e-03
    29   -1.208522729765e-14
    30    3.169616868793e-03
    31    1.049657796309e-02
    32    2.137744065739e-01
    33    1.611888159267e+00
    34   -4.159494477054e-03
    35   -3.591953435598e-03
    36   -3.065809150843e-15
    37    1.993076759689e-02
    38    6.184804625544e-02
    39    6.689301086883e-01
    40    1.499664548684e+00
    41    1.693358931253e-03
    42    1.400427750682e-02
    43   -7.648110923720e-15
    44   -7.109484174598e-04
    45   -1.019300245704e-03
    46   -3.087179821769e-04
    47   -7.744283332650e-03
    48    7.327375947377e-14
    49   -6.292599591266e-03
    50   -3.619142377049e-03
    51   -8.014387408318e-03
    52    5.918977123876e-14
    53    3.773282961028e-02
    54    2.388471911040e-02
    55   -4.763092893489e-02
    56    5.259317722754e-13
    57   -1.470899518260e+00
    58   -4.662330841139e-01
    59   -1.443148668507e-01
    60   -3.667103198563e-14
    61    2.970763344514e-03
    62   -3.272815815209e-16
    63    4.089695622764e-15
    64    9.194071616754e-03
    65   -1.277148491939e-02
    66    3.735661887141e-03
    67    6.447522703961e-03
    68    7.424182266826e-03
    69   -9.000290527551e-03
    70   -1.967436371308e-14
    71   -1.950149352545e-02
    72    8.355514382761e-03
    73   -1.177126360222e-02
    74   -3.395313228228e-14
    75   -5.618544035345e-02
    76    6.995040146344e-03
    77   -9.846622940415e-03
    78   -3.607286421099e-14
    79    2.828172786174e-01
    80    1.474889322684e-01
    81   -8.106216903404e-02
    82   -4.430430096893e-13
    83    8.943896795133e-04
    84    6.699660487441e-15
    85   -2.707735336752e-15
    86   -1.358777922889e-03
    87    1.209404598772e-03
    88    9.534281423524e-03
    89    1.677641561178e-02
    90   -4.004586183630e-02
    91   -1.196380186646e-02
    92   -2.717277831827e-14
    93   -4.295166812266e-02
    94   -6.901335207609e-02
    95   -2.682050153934e-02
    96   -3.013448584252e-14
    97   -2.680469692578e-01
    98   -2.025305894966e-01
    99   -1.349218172156e-01
   100   -1.026635309380e-13
   101    4.105059209313e+00
   102   -1.619073507100e+00
   103   -4.271020707171e-01
   104    1.203776800484e-12
   105   -9.205693185881e-03
   106    4.826551245999e-15
   107   -1.354398901205e-14
   108    1.540132016679e-02
   109    1.614561608539e-02
   110   -1.424413082361e-02
   111   -2.457823489950e-02
   112   -2.743513456103e-03
   113   -7.620607261624e-02
   114    1.739605352480e-15
   115    8.183204874557e-02
   116   -2.028903535937e-03
   117   -1.027945273173e-01
   118    1.168486592527e-14
   119    1.912973231607e-01
   120   -6.041651783791e-02
   121   -1.225660464260e-01
   122    1.755670905692e-15
   123    4.730183079836e-01
   124   -4.822341572626e-02
   125   -2.680842526936e-02
   126   -2.127639309461e-14
   127    6.509125381748e-05
   128    1.534015798251e-15
   129    1.638351327456e-15
   130   -3.353258221341e-03
   131   -7.421027022504e-04
   132    1.410319061844e-02
   133    2.441497442701e-02
   134    9.598540466613e-03
   135   -3.938158373943e-02
   136   -3.277082644609e-14
   137   -7.677959608509e-02
   138    1.364350025306e-02
   139   -6.164083695321e-02
   140   -4.890362447815e-14
   141   -2.209160361100e-01
   142    4.337952200330e-02
   143   -9.975329353379e-02
   144   -1.522101154372e-13
   145   -1.076347190406e+00
   146   -1.902472854769e-02
   147   -6.940615484418e-01
   148   -6.276279639731e-14
   149   -2.088527667792e-03
   150   -1.201505438373e-14
   151   -2.318572068764e-15
   152   -1.076452224987e-02
   153   -1.726350843905e-03
   154    1.008298166835e-02
   155    1.744745581558e-02
   156    1.631029687287e-02
   157   -2.457814503611e-03
   158   -1.355412473755e-14
   159   -5.476609566441e-02
   160    2.399230575771e-02
   161   -4.948739644342e-03
   162   -1.142174414416e-14
   163   -1.580473623388e-01
   164    2.720501624290e-02
   165   -8.611308974409e-03
   166   -6.412297259364e-14
   167   -1.187033586622e+00
   168    3.641961517930e-01
   169   -8.126070113822e-02
   170   -4.821463578889e-13
   171   -2.739438285546e-04
   172    4.237856182194e-15
   173    9.182468536246e-15
   174   -3.689998738663e-04
   175    3.634601201353e-03
   176   -9.864747372040e-03
   177   -1.731961344004e-02
   178    1.824204142898e-02
   179   -1.139464580484e-02
   180    5.329884913828e-14
   181    4.962524362376e-02
   182    2.352441319185e-02
   183   -5.769451413005e-03
   184    7.042593224420e-14
   185    2.072849999225e-01
   186    9.896020828344e-02
   187   -1.155818645914e-01
   188    3.076580669410e-13
   189   -4.928732337848e+00
   190    3.482422971853e+00
   191   -2.224646847868e+00
   192   -2.135720874598e-12
   193   -2.753987089929e-03
   194   -5.006663714276e-16
   195   -1.806030095340e-15
   196   -2.136713148566e-03
   197   -1.397721122404e-02
   198    2.121122201112e-02
   199    6.651012742464e-02
   200   -3.672535547840e-01
   201   -3.676472757918e+00
   202   -7.155528831772e-03
   203    1.021589092698e-03
   204   -6.849790290479e-17
Sym=X
Ene= 0.493930
Spin=Alpha
Occup=0
     1   -2.286695054425e-16
     2    2.671587578292e-15
     3   -5.836003901542e-15
     4   -2.549274038145e-14
     5    1.235032153910e-01
     6   -1.108002602245e-14
     7    4.805907904131e-14
     8   -4.706261236017e-14
     9    2.023181259486e-01
    10   -3.132819223619e-13
    11   -5.479452556632e-13
    12   -2.779059936104e-13
    13    2.788130723339e-01
    14    2.454324320940e-11
    15    4.480346317789e-12
    16    4.716770483797e-12
    17    1.181352245988e-01
    18   -4.910473418905e-15
    19    1.082847469207e-02
    20   -3.244421682812e-03
    21    7.831435035038e-15
    22    3.068945120004e-15
    23    7.746865354727e-15
    24   -9.973895784592e-14
    25    5.812986497788e-13
    26   -1.309021078483e-12
    27   -9.230542075019e-15
    28   -4.363705857303e-15
    29   -8.395744863601e-03
    30   -1.381147959840e-14
    31    3.793430241356e-14
    32   -7.302526736654e-13
    33    1.228462825370e-12
    34   -3.909763476893e-15
    35    7.779703086185e-15
    36    1.192410425270e-02
    37   -3.022962130736e-14
    38    6.088581351632e-14
    39   -1.774264158459e-12
    40    1.362628462825e-12
    41   -2.955198173034e-15
    42   -1.651887658415e-14
    43    1.221026240829e-02
    44   -1.839153977827e-15
    45   -3.096818584431e-15
    46   -1.644224871195e-14
    47   -1.220052477578e-14
    48    1.110451483512e-02
    49   -1.090315464311e-14
    50   -8.500341711353e-15
    51    2.074032396671e-14
    52    1.948458368638e-02
    53    5.607021372521e-13
    54   -5.794404940479e-13
    55   -3.325206814528e-13
    56    1.297751672563e-02
    57   -2.853995216712e-12
    58   -2.265603596283e-12
    59   -1.580978065651e-12
    60   -1.132202327746e-02
    61   -7.526818451785e-15
    62    1.746139624659e-02
    63    1.961771010626e-02
    64   -1.314089621242e-14
    65   -3.044936552525e-15
    66   -1.062449182810e-15
    67   -1.998857229367e-15
    68   -1.668142249155e-15
    69   -1.157932486721e-14
    70   -1.206415713949e-02
    71    1.162412561239e-14
    72    6.090452592237e-15
    73   -1.441969832673e-14
    74   -1.806677284010e-02
    75   -6.468475454444e-14
    76   -1.064200254607e-13
    77   -9.686016295572e-15
    78   -2.176274385603e-02
    79   -7.348940409193e-13
    80   -6.105999407121e-14
    81    6.119994950464e-13
    82   -7.906223775706e-03
    83   -9.926148067662e-16
    84    6.999637681047e-04
    85    1.039593688143e-03
    86   -8.064820806151e-16
    87   -2.029105153778e-15
    88   -9.226600366939e-15
    89   -1.595056269756e-14
    90   -1.189336873569e-14
    91   -3.271889349758e-14
    92   -2.313049322308e-01
    93    6.869773613345e-14
    94   -3.836960920669e-14
    95   -4.550383952915e-14
    96   -3.911372700049e-01
    97   -1.341970090611e-13
    98    3.328644167381e-13
    99   -6.344692544101e-13
   100   -5.140759181465e-01
   101   -5.642269445968e-12
   102    1.706810593924e-12
   103    4.772604984666e-14
   104   -1.475559624463e-01
   105    1.928823686083e-14
   106   -9.212842720881e-03
   107    9.668762348897e-03
   108   -7.134790676988e-15
   109    1.621524314871e-14
   110    1.983550396244e-16
   111    2.412172728620e-15
   112    5.898302306374e-15
   113    2.191758965613e-15
   114    1.447992274987e-01
   115   -1.041909071160e-14
   116    5.708566942424e-16
   117    1.175719339000e-14
   118    1.927552441711e-01
   119    2.295055874079e-14
   120    3.363825519872e-15
   121    4.085239823535e-14
   122    2.052733142439e-01
   123   -4.311228593995e-13
   124   -6.289103039373e-14
   125   -1.846774599982e-13
   126    6.028042340017e-02
   127    2.244583122682e-17
   128    7.504619633971e-03
   129    6.916965104729e-03
   130    2.057422552431e-16
   131   -3.498300427681e-15
   132    7.369264593460e-15
   133    1.852372374542e-14
   134   -2.683327538225e-14
   135    2.564355524706e-14
   136    9.375332127089e-02
   137   -5.188887010523e-14
   138   -2.727110920881e-14
   139    3.134581356960e-14
   140    1.419152954908e-01
   141   -2.315256096319e-13
   142   -9.748213873368e-14
   143   -1.619687916314e-14
   144    2.367274269193e-01
   145    1.093299437707e-11
   146    1.378584646823e-13
   147   -9.402843566303e-13
   148    1.658624155866e-01
   149    1.385659792725e-14
   150   -1.869898605163e-02
   151    9.434064240542e-03
   152    6.841734534315e-15
   153   -3.757702959437e-15
   154   -1.002071244931e-14
   155   -1.707717429598e-14
   156    9.449717293733e-15
   157    1.697715253281e-15
   158   -6.767466375574e-02
   159    1.634472312115e-14
   160   -1.856103110936e-14
   161    1.045497655934e-14
   162   -1.027291319165e-01
   163    5.873252648605e-13
   164    2.087997512611e-13
   165   -1.095426469766e-13
   166   -1.622365919555e-01
   167   -7.727881345095e-12
   168   -1.967638163149e-12
   169   -9.055099700805e-13
   170   -1.196724176598e-01
   171   -1.500569871487e-14
   172    9.473188644700e-03
   173   -6.585118248732e-03
   174   -1.286224900499e-14
   175    5.667893171088e-15
   176    9.549097190784e-15
   177    1.773801357268e-14
   178   -4.081906921495e-14
   179   -1.480075868819e-14
   180    5.076857019409e-03
   181   -3.596172392851e-14
   182   -5.342123802921e-14
   183   -1.304265907233e-14
   184    8.919662850272e-03
   185   -3.500840627938e-13
   186   -8.965494958058e-13
   187   -5.889783006605e-13
   188    6.472542633554e-02
   189   -1.872531684716e-11
   190    3.954488750777e-12
   191    3.320537667303e-12
   192    3.253408518060e-02
   193   -5.972247133612e-15
   194   -1.771667569975e-02
   195   -3.812489954241e-02
   196   -1.519516729105e-14
   197   -1.199028379957e-14
   198    1.446150683949e-14
   199    7.423092341182e-14
   200    1.395856657710e-12
   201   -1.493100011106e-13
   202   -1.046340763963e-15
   203   -1.973510372137e-15
   204    1.626147345444e-03
[5D]
