[Molden Format]
[Atoms] (Angs)
  C      1    6     -0.00754183     -1.75895763      0.00000000
  H      2    1     -2.09769850     -1.41880678     -0.00000000
  H      3    1     -0.13527422     -2.83956838     -0.00000000
  H      4    1      0.04053511      2.02026369      0.00000000
  C      5    6     -1.22066484      0.39918184     -0.00000000
  O      6    8     -2.25210141      1.05663720     -0.00000000
  C      7    6      1.24009552      0.27789184      0.00000000
  O      8    8      2.33767996      1.06122493      0.00000000
  N      9    7      0.03634586      1.00852936      0.00000000
  N     10    7     -1.18738304     -0.97903470     -0.00000000
  C     11    6      1.22288875     -1.12258096      0.00000000
  H     12    1      2.15640383     -1.68445878      0.00000000
[GTO]
1    0
S    6    1.000000
   4.56324000E+03    1.96665000E-03 
   6.82024000E+02    1.52306000E-02 
   1.54973000E+02    7.61269000E-02 
   4.44553000E+01    2.60801000E-01 
   1.30290000E+01    6.16462000E-01 
   1.82773000E+00    2.21006000E-01 
SP   3    1.000000
   2.09642000E+01    1.14660000E-01   4.02487000E-02 
   4.80331000E+00    9.19999000E-01   2.37594000E-01 
   1.45933000E+00   -3.03068000E-03   8.15854000E-01 
SP   1    1.000000
   4.83456000E-01    1.00000000E+00   1.00000000E+00 
SP   1    1.000000
   1.45585000E-01    1.00000000E+00   1.00000000E+00 
SP   1    1.000000
   4.38000000E-02    1.00000000E+00   1.00000000E+00 
D    1    1.000000
   6.26000000E-01    1.00000000E+00 

2    0
S    3    1.000000
   3.38650000E+01    2.54938000E-02 
   5.09479000E+00    1.90373000E-01 
   1.15879000E+00    8.52161000E-01 
S    1    1.000000
   3.25840000E-01    1.00000000E+00 
S    1    1.000000
   1.02741000E-01    1.00000000E+00 
S    1    1.000000
   3.60000000E-02    1.00000000E+00 
P    1    1.000000
   7.50000000E-01    1.00000000E+00 

3    0
S    3    1.000000
   3.38650000E+01    2.54938000E-02 
   5.09479000E+00    1.90373000E-01 
   1.15879000E+00    8.52161000E-01 
S    1    1.000000
   3.25840000E-01    1.00000000E+00 
S    1    1.000000
   1.02741000E-01    1.00000000E+00 
S    1    1.000000
   3.60000000E-02    1.00000000E+00 
P    1    1.000000
   7.50000000E-01    1.00000000E+00 

4    0
S    3    1.000000
   3.38650000E+01    2.54938000E-02 
   5.09479000E+00    1.90373000E-01 
   1.15879000E+00    8.52161000E-01 
S    1    1.000000
   3.25840000E-01    1.00000000E+00 
S    1    1.000000
   1.02741000E-01    1.00000000E+00 
S    1    1.000000
   3.60000000E-02    1.00000000E+00 
P    1    1.000000
   7.50000000E-01    1.00000000E+00 

5    0
S    6    1.000000
   4.56324000E+03    1.96665000E-03 
   6.82024000E+02    1.52306000E-02 
   1.54973000E+02    7.61269000E-02 
   4.44553000E+01    2.60801000E-01 
   1.30290000E+01    6.16462000E-01 
   1.82773000E+00    2.21006000E-01 
SP   3    1.000000
   2.09642000E+01    1.14660000E-01   4.02487000E-02 
   4.80331000E+00    9.19999000E-01   2.37594000E-01 
   1.45933000E+00   -3.03068000E-03   8.15854000E-01 
SP   1    1.000000
   4.83456000E-01    1.00000000E+00   1.00000000E+00 
SP   1    1.000000
   1.45585000E-01    1.00000000E+00   1.00000000E+00 
SP   1    1.000000
   4.38000000E-02    1.00000000E+00   1.00000000E+00 
D    1    1.000000
   6.26000000E-01    1.00000000E+00 

6    0
S    6    1.000000
   8.58850000E+03    1.89515000E-03 
   1.29723000E+03    1.43859000E-02 
   2.99296000E+02    7.07320000E-02 
   8.73771000E+01    2.40001000E-01 
   2.56789000E+01    5.94797000E-01 
   3.74004000E+00    2.80802000E-01 
SP   3    1.000000
   4.21175000E+01    1.13889000E-01   3.65114000E-02 
   9.62837000E+00    9.20811000E-01   2.37153000E-01 
   2.85332000E+00   -3.27447000E-03   8.19702000E-01 
SP   1    1.000000
   9.05661000E-01    1.00000000E+00   1.00000000E+00 
SP   1    1.000000
   2.55611000E-01    1.00000000E+00   1.00000000E+00 
SP   1    1.000000
   8.45000000E-02    1.00000000E+00   1.00000000E+00 
D    1    1.000000
   1.29200000E+00    1.00000000E+00 

7    0
S    6    1.000000
   4.56324000E+03    1.96665000E-03 
   6.82024000E+02    1.52306000E-02 
   1.54973000E+02    7.61269000E-02 
   4.44553000E+01    2.60801000E-01 
   1.30290000E+01    6.16462000E-01 
   1.82773000E+00    2.21006000E-01 
SP   3    1.000000
   2.09642000E+01    1.14660000E-01   4.02487000E-02 
   4.80331000E+00    9.19999000E-01   2.37594000E-01 
   1.45933000E+00   -3.03068000E-03   8.15854000E-01 
SP   1    1.000000
   4.83456000E-01    1.00000000E+00   1.00000000E+00 
SP   1    1.000000
   1.45585000E-01    1.00000000E+00   1.00000000E+00 
SP   1    1.000000
   4.38000000E-02    1.00000000E+00   1.00000000E+00 
D    1    1.000000
   6.26000000E-01    1.00000000E+00 

8    0
S    6    1.000000
   8.58850000E+03    1.89515000E-03 
   1.29723000E+03    1.43859000E-02 
   2.99296000E+02    7.07320000E-02 
   8.73771000E+01    2.40001000E-01 
   2.56789000E+01    5.94797000E-01 
   3.74004000E+00    2.80802000E-01 
SP   3    1.000000
   4.21175000E+01    1.13889000E-01   3.65114000E-02 
   9.62837000E+00    9.20811000E-01   2.37153000E-01 
   2.85332000E+00   -3.27447000E-03   8.19702000E-01 
SP   1    1.000000
   9.05661000E-01    1.00000000E+00   1.00000000E+00 
SP   1    1.000000
   2.55611000E-01    1.00000000E+00   1.00000000E+00 
SP   1    1.000000
   8.45000000E-02    1.00000000E+00   1.00000000E+00 
D    1    1.000000
   1.29200000E+00    1.00000000E+00 

9    0
S    6    1.000000
   6.29348000E+03    1.96979000E-03 
   9.49044000E+02    1.49613000E-02 
   2.18776000E+02    7.35006000E-02 
   6.36916000E+01    2.48937000E-01 
   1.88282000E+01    6.02460000E-01 
   2.72023000E+00    2.56202000E-01 
SP   3    1.000000
   3.06331000E+01    1.11906000E-01   3.83119000E-02 
   7.02614000E+00    9.21666000E-01   2.37403000E-01 
   2.11205000E+00   -2.56919000E-03   8.17592000E-01 
SP   1    1.000000
   6.84009000E-01    1.00000000E+00   1.00000000E+00 
SP   1    1.000000
   2.00878000E-01    1.00000000E+00   1.00000000E+00 
SP   1    1.000000
   6.39000000E-02    1.00000000E+00   1.00000000E+00 
D    1    1.000000
   9.13000000E-01    1.00000000E+00 

10    0
S    6    1.000000
   6.29348000E+03    1.96979000E-03 
   9.49044000E+02    1.49613000E-02 
   2.18776000E+02    7.35006000E-02 
   6.36916000E+01    2.48937000E-01 
   1.88282000E+01    6.02460000E-01 
   2.72023000E+00    2.56202000E-01 
SP   3    1.000000
   3.06331000E+01    1.11906000E-01   3.83119000E-02 
   7.02614000E+00    9.21666000E-01   2.37403000E-01 
   2.11205000E+00   -2.56919000E-03   8.17592000E-01 
SP   1    1.000000
   6.84009000E-01    1.00000000E+00   1.00000000E+00 
SP   1    1.000000
   2.00878000E-01    1.00000000E+00   1.00000000E+00 
SP   1    1.000000
   6.39000000E-02    1.00000000E+00   1.00000000E+00 
D    1    1.000000
   9.13000000E-01    1.00000000E+00 

11    0
S    6    1.000000
   4.56324000E+03    1.96665000E-03 
   6.82024000E+02    1.52306000E-02 
   1.54973000E+02    7.61269000E-02 
   4.44553000E+01    2.60801000E-01 
   1.30290000E+01    6.16462000E-01 
   1.82773000E+00    2.21006000E-01 
SP   3    1.000000
   2.09642000E+01    1.14660000E-01   4.02487000E-02 
   4.80331000E+00    9.19999000E-01   2.37594000E-01 
   1.45933000E+00   -3.03068000E-03   8.15854000E-01 
SP   1    1.000000
   4.83456000E-01    1.00000000E+00   1.00000000E+00 
SP   1    1.000000
   1.45585000E-01    1.00000000E+00   1.00000000E+00 
SP   1    1.000000
   4.38000000E-02    1.00000000E+00   1.00000000E+00 
D    1    1.000000
   6.26000000E-01    1.00000000E+00 

12    0
S    3    1.000000
   3.38650000E+01    2.54938000E-02 
   5.09479000E+00    1.90373000E-01 
   1.15879000E+00    8.52161000E-01 
S    1    1.000000
   3.25840000E-01    1.00000000E+00 
S    1    1.000000
   1.02741000E-01    1.00000000E+00 
S    1    1.000000
   3.60000000E-02    1.00000000E+00 
P    1    1.000000
   7.50000000E-01    1.00000000E+00 

[MO]
Sym=X
Ene= -0.496024
Spin=Alpha
Occup=1
     1    7.138835266362e-15
     2    1.449115781376e-14
     3    2.506012614263e-14
     4   -3.882141927989e-14
     5    2.914120096920e-02
     6   -3.311978731352e-14
     7    1.810025977426e-14
     8   -9.984400147892e-14
     9    4.543714919650e-02
    10   -5.623658232742e-13
    11    4.750849326957e-13
    12   -5.271693720603e-13
    13    8.940116025333e-02
    14   -1.836838901924e-12
    15   -4.323674136078e-12
    16    2.663309741967e-12
    17   -4.554330073442e-01
    18    8.037132290280e-15
    19   -2.707818937162e-03
    20    4.863952198499e-03
    21    5.258614981568e-15
    22   -1.401342176030e-14
    23    8.415057595216e-15
    24   -1.016009685197e-13
    25    2.775188680358e-12
    26   -2.633379514805e-13
    27   -5.765324266091e-15
    28   -1.215271140303e-14
    29   -4.499278300315e-03
    30   -1.560958658744e-14
    31   -1.348468511472e-13
    32   -5.172908627926e-13
    33    1.320624456275e-12
    34    7.484471997471e-15
    35   -4.016703684168e-15
    36    1.630587821275e-04
    37    2.065822969125e-14
    38    1.616693028656e-13
    39   -1.680456833230e-13
    40    1.166489318331e-12
    41   -6.330186793845e-15
    42   -7.608149238696e-15
    43   -1.275047437627e-03
    44   -3.862624906612e-15
    45   -4.606696502423e-15
    46    1.303112089264e-14
    47   -9.753523016132e-15
    48    4.962522859223e-02
    49    5.728119702733e-14
    50    7.332864396829e-15
    51   -4.655584309869e-15
    52    9.120489948506e-02
    53   -8.363217562375e-13
    54   -1.217177789892e-13
    55   -2.396253860446e-13
    56    1.024500034116e-01
    57   -3.812682643549e-12
    58   -1.609994190867e-12
    59    2.103612261137e-13
    60   -1.732812854434e+00
    61    6.425609551190e-15
    62   -1.313280132333e-03
    63    3.441509572278e-03
    64   -7.600834962265e-15
    65   -7.604020128257e-15
    66   -8.379174485882e-16
    67    1.112106588303e-15
    68    3.097490612401e-15
    69   -1.723166886854e-15
    70    4.610559720902e-02
    71   -2.769557636086e-15
    72   -1.299778468897e-14
    73   -2.558183158881e-14
    74    7.111548457996e-02
    75    1.793767281011e-14
    76    1.272498272027e-13
    77    9.926020920910e-14
    78    2.223889150972e-02
    79    8.058532058792e-13
    80   -2.191133693850e-13
    81   -1.294141187754e-12
    82    1.048247204961e-01
    83    1.369652632402e-15
    84    7.510612376595e-03
    85   -4.228274829824e-03
    86    5.407372171548e-15
    87    4.701297105395e-15
    88   -1.787747163515e-14
    89   -2.945197210324e-14
    90   -1.186674710508e-14
    91    2.115844732355e-14
    92    3.609729403431e-03
    93    6.980982197335e-14
    94   -7.510993391827e-14
    95    3.529210423544e-14
    96    1.078683768878e-02
    97    6.136016019792e-13
    98    4.039087313154e-13
    99    1.015272176591e-12
   100   -1.295344899312e-02
   101    2.298594379832e-11
   102    2.653682325513e-14
   103   -6.387460998550e-12
   104   -3.133204198762e-01
   105    1.032996092959e-14
   106   -2.091795947996e-03
   107    2.705372840803e-03
   108    6.317891905682e-15
   109    5.385785786506e-15
   110    1.484553011090e-15
   111    2.784077978343e-15
   112    2.978736401339e-15
   113    1.744599427639e-14
   114    1.037773107306e-02
   115   -1.054441123410e-15
   116    2.908244786164e-15
   117    3.306108774421e-14
   118    1.503048436645e-02
   119   -1.807616610887e-13
   120    1.238713953676e-13
   121    2.498341334036e-14
   122    2.191524301335e-02
   123   -1.248625199566e-12
   124    5.076001492757e-13
   125    8.336541158835e-13
   126   -8.861028203471e-04
   127   -4.964489300887e-15
   128   -6.607164821462e-04
   129   -4.595649212559e-04
   130    2.110647444145e-15
   131    3.680105755764e-15
   132    9.878573158718e-15
   133    1.735757006710e-14
   134   -5.524834479937e-15
   135    1.235521058910e-14
   136    2.422386469225e-02
   137   -3.187636630787e-14
   138   -5.303722517918e-15
   139    2.452231044769e-14
   140    5.485472735414e-02
   141   -3.029571841732e-13
   142   -2.929498554884e-13
   143   -1.476130824107e-13
   144   -1.336751834306e-02
   145    1.820866084841e-12
   146   -1.724884724482e-12
   147    4.136574150529e-13
   148    6.288791063482e-01
   149   -5.864526823288e-15
   150   -2.112819341257e-03
   151   -2.960827823903e-03
   152    1.890920946347e-15
   153   -2.053992557252e-15
   154   -7.396476274011e-15
   155   -1.563721645941e-14
   156    2.977534510764e-14
   157   -1.449424444732e-14
   158    2.314259536398e-02
   159    2.643446961882e-14
   160    3.595169714078e-14
   161   -2.240272839902e-14
   162    5.211685843311e-02
   163    3.691414710340e-13
   164    2.836357195046e-13
   165   -1.252196258266e-13
   166   -1.135205216284e-02
   167   -3.977736180239e-12
   168    3.730380194351e-12
   169    1.586347642422e-13
   170    5.152209341195e-01
   171   -1.313176231630e-15
   172    5.082423383949e-03
   173    2.374434632939e-03
   174   -4.463667217386e-15
   175    1.046746874082e-14
   176    4.941636494888e-15
   177    5.711812787944e-15
   178    2.455613246113e-14
   179   -1.678621044313e-14
   180    8.309617394765e-03
   181   -6.740851293220e-14
   182    6.738743667448e-15
   183   -3.590476943014e-14
   184    1.225538698694e-02
   185    8.416197244455e-13
   186    1.475134581654e-13
   187    5.104300095647e-13
   188    1.119704378086e-02
   189   -1.265069574987e-11
   190    2.726498855476e-12
   191   -1.015197793808e-11
   192    4.044625786490e-01
   193    7.639157104208e-15
   194   -2.453669934970e-03
   195   -1.607031221426e-03
   196   -2.123854645305e-14
   197    1.839025922659e-14
   198   -3.830798581669e-14
   199    1.425061076814e-14
   200   -1.383537661679e-12
   201   -4.939550837647e-12
   202   -7.680867806520e-15
   203    1.356639461998e-15
   204   -2.060514146855e-04
Sym=X
Ene= 0.496024
Spin=Alpha
Occup=0
     1    6.693411271705e-15
     2    1.151720170109e-14
     3    1.143601782591e-14
     4   -3.038042203019e-14
     5   -6.919585539184e-02
     6   -4.845179186251e-14
     7    5.642390611992e-14
     8   -5.442271197247e-14
     9   -6.951296734812e-02
    10   -7.019261541683e-14
    11    1.856575996392e-13
    12   -7.385278294522e-14
    13   -3.554246186069e-01
    14    6.318621851956e-12
    15   -4.899501261586e-12
    16    4.573716226259e-12
    17    1.706169167775e+00
    18   -1.891971604331e-15
    19   -3.366402001518e-03
    20   -1.653743873084e-02
    21    1.345719675305e-14
    22   -7.405244410742e-15
    23    1.261525783010e-15
    24   -5.310275220911e-14
    25    2.266534702720e-12
    26   -6.469866062969e-14
    27   -4.538939433025e-15
    28   -1.068274695114e-14
    29    4.624171183171e-03
    30   -1.621543093712e-14
    31   -2.449741278053e-15
    32   -3.022002315266e-13
    33    6.092711384241e-13
    34    1.221735091346e-14
    35    6.374436773997e-15
    36    8.708343646416e-03
    37    2.673300617042e-14
    38    3.975761276806e-14
    39   -2.064045082685e-13
    40    4.561303342762e-13
    41   -8.144665942375e-15
    42   -3.025434816137e-15
    43   -7.923236759320e-03
    44    9.200106209904e-16
    45   -2.265553829400e-15
    46    2.674257012770e-15
    47    2.102506199715e-15
    48    2.715570455286e-02
    49    3.446494549664e-14
    50    4.406969105567e-14
    51   -3.424185175098e-15
    52    3.430384319333e-02
    53   -4.443739953507e-13
    54    4.486767243812e-14
    55   -1.615772643112e-13
    56    1.231621564391e-01
    57   -8.252032227221e-12
    58   -2.208191848013e-12
    59    1.737833497571e-12
    60   -9.164118181409e-01
    61   -3.065719990858e-15
    62   -7.079624051451e-03
    63   -4.091486951804e-04
    64   -4.036269288980e-15
    65   -1.770300263758e-15
    66    1.084893115698e-15
    67    1.277667478054e-15
    68    2.131718672213e-15
    69   -4.009163529806e-15
    70    2.869012353315e-02
    71   -9.198765132097e-15
    72   -5.195726731874e-15
    73   -3.920398145556e-14
    74    4.014996525499e-02
    75    5.273687747448e-14
    76    1.021079760214e-13
    77    8.029976301718e-14
    78    3.541272271744e-02
    79    3.438868591773e-13
    80   -3.253597201621e-13
    81   -1.057395912725e-12
    82   -7.491447494519e-02
    83   -7.937714928029e-16
    84    3.978219821955e-03
    85   -4.642237814282e-03
    86    4.380300658686e-15
    87    2.076652886061e-15
    88   -1.674542422903e-14
    89   -2.730527304685e-14
    90   -1.544632740943e-14
    91    1.268968711286e-14
    92    3.276492705939e-02
    93    3.506984456079e-14
    94   -5.437692264677e-14
    95    9.663412196126e-15
    96    5.138351160495e-02
    97    1.376490841832e-12
    98    6.584464399632e-14
    99    1.713168359560e-13
   100    1.270051655531e-01
   101    3.405098533692e-11
   102   -5.297659626038e-13
   103   -8.837530535129e-12
   104    3.206630433323e-01
   105   -4.943305579425e-15
   106   -5.213641445431e-03
   107    1.437550505150e-03
   108   -1.429465161480e-15
   109    5.964644987646e-15
   110    1.722711254017e-15
   111    2.687199687410e-15
   112   -5.221447027541e-15
   113    2.104736631600e-14
   114   -1.908452463139e-02
   115   -8.788647712243e-15
   116    9.869177223755e-15
   117    1.548352878742e-14
   118   -2.789053318388e-02
   119   -4.401164486146e-14
   120    2.349882192070e-14
   121    7.344112891561e-14
   122   -4.060541823100e-02
   123   -9.951905449574e-13
   124    3.909633362814e-13
   125    6.259681179419e-13
   126   -6.291449265669e-02
   127   -1.366480301376e-15
   128   -6.636736652562e-04
   129   -1.089550525846e-03
   130    5.644638802266e-15
   131    1.760044396004e-15
   132    1.349260968888e-14
   133    1.432861783232e-14
   134   -9.768109291287e-15
   135    7.799380032323e-15
   136    2.229944855206e-03
   137   -1.481870639719e-14
   138   -1.572069612659e-14
   139    7.014809991874e-15
   140    2.112693134631e-03
   141   -4.701537094768e-13
   142   -1.379101347163e-13
   143    7.574000560573e-14
   144    8.225358918761e-03
   145    1.129892210731e-12
   146   -1.745039477113e-12
   147    1.152729332470e-12
   148   -1.868741533082e-01
   149   -2.438991347616e-15
   150    3.537333889530e-03
   151   -6.945629320707e-03
   152   -3.269043198241e-15
   153   -6.884414956150e-15
   154   -8.273081246645e-15
   155   -1.398042360991e-14
   156    1.867518657609e-14
   157   -1.026942581670e-14
   158   -1.950601848185e-02
   159    4.391977449788e-14
   160    3.927138229638e-14
   161   -8.658254033208e-15
   162   -3.162418691288e-02
   163    6.686984267909e-14
   164    7.699290815064e-14
   165   -1.304206055786e-13
   166   -4.096081430603e-02
   167   -3.859978548936e-12
   168    2.599873710050e-12
   169    1.748991874177e-12
   170    1.457804717638e-01
   171    2.931904382441e-15
   172   -6.560824421058e-03
   173    7.042902957817e-04
   174    2.054118109399e-15
   175    6.476977691491e-15
   176    9.246025976119e-15
   177    1.139057297864e-14
   178   -1.872680403018e-16
   179   -1.008931276972e-14
   180   -4.235091030840e-02
   181   -2.475220267967e-14
   182    4.462588451374e-14
   183   -2.055767233537e-14
   184   -4.942873248967e-02
   185   -2.963794220565e-13
   186    1.917873862309e-13
   187   -1.794204443546e-13
   188   -1.609284928432e-01
   189   -2.667521173281e-11
   190    3.246927214237e-12
   191   -1.277964208070e-11
   192   -4.940404228995e-01
   193    2.653704888679e-14
   194    9.571781891387e-03
   195    2.633611344869e-03
   196   -1.148984785754e-14
   197   -2.209228424771e-15
   198   -1.549193458389e-14
   199   -3.173742823214e-14
   200   -7.874554091719e-13
   201   -4.152676481446e-12
   202    2.827358462059e-15
   203    3.173897023351e-15
   204    1.282539470685e-03
[5D]
