[Molden Format]
[Atoms] (Angs)
  C      1    6     -0.00754183     -1.75895763      0.00000000
  H      2    1     -2.09769850     -1.41880678     -0.00000000
  H      3    1     -0.13527422     -2.83956838     -0.00000000
  H      4    1      0.04053511      2.02026369      0.00000000
  C      5    6     -1.22066484      0.39918184     -0.00000000
  O      6    8     -2.25210141      1.05663720     -0.00000000
  C      7    6      1.24009552      0.27789184      0.00000000
  O      8    8      2.33767996      1.06122493      0.00000000
  N      9    7      0.03634586      1.00852936      0.00000000
  N     10    7     -1.18738304     -0.97903470     -0.00000000
  C     11    6      1.22288875     -1.12258096      0.00000000
  H     12    1      2.15640383     -1.68445878      0.00000000
[GTO]
1    0
S    6    1.000000
   4.56324000E+03    1.96665000E-03 
   6.82024000E+02    1.52306000E-02 
   1.54973000E+02    7.61269000E-02 
   4.44553000E+01    2.60801000E-01 
   1.30290000E+01    6.16462000E-01 
   1.82773000E+00    2.21006000E-01 
SP   3    1.000000
   2.09642000E+01    1.14660000E-01   4.02487000E-02 
   4.80331000E+00    9.19999000E-01   2.37594000E-01 
   1.45933000E+00   -3.03068000E-03   8.15854000E-01 
SP   1    1.000000
   4.83456000E-01    1.00000000E+00   1.00000000E+00 
SP   1    1.000000
   1.45585000E-01    1.00000000E+00   1.00000000E+00 
SP   1    1.000000
   4.38000000E-02    1.00000000E+00   1.00000000E+00 
D    1    1.000000
   6.26000000E-01    1.00000000E+00 

2    0
S    3    1.000000
   3.38650000E+01    2.54938000E-02 
   5.09479000E+00    1.90373000E-01 
   1.15879000E+00    8.52161000E-01 
S    1    1.000000
   3.25840000E-01    1.00000000E+00 
S    1    1.000000
   1.02741000E-01    1.00000000E+00 
S    1    1.000000
   3.60000000E-02    1.00000000E+00 
P    1    1.000000
   7.50000000E-01    1.00000000E+00 

3    0
S    3    1.000000
   3.38650000E+01    2.54938000E-02 
   5.09479000E+00    1.90373000E-01 
   1.15879000E+00    8.52161000E-01 
S    1    1.000000
   3.25840000E-01    1.00000000E+00 
S    1    1.000000
   1.02741000E-01    1.00000000E+00 
S    1    1.000000
   3.60000000E-02    1.00000000E+00 
P    1    1.000000
   7.50000000E-01    1.00000000E+00 

4    0
S    3    1.000000
   3.38650000E+01    2.54938000E-02 
   5.09479000E+00    1.90373000E-01 
   1.15879000E+00    8.52161000E-01 
S    1    1.000000
   3.25840000E-01    1.00000000E+00 
S    1    1.000000
   1.02741000E-01    1.00000000E+00 
S    1    1.000000
   3.60000000E-02    1.00000000E+00 
P    1    1.000000
   7.50000000E-01    1.00000000E+00 

5    0
S    6    1.000000
   4.56324000E+03    1.96665000E-03 
   6.82024000E+02    1.52306000E-02 
   1.54973000E+02    7.61269000E-02 
   4.44553000E+01    2.60801000E-01 
   1.30290000E+01    6.16462000E-01 
   1.82773000E+00    2.21006000E-01 
SP   3    1.000000
   2.09642000E+01    1.14660000E-01   4.02487000E-02 
   4.80331000E+00    9.19999000E-01   2.37594000E-01 
   1.45933000E+00   -3.03068000E-03   8.15854000E-01 
SP   1    1.000000
   4.83456000E-01    1.00000000E+00   1.00000000E+00 
SP   1    1.000000
   1.45585000E-01    1.00000000E+00   1.00000000E+00 
SP   1    1.000000
   4.38000000E-02    1.00000000E+00   1.00000000E+00 
D    1    1.000000
   6.26000000E-01    1.00000000E+00 

6    0
S    6    1.000000
   8.58850000E+03    1.89515000E-03 
   1.29723000E+03    1.43859000E-02 
   2.99296000E+02    7.07320000E-02 
   8.73771000E+01    2.40001000E-01 
   2.56789000E+01    5.94797000E-01 
   3.74004000E+00    2.80802000E-01 
SP   3    1.000000
   4.21175000E+01    1.13889000E-01   3.65114000E-02 
   9.62837000E+00    9.20811000E-01   2.37153000E-01 
   2.85332000E+00   -3.27447000E-03   8.19702000E-01 
SP   1    1.000000
   9.05661000E-01    1.00000000E+00   1.00000000E+00 
SP   1    1.000000
   2.55611000E-01    1.00000000E+00   1.00000000E+00 
SP   1    1.000000
   8.45000000E-02    1.00000000E+00   1.00000000E+00 
D    1    1.000000
   1.29200000E+00    1.00000000E+00 

7    0
S    6    1.000000
   4.56324000E+03    1.96665000E-03 
   6.82024000E+02    1.52306000E-02 
   1.54973000E+02    7.61269000E-02 
   4.44553000E+01    2.60801000E-01 
   1.30290000E+01    6.16462000E-01 
   1.82773000E+00    2.21006000E-01 
SP   3    1.000000
   2.09642000E+01    1.14660000E-01   4.02487000E-02 
   4.80331000E+00    9.19999000E-01   2.37594000E-01 
   1.45933000E+00   -3.03068000E-03   8.15854000E-01 
SP   1    1.000000
   4.83456000E-01    1.00000000E+00   1.00000000E+00 
SP   1    1.000000
   1.45585000E-01    1.00000000E+00   1.00000000E+00 
SP   1    1.000000
   4.38000000E-02    1.00000000E+00   1.00000000E+00 
D    1    1.000000
   6.26000000E-01    1.00000000E+00 

8    0
S    6    1.000000
   8.58850000E+03    1.89515000E-03 
   1.29723000E+03    1.43859000E-02 
   2.99296000E+02    7.07320000E-02 
   8.73771000E+01    2.40001000E-01 
   2.56789000E+01    5.94797000E-01 
   3.74004000E+00    2.80802000E-01 
SP   3    1.000000
   4.21175000E+01    1.13889000E-01   3.65114000E-02 
   9.62837000E+00    9.20811000E-01   2.37153000E-01 
   2.85332000E+00   -3.27447000E-03   8.19702000E-01 
SP   1    1.000000
   9.05661000E-01    1.00000000E+00   1.00000000E+00 
SP   1    1.000000
   2.55611000E-01    1.00000000E+00   1.00000000E+00 
SP   1    1.000000
   8.45000000E-02    1.00000000E+00   1.00000000E+00 
D    1    1.000000
   1.29200000E+00    1.00000000E+00 

9    0
S    6    1.000000
   6.29348000E+03    1.96979000E-03 
   9.49044000E+02    1.49613000E-02 
   2.18776000E+02    7.35006000E-02 
   6.36916000E+01    2.48937000E-01 
   1.88282000E+01    6.02460000E-01 
   2.72023000E+00    2.56202000E-01 
SP   3    1.000000
   3.06331000E+01    1.11906000E-01   3.83119000E-02 
   7.02614000E+00    9.21666000E-01   2.37403000E-01 
   2.11205000E+00   -2.56919000E-03   8.17592000E-01 
SP   1    1.000000
   6.84009000E-01    1.00000000E+00   1.00000000E+00 
SP   1    1.000000
   2.00878000E-01    1.00000000E+00   1.00000000E+00 
SP   1    1.000000
   6.39000000E-02    1.00000000E+00   1.00000000E+00 
D    1    1.000000
   9.13000000E-01    1.00000000E+00 

10    0
S    6    1.000000
   6.29348000E+03    1.96979000E-03 
   9.49044000E+02    1.49613000E-02 
   2.18776000E+02    7.35006000E-02 
   6.36916000E+01    2.48937000E-01 
   1.88282000E+01    6.02460000E-01 
   2.72023000E+00    2.56202000E-01 
SP   3    1.000000
   3.06331000E+01    1.11906000E-01   3.83119000E-02 
   7.02614000E+00    9.21666000E-01   2.37403000E-01 
   2.11205000E+00   -2.56919000E-03   8.17592000E-01 
SP   1    1.000000
   6.84009000E-01    1.00000000E+00   1.00000000E+00 
SP   1    1.000000
   2.00878000E-01    1.00000000E+00   1.00000000E+00 
SP   1    1.000000
   6.39000000E-02    1.00000000E+00   1.00000000E+00 
D    1    1.000000
   9.13000000E-01    1.00000000E+00 

11    0
S    6    1.000000
   4.56324000E+03    1.96665000E-03 
   6.82024000E+02    1.52306000E-02 
   1.54973000E+02    7.61269000E-02 
   4.44553000E+01    2.60801000E-01 
   1.30290000E+01    6.16462000E-01 
   1.82773000E+00    2.21006000E-01 
SP   3    1.000000
   2.09642000E+01    1.14660000E-01   4.02487000E-02 
   4.80331000E+00    9.19999000E-01   2.37594000E-01 
   1.45933000E+00   -3.03068000E-03   8.15854000E-01 
SP   1    1.000000
   4.83456000E-01    1.00000000E+00   1.00000000E+00 
SP   1    1.000000
   1.45585000E-01    1.00000000E+00   1.00000000E+00 
SP   1    1.000000
   4.38000000E-02    1.00000000E+00   1.00000000E+00 
D    1    1.000000
   6.26000000E-01    1.00000000E+00 

12    0
S    3    1.000000
   3.38650000E+01    2.54938000E-02 
   5.09479000E+00    1.90373000E-01 
   1.15879000E+00    8.52161000E-01 
S    1    1.000000
   3.25840000E-01    1.00000000E+00 
S    1    1.000000
   1.02741000E-01    1.00000000E+00 
S    1    1.000000
   3.60000000E-02    1.00000000E+00 
P    1    1.000000
   7.50000000E-01    1.00000000E+00 

[MO]
Sym=X
Ene= -0.487263
Spin=Alpha
Occup=1
     1   -1.535410748111e-03
     2   -2.614232602192e-03
     3    1.451512551269e-02
     4   -1.983950844403e-02
     5    1.311562288998e-14
     6    8.537241844686e-03
     7    1.841085650956e-02
     8   -3.103537423175e-02
     9    2.538856122798e-14
    10    7.175914685930e-02
    11    4.784881893343e-02
    12   -7.445134113493e-02
    13    8.206567583272e-14
    14   -2.352692057136e+00
    15   -3.984635698960e-01
    16   -1.008859799767e+00
    17   -7.249182505782e-13
    18   -6.218251635670e-03
    19   -9.029710416722e-15
    20    1.097151577510e-15
    21    5.330630169386e-03
    22   -6.935929659767e-04
    23   -2.572232868200e-03
    24   -2.552937208926e-02
    25   -3.944291797250e-01
    26   -9.851128350349e-01
    27    1.525347365789e-02
    28    4.895060033815e-03
    29    5.165447227918e-15
    30    6.090860606885e-03
    31    6.249345333328e-03
    32   -9.166720291288e-02
    33   -5.627104983563e-01
    34    3.571143088477e-03
    35    1.897711710185e-03
    36    2.346194393391e-15
    37   -1.590804273047e-03
    38   -8.811668913995e-03
    39   -1.717666318482e-01
    40   -3.054770370755e-01
    41    1.826298043690e-03
    42   -7.368563201928e-03
    43    2.015919963283e-15
    44    4.492638797628e-03
    45    6.943400411660e-03
    46    5.634290100459e-03
    47    4.903896845552e-04
    48   -2.326196988086e-14
    49    1.481049761065e-02
    50    1.452766777806e-02
    51   -3.986962038149e-03
    52   -3.891594626745e-14
    53   -2.529485653107e-01
    54    1.121292702848e-01
    55   -4.433523158261e-02
    56   -1.145779601367e-13
    57   -2.621605836425e-01
    58    6.438814054457e-01
    59   -4.129111875753e-01
    60    6.393905257221e-13
    61   -2.418590424874e-02
    62    1.093079259848e-15
    63    5.691910710892e-15
    64    2.102795130363e-06
    65    6.845224515636e-03
    66   -2.304763280786e-02
    67   -3.997756199384e-02
    68   -1.423524010271e-02
    69   -1.258356309500e-02
    70    2.148959523803e-14
    71    1.384937345350e-01
    72   -1.644038559140e-02
    73   -1.865769349107e-02
    74    2.335807029011e-14
    75    2.690612444056e-01
    76    2.733954042793e-02
    77   -4.656750307662e-02
    78    9.827955331577e-14
    79    4.007854680189e-01
    80   -7.799703655961e-02
    81    7.566594179548e-02
    82   -2.873331454372e-13
    83   -3.849433493997e-03
    84   -4.843949504381e-16
    85    4.378837933740e-16
    86    6.876387286139e-04
    87   -3.525092153556e-03
    88   -8.854251391681e-04
    89   -1.621220808834e-03
    90    6.875249832865e-03
    91   -1.255919322759e-02
    92    1.571196692417e-14
    93    8.310044690707e-03
    94    1.005200128004e-02
    95   -1.594818366320e-02
    96    2.577829070607e-14
    97    6.577124518574e-03
    98    3.134979821917e-03
    99   -1.686063360462e-03
   100    2.129475528679e-14
   101   -2.309641750819e+00
   102    2.612832012137e-01
   103    4.744610513146e-01
   104   -1.350020924170e-12
   105   -4.684708085100e-03
   106   -4.494837759328e-15
   107    6.153125254566e-15
   108   -2.314252565527e-03
   109   -7.417429060461e-04
   110   -1.615248156385e-03
   111   -2.806988454009e-03
   112   -5.621299901642e-03
   113    8.203700279881e-03
   114   -1.166286655903e-14
   115    1.002949178242e-02
   116   -7.609567217116e-03
   117    1.240125759016e-02
   118   -7.966660815684e-15
   119    3.538741062099e-04
   120   -1.256590912574e-02
   121    1.495843034303e-02
   122   -1.012189485533e-13
   123    8.036555927732e-02
   124   -1.305429264724e-02
   125   -1.425864620989e-02
   126    4.072704611096e-13
   127   -2.766111800026e-04
   128    7.260852500274e-16
   129    9.220013970817e-17
   130   -5.805355304979e-05
   131    2.401990708423e-04
   132   -1.498850447772e-02
   133   -2.597301396368e-02
   134   -1.983072469996e-02
   135    6.353925429883e-03
   136    6.956244192608e-15
   137    8.309084118610e-02
   138   -3.198380270006e-02
   139    7.851421376445e-03
   140    1.243766435270e-14
   141    1.799263359782e-01
   142   -6.831477218775e-02
   143    1.884697429789e-02
   144    2.129251167675e-14
   145    5.376924966577e-01
   146   -5.820327201854e-02
   147    1.847797061461e-01
   148    1.605169433098e-13
   149   -3.854645052300e-03
   150    4.791624113016e-15
   151    8.249642763053e-16
   152    1.044052960333e-03
   153    9.358879415834e-04
   154   -2.345810767900e-02
   155   -4.052905910730e-02
   156   -3.501442445640e-02
   157   -4.126574747224e-03
   158    6.203789732847e-15
   159    1.262270502876e-01
   160   -5.481262874577e-02
   161   -2.947000294051e-03
   162    7.620181733447e-15
   163    3.451520496823e-01
   164   -9.347470450785e-02
   165    3.825748117759e-03
   166    2.016425160494e-14
   167    9.243053301178e-01
   168   -3.776051628927e-01
   169   -6.544521342416e-02
   170   -6.058370281485e-15
   171   -4.083272738504e-03
   172    2.028928983160e-16
   173   -5.752154467515e-15
   174   -3.520682422189e-03
   175   -1.144056171399e-03
   176   -5.379302573985e-03
   177   -9.146611190835e-03
   178   -3.743220275898e-03
   179    3.267740981951e-03
   180   -2.257427435155e-14
   181    2.552432027526e-02
   182   -2.060028340932e-03
   183    5.216631132741e-03
   184   -3.248475532770e-14
   185    8.083873828713e-02
   186   -4.646767748721e-02
   187    4.395983738982e-02
   188   -1.518686724812e-13
   189    4.202653741675e+00
   190   -8.430733401916e-01
   191    4.995738251222e-01
   192    1.348896203081e-12
   193   -2.760169980162e-03
   194    4.559953254469e-16
   195    1.864292787935e-15
   196   -5.026579190785e-03
   197    4.959288208220e-03
   198   -7.348992816976e-03
   199   -7.843272755456e-03
   200   -1.718065850240e-03
   201    1.725014831283e-01
   202   -1.710609233743e-03
   203    4.672229320359e-04
   204    4.163974600202e-15
Sym=X
Ene= 0.487263
Spin=Alpha
Occup=0
     1    1.049698648710e-15
     2    5.714725451504e-16
     3    1.276327767390e-15
     4   -3.092590244699e-16
     5   -1.704841896365e-01
     6    1.009846689423e-14
     7   -3.360092625484e-14
     8    7.299498858194e-15
     9   -2.794796749443e-01
    10   -1.982239890017e-13
    11   -1.622698251315e-14
    12   -4.716004550342e-14
    13   -4.732610277681e-01
    14   -2.758211902898e-12
    15    6.992217279735e-13
    16   -1.653569758352e-12
    17   -4.984710359890e-01
    18   -6.013450715971e-16
    19    7.704107830307e-03
    20    1.080739996564e-02
    21   -2.609527974460e-16
    22   -4.858201150017e-15
    23    7.392848307280e-16
    24    5.514500748977e-14
    25   -1.206819385177e-13
    26   -2.646416159986e-13
    27   -2.466223090864e-15
    28   -3.932528726717e-16
    29    1.370159041977e-02
    30    2.505538132042e-15
    31    5.492664830882e-14
    32   -2.151009615038e-13
    33   -3.954281260155e-13
    34    3.853703725140e-15
    35    3.573345086480e-15
    36   -1.995417235513e-02
    37    6.480876429988e-15
    38   -1.204501900592e-13
    39    6.258487114659e-13
    40    3.241288135357e-14
    41    3.083376955453e-15
    42    5.304640339893e-15
    43   -9.825521162763e-03
    44    5.665435960675e-16
    45    3.335120493277e-15
    46    4.872024763756e-15
    47    3.511705126203e-15
    48   -3.750775690071e-02
    49   -3.117559925591e-14
    50    2.242988578296e-15
    51    2.131867431992e-14
    52   -6.778928508972e-02
    53    1.324110898219e-13
    54    2.323863717308e-13
    55   -1.851171155648e-13
    56   -8.985810940212e-02
    57    2.620958263819e-12
    58    6.967893178992e-13
    59   -8.523340821143e-13
    60   -4.250670241289e-03
    61   -2.715736846130e-16
    62   -1.471913523842e-02
    63   -3.488952950218e-02
    64   -1.701323182385e-16
    65   -1.588112249247e-15
    66   -4.444050865154e-16
    67   -6.319163175369e-16
    68   -1.556510741458e-15
    69    3.853316629375e-16
    70    1.953275590470e-02
    71   -1.515625734376e-15
    72   -1.001607962136e-14
    73   -1.157816230139e-15
    74    2.638974369218e-02
    75    5.761731838458e-14
    76    3.626643658830e-14
    77   -4.891708217470e-16
    78    3.557794831869e-02
    79    4.637103629545e-13
    80   -4.392258953067e-15
    81   -1.954799142489e-13
    82   -1.172023697651e-02
    83    1.294501978897e-15
    84   -3.534382442867e-03
    85   -8.285987141877e-04
    86    1.630944716427e-15
    87    5.229590938669e-16
    88   -9.808588824624e-16
    89   -2.428441322515e-15
    90    8.587830690107e-15
    91   -4.679587827513e-15
    92    1.464598102538e-01
    93    3.087158783058e-15
    94    1.433381535673e-14
    95    2.915806257897e-15
    96    2.389605888589e-01
    97    2.445534434708e-13
    98   -1.536914091813e-14
    99   -6.282372283330e-14
   100    3.548359746651e-01
   101   -5.131786778626e-12
   102   -1.116921306492e-12
   103    1.582087279013e-12
   104    8.933594799028e-02
   105    1.656832244306e-15
   106   -2.347438018872e-02
   107   -2.977557999525e-02
   108    6.548251788788e-15
   109   -2.832174345850e-15
   110   -2.707709087296e-16
   111   -2.600000922118e-15
   112    2.540012344814e-15
   113    2.171054002697e-15
   114   -1.070966476915e-01
   115    1.623147682333e-14
   116    8.095552909287e-15
   117   -2.016093576366e-15
   118   -1.581856109285e-01
   119   -8.337995238593e-14
   120   -8.695709017116e-15
   121    3.429172859003e-14
   122   -2.009743499591e-01
   123    7.243147786212e-13
   124    5.091976446259e-14
   125   -1.602725892084e-13
   126   -1.606227222465e-01
   127   -5.311308028953e-16
   128   -1.474924428563e-03
   129   -2.931340335278e-03
   130    4.805985838059e-16
   131    5.061884619057e-16
   132    3.143578679340e-15
   133    5.217113089967e-16
   134    9.147370277903e-15
   135    9.713803823429e-16
   136   -5.003589791430e-02
   137    4.362598054283e-15
   138    8.342207262771e-15
   139    8.648733699136e-15
   140   -7.658430599622e-02
   141   -1.049393916764e-13
   142    5.765163852090e-14
   143    1.098233944723e-13
   144   -1.138381098100e-01
   145   -1.533166560564e-12
   146   -3.995546643186e-13
   147   -5.440844220025e-13
   148   -1.596727045794e-01
   149    3.714056612839e-15
   150    1.928341598651e-02
   151   -9.549501111859e-03
   152   -3.090638019500e-15
   153    4.130109252309e-16
   154    5.615822202589e-16
   155    1.522587996798e-15
   156    6.183138204802e-15
   157    6.039724782221e-15
   158    9.050495663124e-02
   159   -1.077150295525e-16
   160    1.946849799044e-14
   161    4.864650058820e-15
   162    1.389976132877e-01
   163   -8.540199165631e-14
   164   -1.575652058937e-14
   165    4.687233987051e-15
   166    2.181918736808e-01
   167   -4.421127482484e-13
   168    5.450010280717e-15
   169   -1.200098883598e-12
   170    3.265662639913e-01
   171    2.232843061190e-15
   172   -1.756117299035e-02
   173    1.216724138474e-02
   174    4.849526454534e-15
   175    1.711847975623e-15
   176   -2.384206943969e-15
   177   -5.446368878322e-15
   178    2.475351250586e-15
   179   -5.420125081475e-15
   180    7.182387771856e-02
   181    1.088784415686e-15
   182    1.537323783299e-14
   183    2.121490543414e-14
   184    1.145951790839e-01
   185    1.428613060652e-13
   186   -1.310345111998e-13
   187   -2.570857518376e-13
   188    2.070811175132e-01
   189    4.531953317954e-12
   190   -5.784199650502e-13
   191    2.588278161991e-12
   192    2.455872762916e-01
   193   -1.361578608052e-14
   194    1.672548837633e-02
   195    3.603021360574e-02
   196   -1.393683169449e-16
   197   -4.952353624708e-16
   198    7.142509287428e-15
   199   -1.931786166092e-14
   200    1.596535607161e-13
   201    1.654707313067e-12
   202    6.297835258844e-15
   203   -5.832339464122e-15
   204    5.575634496058e-03
[5D]
