[Molden Format]
[Atoms] (Angs)
  C      1    6     -0.00754183     -1.75895763      0.00000000
  H      2    1     -2.09769850     -1.41880678     -0.00000000
  H      3    1     -0.13527422     -2.83956838     -0.00000000
  H      4    1      0.04053511      2.02026369      0.00000000
  C      5    6     -1.22066484      0.39918184     -0.00000000
  O      6    8     -2.25210141      1.05663720     -0.00000000
  C      7    6      1.24009552      0.27789184      0.00000000
  O      8    8      2.33767996      1.06122493      0.00000000
  N      9    7      0.03634586      1.00852936      0.00000000
  N     10    7     -1.18738304     -0.97903470     -0.00000000
  C     11    6      1.22288875     -1.12258096      0.00000000
  H     12    1      2.15640383     -1.68445878      0.00000000
[GTO]
1    0
S    6    1.000000
   4.56324000E+03    1.96665000E-03 
   6.82024000E+02    1.52306000E-02 
   1.54973000E+02    7.61269000E-02 
   4.44553000E+01    2.60801000E-01 
   1.30290000E+01    6.16462000E-01 
   1.82773000E+00    2.21006000E-01 
SP   3    1.000000
   2.09642000E+01    1.14660000E-01   4.02487000E-02 
   4.80331000E+00    9.19999000E-01   2.37594000E-01 
   1.45933000E+00   -3.03068000E-03   8.15854000E-01 
SP   1    1.000000
   4.83456000E-01    1.00000000E+00   1.00000000E+00 
SP   1    1.000000
   1.45585000E-01    1.00000000E+00   1.00000000E+00 
SP   1    1.000000
   4.38000000E-02    1.00000000E+00   1.00000000E+00 
D    1    1.000000
   6.26000000E-01    1.00000000E+00 

2    0
S    3    1.000000
   3.38650000E+01    2.54938000E-02 
   5.09479000E+00    1.90373000E-01 
   1.15879000E+00    8.52161000E-01 
S    1    1.000000
   3.25840000E-01    1.00000000E+00 
S    1    1.000000
   1.02741000E-01    1.00000000E+00 
S    1    1.000000
   3.60000000E-02    1.00000000E+00 
P    1    1.000000
   7.50000000E-01    1.00000000E+00 

3    0
S    3    1.000000
   3.38650000E+01    2.54938000E-02 
   5.09479000E+00    1.90373000E-01 
   1.15879000E+00    8.52161000E-01 
S    1    1.000000
   3.25840000E-01    1.00000000E+00 
S    1    1.000000
   1.02741000E-01    1.00000000E+00 
S    1    1.000000
   3.60000000E-02    1.00000000E+00 
P    1    1.000000
   7.50000000E-01    1.00000000E+00 

4    0
S    3    1.000000
   3.38650000E+01    2.54938000E-02 
   5.09479000E+00    1.90373000E-01 
   1.15879000E+00    8.52161000E-01 
S    1    1.000000
   3.25840000E-01    1.00000000E+00 
S    1    1.000000
   1.02741000E-01    1.00000000E+00 
S    1    1.000000
   3.60000000E-02    1.00000000E+00 
P    1    1.000000
   7.50000000E-01    1.00000000E+00 

5    0
S    6    1.000000
   4.56324000E+03    1.96665000E-03 
   6.82024000E+02    1.52306000E-02 
   1.54973000E+02    7.61269000E-02 
   4.44553000E+01    2.60801000E-01 
   1.30290000E+01    6.16462000E-01 
   1.82773000E+00    2.21006000E-01 
SP   3    1.000000
   2.09642000E+01    1.14660000E-01   4.02487000E-02 
   4.80331000E+00    9.19999000E-01   2.37594000E-01 
   1.45933000E+00   -3.03068000E-03   8.15854000E-01 
SP   1    1.000000
   4.83456000E-01    1.00000000E+00   1.00000000E+00 
SP   1    1.000000
   1.45585000E-01    1.00000000E+00   1.00000000E+00 
SP   1    1.000000
   4.38000000E-02    1.00000000E+00   1.00000000E+00 
D    1    1.000000
   6.26000000E-01    1.00000000E+00 

6    0
S    6    1.000000
   8.58850000E+03    1.89515000E-03 
   1.29723000E+03    1.43859000E-02 
   2.99296000E+02    7.07320000E-02 
   8.73771000E+01    2.40001000E-01 
   2.56789000E+01    5.94797000E-01 
   3.74004000E+00    2.80802000E-01 
SP   3    1.000000
   4.21175000E+01    1.13889000E-01   3.65114000E-02 
   9.62837000E+00    9.20811000E-01   2.37153000E-01 
   2.85332000E+00   -3.27447000E-03   8.19702000E-01 
SP   1    1.000000
   9.05661000E-01    1.00000000E+00   1.00000000E+00 
SP   1    1.000000
   2.55611000E-01    1.00000000E+00   1.00000000E+00 
SP   1    1.000000
   8.45000000E-02    1.00000000E+00   1.00000000E+00 
D    1    1.000000
   1.29200000E+00    1.00000000E+00 

7    0
S    6    1.000000
   4.56324000E+03    1.96665000E-03 
   6.82024000E+02    1.52306000E-02 
   1.54973000E+02    7.61269000E-02 
   4.44553000E+01    2.60801000E-01 
   1.30290000E+01    6.16462000E-01 
   1.82773000E+00    2.21006000E-01 
SP   3    1.000000
   2.09642000E+01    1.14660000E-01   4.02487000E-02 
   4.80331000E+00    9.19999000E-01   2.37594000E-01 
   1.45933000E+00   -3.03068000E-03   8.15854000E-01 
SP   1    1.000000
   4.83456000E-01    1.00000000E+00   1.00000000E+00 
SP   1    1.000000
   1.45585000E-01    1.00000000E+00   1.00000000E+00 
SP   1    1.000000
   4.38000000E-02    1.00000000E+00   1.00000000E+00 
D    1    1.000000
   6.26000000E-01    1.00000000E+00 

8    0
S    6    1.000000
   8.58850000E+03    1.89515000E-03 
   1.29723000E+03    1.43859000E-02 
   2.99296000E+02    7.07320000E-02 
   8.73771000E+01    2.40001000E-01 
   2.56789000E+01    5.94797000E-01 
   3.74004000E+00    2.80802000E-01 
SP   3    1.000000
   4.21175000E+01    1.13889000E-01   3.65114000E-02 
   9.62837000E+00    9.20811000E-01   2.37153000E-01 
   2.85332000E+00   -3.27447000E-03   8.19702000E-01 
SP   1    1.000000
   9.05661000E-01    1.00000000E+00   1.00000000E+00 
SP   1    1.000000
   2.55611000E-01    1.00000000E+00   1.00000000E+00 
SP   1    1.000000
   8.45000000E-02    1.00000000E+00   1.00000000E+00 
D    1    1.000000
   1.29200000E+00    1.00000000E+00 

9    0
S    6    1.000000
   6.29348000E+03    1.96979000E-03 
   9.49044000E+02    1.49613000E-02 
   2.18776000E+02    7.35006000E-02 
   6.36916000E+01    2.48937000E-01 
   1.88282000E+01    6.02460000E-01 
   2.72023000E+00    2.56202000E-01 
SP   3    1.000000
   3.06331000E+01    1.11906000E-01   3.83119000E-02 
   7.02614000E+00    9.21666000E-01   2.37403000E-01 
   2.11205000E+00   -2.56919000E-03   8.17592000E-01 
SP   1    1.000000
   6.84009000E-01    1.00000000E+00   1.00000000E+00 
SP   1    1.000000
   2.00878000E-01    1.00000000E+00   1.00000000E+00 
SP   1    1.000000
   6.39000000E-02    1.00000000E+00   1.00000000E+00 
D    1    1.000000
   9.13000000E-01    1.00000000E+00 

10    0
S    6    1.000000
   6.29348000E+03    1.96979000E-03 
   9.49044000E+02    1.49613000E-02 
   2.18776000E+02    7.35006000E-02 
   6.36916000E+01    2.48937000E-01 
   1.88282000E+01    6.02460000E-01 
   2.72023000E+00    2.56202000E-01 
SP   3    1.000000
   3.06331000E+01    1.11906000E-01   3.83119000E-02 
   7.02614000E+00    9.21666000E-01   2.37403000E-01 
   2.11205000E+00   -2.56919000E-03   8.17592000E-01 
SP   1    1.000000
   6.84009000E-01    1.00000000E+00   1.00000000E+00 
SP   1    1.000000
   2.00878000E-01    1.00000000E+00   1.00000000E+00 
SP   1    1.000000
   6.39000000E-02    1.00000000E+00   1.00000000E+00 
D    1    1.000000
   9.13000000E-01    1.00000000E+00 

11    0
S    6    1.000000
   4.56324000E+03    1.96665000E-03 
   6.82024000E+02    1.52306000E-02 
   1.54973000E+02    7.61269000E-02 
   4.44553000E+01    2.60801000E-01 
   1.30290000E+01    6.16462000E-01 
   1.82773000E+00    2.21006000E-01 
SP   3    1.000000
   2.09642000E+01    1.14660000E-01   4.02487000E-02 
   4.80331000E+00    9.19999000E-01   2.37594000E-01 
   1.45933000E+00   -3.03068000E-03   8.15854000E-01 
SP   1    1.000000
   4.83456000E-01    1.00000000E+00   1.00000000E+00 
SP   1    1.000000
   1.45585000E-01    1.00000000E+00   1.00000000E+00 
SP   1    1.000000
   4.38000000E-02    1.00000000E+00   1.00000000E+00 
D    1    1.000000
   6.26000000E-01    1.00000000E+00 

12    0
S    3    1.000000
   3.38650000E+01    2.54938000E-02 
   5.09479000E+00    1.90373000E-01 
   1.15879000E+00    8.52161000E-01 
S    1    1.000000
   3.25840000E-01    1.00000000E+00 
S    1    1.000000
   1.02741000E-01    1.00000000E+00 
S    1    1.000000
   3.60000000E-02    1.00000000E+00 
P    1    1.000000
   7.50000000E-01    1.00000000E+00 

[MO]
Sym=X
Ene= -0.486640
Spin=Alpha
Occup=1
     1    2.004148654105e-02
     2    3.538266147478e-02
     3    1.922859817570e-02
     4    2.671319146144e-02
     5    9.061008803986e-15
     6   -1.202200785782e-01
     7    3.580896346858e-02
     8    3.491725414964e-02
     9    4.819075927385e-15
    10   -1.683090918143e-01
    11    1.007962864474e-01
    12    1.662003395332e-01
    13    4.986356059856e-14
    14   -2.805508624457e+00
    15   -4.836354973622e-01
    16    2.115942978618e+00
    17   -2.471404762609e-13
    18   -2.516407115337e-04
    19   -2.584544386048e-15
    20   -2.714878979836e-15
    21   -7.022404749709e-03
    22    1.634146040213e-03
    23    1.006916983703e-02
    24    3.142563203316e-02
    25   -3.659844381177e-01
    26   -6.241620472637e-01
    27    4.557704112782e-03
    28   -7.628776917458e-03
    29    2.407768412900e-15
    30   -1.605254967927e-03
    31   -9.861422932946e-03
    32    4.589418301641e-01
    33    3.419268045647e+00
    34   -6.722961714288e-04
    35   -1.332288147156e-02
    36    2.137015198522e-15
    37    1.406866212286e-02
    38    3.601771818785e-02
    39    2.985172778091e-01
    40    9.030971742304e-01
    41   -2.068282136213e-03
    42    9.393532843404e-03
    43    2.064045910761e-15
    44    7.040632042152e-03
    45    1.267438795644e-02
    46    2.029362039322e-02
    47   -1.157493406082e-03
    48    7.173796944027e-16
    49   -4.260661520076e-02
    50    3.450348423363e-02
    51   -6.925756226599e-03
    52    2.306674650703e-14
    53   -1.377022589072e-01
    54    3.453813668481e-01
    55   -1.564241415047e-01
    56   -8.026640825112e-14
    57   -3.660548626143e-02
    58    1.526664713979e+00
    59    3.747834434880e-01
    60    3.857774130910e-13
    61   -6.820462518813e-03
    62    8.013491341336e-15
    63    2.984910796838e-15
    64    1.103816094406e-02
    65   -1.369035380062e-02
    66   -1.485823643610e-02
    67   -2.562471091727e-02
    68   -1.621516257598e-02
    69   -4.912304725492e-02
    70   -3.396595842947e-15
    71    8.619652578478e-02
    72   -2.511042570076e-02
    73   -6.834427596577e-02
    74   -6.416553796693e-15
    75    2.255844594212e-01
    76    4.378921168769e-02
    77   -9.000257685820e-02
    78    2.095262559569e-14
    79    8.026174830231e-01
    80    6.003208847794e-02
    81   -1.061739978644e-01
    82   -1.158090782915e-13
    83   -2.709659269895e-05
    84    3.451271645646e-16
    85    8.847487749831e-16
    86   -2.973946842796e-03
    87   -4.467884790980e-04
    88    1.443813666922e-03
    89    2.519392704524e-03
    90   -2.204978915094e-03
    91    2.806959609530e-03
    92    7.185483778641e-16
    93   -1.329814724574e-02
    94   -2.080700204889e-03
    95    9.174069778443e-03
    96    7.787165154472e-15
    97    6.985024401160e-02
    98   -1.113780968915e-01
    99   -6.080515685466e-02
   100   -5.607142221739e-14
   101   -1.087877435432e+00
   102    1.198335268256e+00
   103   -3.120540077809e-01
   104   -8.262341507914e-13
   105    2.566776428610e-03
   106   -1.814831507848e-15
   107    1.618894744981e-15
   108    8.018725082225e-03
   109    9.235154671541e-03
   110    1.798656376954e-03
   111    3.124829247730e-03
   112   -4.590872418104e-03
   113   -1.308764870081e-02
   114   -3.849136970918e-15
   115   -1.038274734074e-02
   116   -8.312577052926e-03
   117   -1.959606091007e-02
   118    3.929296177567e-15
   119   -4.297107433891e-03
   120    1.513451889011e-03
   121   -2.173779953311e-02
   122   -5.253783000419e-14
   123    1.576265483374e-01
   124   -1.613421388056e-01
   125   -8.135406893867e-02
   126    2.755405345429e-13
   127    6.533515891557e-04
   128    4.795156149349e-16
   129   -4.309373059684e-16
   130   -4.639809951259e-04
   131   -4.595276226960e-04
   132    1.067236604552e-02
   133    1.820142845260e-02
   134   -9.919307728706e-03
   135   -2.110740637032e-02
   136   -4.971325817151e-15
   137   -5.054668264869e-02
   138   -1.374725771985e-02
   139   -3.441998976047e-02
   140   -5.760304088635e-16
   141   -2.781839489365e-01
   142   -1.906713829913e-02
   143    1.269253134800e-02
   144   -3.375580049919e-14
   145   -4.750241854601e-01
   146    1.940236886688e-02
   147   -3.314709950781e-01
   148    2.756830759582e-13
   149   -8.546972697019e-05
   150   -1.879498505145e-16
   151    3.705112983781e-16
   152   -6.641678047977e-03
   153    8.795077356309e-04
   154   -4.437262425343e-03
   155   -7.621165617888e-03
   156   -1.683736916197e-03
   157   -3.299091794294e-03
   158    3.327616888709e-15
   159    1.928808393194e-02
   160   -2.587792003242e-03
   161    1.348291151355e-03
   162   -1.547475541257e-15
   163    7.324028896785e-02
   164   -3.114527689681e-02
   165   -5.815805121403e-02
   166    3.065985928733e-14
   167   -4.442290245463e-01
   168   -9.027936952955e-01
   169   -5.002626546298e-01
   170   -1.822335928744e-13
   171    1.932846761604e-03
   172    2.188805002295e-15
   173   -2.580181053703e-15
   174    1.418792140460e-03
   175    1.155930133639e-02
   176    7.210025351036e-03
   177    1.247189385714e-02
   178   -1.906185177020e-02
   179   -4.055054432751e-03
   180   -8.408269284056e-15
   181   -3.729953073547e-02
   182   -2.293511012843e-02
   183   -4.710551353061e-03
   184    1.522936880567e-15
   185   -2.473165588326e-01
   186    1.650130012211e-03
   187   -5.178211124839e-02
   188   -6.118068002994e-14
   189    8.094313111387e-02
   190   -1.096074305141e+00
   191   -9.804345172592e-01
   192    6.689112256000e-13
   193    4.173489268380e-03
   194    6.877369380430e-16
   195   -6.500297600848e-16
   196    2.232148308972e-04
   197   -5.935402318325e-03
   198   -1.443165818539e-03
   199   -5.917510817864e-03
   200    7.821350642342e-02
   201    5.140789002417e-01
   202    2.480701720159e-03
   203   -5.078433878648e-03
   204    3.931103114182e-15
Sym=X
Ene= 0.486640
Spin=Alpha
Occup=0
     1    1.757426238783e-15
     2    3.269738170522e-15
     3    9.111577564531e-15
     4   -3.200212711979e-14
     5    3.746523468605e-02
     6   -8.285464443395e-15
     7   -2.212229021128e-14
     8   -5.932742562176e-15
     9    6.439171180506e-02
    10   -2.150172226465e-13
    11    5.289413562954e-16
    12    7.414737042445e-14
    13    6.383784533765e-02
    14   -1.737000469825e-11
    15    1.968055421331e-12
    16   -8.345617848095e-12
    17    4.079599337497e-02
    18   -1.577554880127e-14
    19   -2.648281835998e-02
    20    2.268292510494e-03
    21    7.390346297483e-15
    22   -2.220029885162e-14
    23    5.205762839112e-14
    24   -1.559280757933e-13
    25    2.113232409816e-12
    26   -1.209502251148e-12
    27   -4.812687461701e-14
    28   -1.231223284547e-14
    29    1.208704382747e-02
    30    1.325014861844e-16
    31    2.252509603742e-13
    32   -7.663804785462e-13
    33   -1.680703186877e-12
    34   -2.070799685489e-14
    35    2.865778298300e-14
    36    3.794383345562e-03
    37   -8.131958052923e-15
    38   -2.585204405742e-13
    39    9.791903399020e-13
    40    3.470651569863e-13
    41    1.757938106915e-14
    42   -1.799715796892e-16
    43    1.243813788954e-02
    44    6.480173359751e-15
    45    1.334060179022e-14
    46    2.387208666595e-14
    47    3.191979885058e-14
    48   -2.653669362085e-01
    49   -1.247970681613e-13
    50    4.836684947136e-14
    51    8.721550568788e-14
    52   -4.548971701321e-01
    53    6.228289434549e-13
    54    6.965255649638e-13
    55   -3.834289871317e-13
    56   -6.429594229692e-01
    57    1.343301519389e-11
    58    2.290259155714e-12
    59   -6.188905176826e-12
    60   -1.761305624149e-01
    61    1.645087355633e-14
    62    9.497792516635e-03
    63   -1.018091484943e-05
    64   -1.513995555970e-14
    65   -2.355539185636e-14
    66   -9.314339247090e-16
    67   -1.167621854078e-15
    68   -8.491531530787e-15
    69   -5.062887102425e-16
    70    1.581417146082e-01
    71    1.807582332276e-15
    72   -2.790078511419e-14
    73   -3.084429504575e-15
    74    2.135157830953e-01
    75    7.171376101456e-14
    76    7.126846895019e-14
    77   -3.936437432914e-14
    78    2.527265235731e-01
    79    1.782100877951e-12
    80   -1.415551594479e-13
    81   -8.116636445000e-13
    82    1.082501705400e-01
    83    5.519732079612e-15
    84   -1.304404422933e-02
    85    8.458004793629e-03
    86    2.797616152929e-15
    87    3.345038968197e-15
    88   -1.399092787118e-14
    89   -2.193128561183e-14
    90    2.278895260978e-14
    91   -3.579443199500e-14
    92    2.038099727204e-02
    93    4.313601106833e-14
    94    4.588178092082e-14
    95   -8.324821713542e-14
    96    3.653681426935e-02
    97    1.641784620780e-12
    98   -1.926247519732e-13
    99   -8.876182644153e-13
   100    2.583089529365e-02
   101   -2.462648094138e-11
   102   -4.115629597208e-12
   103    6.867140283010e-12
   104    2.329673332828e-02
   105    5.740375994750e-16
   106   -1.745407931909e-02
   107    1.852627962324e-02
   108   -8.777551204523e-15
   109   -5.861224747912e-15
   110   -7.123352845741e-15
   111   -1.328221751855e-14
   112    6.747634336509e-15
   113    1.031090615777e-14
   114   -1.836315077587e-02
   115    7.071108225698e-14
   116    3.744593468906e-14
   117   -6.720874630527e-15
   118   -2.743854256703e-02
   119   -1.758443795544e-13
   120   -1.204712764706e-13
   121    1.524401079797e-13
   122   -3.232383854370e-02
   123    3.053821329178e-12
   124    4.384873298114e-13
   125   -9.036777341850e-13
   126   -2.036400521221e-02
   127    2.643223512630e-15
   128   -9.710671327463e-04
   129    9.037549096743e-04
   130    7.072608546822e-15
   131    2.688125882670e-15
   132    1.698823688089e-14
   133    2.688551466535e-14
   134    4.312953242386e-14
   135    1.681376379582e-14
   136    9.799842480402e-02
   137   -7.657160695661e-14
   138    4.927772259310e-14
   139    3.724409476546e-14
   140    1.476755383226e-01
   141   -5.610448973598e-13
   142    3.525865379583e-13
   143    3.315707697793e-13
   144    2.646198832427e-01
   145   -3.344211802017e-12
   146   -1.761136028800e-12
   147   -5.979198398348e-13
   148    1.633328801409e-01
   149    1.999697079155e-14
   150    2.280520919380e-02
   151    7.968150604873e-03
   152    4.357391151738e-15
   153   -5.443474943987e-15
   154    9.147003703652e-16
   155   -1.182623897833e-15
   156    5.330069726333e-14
   157    4.120231618151e-14
   158    8.387825797854e-02
   159    4.995978405224e-15
   160    7.641768119513e-14
   161    4.553899505072e-14
   162    1.258495181113e-01
   163   -3.691531632206e-14
   164   -4.222475230600e-14
   165    6.023510874414e-14
   166    2.372272741924e-01
   167   -6.233350395685e-12
   168    2.193474464777e-12
   169   -4.815501590096e-12
   170    1.688210759485e-01
   171   -1.744881950058e-14
   172    4.605159909680e-03
   173   -2.818968709323e-02
   174   -4.976163347454e-15
   175    2.868829120545e-14
   176   -1.377215528319e-14
   177   -2.796887451098e-14
   178    1.471250477477e-14
   179   -4.902233403234e-14
   180   -6.598411859738e-02
   181    1.327439452403e-13
   182    7.492030180778e-14
   183    2.593787663302e-14
   184   -1.052367533746e-01
   185   -8.078090887975e-13
   186   -1.705070578963e-13
   187   -1.544566621827e-12
   188   -1.738356592269e-01
   189    2.355792372656e-11
   190   -5.131571772795e-12
   191    1.201024669367e-11
   192   -1.029418588946e-01
   193   -2.795266756741e-14
   194   -3.261088603413e-03
   195   -6.092641616544e-04
   196    1.458873440070e-15
   197   -1.823100555594e-14
   198    3.297345269079e-14
   199   -9.702647638855e-14
   200    1.431009546132e-12
   201    8.546518251362e-12
   202    8.185469999936e-16
   203   -1.276924335028e-14
   204   -6.428680697083e-03
[5D]
