[Molden Format]
[Atoms] (Angs)
  C      1    6     -0.00754183     -1.75895763      0.00000000
  H      2    1     -2.09769850     -1.41880678     -0.00000000
  H      3    1     -0.13527422     -2.83956838     -0.00000000
  H      4    1      0.04053511      2.02026369      0.00000000
  C      5    6     -1.22066484      0.39918184     -0.00000000
  O      6    8     -2.25210141      1.05663720     -0.00000000
  C      7    6      1.24009552      0.27789184      0.00000000
  O      8    8      2.33767996      1.06122493      0.00000000
  N      9    7      0.03634586      1.00852936      0.00000000
  N     10    7     -1.18738304     -0.97903470     -0.00000000
  C     11    6      1.22288875     -1.12258096      0.00000000
  H     12    1      2.15640383     -1.68445878      0.00000000
[GTO]
1    0
S    6    1.000000
   4.56324000E+03    1.96665000E-03 
   6.82024000E+02    1.52306000E-02 
   1.54973000E+02    7.61269000E-02 
   4.44553000E+01    2.60801000E-01 
   1.30290000E+01    6.16462000E-01 
   1.82773000E+00    2.21006000E-01 
SP   3    1.000000
   2.09642000E+01    1.14660000E-01   4.02487000E-02 
   4.80331000E+00    9.19999000E-01   2.37594000E-01 
   1.45933000E+00   -3.03068000E-03   8.15854000E-01 
SP   1    1.000000
   4.83456000E-01    1.00000000E+00   1.00000000E+00 
SP   1    1.000000
   1.45585000E-01    1.00000000E+00   1.00000000E+00 
SP   1    1.000000
   4.38000000E-02    1.00000000E+00   1.00000000E+00 
D    1    1.000000
   6.26000000E-01    1.00000000E+00 

2    0
S    3    1.000000
   3.38650000E+01    2.54938000E-02 
   5.09479000E+00    1.90373000E-01 
   1.15879000E+00    8.52161000E-01 
S    1    1.000000
   3.25840000E-01    1.00000000E+00 
S    1    1.000000
   1.02741000E-01    1.00000000E+00 
S    1    1.000000
   3.60000000E-02    1.00000000E+00 
P    1    1.000000
   7.50000000E-01    1.00000000E+00 

3    0
S    3    1.000000
   3.38650000E+01    2.54938000E-02 
   5.09479000E+00    1.90373000E-01 
   1.15879000E+00    8.52161000E-01 
S    1    1.000000
   3.25840000E-01    1.00000000E+00 
S    1    1.000000
   1.02741000E-01    1.00000000E+00 
S    1    1.000000
   3.60000000E-02    1.00000000E+00 
P    1    1.000000
   7.50000000E-01    1.00000000E+00 

4    0
S    3    1.000000
   3.38650000E+01    2.54938000E-02 
   5.09479000E+00    1.90373000E-01 
   1.15879000E+00    8.52161000E-01 
S    1    1.000000
   3.25840000E-01    1.00000000E+00 
S    1    1.000000
   1.02741000E-01    1.00000000E+00 
S    1    1.000000
   3.60000000E-02    1.00000000E+00 
P    1    1.000000
   7.50000000E-01    1.00000000E+00 

5    0
S    6    1.000000
   4.56324000E+03    1.96665000E-03 
   6.82024000E+02    1.52306000E-02 
   1.54973000E+02    7.61269000E-02 
   4.44553000E+01    2.60801000E-01 
   1.30290000E+01    6.16462000E-01 
   1.82773000E+00    2.21006000E-01 
SP   3    1.000000
   2.09642000E+01    1.14660000E-01   4.02487000E-02 
   4.80331000E+00    9.19999000E-01   2.37594000E-01 
   1.45933000E+00   -3.03068000E-03   8.15854000E-01 
SP   1    1.000000
   4.83456000E-01    1.00000000E+00   1.00000000E+00 
SP   1    1.000000
   1.45585000E-01    1.00000000E+00   1.00000000E+00 
SP   1    1.000000
   4.38000000E-02    1.00000000E+00   1.00000000E+00 
D    1    1.000000
   6.26000000E-01    1.00000000E+00 

6    0
S    6    1.000000
   8.58850000E+03    1.89515000E-03 
   1.29723000E+03    1.43859000E-02 
   2.99296000E+02    7.07320000E-02 
   8.73771000E+01    2.40001000E-01 
   2.56789000E+01    5.94797000E-01 
   3.74004000E+00    2.80802000E-01 
SP   3    1.000000
   4.21175000E+01    1.13889000E-01   3.65114000E-02 
   9.62837000E+00    9.20811000E-01   2.37153000E-01 
   2.85332000E+00   -3.27447000E-03   8.19702000E-01 
SP   1    1.000000
   9.05661000E-01    1.00000000E+00   1.00000000E+00 
SP   1    1.000000
   2.55611000E-01    1.00000000E+00   1.00000000E+00 
SP   1    1.000000
   8.45000000E-02    1.00000000E+00   1.00000000E+00 
D    1    1.000000
   1.29200000E+00    1.00000000E+00 

7    0
S    6    1.000000
   4.56324000E+03    1.96665000E-03 
   6.82024000E+02    1.52306000E-02 
   1.54973000E+02    7.61269000E-02 
   4.44553000E+01    2.60801000E-01 
   1.30290000E+01    6.16462000E-01 
   1.82773000E+00    2.21006000E-01 
SP   3    1.000000
   2.09642000E+01    1.14660000E-01   4.02487000E-02 
   4.80331000E+00    9.19999000E-01   2.37594000E-01 
   1.45933000E+00   -3.03068000E-03   8.15854000E-01 
SP   1    1.000000
   4.83456000E-01    1.00000000E+00   1.00000000E+00 
SP   1    1.000000
   1.45585000E-01    1.00000000E+00   1.00000000E+00 
SP   1    1.000000
   4.38000000E-02    1.00000000E+00   1.00000000E+00 
D    1    1.000000
   6.26000000E-01    1.00000000E+00 

8    0
S    6    1.000000
   8.58850000E+03    1.89515000E-03 
   1.29723000E+03    1.43859000E-02 
   2.99296000E+02    7.07320000E-02 
   8.73771000E+01    2.40001000E-01 
   2.56789000E+01    5.94797000E-01 
   3.74004000E+00    2.80802000E-01 
SP   3    1.000000
   4.21175000E+01    1.13889000E-01   3.65114000E-02 
   9.62837000E+00    9.20811000E-01   2.37153000E-01 
   2.85332000E+00   -3.27447000E-03   8.19702000E-01 
SP   1    1.000000
   9.05661000E-01    1.00000000E+00   1.00000000E+00 
SP   1    1.000000
   2.55611000E-01    1.00000000E+00   1.00000000E+00 
SP   1    1.000000
   8.45000000E-02    1.00000000E+00   1.00000000E+00 
D    1    1.000000
   1.29200000E+00    1.00000000E+00 

9    0
S    6    1.000000
   6.29348000E+03    1.96979000E-03 
   9.49044000E+02    1.49613000E-02 
   2.18776000E+02    7.35006000E-02 
   6.36916000E+01    2.48937000E-01 
   1.88282000E+01    6.02460000E-01 
   2.72023000E+00    2.56202000E-01 
SP   3    1.000000
   3.06331000E+01    1.11906000E-01   3.83119000E-02 
   7.02614000E+00    9.21666000E-01   2.37403000E-01 
   2.11205000E+00   -2.56919000E-03   8.17592000E-01 
SP   1    1.000000
   6.84009000E-01    1.00000000E+00   1.00000000E+00 
SP   1    1.000000
   2.00878000E-01    1.00000000E+00   1.00000000E+00 
SP   1    1.000000
   6.39000000E-02    1.00000000E+00   1.00000000E+00 
D    1    1.000000
   9.13000000E-01    1.00000000E+00 

10    0
S    6    1.000000
   6.29348000E+03    1.96979000E-03 
   9.49044000E+02    1.49613000E-02 
   2.18776000E+02    7.35006000E-02 
   6.36916000E+01    2.48937000E-01 
   1.88282000E+01    6.02460000E-01 
   2.72023000E+00    2.56202000E-01 
SP   3    1.000000
   3.06331000E+01    1.11906000E-01   3.83119000E-02 
   7.02614000E+00    9.21666000E-01   2.37403000E-01 
   2.11205000E+00   -2.56919000E-03   8.17592000E-01 
SP   1    1.000000
   6.84009000E-01    1.00000000E+00   1.00000000E+00 
SP   1    1.000000
   2.00878000E-01    1.00000000E+00   1.00000000E+00 
SP   1    1.000000
   6.39000000E-02    1.00000000E+00   1.00000000E+00 
D    1    1.000000
   9.13000000E-01    1.00000000E+00 

11    0
S    6    1.000000
   4.56324000E+03    1.96665000E-03 
   6.82024000E+02    1.52306000E-02 
   1.54973000E+02    7.61269000E-02 
   4.44553000E+01    2.60801000E-01 
   1.30290000E+01    6.16462000E-01 
   1.82773000E+00    2.21006000E-01 
SP   3    1.000000
   2.09642000E+01    1.14660000E-01   4.02487000E-02 
   4.80331000E+00    9.19999000E-01   2.37594000E-01 
   1.45933000E+00   -3.03068000E-03   8.15854000E-01 
SP   1    1.000000
   4.83456000E-01    1.00000000E+00   1.00000000E+00 
SP   1    1.000000
   1.45585000E-01    1.00000000E+00   1.00000000E+00 
SP   1    1.000000
   4.38000000E-02    1.00000000E+00   1.00000000E+00 
D    1    1.000000
   6.26000000E-01    1.00000000E+00 

12    0
S    3    1.000000
   3.38650000E+01    2.54938000E-02 
   5.09479000E+00    1.90373000E-01 
   1.15879000E+00    8.52161000E-01 
S    1    1.000000
   3.25840000E-01    1.00000000E+00 
S    1    1.000000
   1.02741000E-01    1.00000000E+00 
S    1    1.000000
   3.60000000E-02    1.00000000E+00 
P    1    1.000000
   7.50000000E-01    1.00000000E+00 

[MO]
Sym=X
Ene= -0.002092
Spin=Alpha
Occup=1
     1    2.972914955965e-07
     2   -1.770272772762e-07
     3    2.912640959407e-06
     4   -3.490125383272e-06
     5    4.789960031563e-16
     6    4.050447203873e-06
     7   -9.519023907551e-06
     8    1.156337764511e-05
     9   -8.658171372961e-16
    10    1.889819169318e-04
    11   -2.131303075496e-05
    12    1.102866039013e-07
    13    2.277221546832e-16
    14   -3.287677040628e-04
    15   -4.347407691858e-04
    16   -4.784283252233e-05
    17   -7.001626103712e-15
    18   -3.607457136410e-06
    19   -1.501278010747e-16
    20    5.445495412632e-16
    21   -2.452536383738e-06
    22   -1.381748562124e-06
    23   -3.106024397646e-06
    24   -4.741633840645e-05
    25   -1.124048095524e-04
    26   -2.363615612311e-04
    27   -1.159555165876e-05
    28    1.290690053430e-06
    29   -6.928703461906e-16
    30    3.751081655076e-06
    31   -2.156835432998e-05
    32    7.709218054304e-06
    33   -1.818355727194e-05
    34    6.506760957846e-07
    35   -3.089734631214e-06
    36    1.172164867765e-15
    37   -9.957453764664e-07
    38   -4.188642426745e-05
    39   -5.338931337507e-06
    40   -2.749083783652e-04
    41   -1.269219381069e-05
    42    2.123084961806e-06
    43   -4.453910090199e-16
    44    3.261922740500e-07
    45    7.659260006114e-05
    46    6.614527764074e-05
    47   -3.087412101655e-05
    48   -1.807152397977e-15
    49   -2.760696339216e-04
    50    3.544478803056e-04
    51   -2.259875870881e-04
    52    2.729707178906e-15
    53    1.598560463613e-04
    54    1.913952127840e-04
    55   -3.231007738443e-04
    56   -4.463269724400e-15
    57   -3.694298654306e-04
    58   -5.622320584132e-04
    59    4.143969128829e-04
    60   -1.604787804165e-15
    61    4.153597439429e-05
    62   -8.371626094243e-16
    63    7.511992144156e-17
    64   -9.881446373630e-05
    65    1.830763270808e-04
    66   -5.515408194040e-01
    67   -4.716646746264e-01
    68   -1.422146063287e-03
    69    1.020982264271e-03
    70   -8.300792227614e-16
    71   -5.306975606696e-03
    72    5.653446668280e-04
    73   -4.335672098727e-04
    74    7.191960609452e-16
    75    9.370474371066e-04
    76   -1.675084137748e-04
    77    1.672595577841e-04
    78   -7.459684651688e-16
    79   -1.369774906943e-03
    80   -6.414666128519e-05
    81   -1.068120634478e-06
    82    1.083496932166e-15
    83    2.037880220362e-04
    84   -1.339695187328e-16
    85    1.117917298545e-15
    86    2.475070484341e-05
    87   -6.560820290878e-05
    88    9.773739925851e-07
    89    1.463671535681e-06
    90    4.364191573354e-06
    91   -2.590766317131e-06
    92    7.960538340057e-16
    93   -1.482734644282e-05
    94   -5.732785088787e-06
    95    9.778540049739e-06
    96    1.119290778040e-16
    97    2.369785625110e-04
    98   -1.510662339762e-04
    99    3.216208188992e-05
   100   -6.212663272777e-16
   101   -8.664535935632e-04
   102   -1.122964221198e-04
   103    6.876192145051e-04
   104   -2.753208596905e-15
   105    8.063895243819e-07
   106    3.004624607077e-16
   107    3.467447936063e-16
   108    3.079792483778e-06
   109   -1.443538008392e-06
   110   -1.967825196317e-05
   111   -1.947288469869e-05
   112   -1.503571300371e-06
   113    8.177574826084e-07
   114   -8.942601057877e-16
   115    7.292564835486e-06
   116   -1.974022199813e-06
   117   -3.798128896108e-07
   118    2.194163402229e-15
   119   -2.252124203058e-05
   120    9.939809484360e-06
   121    1.794219860857e-06
   122   -1.673795796672e-15
   123    1.874732863936e-04
   124   -8.909545269975e-05
   125   -5.910484694458e-05
   126    6.275212230576e-16
   127   -2.909822087425e-06
   128    2.926062489571e-16
   129   -2.058390852533e-16
   130   -1.517220403141e-06
   131   -5.704973647549e-07
   132   -1.955201387178e-06
   133   -3.541310849619e-06
   134   -1.798681054912e-05
   135    1.474203436214e-06
   136    3.997178356627e-16
   137    3.324556409552e-05
   138    2.241253108883e-05
   139   -2.012139500560e-06
   140   -1.804673880826e-15
   141   -1.973742613420e-04
   142   -9.032419332047e-05
   143    2.055519078454e-04
   144    3.469612594927e-15
   145    4.430633400740e-06
   146   -5.051702576365e-04
   147   -2.795648644438e-05
   148    1.138203799300e-15
   149   -9.731058922280e-07
   150    2.145437442655e-16
   151    1.126016112691e-15
   152   -1.941106993220e-05
   153   -7.322705950938e-06
   154   -2.279642470514e-07
   155    4.638598200052e-08
   156   -5.289942012575e-06
   157    1.378703750090e-05
   158   -8.853485837959e-16
   159    1.382090226335e-05
   160    1.518721500256e-05
   161   -4.523651651045e-05
   162    2.188749116205e-16
   163   -2.650357965737e-04
   164   -1.552418102017e-04
   165   -9.173927979573e-05
   166    8.872164932228e-16
   167    5.131469129623e-05
   168   -2.612581235882e-04
   169    2.244291088716e-04
   170    5.355269203728e-15
   171    1.517289198361e-05
   172   -1.772704283008e-16
   173   -3.244912714433e-16
   174    2.658308045022e-05
   175    1.679259242790e-05
   176   -9.588968883466e-08
   177    6.176665060355e-07
   178   -2.114048929261e-06
   179    1.312087903628e-06
   180    1.398323785173e-17
   181   -6.261838863381e-06
   182    9.701379583151e-06
   183   -1.044558096550e-05
   184    1.408002069144e-15
   185   -2.754569339766e-05
   186    2.154523695459e-05
   187    1.485740318513e-05
   188   -2.941530117361e-15
   189    2.463896786058e-03
   190   -3.320346429412e-04
   191    2.927859721212e-04
   192    7.341929450616e-15
   193   -2.516145038289e-06
   194    4.728827012180e-16
   195    7.203681790328e-17
   196    1.117666974391e-07
   197    1.656529449312e-06
   198   -2.908296612858e-07
   199   -5.420970768871e-06
   200    3.803201117822e-06
   201    1.317840564728e-04
   202    1.349925474578e-06
   203   -1.589774553320e-06
   204    9.869233769745e-16
Sym=X
Ene= 0.002092
Spin=Alpha
Occup=0
     1   -3.426089814601e-06
     2   -7.369055791490e-06
     3   -6.640772751115e-07
     4    2.523822670819e-06
     5   -2.793443529315e-16
     6    3.970425438913e-05
     7    6.127596934779e-05
     8   -4.443273339270e-06
     9    7.726045102144e-16
    10   -6.323773390209e-04
    11   -3.072679021858e-04
    12   -5.099069096902e-04
    13   -6.444481012554e-15
    14   -6.131749585555e-03
    15   -2.494342412872e-03
    16   -5.492377518284e-04
    17    8.651785388052e-15
    18    4.066140511130e-06
    19   -9.064383851888e-16
    20   -1.083345813660e-15
    21   -2.571914078844e-05
    22    1.164358757004e-05
    23   -9.639090033053e-06
    24    1.583639105033e-04
    25   -3.404443060981e-04
    26   -4.876804824442e-04
    27    3.112094241242e-08
    28   -4.659197541671e-06
    29   -1.072992034088e-15
    30    5.305718516957e-06
    31   -1.127442190003e-04
    32   -1.321590627300e-04
    33   -4.022864716026e-04
    34    1.098703307450e-05
    35   -2.023149209778e-05
    36    1.585441569198e-15
    37   -3.542432736022e-05
    38    1.162443933460e-04
    39   -7.554365479138e-04
    40    1.704924479532e-04
    41    2.194624675332e-05
    42   -2.103368391491e-06
    43    8.998237538935e-16
    44   -3.711491169629e-06
    45   -8.544514316498e-06
    46    1.479460709531e-05
    47    2.337847063701e-06
    48    8.449632837547e-16
    49    6.686593000068e-05
    50   -6.526793588489e-06
    51    4.137925185639e-05
    52   -9.032959958708e-16
    53   -6.514160683078e-04
    54   -6.788548824567e-04
    55   -1.528741851374e-04
    56   -1.791871074312e-15
    57   -3.878296823418e-03
    58   -1.384064935482e-03
    59    1.270928071680e-04
    60    9.246489532243e-15
    61    2.321494646637e-05
    62    6.368689969934e-16
    63   -7.452367724373e-16
    64    1.119631271026e-05
    65   -1.305957197024e-05
    66   -1.836854242963e-05
    67   -1.746775358721e-05
    68   -1.120023113456e-05
    69    1.187449593210e-07
    70    3.854461475748e-16
    71   -5.103310713758e-06
    72    2.705528574960e-06
    73   -1.387300743915e-05
    74   -1.369643810234e-15
    75   -4.541448237341e-05
    76   -5.206000108176e-05
    77    9.460868302761e-05
    78    3.704565486377e-15
    79   -8.202146989733e-04
    80   -1.348941143739e-04
    81    3.950175937892e-05
    82   -5.455532348897e-15
    83    7.226092717295e-06
    84   -4.206160040033e-16
    85   -1.934760947061e-16
    86    3.559230518955e-06
    87    5.398947492891e-06
    88   -3.004565720468e-05
    89   -6.262144678788e-05
    90    1.913032867304e-04
    91    1.524408802611e-04
    92   -5.954674946436e-17
    93    4.176119266446e-04
    94    6.534956622371e-05
    95   -2.334039050193e-05
    96    3.059177654146e-16
    97   -1.456368745368e-03
    98   -6.580274800433e-04
    99   -2.503618493002e-05
   100   -3.711446412137e-15
   101    1.921923413972e-02
   102   -3.060091100270e-04
   103   -3.971921185873e-03
   104    7.182947811921e-15
   105   -3.741326785617e-04
   106   -3.862358690835e-16
   107   -8.311773785754e-16
   108   -9.465098691012e-06
   109    6.214986955476e-05
   110    5.517847333430e-01
   111    4.716926041703e-01
   112   -1.027805440137e-03
   113   -7.471818666079e-04
   114   -7.867815467091e-16
   115    4.288936218898e-03
   116    4.195967075025e-04
   117    3.350837112433e-04
   118   -2.644541003900e-16
   119    3.026786080336e-04
   120   -4.532129719787e-04
   121   -4.184309241882e-04
   122    2.373401356041e-15
   123    1.381964020351e-03
   124   -1.059722342205e-03
   125   -3.154789202259e-04
   126   -1.713415068647e-15
   127   -3.304542052722e-04
   128   -1.431705561711e-16
   129   -3.191780053592e-16
   130   -4.934136873975e-05
   131   -1.685331038376e-04
   132    5.496746628580e-06
   133    1.461920814101e-05
   134   -2.559139782294e-05
   135   -1.542674611778e-05
   136    9.541339354371e-16
   137   -3.640185166613e-05
   138    2.304910220162e-05
   139    1.360096791277e-05
   140   -1.360624929699e-15
   141    1.767553836155e-04
   142   -5.867565058375e-04
   143   -1.149668031353e-04
   144    3.014899806196e-15
   145   -4.645877191259e-04
   146   -1.946166509484e-03
   147    7.383526961714e-04
   148   -4.587480287610e-15
   149    1.782259677094e-05
   150    9.761786916178e-16
   151    1.357882018345e-17
   152    2.398166269607e-05
   153    3.856031482364e-05
   154   -3.774489235515e-08
   155    4.737443812711e-06
   156    1.149097565529e-06
   157   -5.698431173737e-06
   158    1.612718880614e-16
   159   -6.125997476797e-05
   160   -1.795384192983e-05
   161    9.501492434754e-06
   162   -2.575726591111e-16
   163    3.437626204642e-04
   164    3.611378661968e-04
   165    6.439040777093e-05
   166    3.472309970442e-15
   167    5.621347677203e-04
   168   -2.983584189491e-04
   169    3.639981008347e-04
   170   -5.329811463367e-15
   171    1.080091858701e-06
   172   -4.172701103010e-16
   173    3.393774446524e-17
   174   -4.368900788830e-06
   175   -1.010475891207e-05
   176    3.755649593588e-06
   177    2.044088732944e-05
   178   -3.168745655997e-05
   179   -1.365383104253e-05
   180    6.544524593477e-16
   181   -2.378797789270e-05
   182    2.849773811021e-05
   183   -3.607804112890e-05
   184   -2.327552990001e-15
   185    3.449094557009e-04
   186   -5.296586527598e-04
   187   -2.561675771835e-04
   188    8.259794165731e-15
   189   -6.747788959147e-03
   190   -2.278833634394e-03
   191   -5.157156634379e-03
   192   -1.311118715291e-14
   193    5.430182257970e-05
   194   -5.339356071506e-16
   195    3.629100614545e-16
   196    5.339526818329e-05
   197    6.907370287175e-05
   198   -4.008101770374e-05
   199    1.415710247624e-04
   200   -2.711689992016e-04
   201    9.007129861782e-05
   202   -1.568105636234e-05
   203    1.622250946653e-05
   204   -2.757018882957e-16
[5D]
