[Molden Format]
[Atoms] (Angs)
  C      1    6     -0.00754183     -1.75895763      0.00000000
  H      2    1     -2.09769850     -1.41880678     -0.00000000
  H      3    1     -0.13527422     -2.83956838     -0.00000000
  H      4    1      0.04053511      2.02026369      0.00000000
  C      5    6     -1.22066484      0.39918184     -0.00000000
  O      6    8     -2.25210141      1.05663720     -0.00000000
  C      7    6      1.24009552      0.27789184      0.00000000
  O      8    8      2.33767996      1.06122493      0.00000000
  N      9    7      0.03634586      1.00852936      0.00000000
  N     10    7     -1.18738304     -0.97903470     -0.00000000
  C     11    6      1.22288875     -1.12258096      0.00000000
  H     12    1      2.15640383     -1.68445878      0.00000000
[GTO]
1    0
S    6    1.000000
   4.56324000E+03    1.96665000E-03 
   6.82024000E+02    1.52306000E-02 
   1.54973000E+02    7.61269000E-02 
   4.44553000E+01    2.60801000E-01 
   1.30290000E+01    6.16462000E-01 
   1.82773000E+00    2.21006000E-01 
SP   3    1.000000
   2.09642000E+01    1.14660000E-01   4.02487000E-02 
   4.80331000E+00    9.19999000E-01   2.37594000E-01 
   1.45933000E+00   -3.03068000E-03   8.15854000E-01 
SP   1    1.000000
   4.83456000E-01    1.00000000E+00   1.00000000E+00 
SP   1    1.000000
   1.45585000E-01    1.00000000E+00   1.00000000E+00 
SP   1    1.000000
   4.38000000E-02    1.00000000E+00   1.00000000E+00 
D    1    1.000000
   6.26000000E-01    1.00000000E+00 

2    0
S    3    1.000000
   3.38650000E+01    2.54938000E-02 
   5.09479000E+00    1.90373000E-01 
   1.15879000E+00    8.52161000E-01 
S    1    1.000000
   3.25840000E-01    1.00000000E+00 
S    1    1.000000
   1.02741000E-01    1.00000000E+00 
S    1    1.000000
   3.60000000E-02    1.00000000E+00 
P    1    1.000000
   7.50000000E-01    1.00000000E+00 

3    0
S    3    1.000000
   3.38650000E+01    2.54938000E-02 
   5.09479000E+00    1.90373000E-01 
   1.15879000E+00    8.52161000E-01 
S    1    1.000000
   3.25840000E-01    1.00000000E+00 
S    1    1.000000
   1.02741000E-01    1.00000000E+00 
S    1    1.000000
   3.60000000E-02    1.00000000E+00 
P    1    1.000000
   7.50000000E-01    1.00000000E+00 

4    0
S    3    1.000000
   3.38650000E+01    2.54938000E-02 
   5.09479000E+00    1.90373000E-01 
   1.15879000E+00    8.52161000E-01 
S    1    1.000000
   3.25840000E-01    1.00000000E+00 
S    1    1.000000
   1.02741000E-01    1.00000000E+00 
S    1    1.000000
   3.60000000E-02    1.00000000E+00 
P    1    1.000000
   7.50000000E-01    1.00000000E+00 

5    0
S    6    1.000000
   4.56324000E+03    1.96665000E-03 
   6.82024000E+02    1.52306000E-02 
   1.54973000E+02    7.61269000E-02 
   4.44553000E+01    2.60801000E-01 
   1.30290000E+01    6.16462000E-01 
   1.82773000E+00    2.21006000E-01 
SP   3    1.000000
   2.09642000E+01    1.14660000E-01   4.02487000E-02 
   4.80331000E+00    9.19999000E-01   2.37594000E-01 
   1.45933000E+00   -3.03068000E-03   8.15854000E-01 
SP   1    1.000000
   4.83456000E-01    1.00000000E+00   1.00000000E+00 
SP   1    1.000000
   1.45585000E-01    1.00000000E+00   1.00000000E+00 
SP   1    1.000000
   4.38000000E-02    1.00000000E+00   1.00000000E+00 
D    1    1.000000
   6.26000000E-01    1.00000000E+00 

6    0
S    6    1.000000
   8.58850000E+03    1.89515000E-03 
   1.29723000E+03    1.43859000E-02 
   2.99296000E+02    7.07320000E-02 
   8.73771000E+01    2.40001000E-01 
   2.56789000E+01    5.94797000E-01 
   3.74004000E+00    2.80802000E-01 
SP   3    1.000000
   4.21175000E+01    1.13889000E-01   3.65114000E-02 
   9.62837000E+00    9.20811000E-01   2.37153000E-01 
   2.85332000E+00   -3.27447000E-03   8.19702000E-01 
SP   1    1.000000
   9.05661000E-01    1.00000000E+00   1.00000000E+00 
SP   1    1.000000
   2.55611000E-01    1.00000000E+00   1.00000000E+00 
SP   1    1.000000
   8.45000000E-02    1.00000000E+00   1.00000000E+00 
D    1    1.000000
   1.29200000E+00    1.00000000E+00 

7    0
S    6    1.000000
   4.56324000E+03    1.96665000E-03 
   6.82024000E+02    1.52306000E-02 
   1.54973000E+02    7.61269000E-02 
   4.44553000E+01    2.60801000E-01 
   1.30290000E+01    6.16462000E-01 
   1.82773000E+00    2.21006000E-01 
SP   3    1.000000
   2.09642000E+01    1.14660000E-01   4.02487000E-02 
   4.80331000E+00    9.19999000E-01   2.37594000E-01 
   1.45933000E+00   -3.03068000E-03   8.15854000E-01 
SP   1    1.000000
   4.83456000E-01    1.00000000E+00   1.00000000E+00 
SP   1    1.000000
   1.45585000E-01    1.00000000E+00   1.00000000E+00 
SP   1    1.000000
   4.38000000E-02    1.00000000E+00   1.00000000E+00 
D    1    1.000000
   6.26000000E-01    1.00000000E+00 

8    0
S    6    1.000000
   8.58850000E+03    1.89515000E-03 
   1.29723000E+03    1.43859000E-02 
   2.99296000E+02    7.07320000E-02 
   8.73771000E+01    2.40001000E-01 
   2.56789000E+01    5.94797000E-01 
   3.74004000E+00    2.80802000E-01 
SP   3    1.000000
   4.21175000E+01    1.13889000E-01   3.65114000E-02 
   9.62837000E+00    9.20811000E-01   2.37153000E-01 
   2.85332000E+00   -3.27447000E-03   8.19702000E-01 
SP   1    1.000000
   9.05661000E-01    1.00000000E+00   1.00000000E+00 
SP   1    1.000000
   2.55611000E-01    1.00000000E+00   1.00000000E+00 
SP   1    1.000000
   8.45000000E-02    1.00000000E+00   1.00000000E+00 
D    1    1.000000
   1.29200000E+00    1.00000000E+00 

9    0
S    6    1.000000
   6.29348000E+03    1.96979000E-03 
   9.49044000E+02    1.49613000E-02 
   2.18776000E+02    7.35006000E-02 
   6.36916000E+01    2.48937000E-01 
   1.88282000E+01    6.02460000E-01 
   2.72023000E+00    2.56202000E-01 
SP   3    1.000000
   3.06331000E+01    1.11906000E-01   3.83119000E-02 
   7.02614000E+00    9.21666000E-01   2.37403000E-01 
   2.11205000E+00   -2.56919000E-03   8.17592000E-01 
SP   1    1.000000
   6.84009000E-01    1.00000000E+00   1.00000000E+00 
SP   1    1.000000
   2.00878000E-01    1.00000000E+00   1.00000000E+00 
SP   1    1.000000
   6.39000000E-02    1.00000000E+00   1.00000000E+00 
D    1    1.000000
   9.13000000E-01    1.00000000E+00 

10    0
S    6    1.000000
   6.29348000E+03    1.96979000E-03 
   9.49044000E+02    1.49613000E-02 
   2.18776000E+02    7.35006000E-02 
   6.36916000E+01    2.48937000E-01 
   1.88282000E+01    6.02460000E-01 
   2.72023000E+00    2.56202000E-01 
SP   3    1.000000
   3.06331000E+01    1.11906000E-01   3.83119000E-02 
   7.02614000E+00    9.21666000E-01   2.37403000E-01 
   2.11205000E+00   -2.56919000E-03   8.17592000E-01 
SP   1    1.000000
   6.84009000E-01    1.00000000E+00   1.00000000E+00 
SP   1    1.000000
   2.00878000E-01    1.00000000E+00   1.00000000E+00 
SP   1    1.000000
   6.39000000E-02    1.00000000E+00   1.00000000E+00 
D    1    1.000000
   9.13000000E-01    1.00000000E+00 

11    0
S    6    1.000000
   4.56324000E+03    1.96665000E-03 
   6.82024000E+02    1.52306000E-02 
   1.54973000E+02    7.61269000E-02 
   4.44553000E+01    2.60801000E-01 
   1.30290000E+01    6.16462000E-01 
   1.82773000E+00    2.21006000E-01 
SP   3    1.000000
   2.09642000E+01    1.14660000E-01   4.02487000E-02 
   4.80331000E+00    9.19999000E-01   2.37594000E-01 
   1.45933000E+00   -3.03068000E-03   8.15854000E-01 
SP   1    1.000000
   4.83456000E-01    1.00000000E+00   1.00000000E+00 
SP   1    1.000000
   1.45585000E-01    1.00000000E+00   1.00000000E+00 
SP   1    1.000000
   4.38000000E-02    1.00000000E+00   1.00000000E+00 
D    1    1.000000
   6.26000000E-01    1.00000000E+00 

12    0
S    3    1.000000
   3.38650000E+01    2.54938000E-02 
   5.09479000E+00    1.90373000E-01 
   1.15879000E+00    8.52161000E-01 
S    1    1.000000
   3.25840000E-01    1.00000000E+00 
S    1    1.000000
   1.02741000E-01    1.00000000E+00 
S    1    1.000000
   3.60000000E-02    1.00000000E+00 
P    1    1.000000
   7.50000000E-01    1.00000000E+00 

[MO]
Sym=X
Ene= -0.487055
Spin=Alpha
Occup=1
     1    3.862500617732e-16
     2    3.476725029380e-15
     3   -7.610986829354e-15
     4   -2.660541987816e-14
     5    1.061840887723e-01
     6   -1.315965101240e-14
     7    4.625672644792e-14
     8   -4.737023876393e-14
     9    1.735777673603e-01
    10   -3.992902384637e-13
    11   -5.763616803754e-13
    12   -3.371696601827e-13
    13    2.607534863033e-01
    14    2.530285476367e-11
    15    4.774524952793e-12
    16    4.816556183166e-12
    17    1.157571664220e-01
    18   -5.990942013390e-15
    19    1.060625759648e-02
    20   -3.318704117240e-03
    21    9.455652482351e-15
    22    4.417364050811e-15
    23    7.370474561855e-15
    24   -8.519929275010e-14
    25    4.651107744830e-13
    26   -1.555192132659e-12
    27   -9.678898098484e-15
    28   -5.295661162756e-15
    29   -8.408663287862e-03
    30   -1.377451382646e-14
    31    5.053716693913e-14
    32   -8.297795169207e-13
    33    1.305913432751e-12
    34   -2.802203593898e-15
    35    8.793332519015e-15
    36    1.069616976340e-02
    37   -3.244767936010e-14
    38    6.939811785929e-14
    39   -2.036020607342e-12
    40    1.606209981474e-12
    41   -2.848455468123e-15
    42   -1.701176888671e-14
    43    1.196162699884e-02
    44   -2.383877964888e-15
    45   -3.632361300030e-15
    46   -1.923259135054e-14
    47   -1.625983065240e-14
    48    1.191208598045e-02
    49   -1.312308525119e-14
    50   -1.101483607050e-14
    51    1.972985252547e-14
    52    2.120236112178e-02
    53    6.842616446140e-13
    54   -7.063948468523e-13
    55   -4.246061398463e-13
    56    1.604780944771e-02
    57   -2.472447129742e-12
    58   -2.376034440461e-12
    59   -1.975627696915e-12
    60   -4.033909072801e-03
    61   -9.978739336864e-15
    62    1.717704190093e-02
    63    1.881472913158e-02
    64   -1.362536566652e-14
    65   -4.206022099345e-15
    66   -9.718230737121e-16
    67   -1.849882502067e-15
    68   -1.124627877346e-15
    69   -1.206643188963e-14
    70   -1.309107458509e-02
    71    1.119858634566e-14
    72    6.203837125176e-15
    73   -1.646696473173e-14
    74   -1.990454233105e-02
    75   -8.485181713733e-14
    76   -1.234008415122e-13
    77    1.668035694222e-15
    78   -2.507494108054e-02
    79   -8.687784789271e-13
    80   -7.719697697232e-14
    81    7.210867156435e-13
    82   -1.185975888332e-02
    83   -1.046734407594e-15
    84    6.583175432660e-04
    85    1.051738467643e-03
    86   -8.739417149979e-16
    87   -2.163871638327e-15
    88   -9.820318761712e-15
    89   -1.708538489796e-14
    90   -1.254192074555e-14
    91   -3.493263632533e-14
    92   -2.111447882809e-01
    93    7.381915117084e-14
    94   -4.178337446672e-14
    95   -4.336030700245e-14
    96   -3.586822092215e-01
    97   -1.926289686282e-13
    98    3.577253637960e-13
    99   -6.899571730239e-13
   100   -5.008775291979e-01
   101   -7.539456280981e-12
   102    2.220016649365e-12
   103    6.371049461548e-14
   104   -1.679907608445e-01
   105    2.222359054561e-14
   106   -4.783963099020e-03
   107    1.279728761685e-02
   108   -8.035145376006e-15
   109    1.858276383167e-14
   110    1.124628081328e-16
   111    2.521639680316e-15
   112    8.489296339358e-15
   113    1.281962240485e-15
   114    2.046253183450e-01
   115   -1.047502637288e-14
   116    4.014973344684e-16
   117    1.519943373942e-14
   118    2.741162581394e-01
   119    1.927861532522e-14
   120    1.219396324417e-14
   121    3.413427667258e-14
   122    2.617784011276e-01
   123   -4.249469064718e-13
   124   -1.068537619466e-13
   125   -1.933617666967e-13
   126    5.770404772480e-02
   127    8.892834278105e-16
   128    5.056214800973e-03
   129    5.225229424404e-03
   130    5.518767868060e-16
   131   -3.791617640787e-15
   132    8.483537976679e-15
   133    2.009912717621e-14
   134   -3.181240795127e-14
   135    2.839970059835e-14
   136    8.961871674947e-02
   137   -5.478550520771e-14
   138   -3.116274563226e-14
   139    3.527823696624e-14
   140    1.375867159372e-01
   141   -2.429037440416e-13
   142   -1.422087607965e-13
   143   -1.998707737380e-14
   144    2.380116046254e-01
   145    1.246519025580e-11
   146    2.126156464672e-13
   147   -1.014439591089e-12
   148    1.643519159953e-01
   149    1.580641594407e-14
   150   -1.723239194526e-02
   151    8.588041049506e-03
   152    6.508675337258e-15
   153   -4.490850358010e-15
   154   -1.097506519605e-14
   155   -1.901657327574e-14
   156    1.013174905916e-14
   157   -2.533311999439e-16
   158   -6.641144346092e-02
   159    1.948364779376e-14
   160   -1.951422897860e-14
   161    1.018329873885e-14
   162   -1.022727395673e-01
   163    6.566772583674e-13
   164    2.510412374806e-13
   165   -1.540274849407e-13
   166   -1.660521445830e-01
   167   -8.504995155048e-12
   168   -2.281761989967e-12
   169   -1.186013943504e-12
   170   -1.180954586925e-01
   171   -1.673956586933e-14
   172    8.281647506395e-03
   173   -5.704586743485e-03
   174   -1.290052090063e-14
   175    4.974750695125e-15
   176    1.020512452827e-14
   177    1.866106649136e-14
   178   -4.653606588845e-14
   179   -1.648916416141e-14
   180    1.053796401777e-03
   181   -3.681006716549e-14
   182   -5.437799130790e-14
   183   -1.498874983639e-14
   184    2.324768255361e-03
   185   -3.855522380075e-13
   186   -1.049251050146e-12
   187   -6.183213726455e-13
   188    6.373793149617e-02
   189   -1.857931277214e-11
   190    3.720512876991e-12
   191    3.858927059336e-12
   192    4.319298464031e-02
   193   -5.725051730454e-15
   194   -1.613351492305e-02
   195   -3.515696700188e-02
   196   -1.652272372071e-14
   197   -1.329497103181e-14
   198    1.607263079332e-14
   199    8.651454979150e-14
   200    1.592859652303e-12
   201    1.139515049936e-14
   202   -6.212379341189e-16
   203   -2.176487776533e-15
   204    1.361456715996e-03
Sym=X
Ene= 0.487055
Spin=Alpha
Occup=0
     1   -6.527110869110e-15
     2   -1.405230084769e-14
     3    9.514582988724e-15
     4    4.946580925860e-15
     5   -1.178354825841e-02
     6    3.913151046210e-14
     7   -1.460859206382e-15
     8    3.761948675702e-15
     9   -1.344979251121e-02
    10    5.382179602859e-13
    11    2.385121475471e-13
    12    4.418717956383e-13
    13   -2.848150569422e-02
    14    2.492386433478e-12
    15    3.204939936110e-13
    16    2.291927888748e-12
    17    7.121071268215e-01
    18    9.226275585211e-15
    19   -6.132496106772e-03
    20   -7.757399758735e-03
    21   -8.283100547577e-15
    22   -8.603566793911e-15
    23    8.465450173990e-15
    24   -6.811217657527e-14
    25    4.488408013481e-13
    26    2.410794601527e-12
    27   -2.245838288807e-15
    28    4.371576584188e-15
    29    1.011046019523e-03
    30    5.692585726194e-15
    31   -5.823088393263e-14
    32    9.838706942034e-13
    33    8.810741661976e-13
    34   -2.298914437540e-15
    35    3.625702615031e-15
    36    3.272203749703e-03
    37    1.096020205911e-14
    38   -1.216158752951e-13
    39    1.627858316890e-12
    40   -2.016175855223e-12
    41    2.720187857291e-15
    42    8.949334205413e-15
    43    3.201601521435e-03
    44    7.602440691523e-15
    45    6.804162776743e-15
    46    1.601388037385e-14
    47    2.814164299757e-14
    48   -3.967865007801e-02
    49   -8.990232011642e-15
    50    8.641747615542e-15
    51    1.635533732502e-14
    52   -7.547244701263e-02
    53   -4.694009484130e-13
    54    8.021375882283e-13
    55    4.866427454692e-13
    56   -7.780246637850e-02
    57   -4.584086469167e-12
    58    1.000754740283e-12
    59    3.639251236658e-12
    60    6.207935359428e-01
    61    1.486972027750e-15
    62   -7.001656676023e-03
    63    2.796663876148e-03
    64    3.477757706202e-15
    65    3.362136717795e-16
    66    4.843324634388e-16
    67   -8.445969766743e-16
    68    3.960638713327e-15
    69    5.133737283499e-15
    70    5.382905157622e-03
    71    9.549527378066e-16
    72    8.432522609407e-16
    73    3.767318516079e-16
    74    3.444451752519e-03
    75    7.418010167724e-14
    76    6.631641439746e-14
    77   -1.900065605912e-14
    78    3.407946707756e-02
    79    9.364677060184e-13
    80    3.725648364621e-14
    81   -7.491361604783e-13
    82   -7.229210451812e-02
    83    2.106564608490e-16
    84   -2.417296312732e-03
    85    1.716247504876e-03
    86    4.202196208934e-16
    87    2.267766124503e-15
    88    2.997216261655e-15
    89    8.168233916024e-15
    90    1.430914131932e-14
    91    1.229593780169e-14
    92   -3.557714763128e-02
    93   -4.343334542034e-14
    94    2.906183008515e-14
    95   -2.304706842323e-14
    96   -5.172704122296e-02
    97    5.345356986552e-13
    98   -2.953579638330e-13
    99    1.763671323047e-13
   100   -9.489114184805e-02
   101    1.708643238912e-11
   102   -3.841334782677e-12
   103   -8.286066723202e-13
   104    1.572676738747e+00
   105   -1.565651868443e-14
   106   -7.471563483954e-04
   107    5.299192904431e-03
   108   -1.034548307314e-15
   109   -1.407797233380e-14
   110    1.506588147077e-16
   111    4.647219044887e-16
   112   -6.820824264922e-15
   113    6.075874291330e-15
   114   -4.034856272412e-02
   115   -6.290642524349e-15
   116   -5.870105458341e-16
   117    3.675281454235e-15
   118   -6.015514284535e-02
   119    6.530715353826e-14
   120   -7.202993816257e-14
   121    2.555304284693e-15
   122   -3.475965865387e-02
   123    1.817731379884e-13
   124    1.763686951067e-13
   125   -2.700314083257e-14
   126   -8.603824093348e-02
   127   -8.894240220729e-16
   128    3.640417190077e-03
   129    2.934109458416e-03
   130    1.060529438029e-15
   131    3.005405253896e-15
   132   -5.220769686315e-15
   133   -1.353057335361e-14
   134    2.664429124905e-14
   135   -1.263426896784e-14
   136   -1.958560261397e-02
   137    2.725364323408e-14
   138    1.997397351756e-14
   139   -2.650576853805e-14
   140   -4.669286133622e-02
   141    1.144750698244e-13
   142    2.859318532526e-13
   143    1.656418946333e-13
   144    2.586279472994e-02
   145   -1.071267017171e-11
   146   -7.308896112069e-13
   147    4.670540059109e-13
   148   -5.697494632181e-01
   149   -8.717091759939e-15
   150    3.478187072190e-03
   151    5.006534247656e-03
   152   -3.390658448910e-15
   153   -1.458345204120e-15
   154    5.118977166130e-15
   155    1.061615779065e-14
   156   -7.936700314435e-15
   157    1.483520440970e-14
   158   -1.022865630220e-02
   159    2.484883563875e-15
   160   -2.875446815973e-15
   161    1.725716379965e-14
   162   -2.939916970305e-02
   163   -5.406406762216e-13
   164   -2.673091045386e-13
   165    1.776862915234e-13
   166    3.977166624550e-02
   167    5.265508265390e-12
   168    1.315201736793e-12
   169    1.702019915956e-12
   170   -4.860532919108e-01
   171    1.096984821287e-14
   172   -6.126392273952e-04
   173   -4.541581320715e-03
   174    8.665040390786e-15
   175    9.587808973457e-16
   176   -5.752516985661e-15
   177   -5.123062021934e-15
   178    3.436109214921e-14
   179    1.259042463470e-14
   180   -5.813790177441e-02
   181    3.165346576037e-14
   182    2.746294042527e-14
   183    9.486471018983e-15
   184   -8.143941553560e-02
   185   -1.031896586173e-13
   186    8.636295386444e-13
   187    1.286009270960e-13
   188   -2.010733076230e-01
   189   -1.343081976549e-11
   190    3.133549067422e-12
   191   -3.991770390626e-12
   192   -6.883365969882e-01
   193    8.477513914161e-16
   194    4.251683881808e-03
   195   -5.180541905799e-03
   196    1.649199137911e-14
   197    7.428950596322e-15
   198    2.836436596731e-15
   199   -6.359306643764e-14
   200   -7.202992013868e-13
   201   -7.483646200409e-13
   202    2.632051892104e-15
   203    2.410160403117e-15
   204   -3.402671818804e-04
[5D]
