[Molden Format]
[Atoms] (Angs)
  C      1    6     -0.00754183     -1.75895763      0.00000000
  H      2    1     -2.09769850     -1.41880678     -0.00000000
  H      3    1     -0.13527422     -2.83956838     -0.00000000
  H      4    1      0.04053511      2.02026369      0.00000000
  C      5    6     -1.22066484      0.39918184     -0.00000000
  O      6    8     -2.25210141      1.05663720     -0.00000000
  C      7    6      1.24009552      0.27789184      0.00000000
  O      8    8      2.33767996      1.06122493      0.00000000
  N      9    7      0.03634586      1.00852936      0.00000000
  N     10    7     -1.18738304     -0.97903470     -0.00000000
  C     11    6      1.22288875     -1.12258096      0.00000000
  H     12    1      2.15640383     -1.68445878      0.00000000
[GTO]
1    0
S    6    1.000000
   4.56324000E+03    1.96665000E-03 
   6.82024000E+02    1.52306000E-02 
   1.54973000E+02    7.61269000E-02 
   4.44553000E+01    2.60801000E-01 
   1.30290000E+01    6.16462000E-01 
   1.82773000E+00    2.21006000E-01 
SP   3    1.000000
   2.09642000E+01    1.14660000E-01   4.02487000E-02 
   4.80331000E+00    9.19999000E-01   2.37594000E-01 
   1.45933000E+00   -3.03068000E-03   8.15854000E-01 
SP   1    1.000000
   4.83456000E-01    1.00000000E+00   1.00000000E+00 
SP   1    1.000000
   1.45585000E-01    1.00000000E+00   1.00000000E+00 
SP   1    1.000000
   4.38000000E-02    1.00000000E+00   1.00000000E+00 
D    1    1.000000
   6.26000000E-01    1.00000000E+00 

2    0
S    3    1.000000
   3.38650000E+01    2.54938000E-02 
   5.09479000E+00    1.90373000E-01 
   1.15879000E+00    8.52161000E-01 
S    1    1.000000
   3.25840000E-01    1.00000000E+00 
S    1    1.000000
   1.02741000E-01    1.00000000E+00 
S    1    1.000000
   3.60000000E-02    1.00000000E+00 
P    1    1.000000
   7.50000000E-01    1.00000000E+00 

3    0
S    3    1.000000
   3.38650000E+01    2.54938000E-02 
   5.09479000E+00    1.90373000E-01 
   1.15879000E+00    8.52161000E-01 
S    1    1.000000
   3.25840000E-01    1.00000000E+00 
S    1    1.000000
   1.02741000E-01    1.00000000E+00 
S    1    1.000000
   3.60000000E-02    1.00000000E+00 
P    1    1.000000
   7.50000000E-01    1.00000000E+00 

4    0
S    3    1.000000
   3.38650000E+01    2.54938000E-02 
   5.09479000E+00    1.90373000E-01 
   1.15879000E+00    8.52161000E-01 
S    1    1.000000
   3.25840000E-01    1.00000000E+00 
S    1    1.000000
   1.02741000E-01    1.00000000E+00 
S    1    1.000000
   3.60000000E-02    1.00000000E+00 
P    1    1.000000
   7.50000000E-01    1.00000000E+00 

5    0
S    6    1.000000
   4.56324000E+03    1.96665000E-03 
   6.82024000E+02    1.52306000E-02 
   1.54973000E+02    7.61269000E-02 
   4.44553000E+01    2.60801000E-01 
   1.30290000E+01    6.16462000E-01 
   1.82773000E+00    2.21006000E-01 
SP   3    1.000000
   2.09642000E+01    1.14660000E-01   4.02487000E-02 
   4.80331000E+00    9.19999000E-01   2.37594000E-01 
   1.45933000E+00   -3.03068000E-03   8.15854000E-01 
SP   1    1.000000
   4.83456000E-01    1.00000000E+00   1.00000000E+00 
SP   1    1.000000
   1.45585000E-01    1.00000000E+00   1.00000000E+00 
SP   1    1.000000
   4.38000000E-02    1.00000000E+00   1.00000000E+00 
D    1    1.000000
   6.26000000E-01    1.00000000E+00 

6    0
S    6    1.000000
   8.58850000E+03    1.89515000E-03 
   1.29723000E+03    1.43859000E-02 
   2.99296000E+02    7.07320000E-02 
   8.73771000E+01    2.40001000E-01 
   2.56789000E+01    5.94797000E-01 
   3.74004000E+00    2.80802000E-01 
SP   3    1.000000
   4.21175000E+01    1.13889000E-01   3.65114000E-02 
   9.62837000E+00    9.20811000E-01   2.37153000E-01 
   2.85332000E+00   -3.27447000E-03   8.19702000E-01 
SP   1    1.000000
   9.05661000E-01    1.00000000E+00   1.00000000E+00 
SP   1    1.000000
   2.55611000E-01    1.00000000E+00   1.00000000E+00 
SP   1    1.000000
   8.45000000E-02    1.00000000E+00   1.00000000E+00 
D    1    1.000000
   1.29200000E+00    1.00000000E+00 

7    0
S    6    1.000000
   4.56324000E+03    1.96665000E-03 
   6.82024000E+02    1.52306000E-02 
   1.54973000E+02    7.61269000E-02 
   4.44553000E+01    2.60801000E-01 
   1.30290000E+01    6.16462000E-01 
   1.82773000E+00    2.21006000E-01 
SP   3    1.000000
   2.09642000E+01    1.14660000E-01   4.02487000E-02 
   4.80331000E+00    9.19999000E-01   2.37594000E-01 
   1.45933000E+00   -3.03068000E-03   8.15854000E-01 
SP   1    1.000000
   4.83456000E-01    1.00000000E+00   1.00000000E+00 
SP   1    1.000000
   1.45585000E-01    1.00000000E+00   1.00000000E+00 
SP   1    1.000000
   4.38000000E-02    1.00000000E+00   1.00000000E+00 
D    1    1.000000
   6.26000000E-01    1.00000000E+00 

8    0
S    6    1.000000
   8.58850000E+03    1.89515000E-03 
   1.29723000E+03    1.43859000E-02 
   2.99296000E+02    7.07320000E-02 
   8.73771000E+01    2.40001000E-01 
   2.56789000E+01    5.94797000E-01 
   3.74004000E+00    2.80802000E-01 
SP   3    1.000000
   4.21175000E+01    1.13889000E-01   3.65114000E-02 
   9.62837000E+00    9.20811000E-01   2.37153000E-01 
   2.85332000E+00   -3.27447000E-03   8.19702000E-01 
SP   1    1.000000
   9.05661000E-01    1.00000000E+00   1.00000000E+00 
SP   1    1.000000
   2.55611000E-01    1.00000000E+00   1.00000000E+00 
SP   1    1.000000
   8.45000000E-02    1.00000000E+00   1.00000000E+00 
D    1    1.000000
   1.29200000E+00    1.00000000E+00 

9    0
S    6    1.000000
   6.29348000E+03    1.96979000E-03 
   9.49044000E+02    1.49613000E-02 
   2.18776000E+02    7.35006000E-02 
   6.36916000E+01    2.48937000E-01 
   1.88282000E+01    6.02460000E-01 
   2.72023000E+00    2.56202000E-01 
SP   3    1.000000
   3.06331000E+01    1.11906000E-01   3.83119000E-02 
   7.02614000E+00    9.21666000E-01   2.37403000E-01 
   2.11205000E+00   -2.56919000E-03   8.17592000E-01 
SP   1    1.000000
   6.84009000E-01    1.00000000E+00   1.00000000E+00 
SP   1    1.000000
   2.00878000E-01    1.00000000E+00   1.00000000E+00 
SP   1    1.000000
   6.39000000E-02    1.00000000E+00   1.00000000E+00 
D    1    1.000000
   9.13000000E-01    1.00000000E+00 

10    0
S    6    1.000000
   6.29348000E+03    1.96979000E-03 
   9.49044000E+02    1.49613000E-02 
   2.18776000E+02    7.35006000E-02 
   6.36916000E+01    2.48937000E-01 
   1.88282000E+01    6.02460000E-01 
   2.72023000E+00    2.56202000E-01 
SP   3    1.000000
   3.06331000E+01    1.11906000E-01   3.83119000E-02 
   7.02614000E+00    9.21666000E-01   2.37403000E-01 
   2.11205000E+00   -2.56919000E-03   8.17592000E-01 
SP   1    1.000000
   6.84009000E-01    1.00000000E+00   1.00000000E+00 
SP   1    1.000000
   2.00878000E-01    1.00000000E+00   1.00000000E+00 
SP   1    1.000000
   6.39000000E-02    1.00000000E+00   1.00000000E+00 
D    1    1.000000
   9.13000000E-01    1.00000000E+00 

11    0
S    6    1.000000
   4.56324000E+03    1.96665000E-03 
   6.82024000E+02    1.52306000E-02 
   1.54973000E+02    7.61269000E-02 
   4.44553000E+01    2.60801000E-01 
   1.30290000E+01    6.16462000E-01 
   1.82773000E+00    2.21006000E-01 
SP   3    1.000000
   2.09642000E+01    1.14660000E-01   4.02487000E-02 
   4.80331000E+00    9.19999000E-01   2.37594000E-01 
   1.45933000E+00   -3.03068000E-03   8.15854000E-01 
SP   1    1.000000
   4.83456000E-01    1.00000000E+00   1.00000000E+00 
SP   1    1.000000
   1.45585000E-01    1.00000000E+00   1.00000000E+00 
SP   1    1.000000
   4.38000000E-02    1.00000000E+00   1.00000000E+00 
D    1    1.000000
   6.26000000E-01    1.00000000E+00 

12    0
S    3    1.000000
   3.38650000E+01    2.54938000E-02 
   5.09479000E+00    1.90373000E-01 
   1.15879000E+00    8.52161000E-01 
S    1    1.000000
   3.25840000E-01    1.00000000E+00 
S    1    1.000000
   1.02741000E-01    1.00000000E+00 
S    1    1.000000
   3.60000000E-02    1.00000000E+00 
P    1    1.000000
   7.50000000E-01    1.00000000E+00 

[MO]
Sym=X
Ene= -0.482078
Spin=Alpha
Occup=1
     1   -3.790054434339e-16
     2   -3.427975222863e-15
     3    7.525249959230e-15
     4    2.668223550012e-14
     5   -1.064299414147e-01
     6    1.281343114055e-14
     7   -4.650281616704e-14
     8    4.742364455708e-14
     9   -1.738844872516e-01
    10    3.994394059084e-13
    11    5.754470177953e-13
    12    3.399747270585e-13
    13   -2.603750097250e-01
    14   -2.498911493695e-11
    15   -4.705369905018e-12
    16   -4.758365659611e-12
    17   -1.153164959918e-01
    18    5.941450396763e-15
    19   -1.107434603581e-02
    20    3.506442194279e-03
    21   -9.352168715411e-15
    22   -4.384111772965e-15
    23   -7.437838687797e-15
    24    8.693664475137e-14
    25   -4.749469139999e-13
    26    1.554512196932e-12
    27    9.711938364667e-15
    28    5.272436743300e-15
    29    8.604351826648e-03
    30    1.372342332844e-14
    31   -4.857724365993e-14
    32    8.255362906538e-13
    33   -1.290667384062e-12
    34    2.959330594153e-15
    35   -8.676042004662e-15
    36   -1.063505138688e-02
    37    3.241692422029e-14
    38   -7.133930508669e-14
    39    2.046016633623e-12
    40   -1.604099210911e-12
    41    2.891532901132e-15
    42    1.701098250635e-14
    43   -1.203415322840e-02
    44    2.392600066186e-15
    45    3.608178648173e-15
    46    1.916890386209e-14
    47    1.613817442316e-14
    48   -1.183476588795e-02
    49    1.314757280785e-14
    50    1.116993848321e-14
    51   -1.952733203138e-14
    52   -2.107259918361e-02
    53   -6.803747716434e-13
    54    7.053600609848e-13
    55    4.180824632023e-13
    56   -1.629374842865e-02
    57    2.421970061748e-12
    58    2.363648377682e-12
    59    1.985482243053e-12
    60    3.847694356699e-03
    61    9.818279415257e-15
    62   -1.737490076956e-02
    63   -1.928382726944e-02
    64    1.358663452313e-14
    65    4.260779774524e-15
    66    9.831201966727e-16
    67    1.816595135296e-15
    68    1.085511898248e-15
    69    1.206895967807e-14
    70    1.282347862280e-02
    71   -1.116041101902e-14
    72   -6.332658519627e-15
    73    1.639970801906e-14
    74    1.947613337732e-02
    75    8.523901180158e-14
    76    1.238265194097e-13
    77   -1.017229979459e-15
    78    2.456416014291e-02
    79    8.712393196964e-13
    80    7.773880068419e-14
    81   -7.223271879340e-13
    82    1.173375509309e-02
    83    1.077104999913e-15
    84   -6.559945392843e-04
    85   -1.045853110967e-03
    86    9.212601357244e-16
    87    2.175946970566e-15
    88    9.740072898975e-15
    89    1.698591251041e-14
    90    1.259509151865e-14
    91    3.485107069165e-14
    92    2.104887577806e-01
    93   -7.335073634490e-14
    94    4.160981746186e-14
    95    4.343067975014e-14
    96    3.573200758549e-01
    97    1.981237614070e-13
    98   -3.578279481118e-13
    99    6.875444679943e-13
   100    4.987830263668e-01
   101    7.549458623145e-12
   102   -2.246363394995e-12
   103   -4.936250053556e-14
   104    1.675388778313e-01
   105   -2.217892761804e-14
   106    4.765572317514e-03
   107   -1.305427911510e-02
   108    8.130746028207e-15
   109   -1.852682742512e-14
   110   -9.253777907067e-17
   111   -2.496034379163e-15
   112   -8.413996807474e-15
   113   -1.220394380167e-15
   114   -2.041400461123e-01
   115    1.034993543897e-14
   116   -1.971570457007e-16
   117   -1.523674971096e-14
   118   -2.727547667404e-01
   119   -1.964104037722e-14
   120   -1.195521310758e-14
   121   -3.349527841903e-14
   122   -2.599838511771e-01
   123    4.272231429953e-13
   124    1.064886898987e-13
   125    1.934680375718e-13
   126   -5.719252713461e-02
   127   -9.420417789715e-16
   128   -4.962535811599e-03
   129   -5.111550036456e-03
   130   -5.323377222641e-16
   131    3.785449282816e-15
   132   -8.474821589139e-15
   133   -2.014310120755e-14
   134    3.174093330808e-14
   135   -2.824487843426e-14
   136   -9.109541240966e-02
   137    5.538170077826e-14
   138    3.090929829594e-14
   139   -3.504197891795e-14
   140   -1.400549916936e-01
   141    2.398189925045e-13
   142    1.413923126884e-13
   143    2.185437975430e-14
   144   -2.403229397171e-01
   145   -1.244694560092e-11
   146   -2.249462018353e-13
   147    9.885035084406e-13
   148   -1.640884581671e-01
   149   -1.570314932967e-14
   150    1.719773832260e-02
   151   -8.439592412760e-03
   152   -6.582535913792e-15
   153    4.527588717887e-15
   154    1.096946492062e-14
   155    1.898761058715e-14
   156   -1.014334241751e-14
   157    2.508784710533e-16
   158    6.906179468122e-02
   159   -1.933574177159e-14
   160    1.959104186583e-14
   161   -9.965470500703e-15
   162    1.066022444190e-01
   163   -6.585550621990e-13
   164   -2.505618785768e-13
   165    1.518043418129e-13
   166    1.706587018497e-01
   167    8.475419341371e-12
   168    2.258288518152e-12
   169    1.168664221793e-12
   170    1.184601643504e-01
   171    1.681652913486e-14
   172   -8.168432323782e-03
   173    5.737717892644e-03
   174    1.306388916012e-14
   175   -5.061362757954e-15
   176   -1.017896898795e-14
   177   -1.859667531694e-14
   178    4.633839926059e-14
   179    1.641390326333e-14
   180   -1.269311388415e-03
   181    3.643406752054e-14
   182    5.445913715735e-14
   183    1.537652011622e-14
   184   -2.592963336362e-03
   185    3.841874025630e-13
   186    1.048549031913e-12
   187    6.122671246511e-13
   188   -6.393506021356e-02
   189    1.831023924234e-11
   190   -3.626696857601e-12
   191   -3.823417111026e-12
   192   -4.332836320484e-02
   193    5.673078167476e-15
   194    1.617281441601e-02
   195    3.536363846025e-02
   196    1.646085395981e-14
   197    1.327522490608e-14
   198   -1.588188622390e-14
   199   -8.753888828353e-14
   200   -1.590973513574e-12
   201   -2.728397788312e-14
   202    7.223260518173e-16
   203    2.096691506401e-15
   204   -1.384849696480e-03
Sym=X
Ene= 0.482078
Spin=Alpha
Occup=0
     1    1.001451411302e-15
     2    2.706317332893e-16
     3   -1.620476308052e-15
     4    9.786422693692e-15
     5    1.311549929641e-01
     6   -1.028328315501e-14
     7   -1.478186434597e-14
     8    4.675232483065e-14
     9    2.128256311611e-01
    10    4.448715360038e-13
    11    3.710547358358e-13
    12    2.896932669165e-13
    13    4.155097714525e-01
    14   -4.378840450378e-11
    15   -5.805209594586e-12
    16   -1.051418287962e-11
    17    6.781722708481e-01
    18   -1.086170455407e-14
    19   -2.747224032952e-02
    20   -9.123761239289e-03
    21    7.693401359500e-15
    22   -1.240786835189e-15
    23    3.876444610092e-15
    24    1.020501655742e-14
    25   -3.780004103956e-13
    26   -4.009518705444e-14
    27   -6.269270238804e-15
    28   -2.601944433259e-15
    29    1.534957867293e-03
    30    1.012727858332e-14
    31    3.255714135163e-14
    32    4.846857533351e-13
    33   -2.488256166498e-12
    34   -8.348761790664e-15
    35    5.489534217327e-15
    36    1.575691657191e-02
    37    1.515435009180e-14
    38   -4.842810848425e-14
    39    2.837240367996e-13
    40   -5.372709877860e-13
    41    5.151491755040e-15
    42    1.108749086959e-14
    43    4.178658960043e-03
    44    2.854427852513e-15
    45    3.134523571319e-15
    46    9.229495293409e-15
    47    5.120455220996e-15
    48   -1.265891414215e-01
    49   -3.061071415891e-14
    50    2.475070908385e-14
    51   -2.241461489672e-14
    52   -2.093110171538e-01
    53    1.819681407850e-13
    54    3.754191670685e-13
    55    5.106188416699e-14
    56   -3.679335136331e-01
    57    1.252189002072e-11
    58    3.549203916415e-12
    59   -2.777158446056e-12
    60   -1.616629757243e-01
    61    1.214986491159e-14
    62   -2.506602608439e-02
    63    1.920983367772e-02
    64    9.563092917103e-15
    65   -6.449629057432e-15
    66    1.018207185038e-15
    67    2.178442378790e-15
    68   -3.381832036524e-15
    69    8.376008663126e-15
    70    8.579531611173e-02
    71   -8.625241720783e-15
    72   -7.757752249753e-15
    73    9.599276277407e-15
    74    1.255970425455e-01
    75    2.152696877139e-14
    76    4.269329885285e-14
    77   -8.924616712594e-15
    78    1.852114016282e-01
    79    5.097007846601e-13
    80   -1.785107824510e-14
    81   -9.301677557780e-14
    82    1.678150775221e-01
    83    1.277888814324e-15
    84   -3.580923734848e-03
    85    2.767497662808e-03
    86   -1.856584819569e-15
    87    5.933446430351e-16
    88    5.483683879801e-15
    89    9.965692910465e-15
    90    1.867413253598e-15
    91    1.221546946398e-14
    92    1.051450176251e-01
    93   -4.601369274406e-14
    94    2.260884454160e-14
    95    1.073154897238e-14
    96    1.810627282017e-01
    97    3.805890551894e-13
    98   -5.766859576073e-13
    99   -2.208404457544e-13
   100    3.024388695703e-01
   101   -1.823747897088e-11
   102    1.008264111780e-12
   103    3.237323407001e-12
   104    1.169520020984e-01
   105   -1.783741728902e-14
   106   -1.028145669780e-02
   107    4.539640277667e-02
   108   -6.035518904085e-15
   109   -1.156102121692e-14
   110   -5.758621331941e-15
   111   -9.651571509049e-15
   112    1.824834305919e-15
   113   -7.769807016651e-15
   114   -3.003465973749e-02
   115    3.853219907281e-14
   116    1.972812895122e-14
   117   -2.186451361306e-14
   118   -3.957531560929e-02
   119    5.370400858225e-14
   120   -8.052027002978e-14
   121   -3.591804639985e-14
   122   -5.594627341322e-02
   123    1.581011043328e-12
   124   -3.674439416841e-14
   125   -3.511676724633e-13
   126   -4.480396044373e-02
   127    5.343087316594e-15
   128   -8.620383700861e-03
   129   -1.811180689517e-03
   130    2.688916564213e-15
   131    2.062799968081e-15
   132    9.943254248672e-16
   133   -9.185653886004e-16
   134    1.954785521041e-14
   135   -1.698123317477e-14
   136    2.406281304063e-02
   137   -4.704347995361e-16
   138    3.424468780056e-14
   139   -3.393664084496e-14
   140    3.703930612265e-02
   141   -4.314444662761e-15
   142    5.752542771154e-14
   143    1.750021250970e-13
   144    4.758188170545e-02
   145   -5.651900826892e-12
   146    7.373015573385e-13
   147    1.687062618013e-12
   148    1.382473956673e-01
   149   -2.968241096312e-15
   150    2.479106347365e-02
   151    3.631711746418e-03
   152   -3.929278268162e-15
   153   -2.153921101000e-15
   154    7.391006330709e-15
   155    1.046788119033e-14
   156    4.651559697926e-15
   157   -1.487230416686e-15
   158   -8.297919978935e-03
   159   -7.621445414045e-15
   160    2.737606802792e-14
   161   -1.203734066384e-14
   162   -1.377250736420e-02
   163   -3.780590772657e-13
   164   -1.852935368427e-13
   165    2.445246516265e-14
   166   -1.506947706500e-02
   167    3.657780192238e-12
   168    1.648353316034e-12
   169   -1.003657695365e-12
   170   -8.099166441543e-02
   171    1.235005830764e-15
   172    1.040041175262e-02
   173   -2.534213405656e-02
   174   -1.627174670389e-15
   175    2.657234791398e-15
   176   -1.243860236363e-14
   177   -2.449350005877e-14
   178    1.993197708202e-14
   179   -1.096820934925e-14
   180   -1.409528845664e-01
   181    1.216734130295e-13
   182    7.038655981871e-14
   183   -1.966617688604e-14
   184   -2.258219574379e-01
   185   -7.148241163765e-13
   186    5.698219668751e-13
   187   -6.830866444095e-14
   188   -4.774270476547e-01
   189    4.710130661151e-11
   190   -1.244953005955e-11
   191    3.214322513228e-12
   192   -8.391484360703e-01
   193    1.337357348183e-14
   194   -2.287499120851e-02
   195   -4.393403560036e-03
   196    1.627222301193e-14
   197   -8.208570074847e-15
   198    3.200961577826e-15
   199   -7.943676204719e-14
   200   -1.168253663089e-13
   201    5.084546948545e-12
   202   -1.782685015055e-15
   203   -5.075555992734e-16
   204   -1.995749068245e-02
[5D]
