[Molden Format]
[Atoms] (Angs)
  C      1    6     -0.00754183     -1.75895763      0.00000000
  H      2    1     -2.09769850     -1.41880678     -0.00000000
  H      3    1     -0.13527422     -2.83956838     -0.00000000
  H      4    1      0.04053511      2.02026369      0.00000000
  C      5    6     -1.22066484      0.39918184     -0.00000000
  O      6    8     -2.25210141      1.05663720     -0.00000000
  C      7    6      1.24009552      0.27789184      0.00000000
  O      8    8      2.33767996      1.06122493      0.00000000
  N      9    7      0.03634586      1.00852936      0.00000000
  N     10    7     -1.18738304     -0.97903470     -0.00000000
  C     11    6      1.22288875     -1.12258096      0.00000000
  H     12    1      2.15640383     -1.68445878      0.00000000
[GTO]
1    0
S    6    1.000000
   4.56324000E+03    1.96665000E-03 
   6.82024000E+02    1.52306000E-02 
   1.54973000E+02    7.61269000E-02 
   4.44553000E+01    2.60801000E-01 
   1.30290000E+01    6.16462000E-01 
   1.82773000E+00    2.21006000E-01 
SP   3    1.000000
   2.09642000E+01    1.14660000E-01   4.02487000E-02 
   4.80331000E+00    9.19999000E-01   2.37594000E-01 
   1.45933000E+00   -3.03068000E-03   8.15854000E-01 
SP   1    1.000000
   4.83456000E-01    1.00000000E+00   1.00000000E+00 
SP   1    1.000000
   1.45585000E-01    1.00000000E+00   1.00000000E+00 
SP   1    1.000000
   4.38000000E-02    1.00000000E+00   1.00000000E+00 
D    1    1.000000
   6.26000000E-01    1.00000000E+00 

2    0
S    3    1.000000
   3.38650000E+01    2.54938000E-02 
   5.09479000E+00    1.90373000E-01 
   1.15879000E+00    8.52161000E-01 
S    1    1.000000
   3.25840000E-01    1.00000000E+00 
S    1    1.000000
   1.02741000E-01    1.00000000E+00 
S    1    1.000000
   3.60000000E-02    1.00000000E+00 
P    1    1.000000
   7.50000000E-01    1.00000000E+00 

3    0
S    3    1.000000
   3.38650000E+01    2.54938000E-02 
   5.09479000E+00    1.90373000E-01 
   1.15879000E+00    8.52161000E-01 
S    1    1.000000
   3.25840000E-01    1.00000000E+00 
S    1    1.000000
   1.02741000E-01    1.00000000E+00 
S    1    1.000000
   3.60000000E-02    1.00000000E+00 
P    1    1.000000
   7.50000000E-01    1.00000000E+00 

4    0
S    3    1.000000
   3.38650000E+01    2.54938000E-02 
   5.09479000E+00    1.90373000E-01 
   1.15879000E+00    8.52161000E-01 
S    1    1.000000
   3.25840000E-01    1.00000000E+00 
S    1    1.000000
   1.02741000E-01    1.00000000E+00 
S    1    1.000000
   3.60000000E-02    1.00000000E+00 
P    1    1.000000
   7.50000000E-01    1.00000000E+00 

5    0
S    6    1.000000
   4.56324000E+03    1.96665000E-03 
   6.82024000E+02    1.52306000E-02 
   1.54973000E+02    7.61269000E-02 
   4.44553000E+01    2.60801000E-01 
   1.30290000E+01    6.16462000E-01 
   1.82773000E+00    2.21006000E-01 
SP   3    1.000000
   2.09642000E+01    1.14660000E-01   4.02487000E-02 
   4.80331000E+00    9.19999000E-01   2.37594000E-01 
   1.45933000E+00   -3.03068000E-03   8.15854000E-01 
SP   1    1.000000
   4.83456000E-01    1.00000000E+00   1.00000000E+00 
SP   1    1.000000
   1.45585000E-01    1.00000000E+00   1.00000000E+00 
SP   1    1.000000
   4.38000000E-02    1.00000000E+00   1.00000000E+00 
D    1    1.000000
   6.26000000E-01    1.00000000E+00 

6    0
S    6    1.000000
   8.58850000E+03    1.89515000E-03 
   1.29723000E+03    1.43859000E-02 
   2.99296000E+02    7.07320000E-02 
   8.73771000E+01    2.40001000E-01 
   2.56789000E+01    5.94797000E-01 
   3.74004000E+00    2.80802000E-01 
SP   3    1.000000
   4.21175000E+01    1.13889000E-01   3.65114000E-02 
   9.62837000E+00    9.20811000E-01   2.37153000E-01 
   2.85332000E+00   -3.27447000E-03   8.19702000E-01 
SP   1    1.000000
   9.05661000E-01    1.00000000E+00   1.00000000E+00 
SP   1    1.000000
   2.55611000E-01    1.00000000E+00   1.00000000E+00 
SP   1    1.000000
   8.45000000E-02    1.00000000E+00   1.00000000E+00 
D    1    1.000000
   1.29200000E+00    1.00000000E+00 

7    0
S    6    1.000000
   4.56324000E+03    1.96665000E-03 
   6.82024000E+02    1.52306000E-02 
   1.54973000E+02    7.61269000E-02 
   4.44553000E+01    2.60801000E-01 
   1.30290000E+01    6.16462000E-01 
   1.82773000E+00    2.21006000E-01 
SP   3    1.000000
   2.09642000E+01    1.14660000E-01   4.02487000E-02 
   4.80331000E+00    9.19999000E-01   2.37594000E-01 
   1.45933000E+00   -3.03068000E-03   8.15854000E-01 
SP   1    1.000000
   4.83456000E-01    1.00000000E+00   1.00000000E+00 
SP   1    1.000000
   1.45585000E-01    1.00000000E+00   1.00000000E+00 
SP   1    1.000000
   4.38000000E-02    1.00000000E+00   1.00000000E+00 
D    1    1.000000
   6.26000000E-01    1.00000000E+00 

8    0
S    6    1.000000
   8.58850000E+03    1.89515000E-03 
   1.29723000E+03    1.43859000E-02 
   2.99296000E+02    7.07320000E-02 
   8.73771000E+01    2.40001000E-01 
   2.56789000E+01    5.94797000E-01 
   3.74004000E+00    2.80802000E-01 
SP   3    1.000000
   4.21175000E+01    1.13889000E-01   3.65114000E-02 
   9.62837000E+00    9.20811000E-01   2.37153000E-01 
   2.85332000E+00   -3.27447000E-03   8.19702000E-01 
SP   1    1.000000
   9.05661000E-01    1.00000000E+00   1.00000000E+00 
SP   1    1.000000
   2.55611000E-01    1.00000000E+00   1.00000000E+00 
SP   1    1.000000
   8.45000000E-02    1.00000000E+00   1.00000000E+00 
D    1    1.000000
   1.29200000E+00    1.00000000E+00 

9    0
S    6    1.000000
   6.29348000E+03    1.96979000E-03 
   9.49044000E+02    1.49613000E-02 
   2.18776000E+02    7.35006000E-02 
   6.36916000E+01    2.48937000E-01 
   1.88282000E+01    6.02460000E-01 
   2.72023000E+00    2.56202000E-01 
SP   3    1.000000
   3.06331000E+01    1.11906000E-01   3.83119000E-02 
   7.02614000E+00    9.21666000E-01   2.37403000E-01 
   2.11205000E+00   -2.56919000E-03   8.17592000E-01 
SP   1    1.000000
   6.84009000E-01    1.00000000E+00   1.00000000E+00 
SP   1    1.000000
   2.00878000E-01    1.00000000E+00   1.00000000E+00 
SP   1    1.000000
   6.39000000E-02    1.00000000E+00   1.00000000E+00 
D    1    1.000000
   9.13000000E-01    1.00000000E+00 

10    0
S    6    1.000000
   6.29348000E+03    1.96979000E-03 
   9.49044000E+02    1.49613000E-02 
   2.18776000E+02    7.35006000E-02 
   6.36916000E+01    2.48937000E-01 
   1.88282000E+01    6.02460000E-01 
   2.72023000E+00    2.56202000E-01 
SP   3    1.000000
   3.06331000E+01    1.11906000E-01   3.83119000E-02 
   7.02614000E+00    9.21666000E-01   2.37403000E-01 
   2.11205000E+00   -2.56919000E-03   8.17592000E-01 
SP   1    1.000000
   6.84009000E-01    1.00000000E+00   1.00000000E+00 
SP   1    1.000000
   2.00878000E-01    1.00000000E+00   1.00000000E+00 
SP   1    1.000000
   6.39000000E-02    1.00000000E+00   1.00000000E+00 
D    1    1.000000
   9.13000000E-01    1.00000000E+00 

11    0
S    6    1.000000
   4.56324000E+03    1.96665000E-03 
   6.82024000E+02    1.52306000E-02 
   1.54973000E+02    7.61269000E-02 
   4.44553000E+01    2.60801000E-01 
   1.30290000E+01    6.16462000E-01 
   1.82773000E+00    2.21006000E-01 
SP   3    1.000000
   2.09642000E+01    1.14660000E-01   4.02487000E-02 
   4.80331000E+00    9.19999000E-01   2.37594000E-01 
   1.45933000E+00   -3.03068000E-03   8.15854000E-01 
SP   1    1.000000
   4.83456000E-01    1.00000000E+00   1.00000000E+00 
SP   1    1.000000
   1.45585000E-01    1.00000000E+00   1.00000000E+00 
SP   1    1.000000
   4.38000000E-02    1.00000000E+00   1.00000000E+00 
D    1    1.000000
   6.26000000E-01    1.00000000E+00 

12    0
S    3    1.000000
   3.38650000E+01    2.54938000E-02 
   5.09479000E+00    1.90373000E-01 
   1.15879000E+00    8.52161000E-01 
S    1    1.000000
   3.25840000E-01    1.00000000E+00 
S    1    1.000000
   1.02741000E-01    1.00000000E+00 
S    1    1.000000
   3.60000000E-02    1.00000000E+00 
P    1    1.000000
   7.50000000E-01    1.00000000E+00 

[MO]
Sym=X
Ene= -0.002601
Spin=Alpha
Occup=1
     1    5.492347464264e-07
     2   -2.217594157283e-06
     3    2.654248202818e-06
     4   -8.096025481927e-07
     5   -8.262785796813e-16
     6    2.237107063975e-05
     7   -1.580858500585e-05
     8    4.624508636685e-06
     9    1.357013528332e-15
    10   -5.970857100651e-04
    11   -2.038435849968e-04
    12   -2.650262187824e-04
    13   -6.813853254830e-15
    14   -3.652213492945e-04
    15    2.797425995454e-04
    16   -7.693925875647e-04
    17    1.057634814404e-14
    18   -6.721765093888e-07
    19   -6.089551420024e-16
    20   -9.559308036633e-16
    21   -2.484491546230e-06
    22    2.669025883811e-06
    23   -6.082647197668e-07
    24    3.537797585600e-06
    25   -4.768183494145e-05
    26    1.105538279771e-04
    27   -2.162971576362e-06
    28    3.023155286338e-06
    29   -1.270975721895e-15
    30   -1.137360454334e-06
    31    1.665332358854e-07
    32   -1.418396907485e-04
    33   -3.759844062975e-04
    34    8.459966974328e-06
    35    5.189700031710e-08
    36    1.618130728218e-15
    37    5.495528568477e-06
    38    6.772954987699e-05
    39    1.479085294609e-04
    40    6.478264905662e-05
    41   -7.315718874551e-06
    42   -1.229063165885e-05
    43    7.081940665300e-16
    44   -1.268345075836e-07
    45    3.465245349344e-06
    46    1.734656205839e-06
    47   -3.775545453785e-07
    48    1.228892449088e-15
    49   -3.680776394251e-05
    50   -2.241886469953e-05
    51   -3.331427972850e-06
    52   -1.537823585760e-15
    53   -8.322154589861e-05
    54    4.648398020891e-05
    55    9.641135738209e-06
    56   -8.542432929819e-16
    57   -6.771480204867e-05
    58    1.427952754060e-04
    59   -1.677656583739e-04
    60    6.945655526480e-15
    61    8.018580940716e-06
    62    4.110465502529e-16
    63   -5.492944119085e-16
    64   -5.254251692792e-06
    65    5.408507865758e-06
    66   -5.393925062915e-05
    67   -5.082892131573e-05
    68    5.209520743111e-08
    69    1.098793409842e-06
    70    2.647728467255e-16
    71   -1.385008045455e-05
    72   -1.970776170255e-06
    73    1.862717126720e-06
    74   -1.489710171617e-15
    75    7.515214995989e-05
    76    2.009049343668e-05
    77   -1.332241989966e-05
    78    3.111230806022e-15
    79   -2.606259861274e-04
    80   -1.767237310271e-04
    81    3.185563796760e-05
    82   -4.005276340942e-15
    83   -3.560433050425e-06
    84   -5.967225042653e-16
    85   -3.317067209320e-16
    86   -2.643126972297e-07
    87   -1.177108046095e-06
    88    1.538896256523e-06
    89   -5.483986230407e-05
    90    9.715653675119e-06
    91    2.713606010310e-05
    92   -3.074465345420e-16
    93    2.244165892977e-04
    94    3.052277177417e-04
    95    2.043539889406e-04
    96    5.942862176319e-16
    97   -2.777202425693e-04
    98    5.384780114515e-04
    99    2.950855251940e-04
   100   -4.024324486892e-15
   101   -3.304745064994e-03
   102   -7.632268144307e-04
   103    6.992901567382e-04
   104    1.061622927991e-14
   105   -7.330966216809e-05
   106   -2.930136539618e-16
   107   -1.200731134267e-15
   108    6.770652586482e-05
   109    1.737274114127e-04
   110    5.513976437263e-01
   111    4.717811992318e-01
   112   -1.319069567911e-03
   113   -9.454837152721e-04
   114   -7.551603224723e-16
   115    5.683265828799e-03
   116    5.194768903766e-04
   117    3.817985647494e-04
   118   -2.641015510600e-16
   119   -1.673148938188e-03
   120   -1.186369213017e-04
   121   -5.707097946239e-05
   122    2.568284080055e-15
   123    1.680467032198e-03
   124   -1.555639581570e-04
   125   -5.909837828547e-05
   126   -2.439214533001e-15
   127    1.569624368819e-04
   128   -4.864521515460e-16
   129    1.561905464748e-16
   130   -4.506846516788e-05
   131   -1.703173835810e-04
   132   -1.734603025713e-06
   133   -5.285024273965e-07
   134   -5.018165859387e-07
   135    6.860829855719e-06
   136    9.570724916167e-16
   137   -1.586369215506e-05
   138    3.327195350665e-05
   139   -1.452160028440e-05
   140   -1.485338125123e-15
   141    2.198078116971e-04
   142    2.514392769584e-05
   143   -2.155745136746e-04
   144    3.268135049862e-15
   145   -5.123669072316e-04
   146   -7.070702305741e-04
   147   -1.065972207676e-04
   148   -5.264531567284e-15
   149   -1.977965027072e-05
   150    8.682228467170e-16
   151   -2.619074142712e-17
   152    1.601161459950e-05
   153   -2.184568112820e-05
   154   -7.659419979510e-08
   155    1.048422670859e-09
   156   -3.451768840304e-07
   157    5.421537667159e-07
   158    1.158418667314e-16
   159   -5.705920381261e-07
   160    5.130403196236e-06
   161   -5.991344315973e-06
   162   -2.526827295934e-16
   163    6.903373812362e-05
   164    1.984911206789e-05
   165    1.813441776325e-05
   166    3.413521333335e-15
   167    1.742722106124e-04
   168   -1.123821579920e-04
   169    2.399983258138e-05
   170   -5.139013050662e-15
   171   -1.274217669429e-07
   172   -4.808652339265e-16
   173    2.699815657951e-16
   174    7.699311050266e-07
   175   -3.301225786668e-07
   176    4.786802132493e-07
   177    2.595840702674e-06
   178   -2.569969577422e-06
   179   -1.184403143262e-05
   180    1.378743209438e-15
   181   -4.035949341608e-05
   182    1.207177890730e-05
   183    6.555226276904e-05
   184   -3.176396152931e-15
   185    6.761942065842e-04
   186   -6.855242573364e-04
   187    7.717995031153e-05
   188    8.830046910856e-15
   189    3.008275577449e-03
   190   -1.347728958265e-04
   191    1.471644136926e-03
   192   -1.640064141454e-14
   193    3.326705063358e-06
   194   -3.392039943417e-16
   195    2.927280600256e-16
   196   -3.039439266237e-05
   197    1.681121298705e-05
   198   -4.492807979764e-06
   199    1.287215928982e-04
   200    2.048710800933e-04
   201    4.807898980980e-04
   202   -1.563535978044e-05
   203    9.384857813329e-06
   204   -3.058037950344e-16
Sym=X
Ene= 0.002601
Spin=Alpha
Occup=0
     1   -7.012023174395e-07
     2   -4.024342305804e-07
     3   -1.316038374872e-05
     4    5.995931310031e-06
     5   -4.504874999237e-16
     6    1.166626408154e-05
     7    5.620373637408e-05
     8   -1.500436787003e-05
     9    7.869850981579e-16
    10   -3.259348027206e-04
    11    1.672185599433e-04
    12    4.718557212877e-05
    13   -2.373638872931e-16
    14    1.783594816858e-04
    15    6.797821918110e-04
    16   -4.820093572360e-05
    17    7.615040590542e-15
    18    2.812543203187e-06
    19    1.264014108777e-16
    20   -5.735242840022e-16
    21    2.586627236707e-07
    22    1.966854025969e-05
    23   -1.026067114186e-05
    24    8.623920338893e-05
    25    3.219450029136e-04
    26    2.623893231184e-04
    27   -4.116942273327e-06
    28   -2.059524068762e-06
    29    7.468136527186e-16
    30   -1.513999932069e-05
    31    8.229952222888e-05
    32   -1.224465230203e-04
    33    4.047766253949e-05
    34   -4.564562235981e-06
    35    6.968909630252e-06
    36   -1.174560242978e-15
    37   -1.356100937069e-05
    38    1.242155387104e-04
    39    1.502584194365e-04
    40    1.583451745404e-04
    41   -1.933456968062e-06
    42   -4.558387325162e-07
    43    4.828552146370e-16
    44   -6.280765201162e-06
    45   -7.007463736942e-05
    46   -1.527697117220e-04
    47    9.625885985823e-05
    48    1.979540509134e-15
    49    3.927147426359e-04
    50   -2.020843370774e-04
    51    1.197282079562e-04
    52   -2.852447161850e-15
    53    1.750241185001e-04
    54   -6.417102850243e-04
    55    6.294423735345e-04
    56    4.880271364691e-15
    57    4.171217397633e-03
    58    1.227897997067e-03
    59   -6.661970900351e-04
    60    1.253985942678e-15
    61   -2.366380041713e-04
    62    8.317125525109e-16
    63   -4.502885951527e-17
    64    3.614096307250e-05
    65   -6.537572537643e-05
    66    5.513301743558e-01
    67    4.717625081084e-01
    68    1.374314622830e-03
    69   -8.888586292878e-04
    70    8.102681254193e-16
    71    5.930042828864e-03
    72   -4.595123474745e-04
    73    2.932893841260e-04
    74   -7.556366620055e-16
    75   -2.179122478389e-03
    76    1.712214463624e-05
    77   -6.402188505196e-05
    78    6.396943596391e-16
    79    2.037317643652e-03
    80    4.544565748381e-04
    81   -2.856085907377e-04
    82   -1.080636493718e-15
    83    1.702562151575e-04
    84    1.144193393601e-16
    85   -1.061616692955e-15
    86   -4.223566423505e-05
    87    1.009269322540e-04
    88   -4.070187513258e-07
    89   -9.698426943364e-07
    90   -8.543448883922e-06
    91    1.156967348987e-05
    92   -6.943303487260e-16
    93    2.765950738038e-05
    94    3.796632787816e-05
    95   -4.724779208691e-05
    96   -3.029220920609e-16
    97   -4.693907660604e-04
    98    1.401138104734e-04
    99   -2.736153771175e-04
   100    7.508123960915e-16
   101    8.176005299463e-04
   102    1.100256962474e-04
   103   -5.686527925171e-04
   104    3.483727846436e-15
   105    9.848881814922e-07
   106   -3.594055751602e-16
   107   -2.314662931445e-16
   108   -1.280862296058e-05
   109    1.480812389767e-05
   110    5.454672259399e-05
   111    5.624832256775e-05
   112    1.581171601026e-06
   113   -1.124285126710e-06
   114    9.042783848013e-16
   115   -2.925979604068e-05
   116    1.771774246517e-06
   117    1.257067795169e-07
   118   -2.143222994121e-15
   119    1.638876549273e-04
   120   -4.162691679690e-05
   121   -4.970392166051e-06
   122    1.629103753552e-15
   123   -5.108762935131e-04
   124    1.763397666770e-04
   125    4.497830631984e-05
   126   -6.963104092159e-16
   127   -1.660612094896e-06
   128   -2.177680911968e-16
   129    7.600255550140e-17
   130    2.506067016123e-06
   131   -3.659315375493e-07
   132    9.022959089315e-08
   133    1.211656972497e-05
   134   -6.847241074903e-06
   135   -1.004020186313e-05
   136   -3.978875533343e-16
   137   -5.425565548793e-05
   138    3.000518869816e-05
   139    3.814105613954e-05
   140    1.778367600249e-15
   141    2.405081740609e-04
   142    3.285627014811e-04
   143   -3.636493584274e-04
   144   -3.646729240330e-15
   145   -1.396341651644e-03
   146    1.383347002652e-03
   147   -3.209832240535e-04
   148   -1.220856124105e-15
   149   -8.005961655975e-07
   150   -2.888457716285e-16
   151   -1.189229600306e-15
   152   -5.330121648479e-06
   153   -2.293766554820e-05
   154   -1.685654140148e-07
   155    1.382493134748e-05
   156    4.180646830630e-06
   157    1.032132228640e-05
   158    8.723271775009e-16
   159   -7.959797918768e-05
   160   -2.220001443582e-05
   161   -5.781458220805e-05
   162   -2.617381766785e-16
   163    4.202284625696e-04
   164    3.606742975914e-04
   165    2.819018629644e-05
   166   -9.983150265481e-16
   167   -1.487421409459e-03
   168    8.359650667638e-04
   169   -9.462544737348e-04
   170   -5.331874280664e-15
   171    2.780134842850e-06
   172    2.347749617997e-16
   173    3.241318810367e-16
   174    2.022804663745e-05
   175   -7.725575219171e-06
   176    6.609675811804e-07
   177   -2.444916942678e-06
   178    4.631929058983e-06
   179   -3.861699963429e-06
   180   -2.052480425226e-16
   181    4.983614370650e-05
   182   -2.203220859468e-05
   183    1.765114468897e-05
   184   -1.053146318821e-15
   185   -3.870862816417e-04
   186    1.475499280561e-04
   187   -1.335972522256e-04
   188    2.865184830953e-15
   189   -3.217272642521e-03
   190    8.190674938729e-04
   191   -4.360541555645e-04
   192   -8.362474939621e-15
   193    4.205985030952e-06
   194   -5.055137445052e-16
   195   -2.790392899382e-17
   196    3.884400962649e-06
   197   -9.088061086610e-06
   198   -5.268213504748e-06
   199    2.022042181948e-05
   200   -1.497279201308e-04
   201   -3.552914999599e-04
   202   -2.987126018658e-06
   203    2.314393847444e-06
   204   -9.582785885279e-16
[5D]
