[Molden Format]
[Atoms] (Angs)
  C      1    6     -0.00754183     -1.75895763      0.00000000
  H      2    1     -2.09769850     -1.41880678     -0.00000000
  H      3    1     -0.13527422     -2.83956838     -0.00000000
  H      4    1      0.04053511      2.02026369      0.00000000
  C      5    6     -1.22066484      0.39918184     -0.00000000
  O      6    8     -2.25210141      1.05663720     -0.00000000
  C      7    6      1.24009552      0.27789184      0.00000000
  O      8    8      2.33767996      1.06122493      0.00000000
  N      9    7      0.03634586      1.00852936      0.00000000
  N     10    7     -1.18738304     -0.97903470     -0.00000000
  C     11    6      1.22288875     -1.12258096      0.00000000
  H     12    1      2.15640383     -1.68445878      0.00000000
[GTO]
1    0
S    6    1.000000
   4.56324000E+03    1.96665000E-03 
   6.82024000E+02    1.52306000E-02 
   1.54973000E+02    7.61269000E-02 
   4.44553000E+01    2.60801000E-01 
   1.30290000E+01    6.16462000E-01 
   1.82773000E+00    2.21006000E-01 
SP   3    1.000000
   2.09642000E+01    1.14660000E-01   4.02487000E-02 
   4.80331000E+00    9.19999000E-01   2.37594000E-01 
   1.45933000E+00   -3.03068000E-03   8.15854000E-01 
SP   1    1.000000
   4.83456000E-01    1.00000000E+00   1.00000000E+00 
SP   1    1.000000
   1.45585000E-01    1.00000000E+00   1.00000000E+00 
SP   1    1.000000
   4.38000000E-02    1.00000000E+00   1.00000000E+00 
D    1    1.000000
   6.26000000E-01    1.00000000E+00 

2    0
S    3    1.000000
   3.38650000E+01    2.54938000E-02 
   5.09479000E+00    1.90373000E-01 
   1.15879000E+00    8.52161000E-01 
S    1    1.000000
   3.25840000E-01    1.00000000E+00 
S    1    1.000000
   1.02741000E-01    1.00000000E+00 
S    1    1.000000
   3.60000000E-02    1.00000000E+00 
P    1    1.000000
   7.50000000E-01    1.00000000E+00 

3    0
S    3    1.000000
   3.38650000E+01    2.54938000E-02 
   5.09479000E+00    1.90373000E-01 
   1.15879000E+00    8.52161000E-01 
S    1    1.000000
   3.25840000E-01    1.00000000E+00 
S    1    1.000000
   1.02741000E-01    1.00000000E+00 
S    1    1.000000
   3.60000000E-02    1.00000000E+00 
P    1    1.000000
   7.50000000E-01    1.00000000E+00 

4    0
S    3    1.000000
   3.38650000E+01    2.54938000E-02 
   5.09479000E+00    1.90373000E-01 
   1.15879000E+00    8.52161000E-01 
S    1    1.000000
   3.25840000E-01    1.00000000E+00 
S    1    1.000000
   1.02741000E-01    1.00000000E+00 
S    1    1.000000
   3.60000000E-02    1.00000000E+00 
P    1    1.000000
   7.50000000E-01    1.00000000E+00 

5    0
S    6    1.000000
   4.56324000E+03    1.96665000E-03 
   6.82024000E+02    1.52306000E-02 
   1.54973000E+02    7.61269000E-02 
   4.44553000E+01    2.60801000E-01 
   1.30290000E+01    6.16462000E-01 
   1.82773000E+00    2.21006000E-01 
SP   3    1.000000
   2.09642000E+01    1.14660000E-01   4.02487000E-02 
   4.80331000E+00    9.19999000E-01   2.37594000E-01 
   1.45933000E+00   -3.03068000E-03   8.15854000E-01 
SP   1    1.000000
   4.83456000E-01    1.00000000E+00   1.00000000E+00 
SP   1    1.000000
   1.45585000E-01    1.00000000E+00   1.00000000E+00 
SP   1    1.000000
   4.38000000E-02    1.00000000E+00   1.00000000E+00 
D    1    1.000000
   6.26000000E-01    1.00000000E+00 

6    0
S    6    1.000000
   8.58850000E+03    1.89515000E-03 
   1.29723000E+03    1.43859000E-02 
   2.99296000E+02    7.07320000E-02 
   8.73771000E+01    2.40001000E-01 
   2.56789000E+01    5.94797000E-01 
   3.74004000E+00    2.80802000E-01 
SP   3    1.000000
   4.21175000E+01    1.13889000E-01   3.65114000E-02 
   9.62837000E+00    9.20811000E-01   2.37153000E-01 
   2.85332000E+00   -3.27447000E-03   8.19702000E-01 
SP   1    1.000000
   9.05661000E-01    1.00000000E+00   1.00000000E+00 
SP   1    1.000000
   2.55611000E-01    1.00000000E+00   1.00000000E+00 
SP   1    1.000000
   8.45000000E-02    1.00000000E+00   1.00000000E+00 
D    1    1.000000
   1.29200000E+00    1.00000000E+00 

7    0
S    6    1.000000
   4.56324000E+03    1.96665000E-03 
   6.82024000E+02    1.52306000E-02 
   1.54973000E+02    7.61269000E-02 
   4.44553000E+01    2.60801000E-01 
   1.30290000E+01    6.16462000E-01 
   1.82773000E+00    2.21006000E-01 
SP   3    1.000000
   2.09642000E+01    1.14660000E-01   4.02487000E-02 
   4.80331000E+00    9.19999000E-01   2.37594000E-01 
   1.45933000E+00   -3.03068000E-03   8.15854000E-01 
SP   1    1.000000
   4.83456000E-01    1.00000000E+00   1.00000000E+00 
SP   1    1.000000
   1.45585000E-01    1.00000000E+00   1.00000000E+00 
SP   1    1.000000
   4.38000000E-02    1.00000000E+00   1.00000000E+00 
D    1    1.000000
   6.26000000E-01    1.00000000E+00 

8    0
S    6    1.000000
   8.58850000E+03    1.89515000E-03 
   1.29723000E+03    1.43859000E-02 
   2.99296000E+02    7.07320000E-02 
   8.73771000E+01    2.40001000E-01 
   2.56789000E+01    5.94797000E-01 
   3.74004000E+00    2.80802000E-01 
SP   3    1.000000
   4.21175000E+01    1.13889000E-01   3.65114000E-02 
   9.62837000E+00    9.20811000E-01   2.37153000E-01 
   2.85332000E+00   -3.27447000E-03   8.19702000E-01 
SP   1    1.000000
   9.05661000E-01    1.00000000E+00   1.00000000E+00 
SP   1    1.000000
   2.55611000E-01    1.00000000E+00   1.00000000E+00 
SP   1    1.000000
   8.45000000E-02    1.00000000E+00   1.00000000E+00 
D    1    1.000000
   1.29200000E+00    1.00000000E+00 

9    0
S    6    1.000000
   6.29348000E+03    1.96979000E-03 
   9.49044000E+02    1.49613000E-02 
   2.18776000E+02    7.35006000E-02 
   6.36916000E+01    2.48937000E-01 
   1.88282000E+01    6.02460000E-01 
   2.72023000E+00    2.56202000E-01 
SP   3    1.000000
   3.06331000E+01    1.11906000E-01   3.83119000E-02 
   7.02614000E+00    9.21666000E-01   2.37403000E-01 
   2.11205000E+00   -2.56919000E-03   8.17592000E-01 
SP   1    1.000000
   6.84009000E-01    1.00000000E+00   1.00000000E+00 
SP   1    1.000000
   2.00878000E-01    1.00000000E+00   1.00000000E+00 
SP   1    1.000000
   6.39000000E-02    1.00000000E+00   1.00000000E+00 
D    1    1.000000
   9.13000000E-01    1.00000000E+00 

10    0
S    6    1.000000
   6.29348000E+03    1.96979000E-03 
   9.49044000E+02    1.49613000E-02 
   2.18776000E+02    7.35006000E-02 
   6.36916000E+01    2.48937000E-01 
   1.88282000E+01    6.02460000E-01 
   2.72023000E+00    2.56202000E-01 
SP   3    1.000000
   3.06331000E+01    1.11906000E-01   3.83119000E-02 
   7.02614000E+00    9.21666000E-01   2.37403000E-01 
   2.11205000E+00   -2.56919000E-03   8.17592000E-01 
SP   1    1.000000
   6.84009000E-01    1.00000000E+00   1.00000000E+00 
SP   1    1.000000
   2.00878000E-01    1.00000000E+00   1.00000000E+00 
SP   1    1.000000
   6.39000000E-02    1.00000000E+00   1.00000000E+00 
D    1    1.000000
   9.13000000E-01    1.00000000E+00 

11    0
S    6    1.000000
   4.56324000E+03    1.96665000E-03 
   6.82024000E+02    1.52306000E-02 
   1.54973000E+02    7.61269000E-02 
   4.44553000E+01    2.60801000E-01 
   1.30290000E+01    6.16462000E-01 
   1.82773000E+00    2.21006000E-01 
SP   3    1.000000
   2.09642000E+01    1.14660000E-01   4.02487000E-02 
   4.80331000E+00    9.19999000E-01   2.37594000E-01 
   1.45933000E+00   -3.03068000E-03   8.15854000E-01 
SP   1    1.000000
   4.83456000E-01    1.00000000E+00   1.00000000E+00 
SP   1    1.000000
   1.45585000E-01    1.00000000E+00   1.00000000E+00 
SP   1    1.000000
   4.38000000E-02    1.00000000E+00   1.00000000E+00 
D    1    1.000000
   6.26000000E-01    1.00000000E+00 

12    0
S    3    1.000000
   3.38650000E+01    2.54938000E-02 
   5.09479000E+00    1.90373000E-01 
   1.15879000E+00    8.52161000E-01 
S    1    1.000000
   3.25840000E-01    1.00000000E+00 
S    1    1.000000
   1.02741000E-01    1.00000000E+00 
S    1    1.000000
   3.60000000E-02    1.00000000E+00 
P    1    1.000000
   7.50000000E-01    1.00000000E+00 

[MO]
Sym=X
Ene= -0.495085
Spin=Alpha
Occup=1
     1    1.992126214395e-02
     2    3.518240837523e-02
     3    1.908272086566e-02
     4    2.625311212415e-02
     5    9.156242383208e-15
     6   -1.195768928073e-01
     7    3.554809668985e-02
     8    3.435956504856e-02
     9    4.600293585345e-15
    10   -1.681403719913e-01
    11    1.006787441188e-01
    12    1.663567471258e-01
    13    4.983656762795e-14
    14   -2.815931136490e+00
    15   -4.845870655622e-01
    16    2.115697442591e+00
    17   -2.478501802380e-13
    18   -2.528792333688e-04
    19   -2.551972800762e-15
    20   -2.663214470433e-15
    21   -7.007376237210e-03
    22    1.633507326630e-03
    23    1.013413543473e-02
    24    3.130861811176e-02
    25   -3.665140421662e-01
    26   -6.249252986392e-01
    27    4.556938520919e-03
    28   -7.644887762652e-03
    29    2.401274888635e-15
    30   -1.181098775215e-03
    31   -9.200718028609e-03
    32    4.598904212662e-01
    33    3.422169878334e+00
    34   -6.601475594727e-04
    35   -1.327405256383e-02
    36    2.096829744376e-15
    37    1.449113131315e-02
    38    3.631386221416e-02
    39    2.991239197592e-01
    40    9.039121613942e-01
    41   -2.032423436882e-03
    42    9.382536926092e-03
    43    1.988786089696e-15
    44    6.976393054411e-03
    45    1.264170463963e-02
    46    1.947334618380e-02
    47   -1.174372415036e-03
    48    3.145888385221e-16
    49   -4.223859735182e-02
    50    3.330672722187e-02
    51   -6.896828206373e-03
    52    2.287247672672e-14
    53   -1.361470861518e-01
    54    3.430145069830e-01
    55   -1.565962200451e-01
    56   -7.969441942913e-14
    57   -3.447614152716e-02
    58    1.526572307552e+00
    59    3.744957860677e-01
    60    3.882634611238e-13
    61   -6.554817174059e-03
    62    7.980477165834e-15
    63    3.011918036398e-15
    64    1.052234984775e-02
    65   -1.327764518631e-02
    66   -1.451937314240e-02
    67   -2.509759460758e-02
    68   -1.595575542179e-02
    69   -4.778633047445e-02
    70   -3.206567355895e-15
    71    8.467989146211e-02
    72   -2.485134759308e-02
    73   -6.678262438130e-02
    74   -6.296423498269e-15
    75    2.232971165362e-01
    76    4.382262531844e-02
    77   -8.896607655615e-02
    78    2.180773175660e-14
    79    8.025745055998e-01
    80    6.028428179312e-02
    81   -1.063657650264e-01
    82   -1.184040933970e-13
    83   -3.683192104636e-05
    84    3.783282358395e-16
    85    8.496257345287e-16
    86   -2.810902707528e-03
    87   -3.102445169155e-04
    88    1.431143392300e-03
    89    2.495874845356e-03
    90   -2.255614381389e-03
    91    2.795547306747e-03
    92    5.757569854485e-16
    93   -1.315989681560e-02
    94   -2.201295169536e-03
    95    9.170464119540e-03
    96    7.304721213597e-15
    97    6.989549922110e-02
    98   -1.113834325579e-01
    99   -6.139324243571e-02
   100   -5.540382224336e-14
   101   -1.093916880971e+00
   102    1.200052451102e+00
   103   -3.109662929967e-01
   104   -8.265121760539e-13
   105    2.591728293699e-03
   106   -1.811659249014e-15
   107    1.716152101251e-15
   108    7.953235626796e-03
   109    9.134860567304e-03
   110    1.806103438811e-03
   111    3.137407277209e-03
   112   -4.505900728882e-03
   113   -1.307174294266e-02
   114   -3.799257024686e-15
   115   -1.042453605456e-02
   116   -8.208109611641e-03
   117   -1.959285698182e-02
   118    4.123303431250e-15
   119   -4.234942050127e-03
   120    1.625703347440e-03
   121   -2.169191879690e-02
   122   -5.270927357912e-14
   123    1.573806017550e-01
   124   -1.613745793341e-01
   125   -8.147841519188e-02
   126    2.755578984898e-13
   127    6.553994875109e-04
   128    4.849744055692e-16
   129   -4.403003121805e-16
   130   -4.653396111555e-04
   131   -4.677343013235e-04
   132    1.057707609556e-02
   133    1.804535761291e-02
   134   -9.478058552580e-03
   135   -2.040702526975e-02
   136   -4.884929726259e-15
   137   -4.990264096825e-02
   138   -1.318301585421e-02
   139   -3.339744537528e-02
   140   -4.902274136040e-16
   141   -2.772818282155e-01
   142   -1.868658794768e-02
   143    1.324560173366e-02
   144   -3.348795103106e-14
   145   -4.743945787642e-01
   146    2.056669010211e-02
   147   -3.322244173719e-01
   148    2.744299072771e-13
   149   -4.635044276083e-05
   150   -6.573429318035e-17
   151    3.936708384366e-16
   152   -6.654029541376e-03
   153    7.764032007839e-04
   154   -4.378879687041e-03
   155   -7.527035453199e-03
   156   -1.846414873838e-03
   157   -3.371326740471e-03
   158    3.337428350772e-15
   159    1.906250901135e-02
   160   -2.811828901122e-03
   161    1.100279999839e-03
   162   -1.565077429241e-15
   163    7.244349561866e-02
   164   -3.144256301821e-02
   165   -5.863172941716e-02
   166    3.088327676842e-14
   167   -4.442196449317e-01
   168   -9.030787385506e-01
   169   -5.009276093711e-01
   170   -1.823760131832e-13
   171    1.957409719098e-03
   172    2.170364451157e-15
   173   -2.696482752382e-15
   174    1.446954576882e-03
   175    1.142776786595e-02
   176    7.178597755219e-03
   177    1.242333339055e-02
   178   -1.886225765673e-02
   179   -4.059628750409e-03
   180   -8.443962526503e-15
   181   -3.709512988329e-02
   182   -2.265700573456e-02
   183   -4.662679508683e-03
   184    1.436470146669e-15
   185   -2.481912553407e-01
   186    1.723397448261e-03
   187   -5.215319466917e-02
   188   -6.086994856706e-14
   189    9.133758255236e-02
   190   -1.099273237267e+00
   191   -9.803543655847e-01
   192    6.691299113557e-13
   193    4.200991662199e-03
   194    6.388892186524e-16
   195   -7.849971620301e-16
   196    1.640425769687e-04
   197   -5.937142974308e-03
   198   -1.301053953252e-03
   199   -5.698827331866e-03
   200    7.835146882157e-02
   201    5.153175159881e-01
   202    2.465926404575e-03
   203   -5.065486934051e-03
   204    3.919753306950e-15
Sym=X
Ene= 0.495085
Spin=Alpha
Occup=0
     1   -7.089071076716e-15
     2   -1.439874714244e-14
     3   -2.484069702538e-14
     4    3.832119505362e-14
     5   -3.130219409290e-02
     6    3.301148685837e-14
     7   -1.869251745446e-14
     8    1.003689417616e-13
     9   -4.923514517744e-02
    10    5.568610235286e-13
    11   -4.763321534156e-13
    12    5.283709596326e-13
    13   -9.032633334404e-02
    14    1.464180306688e-12
    15    4.341433710426e-12
    16   -2.842289288988e-12
    17    4.540284877129e-01
    18   -8.182963489632e-15
    19    2.371743849011e-03
    20   -4.906212544083e-03
    21   -5.425209646063e-15
    22    1.299076760289e-14
    23   -6.757790827423e-15
    24    9.476179873957e-14
    25   -2.719460875548e-12
    26    2.483952935340e-13
    27    3.937028765150e-15
    28    1.180351859550e-14
    29    4.835996386908e-03
    30    1.555899085715e-14
    31    1.398581501047e-13
    32    4.965885454270e-13
    33   -1.363881111568e-12
    34   -8.147486948750e-15
    35    4.670665190260e-15
    36   -2.909958278520e-04
    37   -2.099614408422e-14
    38   -1.679573621001e-13
    39    2.138168126042e-13
    40   -1.169478760512e-12
    41    6.956416794281e-15
    42    7.354192754174e-15
    43    1.450499377400e-03
    44    4.092931437987e-15
    45    5.099986386663e-15
    46   -1.215116602661e-14
    47    1.106029446504e-14
    48   -5.327543829109e-02
    49   -6.105764562685e-14
    50   -5.538731952829e-15
    51    6.786889141711e-15
    52   -9.719597363366e-02
    53    8.443842005244e-13
    54    1.418449019389e-13
    55    2.407667352448e-13
    56   -1.091386448477e-01
    57    4.055888408817e-12
    58    1.652717331899e-12
    59   -3.140781675844e-13
    60    1.735402332554e+00
    61   -5.960698324159e-15
    62    6.361879237346e-04
    63   -3.178519626142e-03
    64    7.306064002082e-15
    65    7.028045095298e-15
    66    8.030734598506e-16
    67   -1.173926749764e-15
    68   -3.333362434911e-15
    69    1.648797183539e-15
    70   -3.851731311714e-02
    71    2.762861523153e-15
    72    1.242515037961e-14
    73    2.550359537053e-14
    74   -6.049297918848e-02
    75   -1.499673933669e-14
    76   -1.253639738929e-13
    77   -1.011448466587e-13
    78   -1.526913947666e-02
    79   -7.710976641628e-13
    80    2.134285447759e-13
    81    1.270306267507e-12
    82   -1.033929723572e-01
    83   -1.166799224156e-15
    84   -7.377308915215e-03
    85    4.094774736656e-03
    86   -5.359196238216e-15
    87   -4.620776561663e-15
    88    1.757950395497e-14
    89    2.891393297537e-14
    90    1.285900634743e-14
    91   -2.192273172310e-14
    92   -2.401878192811e-03
    93   -6.861379874109e-14
    94    7.789247735129e-14
    95   -3.785086742155e-14
    96   -8.979577359366e-03
    97   -5.756892179758e-13
    98   -4.092790820708e-13
    99   -1.028819506538e-12
   100    1.677524188238e-02
   101   -2.342395275671e-11
   102   -1.379943589861e-13
   103    6.544828609628e-12
   104    3.177098551439e-01
   105   -1.033959532481e-14
   106    1.887261270488e-03
   107   -2.418857226542e-03
   108   -6.725477139544e-15
   109   -5.761170685132e-15
   110   -1.593266089627e-15
   111   -3.006288489318e-15
   112   -3.021731000216e-15
   113   -1.685432866797e-14
   114   -1.058497546122e-02
   115    2.513216513471e-15
   116   -2.278819380468e-15
   117   -3.293140715904e-14
   118   -1.508715282263e-02
   119    1.755873605394e-13
   120   -1.259157420524e-13
   121   -2.099686915126e-14
   122   -2.185097883550e-02
   123    1.314978557670e-12
   124   -4.980082789577e-13
   125   -8.529188123758e-13
   126    1.331614917347e-03
   127    4.925239313471e-15
   128    5.913085725429e-04
   129    4.141523600535e-04
   130   -1.880682900622e-15
   131   -3.679241386948e-15
   132   -9.579963639845e-15
   133   -1.691658309502e-14
   134    6.908971371551e-15
   135   -1.208721483533e-14
   136   -2.368444538374e-02
   137    3.050621803834e-14
   138    6.742556237986e-15
   139   -2.365871302943e-14
   140   -5.366494729806e-02
   141    2.892689716636e-13
   142    3.042013490244e-13
   143    1.526936066416e-13
   144    1.845026066586e-02
   145   -1.966613907438e-12
   146    1.671382866889e-12
   147   -4.355016742149e-13
   148   -6.342504494668e-01
   149    6.293456210487e-15
   150    2.495968941586e-03
   151    3.062762293071e-03
   152   -1.695816687339e-15
   153    1.989832690588e-15
   154    7.421641113845e-15
   155    1.566451115983e-14
   156   -2.874508830226e-14
   157    1.566111732641e-14
   158   -2.228697979761e-02
   159   -2.648516589831e-14
   160   -3.445063443170e-14
   161    2.335562831151e-14
   162   -5.033219305231e-02
   163   -3.688466484458e-13
   164   -2.896519279760e-13
   165    1.295477031694e-13
   166    1.676451386925e-02
   167    3.877699659898e-12
   168   -3.661590535385e-12
   169   -2.430823588465e-13
   170   -5.155981476635e-01
   171    6.900756796436e-16
   172   -5.351422619880e-03
   173   -2.610123225867e-03
   174    4.373306825840e-15
   175   -9.634390700146e-15
   176   -5.230866250093e-15
   177   -6.289876797230e-15
   178   -2.399444416796e-14
   179    1.572015939333e-14
   180   -9.731412705265e-03
   181    7.059215880822e-14
   182   -5.229370451795e-15
   183    3.701678914318e-14
   184   -1.465621725861e-02
   185   -8.554032148543e-13
   186   -1.493323488923e-13
   187   -5.438616214788e-13
   188   -1.321404141257e-02
   189    1.319174141723e-11
   190   -2.801796248514e-12
   191    1.037246838694e-11
   192   -4.085348910527e-01
   193   -8.167140856929e-15
   194    2.720754664061e-03
   195    1.893017793420e-03
   196    2.139143838377e-14
   197   -1.840561887099e-14
   198    3.839858199166e-14
   199   -1.443698279101e-14
   200    1.394590897242e-12
   201    5.082857160651e-12
   202    7.372841401202e-15
   203   -1.575390929401e-15
   204    8.621233070395e-05
[5D]
