[Molden Format]
[Atoms] (Angs)
  C      1    6     -0.00754183     -1.75895763      0.00000000
  H      2    1     -2.09769850     -1.41880678     -0.00000000
  H      3    1     -0.13527422     -2.83956838     -0.00000000
  H      4    1      0.04053511      2.02026369      0.00000000
  C      5    6     -1.22066484      0.39918184     -0.00000000
  O      6    8     -2.25210141      1.05663720     -0.00000000
  C      7    6      1.24009552      0.27789184      0.00000000
  O      8    8      2.33767996      1.06122493      0.00000000
  N      9    7      0.03634586      1.00852936      0.00000000
  N     10    7     -1.18738304     -0.97903470     -0.00000000
  C     11    6      1.22288875     -1.12258096      0.00000000
  H     12    1      2.15640383     -1.68445878      0.00000000
[GTO]
1    0
S    6    1.000000
   4.56324000E+03    1.96665000E-03 
   6.82024000E+02    1.52306000E-02 
   1.54973000E+02    7.61269000E-02 
   4.44553000E+01    2.60801000E-01 
   1.30290000E+01    6.16462000E-01 
   1.82773000E+00    2.21006000E-01 
SP   3    1.000000
   2.09642000E+01    1.14660000E-01   4.02487000E-02 
   4.80331000E+00    9.19999000E-01   2.37594000E-01 
   1.45933000E+00   -3.03068000E-03   8.15854000E-01 
SP   1    1.000000
   4.83456000E-01    1.00000000E+00   1.00000000E+00 
SP   1    1.000000
   1.45585000E-01    1.00000000E+00   1.00000000E+00 
SP   1    1.000000
   4.38000000E-02    1.00000000E+00   1.00000000E+00 
D    1    1.000000
   6.26000000E-01    1.00000000E+00 

2    0
S    3    1.000000
   3.38650000E+01    2.54938000E-02 
   5.09479000E+00    1.90373000E-01 
   1.15879000E+00    8.52161000E-01 
S    1    1.000000
   3.25840000E-01    1.00000000E+00 
S    1    1.000000
   1.02741000E-01    1.00000000E+00 
S    1    1.000000
   3.60000000E-02    1.00000000E+00 
P    1    1.000000
   7.50000000E-01    1.00000000E+00 

3    0
S    3    1.000000
   3.38650000E+01    2.54938000E-02 
   5.09479000E+00    1.90373000E-01 
   1.15879000E+00    8.52161000E-01 
S    1    1.000000
   3.25840000E-01    1.00000000E+00 
S    1    1.000000
   1.02741000E-01    1.00000000E+00 
S    1    1.000000
   3.60000000E-02    1.00000000E+00 
P    1    1.000000
   7.50000000E-01    1.00000000E+00 

4    0
S    3    1.000000
   3.38650000E+01    2.54938000E-02 
   5.09479000E+00    1.90373000E-01 
   1.15879000E+00    8.52161000E-01 
S    1    1.000000
   3.25840000E-01    1.00000000E+00 
S    1    1.000000
   1.02741000E-01    1.00000000E+00 
S    1    1.000000
   3.60000000E-02    1.00000000E+00 
P    1    1.000000
   7.50000000E-01    1.00000000E+00 

5    0
S    6    1.000000
   4.56324000E+03    1.96665000E-03 
   6.82024000E+02    1.52306000E-02 
   1.54973000E+02    7.61269000E-02 
   4.44553000E+01    2.60801000E-01 
   1.30290000E+01    6.16462000E-01 
   1.82773000E+00    2.21006000E-01 
SP   3    1.000000
   2.09642000E+01    1.14660000E-01   4.02487000E-02 
   4.80331000E+00    9.19999000E-01   2.37594000E-01 
   1.45933000E+00   -3.03068000E-03   8.15854000E-01 
SP   1    1.000000
   4.83456000E-01    1.00000000E+00   1.00000000E+00 
SP   1    1.000000
   1.45585000E-01    1.00000000E+00   1.00000000E+00 
SP   1    1.000000
   4.38000000E-02    1.00000000E+00   1.00000000E+00 
D    1    1.000000
   6.26000000E-01    1.00000000E+00 

6    0
S    6    1.000000
   8.58850000E+03    1.89515000E-03 
   1.29723000E+03    1.43859000E-02 
   2.99296000E+02    7.07320000E-02 
   8.73771000E+01    2.40001000E-01 
   2.56789000E+01    5.94797000E-01 
   3.74004000E+00    2.80802000E-01 
SP   3    1.000000
   4.21175000E+01    1.13889000E-01   3.65114000E-02 
   9.62837000E+00    9.20811000E-01   2.37153000E-01 
   2.85332000E+00   -3.27447000E-03   8.19702000E-01 
SP   1    1.000000
   9.05661000E-01    1.00000000E+00   1.00000000E+00 
SP   1    1.000000
   2.55611000E-01    1.00000000E+00   1.00000000E+00 
SP   1    1.000000
   8.45000000E-02    1.00000000E+00   1.00000000E+00 
D    1    1.000000
   1.29200000E+00    1.00000000E+00 

7    0
S    6    1.000000
   4.56324000E+03    1.96665000E-03 
   6.82024000E+02    1.52306000E-02 
   1.54973000E+02    7.61269000E-02 
   4.44553000E+01    2.60801000E-01 
   1.30290000E+01    6.16462000E-01 
   1.82773000E+00    2.21006000E-01 
SP   3    1.000000
   2.09642000E+01    1.14660000E-01   4.02487000E-02 
   4.80331000E+00    9.19999000E-01   2.37594000E-01 
   1.45933000E+00   -3.03068000E-03   8.15854000E-01 
SP   1    1.000000
   4.83456000E-01    1.00000000E+00   1.00000000E+00 
SP   1    1.000000
   1.45585000E-01    1.00000000E+00   1.00000000E+00 
SP   1    1.000000
   4.38000000E-02    1.00000000E+00   1.00000000E+00 
D    1    1.000000
   6.26000000E-01    1.00000000E+00 

8    0
S    6    1.000000
   8.58850000E+03    1.89515000E-03 
   1.29723000E+03    1.43859000E-02 
   2.99296000E+02    7.07320000E-02 
   8.73771000E+01    2.40001000E-01 
   2.56789000E+01    5.94797000E-01 
   3.74004000E+00    2.80802000E-01 
SP   3    1.000000
   4.21175000E+01    1.13889000E-01   3.65114000E-02 
   9.62837000E+00    9.20811000E-01   2.37153000E-01 
   2.85332000E+00   -3.27447000E-03   8.19702000E-01 
SP   1    1.000000
   9.05661000E-01    1.00000000E+00   1.00000000E+00 
SP   1    1.000000
   2.55611000E-01    1.00000000E+00   1.00000000E+00 
SP   1    1.000000
   8.45000000E-02    1.00000000E+00   1.00000000E+00 
D    1    1.000000
   1.29200000E+00    1.00000000E+00 

9    0
S    6    1.000000
   6.29348000E+03    1.96979000E-03 
   9.49044000E+02    1.49613000E-02 
   2.18776000E+02    7.35006000E-02 
   6.36916000E+01    2.48937000E-01 
   1.88282000E+01    6.02460000E-01 
   2.72023000E+00    2.56202000E-01 
SP   3    1.000000
   3.06331000E+01    1.11906000E-01   3.83119000E-02 
   7.02614000E+00    9.21666000E-01   2.37403000E-01 
   2.11205000E+00   -2.56919000E-03   8.17592000E-01 
SP   1    1.000000
   6.84009000E-01    1.00000000E+00   1.00000000E+00 
SP   1    1.000000
   2.00878000E-01    1.00000000E+00   1.00000000E+00 
SP   1    1.000000
   6.39000000E-02    1.00000000E+00   1.00000000E+00 
D    1    1.000000
   9.13000000E-01    1.00000000E+00 

10    0
S    6    1.000000
   6.29348000E+03    1.96979000E-03 
   9.49044000E+02    1.49613000E-02 
   2.18776000E+02    7.35006000E-02 
   6.36916000E+01    2.48937000E-01 
   1.88282000E+01    6.02460000E-01 
   2.72023000E+00    2.56202000E-01 
SP   3    1.000000
   3.06331000E+01    1.11906000E-01   3.83119000E-02 
   7.02614000E+00    9.21666000E-01   2.37403000E-01 
   2.11205000E+00   -2.56919000E-03   8.17592000E-01 
SP   1    1.000000
   6.84009000E-01    1.00000000E+00   1.00000000E+00 
SP   1    1.000000
   2.00878000E-01    1.00000000E+00   1.00000000E+00 
SP   1    1.000000
   6.39000000E-02    1.00000000E+00   1.00000000E+00 
D    1    1.000000
   9.13000000E-01    1.00000000E+00 

11    0
S    6    1.000000
   4.56324000E+03    1.96665000E-03 
   6.82024000E+02    1.52306000E-02 
   1.54973000E+02    7.61269000E-02 
   4.44553000E+01    2.60801000E-01 
   1.30290000E+01    6.16462000E-01 
   1.82773000E+00    2.21006000E-01 
SP   3    1.000000
   2.09642000E+01    1.14660000E-01   4.02487000E-02 
   4.80331000E+00    9.19999000E-01   2.37594000E-01 
   1.45933000E+00   -3.03068000E-03   8.15854000E-01 
SP   1    1.000000
   4.83456000E-01    1.00000000E+00   1.00000000E+00 
SP   1    1.000000
   1.45585000E-01    1.00000000E+00   1.00000000E+00 
SP   1    1.000000
   4.38000000E-02    1.00000000E+00   1.00000000E+00 
D    1    1.000000
   6.26000000E-01    1.00000000E+00 

12    0
S    3    1.000000
   3.38650000E+01    2.54938000E-02 
   5.09479000E+00    1.90373000E-01 
   1.15879000E+00    8.52161000E-01 
S    1    1.000000
   3.25840000E-01    1.00000000E+00 
S    1    1.000000
   1.02741000E-01    1.00000000E+00 
S    1    1.000000
   3.60000000E-02    1.00000000E+00 
P    1    1.000000
   7.50000000E-01    1.00000000E+00 

[MO]
Sym=X
Ene= -0.493953
Spin=Alpha
Occup=1
     1   -1.762710412360e-02
     2   -3.055514768347e-02
     3    9.885538862839e-03
     4   -3.790002774665e-02
     5   -1.686997452968e-15
     6    9.258580445696e-02
     7    1.391811242439e-02
     8   -5.800844936861e-02
     9    1.704361104696e-14
    10    3.029578220531e-01
    11    5.994400756448e-03
    12   -1.495338341942e-01
    13   -1.114588453619e-13
    14    9.721277538377e-01
    15   -3.386612919650e-01
    16   -1.566054976407e+00
    17    1.384000387833e-13
    18    1.150616867353e-03
    19   -6.476419511584e-15
    20    1.000852104540e-16
    21    1.629575743448e-02
    22   -6.484935385477e-03
    23   -5.194781178684e-03
    24   -4.202697790081e-02
    25   -9.095358935558e-02
    26   -6.057507554507e-01
    27    3.887349787623e-03
    28    3.289561178670e-03
    29    6.194550898507e-15
    30   -6.241192417159e-03
    31   -1.883178286549e-02
    32   -4.467132433925e-01
    33   -2.575260065426e+00
    34    2.892619262529e-03
    35    1.263612810562e-02
    36   -1.189659091037e-16
    37   -1.680257573666e-02
    38   -4.807337490548e-02
    39    2.235306119678e-01
    40    6.900140601050e-01
    41    3.384621292872e-03
    42    4.351673234458e-03
    43    1.566862690807e-15
    44   -5.421473174787e-03
    45   -9.968195354969e-03
    46    1.071974637782e-02
    47    2.339145803691e-03
    48   -4.577646105280e-15
    49    4.312709669052e-02
    50    2.366386923295e-02
    51    3.814432121649e-04
    52    2.046625124734e-14
    53   -4.905818711341e-02
    54   -4.774478024231e-02
    55    1.156128859050e-02
    56   -6.034001314289e-14
    57    7.233874606620e-01
    58   -5.197286186733e-02
    59   -5.975172064195e-01
    60   -2.264112420906e-13
    61    4.652668798847e-03
    62    4.940773754721e-15
    63   -4.425476052583e-15
    64    5.198556407561e-04
    65    6.640899294884e-03
    66    5.245432141485e-04
    67    8.750669781175e-04
    68   -1.021827499078e-02
    69   -1.607100743803e-03
    70   -3.089550474646e-15
    71   -3.082989096345e-03
    72   -1.360302274774e-02
    73   -2.607312879114e-03
    74   -4.792976552465e-15
    75    2.048657793219e-03
    76   -1.355870746554e-02
    77   -9.316897865877e-03
    78   -2.641367357721e-14
    79   -1.160833500217e-01
    80   -4.340959910410e-02
    81    9.144373855310e-02
    82    1.057852006045e-13
    83   -1.288128617539e-04
    84   -5.813221356268e-16
    85    3.299640029100e-16
    86    3.212144688214e-04
    87   -7.539873541341e-04
    88   -1.256992141142e-02
    89   -2.209918905071e-02
    90    4.694389276910e-02
    91    1.994719643798e-02
    92    8.684894982004e-15
    93    6.275358493860e-02
    94    7.947955901144e-02
    95    3.270754463248e-02
    96    1.267328494013e-14
    97    2.320740384987e-01
    98    3.621345775871e-01
    99    2.260540780286e-01
   100    1.953059639239e-14
   101    2.638363671766e-01
   102    2.550734061866e-01
   103    5.038974955242e-01
   104   -1.755897733738e-13
   105    1.599601017524e-02
   106   -4.307682370502e-16
   107    3.078392898036e-15
   108   -9.049422718790e-04
   109   -2.510821477169e-02
   110    2.019633493827e-02
   111    3.486563320555e-02
   112    4.990263198347e-02
   113    2.623853260178e-02
   114   -1.697168489498e-15
   115   -1.160563752858e-01
   116    6.705635782825e-02
   117    3.497869843072e-02
   118   -8.247795695083e-15
   119   -2.806039848237e-01
   120    1.260603300250e-01
   121    7.907067307525e-02
   122    6.577253650084e-15
   123   -6.736191428482e-01
   124    1.033695438470e-01
   125    1.321737675868e-01
   126   -2.060448417920e-14
   127   -1.125934523041e-04
   128   -8.278310073018e-17
   129   -1.081579093481e-16
   130   -1.571250403880e-03
   131    2.870814433382e-03
   132    2.082942010195e-03
   133    3.680734851779e-03
   134   -1.998988313195e-03
   135   -1.643239452672e-02
   136   -1.029257199733e-14
   137   -1.280373899345e-02
   138   -5.771571701409e-03
   139   -2.379618817115e-02
   140   -1.056640518132e-14
   141    9.430480763663e-03
   142   -1.489732594742e-02
   143   -7.054411197578e-02
   144   -5.518256987240e-14
   145    5.393309185046e-02
   146   -1.324344489366e-01
   147   -5.807260395384e-01
   148    2.643288305628e-13
   149    3.216457568403e-03
   150    3.527934362888e-15
   151   -7.911938712988e-16
   152    7.874063996565e-03
   153    5.123602665469e-03
   154   -7.014213317177e-03
   155   -1.214522616596e-02
   156   -1.419755079923e-02
   157   -1.482256274378e-02
   158   -6.815613141410e-15
   159    3.766775383100e-02
   160   -2.117419229469e-02
   161   -2.077816559218e-02
   162   -9.182359694313e-15
   163    1.230665251452e-01
   164   -5.371889692709e-02
   165   -3.853476119221e-02
   166   -4.736550877577e-15
   167   -2.183671483392e-01
   168   -7.873679015676e-02
   169    4.825563817105e-02
   170    1.334285233770e-13
   171   -7.414780722284e-04
   172   -3.504700246789e-15
   173   -1.804114840023e-15
   174   -4.601718103789e-03
   175   -3.426425064782e-03
   176   -4.190573754173e-03
   177   -7.132212185470e-03
   178    2.615242488204e-02
   179   -2.854828996391e-02
   180   -3.627796430652e-16
   181    2.112615192603e-02
   182    4.010545852571e-02
   183   -4.433650845745e-02
   184   -1.791867285348e-14
   185    1.987772754819e-01
   186    3.560223102191e-02
   187   -1.261658414143e-02
   188    5.429716350529e-14
   189    2.285681468231e+00
   190    2.834026269469e-01
   191    8.465163216142e-02
   192   -3.630794336339e-14
   193    1.206179766596e-03
   194   -2.350347512618e-16
   195    3.321506253462e-15
   196   -5.857389731657e-03
   197    2.238336272079e-02
   198   -1.601427926588e-02
   199   -3.600627714542e-02
   200   -2.643500726619e-01
   201   -1.276574494845e+00
   202   -7.604233027533e-03
   203    7.179415119093e-03
   204   -2.382560104687e-15
Sym=X
Ene= 0.493953
Spin=Alpha
Occup=0
     1    6.495757611899e-15
     2    1.397772217783e-14
     3   -9.422355867389e-15
     4   -5.015433982779e-15
     5    1.110837362979e-02
     6   -3.889078653081e-14
     7    1.681126336916e-15
     8   -4.165478460150e-15
     9    1.249264834485e-02
    10   -5.354308226492e-13
    11   -2.402261539860e-13
    12   -4.395202853946e-13
    13    2.770022930748e-02
    14   -2.389314995757e-12
    15   -3.248496959393e-13
    16   -2.255610327439e-12
    17   -7.148336388579e-01
    18   -9.086658290473e-15
    19    6.096092752184e-03
    20    7.652673056248e-03
    21    8.126599248025e-15
    22    8.419165508829e-15
    23   -8.282362001124e-15
    24    6.554577060429e-14
    25   -4.313144801955e-13
    26   -2.396731376039e-12
    27    2.088935591535e-15
    28   -4.385404108234e-15
    29   -1.001069213461e-03
    30   -5.731919534336e-15
    31    5.670591497971e-14
    32   -9.776753766467e-13
    33   -8.737206115792e-13
    34    2.256076346968e-15
    35   -3.672006340294e-15
    36   -3.385534483717e-03
    37   -1.097853277098e-14
    38    1.201989096517e-13
    39   -1.613033638834e-12
    40    2.005229507772e-12
    41   -2.672068900251e-15
    42   -8.958910596503e-15
    43   -3.125481338763e-03
    44   -7.544995709340e-15
    45   -6.668258876427e-15
    46   -1.587296461036e-14
    47   -2.777167229395e-14
    48    3.967472293878e-02
    49    8.603794714582e-15
    50   -8.564870553753e-15
    51   -1.585643970399e-14
    52    7.554966212431e-02
    53    4.637087022717e-13
    54   -7.934699004230e-13
    55   -4.814442788562e-13
    56    7.807096437915e-02
    57    4.517585830250e-12
    58   -1.006173734515e-12
    59   -3.607186715975e-12
    60   -6.225521299060e-01
    61   -1.474845456791e-15
    62    7.100675810907e-03
    63   -2.818745631264e-03
    64   -3.549260922186e-15
    65   -3.264048397793e-16
    66   -4.981621008933e-16
    67    8.268197044870e-16
    68   -3.833649552442e-15
    69   -5.159974272359e-15
    70   -5.895757168892e-03
    71   -9.771962356836e-16
    72   -6.899119805389e-16
    73   -5.551511493013e-16
    74   -4.211247101617e-03
    75   -7.229491097506e-14
    76   -6.585921880601e-14
    77    1.848646012668e-14
    78   -3.490745243096e-02
    79   -9.299675805689e-13
    80   -3.707123265560e-14
    81    7.420965960521e-13
    82    7.231488404741e-02
    83   -2.025385387559e-16
    84    2.401880086431e-03
    85   -1.704907943045e-03
    86   -3.844190897269e-16
    87   -2.254151573318e-15
    88   -2.932123178358e-15
    89   -8.106834703483e-15
    90   -1.444336227407e-14
    91   -1.255156274503e-14
    92    3.435162792345e-02
    93    4.339530495722e-14
    94   -2.928663511898e-14
    95    2.203726052945e-14
    96    4.964849713231e-02
    97   -5.308101675709e-13
    98    2.957536068399e-13
    99   -1.739547536077e-13
   100    9.634273658622e-02
   101   -1.690249542043e-11
   102    3.809117511883e-12
   103    8.150161219965e-13
   104   -1.572935490553e+00
   105    1.573285219770e-14
   106    3.906955890653e-04
   107   -5.089294443744e-03
   108    1.040955880109e-15
   109    1.386865094147e-14
   110   -6.186793590866e-17
   111   -3.296486585739e-16
   112    7.685981199387e-15
   113   -5.167854964058e-15
   114    4.040483491641e-02
   115    5.780050566976e-15
   116    1.417577104275e-15
   117   -2.506703732640e-15
   118    5.938045915526e-02
   119   -6.522127178995e-14
   120    7.187041024097e-14
   121   -1.969354915603e-15
   122    3.371144472819e-02
   123   -1.853448094158e-13
   124   -1.737252966186e-13
   125    2.750624111187e-14
   126    8.802380444772e-02
   127    8.710199580573e-16
   128   -3.488633701562e-03
   129   -2.827007771506e-03
   130   -1.097262954955e-15
   131   -3.097609077320e-15
   132    5.271207400296e-15
   133    1.353180551390e-14
   134   -2.630554220012e-14
   135    1.253343544192e-14
   136    2.014977469485e-02
   137   -2.711273386256e-14
   138   -1.946606000298e-14
   139    2.622874654564e-14
   140    4.769666370080e-02
   141   -1.141945730864e-13
   142   -2.825608904341e-13
   143   -1.641756472820e-13
   144   -2.516112286725e-02
   145    1.063937070275e-11
   146    7.221665141137e-13
   147   -4.681302623251e-13
   148    5.709082446898e-01
   149    8.654397670323e-15
   150   -3.487522260856e-03
   151   -4.954744826761e-03
   152    3.387911378500e-15
   153    1.471130409636e-15
   154   -5.088104185025e-15
   155   -1.057374830735e-14
   156    7.873951982393e-15
   157   -1.457811137776e-14
   158    1.018876625715e-02
   159   -2.416205491315e-15
   160    2.560445026664e-15
   161   -1.702128368593e-14
   162    2.938807187390e-02
   163    5.370629986761e-13
   164    2.646432666347e-13
   165   -1.749364926571e-13
   166   -3.969018868886e-02
   167   -5.248250446417e-12
   168   -1.297634888596e-12
   169   -1.678279183196e-12
   170    4.872248835199e-01
   171   -1.089629585088e-14
   172    5.593944497627e-04
   173    4.576484853068e-03
   174   -8.677035216911e-15
   175   -8.503762012404e-16
   176    5.719089971050e-15
   177    5.045850694219e-15
   178   -3.411176359298e-14
   179   -1.227422245552e-14
   180    5.762952483055e-02
   181   -3.152946449620e-14
   182   -2.773645240794e-14
   183   -9.068339897271e-15
   184    8.066856403779e-02
   185    1.066546276561e-13
   186   -8.586159359416e-13
   187   -1.280684276464e-13
   188    1.998798344391e-01
   189    1.325722731229e-11
   190   -3.078078804131e-12
   191    3.939680528967e-12
   192    6.889168900600e-01
   193   -9.005124035863e-16
   194   -4.216990657657e-03
   195    4.914261248594e-03
   196   -1.646169956545e-14
   197   -7.261130965557e-15
   198   -2.996712851682e-15
   199    6.435609434607e-14
   200    7.095763918506e-13
   201    7.194358126359e-13
   202   -2.688267730372e-15
   203   -2.348855267932e-15
   204    3.050389677429e-04
[5D]
