[Molden Format]
[Atoms] (Angs)
  C      1    6     -0.00754183     -1.75895763      0.00000000
  H      2    1     -2.09769850     -1.41880678     -0.00000000
  H      3    1     -0.13527422     -2.83956838     -0.00000000
  H      4    1      0.04053511      2.02026369      0.00000000
  C      5    6     -1.22066484      0.39918184     -0.00000000
  O      6    8     -2.25210141      1.05663720     -0.00000000
  C      7    6      1.24009552      0.27789184      0.00000000
  O      8    8      2.33767996      1.06122493      0.00000000
  N      9    7      0.03634586      1.00852936      0.00000000
  N     10    7     -1.18738304     -0.97903470     -0.00000000
  C     11    6      1.22288875     -1.12258096      0.00000000
  H     12    1      2.15640383     -1.68445878      0.00000000
[GTO]
1    0
S    6    1.000000
   4.56324000E+03    1.96665000E-03 
   6.82024000E+02    1.52306000E-02 
   1.54973000E+02    7.61269000E-02 
   4.44553000E+01    2.60801000E-01 
   1.30290000E+01    6.16462000E-01 
   1.82773000E+00    2.21006000E-01 
SP   3    1.000000
   2.09642000E+01    1.14660000E-01   4.02487000E-02 
   4.80331000E+00    9.19999000E-01   2.37594000E-01 
   1.45933000E+00   -3.03068000E-03   8.15854000E-01 
SP   1    1.000000
   4.83456000E-01    1.00000000E+00   1.00000000E+00 
SP   1    1.000000
   1.45585000E-01    1.00000000E+00   1.00000000E+00 
SP   1    1.000000
   4.38000000E-02    1.00000000E+00   1.00000000E+00 
D    1    1.000000
   6.26000000E-01    1.00000000E+00 

2    0
S    3    1.000000
   3.38650000E+01    2.54938000E-02 
   5.09479000E+00    1.90373000E-01 
   1.15879000E+00    8.52161000E-01 
S    1    1.000000
   3.25840000E-01    1.00000000E+00 
S    1    1.000000
   1.02741000E-01    1.00000000E+00 
S    1    1.000000
   3.60000000E-02    1.00000000E+00 
P    1    1.000000
   7.50000000E-01    1.00000000E+00 

3    0
S    3    1.000000
   3.38650000E+01    2.54938000E-02 
   5.09479000E+00    1.90373000E-01 
   1.15879000E+00    8.52161000E-01 
S    1    1.000000
   3.25840000E-01    1.00000000E+00 
S    1    1.000000
   1.02741000E-01    1.00000000E+00 
S    1    1.000000
   3.60000000E-02    1.00000000E+00 
P    1    1.000000
   7.50000000E-01    1.00000000E+00 

4    0
S    3    1.000000
   3.38650000E+01    2.54938000E-02 
   5.09479000E+00    1.90373000E-01 
   1.15879000E+00    8.52161000E-01 
S    1    1.000000
   3.25840000E-01    1.00000000E+00 
S    1    1.000000
   1.02741000E-01    1.00000000E+00 
S    1    1.000000
   3.60000000E-02    1.00000000E+00 
P    1    1.000000
   7.50000000E-01    1.00000000E+00 

5    0
S    6    1.000000
   4.56324000E+03    1.96665000E-03 
   6.82024000E+02    1.52306000E-02 
   1.54973000E+02    7.61269000E-02 
   4.44553000E+01    2.60801000E-01 
   1.30290000E+01    6.16462000E-01 
   1.82773000E+00    2.21006000E-01 
SP   3    1.000000
   2.09642000E+01    1.14660000E-01   4.02487000E-02 
   4.80331000E+00    9.19999000E-01   2.37594000E-01 
   1.45933000E+00   -3.03068000E-03   8.15854000E-01 
SP   1    1.000000
   4.83456000E-01    1.00000000E+00   1.00000000E+00 
SP   1    1.000000
   1.45585000E-01    1.00000000E+00   1.00000000E+00 
SP   1    1.000000
   4.38000000E-02    1.00000000E+00   1.00000000E+00 
D    1    1.000000
   6.26000000E-01    1.00000000E+00 

6    0
S    6    1.000000
   8.58850000E+03    1.89515000E-03 
   1.29723000E+03    1.43859000E-02 
   2.99296000E+02    7.07320000E-02 
   8.73771000E+01    2.40001000E-01 
   2.56789000E+01    5.94797000E-01 
   3.74004000E+00    2.80802000E-01 
SP   3    1.000000
   4.21175000E+01    1.13889000E-01   3.65114000E-02 
   9.62837000E+00    9.20811000E-01   2.37153000E-01 
   2.85332000E+00   -3.27447000E-03   8.19702000E-01 
SP   1    1.000000
   9.05661000E-01    1.00000000E+00   1.00000000E+00 
SP   1    1.000000
   2.55611000E-01    1.00000000E+00   1.00000000E+00 
SP   1    1.000000
   8.45000000E-02    1.00000000E+00   1.00000000E+00 
D    1    1.000000
   1.29200000E+00    1.00000000E+00 

7    0
S    6    1.000000
   4.56324000E+03    1.96665000E-03 
   6.82024000E+02    1.52306000E-02 
   1.54973000E+02    7.61269000E-02 
   4.44553000E+01    2.60801000E-01 
   1.30290000E+01    6.16462000E-01 
   1.82773000E+00    2.21006000E-01 
SP   3    1.000000
   2.09642000E+01    1.14660000E-01   4.02487000E-02 
   4.80331000E+00    9.19999000E-01   2.37594000E-01 
   1.45933000E+00   -3.03068000E-03   8.15854000E-01 
SP   1    1.000000
   4.83456000E-01    1.00000000E+00   1.00000000E+00 
SP   1    1.000000
   1.45585000E-01    1.00000000E+00   1.00000000E+00 
SP   1    1.000000
   4.38000000E-02    1.00000000E+00   1.00000000E+00 
D    1    1.000000
   6.26000000E-01    1.00000000E+00 

8    0
S    6    1.000000
   8.58850000E+03    1.89515000E-03 
   1.29723000E+03    1.43859000E-02 
   2.99296000E+02    7.07320000E-02 
   8.73771000E+01    2.40001000E-01 
   2.56789000E+01    5.94797000E-01 
   3.74004000E+00    2.80802000E-01 
SP   3    1.000000
   4.21175000E+01    1.13889000E-01   3.65114000E-02 
   9.62837000E+00    9.20811000E-01   2.37153000E-01 
   2.85332000E+00   -3.27447000E-03   8.19702000E-01 
SP   1    1.000000
   9.05661000E-01    1.00000000E+00   1.00000000E+00 
SP   1    1.000000
   2.55611000E-01    1.00000000E+00   1.00000000E+00 
SP   1    1.000000
   8.45000000E-02    1.00000000E+00   1.00000000E+00 
D    1    1.000000
   1.29200000E+00    1.00000000E+00 

9    0
S    6    1.000000
   6.29348000E+03    1.96979000E-03 
   9.49044000E+02    1.49613000E-02 
   2.18776000E+02    7.35006000E-02 
   6.36916000E+01    2.48937000E-01 
   1.88282000E+01    6.02460000E-01 
   2.72023000E+00    2.56202000E-01 
SP   3    1.000000
   3.06331000E+01    1.11906000E-01   3.83119000E-02 
   7.02614000E+00    9.21666000E-01   2.37403000E-01 
   2.11205000E+00   -2.56919000E-03   8.17592000E-01 
SP   1    1.000000
   6.84009000E-01    1.00000000E+00   1.00000000E+00 
SP   1    1.000000
   2.00878000E-01    1.00000000E+00   1.00000000E+00 
SP   1    1.000000
   6.39000000E-02    1.00000000E+00   1.00000000E+00 
D    1    1.000000
   9.13000000E-01    1.00000000E+00 

10    0
S    6    1.000000
   6.29348000E+03    1.96979000E-03 
   9.49044000E+02    1.49613000E-02 
   2.18776000E+02    7.35006000E-02 
   6.36916000E+01    2.48937000E-01 
   1.88282000E+01    6.02460000E-01 
   2.72023000E+00    2.56202000E-01 
SP   3    1.000000
   3.06331000E+01    1.11906000E-01   3.83119000E-02 
   7.02614000E+00    9.21666000E-01   2.37403000E-01 
   2.11205000E+00   -2.56919000E-03   8.17592000E-01 
SP   1    1.000000
   6.84009000E-01    1.00000000E+00   1.00000000E+00 
SP   1    1.000000
   2.00878000E-01    1.00000000E+00   1.00000000E+00 
SP   1    1.000000
   6.39000000E-02    1.00000000E+00   1.00000000E+00 
D    1    1.000000
   9.13000000E-01    1.00000000E+00 

11    0
S    6    1.000000
   4.56324000E+03    1.96665000E-03 
   6.82024000E+02    1.52306000E-02 
   1.54973000E+02    7.61269000E-02 
   4.44553000E+01    2.60801000E-01 
   1.30290000E+01    6.16462000E-01 
   1.82773000E+00    2.21006000E-01 
SP   3    1.000000
   2.09642000E+01    1.14660000E-01   4.02487000E-02 
   4.80331000E+00    9.19999000E-01   2.37594000E-01 
   1.45933000E+00   -3.03068000E-03   8.15854000E-01 
SP   1    1.000000
   4.83456000E-01    1.00000000E+00   1.00000000E+00 
SP   1    1.000000
   1.45585000E-01    1.00000000E+00   1.00000000E+00 
SP   1    1.000000
   4.38000000E-02    1.00000000E+00   1.00000000E+00 
D    1    1.000000
   6.26000000E-01    1.00000000E+00 

12    0
S    3    1.000000
   3.38650000E+01    2.54938000E-02 
   5.09479000E+00    1.90373000E-01 
   1.15879000E+00    8.52161000E-01 
S    1    1.000000
   3.25840000E-01    1.00000000E+00 
S    1    1.000000
   1.02741000E-01    1.00000000E+00 
S    1    1.000000
   3.60000000E-02    1.00000000E+00 
P    1    1.000000
   7.50000000E-01    1.00000000E+00 

[MO]
Sym=X
Ene= -0.493536
Spin=Alpha
Occup=1
     1   -2.280070569424e-03
     2   -4.097953888927e-03
     3   -4.570989845944e-03
     4   -1.295403809397e-02
     5   -1.172565931788e-14
     6    1.798310335238e-02
     7   -1.031102109770e-02
     8   -1.970545333401e-02
     9   -2.889653490343e-14
    10    3.720025055501e-02
    11    2.719493433308e-03
    12   -4.390419838657e-02
    13   -4.003873148460e-14
    14    1.732893715318e+00
    15   -8.143156608915e-02
    16    1.482657419797e-02
    17    5.647115313585e-13
    18   -7.742641268305e-03
    19    1.210966842299e-14
    20   -1.513271841328e-16
    21    2.389521313289e-03
    22   -1.527589804916e-05
    23   -5.069304560983e-03
    24   -1.009515710897e-02
    25    7.947353353794e-03
    26   -1.223445242003e-01
    27    4.782482582900e-03
    28    2.727372877609e-03
    29   -5.422835216366e-15
    30    7.498182271036e-03
    31    1.330119453217e-02
    32   -2.750334808011e-02
    33   -3.583125065348e-01
    34   -3.100714783881e-04
    35    2.376504294695e-03
    36    2.041253302240e-15
    37    2.814578503497e-03
    38    1.691299077489e-03
    39   -2.859675212354e-01
    40   -6.320048806159e-01
    41   -3.678839668107e-03
    42   -1.060312747925e-02
    43   -8.603171095301e-15
    44    2.647628304759e-03
    45    4.138849936567e-03
    46   -1.059633064771e-02
    47   -5.883749796483e-03
    48    4.561001402267e-14
    49    1.375205013856e-03
    50   -1.741547360809e-02
    51   -1.153692231236e-02
    52    6.950082512321e-14
    53   -1.087781242167e-01
    54    6.656711765103e-04
    55    6.067835771713e-02
    56    1.682591103166e-13
    57   -1.120846002735e+00
    58   -3.619469288723e-01
    59    2.121173866403e-01
    60   -5.122914638306e-13
    61   -9.432821131548e-03
    62    2.761264974251e-15
    63   -2.996432019581e-15
    64   -4.060012310508e-03
    65    2.786919166827e-03
    66   -3.802064030346e-03
    67   -6.596997597489e-03
    68    5.034706989434e-03
    69    5.637046247618e-03
    70   -2.751744472681e-14
    71    2.224484083994e-02
    72    8.476971100573e-03
    73    9.762937109450e-03
    74   -3.685648606584e-14
    75    2.059228502423e-02
    76    7.387415867757e-03
    77   -1.431093432447e-04
    78   -1.085897852347e-13
    79    9.558417355314e-02
    80    4.866011620304e-02
    81    1.768087703835e-02
    82    1.947372954620e-13
    83   -9.291177125645e-04
    84    1.139014906437e-15
    85   -7.810194268074e-16
    86    5.406878807208e-05
    87   -8.830693809455e-04
    88    2.950405969428e-03
    89    4.472363088324e-03
    90   -1.593916952032e-02
    91   -2.446290168071e-02
    92   -1.650248780940e-14
    93    1.338106590913e-02
    94   -2.701654660773e-02
    95   -3.431806407176e-02
    96   -2.307865421968e-14
    97   -1.271319544987e-01
    98   -1.209853193203e-01
    99   -2.015410953013e-01
   100   -5.576151647834e-14
   101    2.830312694704e+00
   102   -1.256029124773e+00
   103   -1.296506417611e+00
   104    1.404657557182e-12
   105   -2.447508293005e-02
   106    3.783509469984e-15
   107   -9.805992298678e-15
   108   -1.813822231663e-03
   109    2.583126609177e-04
   110   -2.395542303171e-02
   111   -4.153171363800e-02
   112   -1.355019536206e-02
   113    1.792405567499e-03
   114    1.963339504645e-14
   115    1.431916031236e-01
   116   -1.684346440082e-02
   117    2.535088012061e-03
   118    1.593108227424e-14
   119    2.570210762813e-01
   120   -7.935575454903e-02
   121   -3.219405285007e-02
   122    1.211264395287e-13
   123    5.793030725793e-01
   124    8.256081092593e-02
   125    4.030330339100e-02
   126   -4.156583723436e-13
   127   -3.149297689496e-03
   128    2.514029667200e-16
   129   -2.876624996362e-19
   130    7.186113629748e-04
   131    1.306945653742e-03
   132   -1.848868635794e-02
   133   -3.200021693083e-02
   134    1.082421788579e-02
   135    1.623459566379e-02
   136   -6.940914665290e-15
   137    9.960336005807e-02
   138    1.625310666996e-02
   139    2.329477455584e-02
   140   -1.899097759299e-14
   141    2.735121622418e-01
   142    7.072715207813e-02
   143    3.256681381831e-02
   144    5.318042654653e-15
   145    4.104578014286e-01
   146    1.794502005854e-01
   147    4.950622262244e-01
   148   -3.185164557907e-13
   149   -5.696078566077e-03
   150   -9.307397307587e-15
   151   -1.858127300835e-15
   152   -1.062390501649e-03
   153   -2.738102720481e-03
   154   -8.354563033359e-03
   155   -1.449038018396e-02
   156   -2.097366574656e-03
   157    4.780449093806e-03
   158   -1.793139922237e-14
   159    4.748741602422e-02
   160   -4.676444797152e-03
   161    6.381374435317e-03
   162   -1.735631736456e-14
   163    9.759305688565e-02
   164    1.663063362415e-02
   165    4.097692155736e-02
   166   -8.685075794771e-14
   167    9.050725728103e-01
   168    2.086036853023e-01
   169    2.962987398654e-01
   170    1.238441185664e-13
   171   -2.474199367860e-03
   172    1.365483288619e-15
   173    7.242345811217e-15
   174   -2.229055270754e-03
   175   -3.069129355729e-03
   176   -1.644415597609e-02
   177   -2.861433494730e-02
   178    1.774858985809e-02
   179    8.103289915474e-03
   180    3.027537450769e-14
   181    8.625652987439e-02
   182    2.501042190091e-02
   183    1.734420747272e-02
   184    3.961276885273e-14
   185    2.218214126876e-01
   186    8.526881411941e-02
   187   -2.333336129656e-02
   188    1.455443882203e-13
   189   -3.082756882781e+00
   190    1.698397101959e+00
   191   -1.117398755719e+00
   192   -1.304732304549e-12
   193   -9.763294458534e-03
   194   -1.079669126510e-15
   195   -6.183930101459e-16
   196   -4.400016385555e-03
   197   -1.108864805398e-03
   198    9.770947694307e-03
   199    2.225087292582e-02
   200   -1.938686094606e-01
   201   -1.790054599929e+00
   202   -5.955710472611e-03
   203    2.344052895342e-03
   204   -5.451124916658e-16
Sym=X
Ene= 0.493536
Spin=Alpha
Occup=0
     1   -2.717625106931e-03
     2   -4.633442045525e-03
     3    8.121637662717e-03
     4    4.508591539736e-03
     5    1.711473428158e-14
     6    1.273772010040e-02
     7    1.504766371590e-02
     8    1.018907005127e-02
     9    3.123963532416e-14
    10    1.300850323201e-01
    11   -3.535869955294e-02
    12    1.029333154173e-01
    13   -1.021750759539e-13
    14    6.317506750324e+00
    15    1.558119334562e-01
    16    2.625957824138e+00
    17   -3.497419754641e-13
    18    1.347084163649e-02
    19   -2.896239368059e-15
    20   -8.472884287686e-15
    21    5.529836179106e-03
    22   -6.824670556842e-03
    23   -5.214030442243e-03
    24   -4.949491381994e-02
    25    2.834967681501e-01
    26    9.632744950449e-01
    27   -9.223111967445e-03
    28   -5.580403368922e-03
    29    2.000816124063e-15
    30   -1.519293647977e-02
    31   -3.825125555681e-02
    32    6.143703895823e-02
    33    1.321064110383e+00
    34   -2.382387721474e-03
    35    2.792360722258e-03
    36    3.263396213859e-15
    37   -2.797379285336e-02
    38   -1.393211936452e-01
    39   -4.315609342107e-01
    40   -1.786257722463e+00
    41    1.590575470991e-03
    42   -4.722584349719e-03
    43   -4.884498877179e-15
    44   -4.639044921688e-03
    45   -7.872486558866e-03
    46    1.047778111667e-02
    47    5.555662521269e-03
    48   -3.782681062448e-15
    49    1.252705324576e-02
    50    1.698152814607e-02
    51    6.161806185646e-03
    52    6.183746266200e-14
    53    2.748735305083e-01
    54    1.760270338116e-01
    55   -4.734677302808e-02
    56   -1.543322362373e-13
    57   -8.730767436974e-01
    58   -2.526830312633e-02
    59    1.078469126216e+00
    60   -5.798852143271e-13
    61    1.207272378174e-02
    62    1.182404570397e-14
    63   -1.179643796397e-14
    64   -9.577790564602e-03
    65    1.245743455464e-03
    66    3.487031680014e-03
    67    6.017904335878e-03
    68   -3.499259860578e-03
    69    1.520068699274e-02
    70   -2.463145968836e-14
    71   -2.094452958326e-02
    72   -2.121871485840e-03
    73    1.949904214170e-02
    74   -2.305097326494e-14
    75    8.077524297241e-03
    76   -1.482116527870e-02
    77    3.036837411254e-02
    78   -1.148628336896e-13
    79   -5.318134127936e-02
    80    4.623388013433e-02
    81   -1.030258086869e-01
    82    4.615279641661e-13
    83    1.284576238960e-03
    84   -2.056679407339e-15
    85    4.904314123948e-16
    86    1.408558112541e-03
    87    6.272170757956e-04
    88   -9.847909841428e-03
    89   -1.676258977385e-02
    90    6.833656924610e-02
    91    4.523915018153e-02
    92    1.388582833171e-15
    93    2.126297339590e-02
    94    1.201697058877e-01
    95    7.590051960104e-02
    96    2.653477635960e-14
    97    6.141899733616e-01
    98    2.248886293975e-01
    99    2.468230007890e-01
   100    8.319186833239e-15
   101    9.475668144261e+00
   102   -1.093019021041e+00
   103   -1.314352230928e+00
   104    1.999222175981e-13
   105    2.271039673600e-02
   106    1.561389700067e-15
   107   -6.725696553885e-16
   108   -1.638649452668e-02
   109   -3.282299893966e-02
   110    1.484558728854e-02
   111    2.543943922803e-02
   112    6.440712599367e-02
   113    5.856485409112e-02
   114   -3.151048586129e-15
   115   -8.173565512872e-02
   116    8.441547080206e-02
   117    7.898023632827e-02
   118   -8.116041242706e-15
   119   -2.398932734740e-01
   120    1.637530762619e-01
   121    1.190428917268e-01
   122    4.415299117951e-14
   123   -7.835508444756e-01
   124    2.063584726340e-01
   125    1.744864207380e-01
   126   -1.724437494076e-13
   127    3.384674922425e-04
   128    1.247921326561e-16
   129   -1.430332034675e-15
   130    1.735364804095e-03
   131    3.965238916390e-03
   132   -3.026291664326e-03
   133   -5.195384582732e-03
   134    1.176417767641e-02
   135    4.072804384481e-02
   136   -4.706381650611e-15
   137    1.470389657223e-02
   138    1.768524292491e-02
   139    6.304442635754e-02
   140   -4.899253400476e-15
   141    1.516151821582e-02
   142    1.776033197649e-02
   143    2.297932813112e-01
   144    6.852273905059e-16
   145   -1.556262499240e+00
   146    5.547518103361e-03
   147    5.764964002139e-01
   148    2.745073003118e-14
   149    8.472015278320e-03
   150    2.473018327956e-15
   151   -3.887207426308e-15
   152    1.433061473996e-02
   153    7.210363389429e-03
   154    7.742629556849e-03
   155    1.304013804412e-02
   156    1.832258120307e-02
   157    1.161372545438e-02
   158   -2.164214278541e-14
   159   -3.510131306846e-02
   160    3.399685963263e-02
   161    2.071915672756e-02
   162   -2.407320577554e-14
   163   -1.971304090702e-01
   164   -5.452512953279e-02
   165   -3.014959221339e-02
   166   -6.918750204272e-14
   167   -1.211757040361e+00
   168    1.720548195948e-01
   169    3.867123995517e-01
   170    6.114724667732e-13
   171    6.121847866824e-03
   172    1.784900152670e-15
   173   -5.281410102562e-15
   174    8.207738681245e-04
   175    1.696426595047e-03
   176   -2.244183734851e-03
   177   -3.616191059022e-03
   178    3.060803570437e-02
   179   -2.264481154721e-02
   180   -1.471186549762e-14
   181    6.681935422987e-03
   182    3.973958191559e-02
   183   -4.118604337236e-02
   184   -2.302189588231e-14
   185    7.429055849610e-02
   186    2.083200138394e-01
   187   -1.173965251047e-01
   188    3.479908741262e-14
   189   -9.255155449705e+00
   190    3.099811453906e+00
   191   -2.435131973788e+00
   192    1.575837133964e-13
   193    1.488381008036e-02
   194   -3.413537714170e-15
   195    7.502058174244e-16
   196    3.194889401925e-03
   197    2.437679385559e-02
   198   -2.218346292031e-02
   199   -6.041231736376e-02
   200   -6.249913276501e-01
   201   -3.086497470135e+00
   202   -6.424641736290e-03
   203    6.905865294605e-03
   204   -5.470690115894e-15
[5D]
