[Molden Format]
[Atoms] (Angs)
  C      1    6     -0.00754183     -1.75895763      0.00000000
  H      2    1     -2.09769850     -1.41880678     -0.00000000
  H      3    1     -0.13527422     -2.83956838     -0.00000000
  H      4    1      0.04053511      2.02026369      0.00000000
  C      5    6     -1.22066484      0.39918184     -0.00000000
  O      6    8     -2.25210141      1.05663720     -0.00000000
  C      7    6      1.24009552      0.27789184      0.00000000
  O      8    8      2.33767996      1.06122493      0.00000000
  N      9    7      0.03634586      1.00852936      0.00000000
  N     10    7     -1.18738304     -0.97903470     -0.00000000
  C     11    6      1.22288875     -1.12258096      0.00000000
  H     12    1      2.15640383     -1.68445878      0.00000000
[GTO]
1    0
S    6    1.000000
   4.56324000E+03    1.96665000E-03 
   6.82024000E+02    1.52306000E-02 
   1.54973000E+02    7.61269000E-02 
   4.44553000E+01    2.60801000E-01 
   1.30290000E+01    6.16462000E-01 
   1.82773000E+00    2.21006000E-01 
SP   3    1.000000
   2.09642000E+01    1.14660000E-01   4.02487000E-02 
   4.80331000E+00    9.19999000E-01   2.37594000E-01 
   1.45933000E+00   -3.03068000E-03   8.15854000E-01 
SP   1    1.000000
   4.83456000E-01    1.00000000E+00   1.00000000E+00 
SP   1    1.000000
   1.45585000E-01    1.00000000E+00   1.00000000E+00 
SP   1    1.000000
   4.38000000E-02    1.00000000E+00   1.00000000E+00 
D    1    1.000000
   6.26000000E-01    1.00000000E+00 

2    0
S    3    1.000000
   3.38650000E+01    2.54938000E-02 
   5.09479000E+00    1.90373000E-01 
   1.15879000E+00    8.52161000E-01 
S    1    1.000000
   3.25840000E-01    1.00000000E+00 
S    1    1.000000
   1.02741000E-01    1.00000000E+00 
S    1    1.000000
   3.60000000E-02    1.00000000E+00 
P    1    1.000000
   7.50000000E-01    1.00000000E+00 

3    0
S    3    1.000000
   3.38650000E+01    2.54938000E-02 
   5.09479000E+00    1.90373000E-01 
   1.15879000E+00    8.52161000E-01 
S    1    1.000000
   3.25840000E-01    1.00000000E+00 
S    1    1.000000
   1.02741000E-01    1.00000000E+00 
S    1    1.000000
   3.60000000E-02    1.00000000E+00 
P    1    1.000000
   7.50000000E-01    1.00000000E+00 

4    0
S    3    1.000000
   3.38650000E+01    2.54938000E-02 
   5.09479000E+00    1.90373000E-01 
   1.15879000E+00    8.52161000E-01 
S    1    1.000000
   3.25840000E-01    1.00000000E+00 
S    1    1.000000
   1.02741000E-01    1.00000000E+00 
S    1    1.000000
   3.60000000E-02    1.00000000E+00 
P    1    1.000000
   7.50000000E-01    1.00000000E+00 

5    0
S    6    1.000000
   4.56324000E+03    1.96665000E-03 
   6.82024000E+02    1.52306000E-02 
   1.54973000E+02    7.61269000E-02 
   4.44553000E+01    2.60801000E-01 
   1.30290000E+01    6.16462000E-01 
   1.82773000E+00    2.21006000E-01 
SP   3    1.000000
   2.09642000E+01    1.14660000E-01   4.02487000E-02 
   4.80331000E+00    9.19999000E-01   2.37594000E-01 
   1.45933000E+00   -3.03068000E-03   8.15854000E-01 
SP   1    1.000000
   4.83456000E-01    1.00000000E+00   1.00000000E+00 
SP   1    1.000000
   1.45585000E-01    1.00000000E+00   1.00000000E+00 
SP   1    1.000000
   4.38000000E-02    1.00000000E+00   1.00000000E+00 
D    1    1.000000
   6.26000000E-01    1.00000000E+00 

6    0
S    6    1.000000
   8.58850000E+03    1.89515000E-03 
   1.29723000E+03    1.43859000E-02 
   2.99296000E+02    7.07320000E-02 
   8.73771000E+01    2.40001000E-01 
   2.56789000E+01    5.94797000E-01 
   3.74004000E+00    2.80802000E-01 
SP   3    1.000000
   4.21175000E+01    1.13889000E-01   3.65114000E-02 
   9.62837000E+00    9.20811000E-01   2.37153000E-01 
   2.85332000E+00   -3.27447000E-03   8.19702000E-01 
SP   1    1.000000
   9.05661000E-01    1.00000000E+00   1.00000000E+00 
SP   1    1.000000
   2.55611000E-01    1.00000000E+00   1.00000000E+00 
SP   1    1.000000
   8.45000000E-02    1.00000000E+00   1.00000000E+00 
D    1    1.000000
   1.29200000E+00    1.00000000E+00 

7    0
S    6    1.000000
   4.56324000E+03    1.96665000E-03 
   6.82024000E+02    1.52306000E-02 
   1.54973000E+02    7.61269000E-02 
   4.44553000E+01    2.60801000E-01 
   1.30290000E+01    6.16462000E-01 
   1.82773000E+00    2.21006000E-01 
SP   3    1.000000
   2.09642000E+01    1.14660000E-01   4.02487000E-02 
   4.80331000E+00    9.19999000E-01   2.37594000E-01 
   1.45933000E+00   -3.03068000E-03   8.15854000E-01 
SP   1    1.000000
   4.83456000E-01    1.00000000E+00   1.00000000E+00 
SP   1    1.000000
   1.45585000E-01    1.00000000E+00   1.00000000E+00 
SP   1    1.000000
   4.38000000E-02    1.00000000E+00   1.00000000E+00 
D    1    1.000000
   6.26000000E-01    1.00000000E+00 

8    0
S    6    1.000000
   8.58850000E+03    1.89515000E-03 
   1.29723000E+03    1.43859000E-02 
   2.99296000E+02    7.07320000E-02 
   8.73771000E+01    2.40001000E-01 
   2.56789000E+01    5.94797000E-01 
   3.74004000E+00    2.80802000E-01 
SP   3    1.000000
   4.21175000E+01    1.13889000E-01   3.65114000E-02 
   9.62837000E+00    9.20811000E-01   2.37153000E-01 
   2.85332000E+00   -3.27447000E-03   8.19702000E-01 
SP   1    1.000000
   9.05661000E-01    1.00000000E+00   1.00000000E+00 
SP   1    1.000000
   2.55611000E-01    1.00000000E+00   1.00000000E+00 
SP   1    1.000000
   8.45000000E-02    1.00000000E+00   1.00000000E+00 
D    1    1.000000
   1.29200000E+00    1.00000000E+00 

9    0
S    6    1.000000
   6.29348000E+03    1.96979000E-03 
   9.49044000E+02    1.49613000E-02 
   2.18776000E+02    7.35006000E-02 
   6.36916000E+01    2.48937000E-01 
   1.88282000E+01    6.02460000E-01 
   2.72023000E+00    2.56202000E-01 
SP   3    1.000000
   3.06331000E+01    1.11906000E-01   3.83119000E-02 
   7.02614000E+00    9.21666000E-01   2.37403000E-01 
   2.11205000E+00   -2.56919000E-03   8.17592000E-01 
SP   1    1.000000
   6.84009000E-01    1.00000000E+00   1.00000000E+00 
SP   1    1.000000
   2.00878000E-01    1.00000000E+00   1.00000000E+00 
SP   1    1.000000
   6.39000000E-02    1.00000000E+00   1.00000000E+00 
D    1    1.000000
   9.13000000E-01    1.00000000E+00 

10    0
S    6    1.000000
   6.29348000E+03    1.96979000E-03 
   9.49044000E+02    1.49613000E-02 
   2.18776000E+02    7.35006000E-02 
   6.36916000E+01    2.48937000E-01 
   1.88282000E+01    6.02460000E-01 
   2.72023000E+00    2.56202000E-01 
SP   3    1.000000
   3.06331000E+01    1.11906000E-01   3.83119000E-02 
   7.02614000E+00    9.21666000E-01   2.37403000E-01 
   2.11205000E+00   -2.56919000E-03   8.17592000E-01 
SP   1    1.000000
   6.84009000E-01    1.00000000E+00   1.00000000E+00 
SP   1    1.000000
   2.00878000E-01    1.00000000E+00   1.00000000E+00 
SP   1    1.000000
   6.39000000E-02    1.00000000E+00   1.00000000E+00 
D    1    1.000000
   9.13000000E-01    1.00000000E+00 

11    0
S    6    1.000000
   4.56324000E+03    1.96665000E-03 
   6.82024000E+02    1.52306000E-02 
   1.54973000E+02    7.61269000E-02 
   4.44553000E+01    2.60801000E-01 
   1.30290000E+01    6.16462000E-01 
   1.82773000E+00    2.21006000E-01 
SP   3    1.000000
   2.09642000E+01    1.14660000E-01   4.02487000E-02 
   4.80331000E+00    9.19999000E-01   2.37594000E-01 
   1.45933000E+00   -3.03068000E-03   8.15854000E-01 
SP   1    1.000000
   4.83456000E-01    1.00000000E+00   1.00000000E+00 
SP   1    1.000000
   1.45585000E-01    1.00000000E+00   1.00000000E+00 
SP   1    1.000000
   4.38000000E-02    1.00000000E+00   1.00000000E+00 
D    1    1.000000
   6.26000000E-01    1.00000000E+00 

12    0
S    3    1.000000
   3.38650000E+01    2.54938000E-02 
   5.09479000E+00    1.90373000E-01 
   1.15879000E+00    8.52161000E-01 
S    1    1.000000
   3.25840000E-01    1.00000000E+00 
S    1    1.000000
   1.02741000E-01    1.00000000E+00 
S    1    1.000000
   3.60000000E-02    1.00000000E+00 
P    1    1.000000
   7.50000000E-01    1.00000000E+00 

[MO]
Sym=X
Ene= -0.494491
Spin=Alpha
Occup=1
     1    2.267030582719e-03
     2    4.079163081957e-03
     3    4.524314685224e-03
     4    1.302151129278e-02
     5    1.169014075752e-14
     6   -1.795663234620e-02
     7    1.023225911331e-02
     8    1.981095123889e-02
     9    2.881952019857e-14
    10   -3.708018427614e-02
    11   -2.664443123438e-03
    12    4.403079162097e-02
    13    4.018412452503e-14
    14   -1.733295336112e+00
    15    8.154950414675e-02
    16   -1.457854461220e-02
    17   -5.652062914453e-13
    18    7.747343691314e-03
    19   -1.209600530414e-14
    20    1.545512699177e-16
    21   -2.357393705617e-03
    22   -2.287626173130e-05
    23    5.012202433658e-03
    24    1.001731788019e-02
    25   -7.796865535769e-03
    26    1.225070797879e-01
    27   -4.791186049499e-03
    28   -2.735827798604e-03
    29    5.437663418146e-15
    30   -7.550554803636e-03
    31   -1.342759958699e-02
    32    2.754483892839e-02
    33    3.587253886030e-01
    34    3.011357963601e-04
    35   -2.384624284074e-03
    36   -2.044068737818e-15
    37   -2.347843560852e-03
    38   -1.169713094196e-03
    39    2.856373233975e-01
    40    6.322235055305e-01
    41    3.662789251913e-03
    42    1.048778685322e-02
    43    8.611316964888e-15
    44   -2.614298969804e-03
    45   -4.079774142138e-03
    46    1.055781508095e-02
    47    5.841534661916e-03
    48   -4.558190266280e-14
    49   -1.558744643203e-03
    50    1.736560255659e-02
    51    1.146021027709e-02
    52   -6.946344560728e-14
    53    1.087639087422e-01
    54   -6.855047366380e-04
    55   -6.071167209959e-02
    56   -1.687379216764e-13
    57    1.121122796514e+00
    58    3.620348580724e-01
    59   -2.122911029289e-01
    60    5.115644298330e-13
    61    9.431217570500e-03
    62   -2.794100146395e-15
    63    3.034824691008e-15
    64    4.003281060352e-03
    65   -2.762546104645e-03
    66    3.800294506750e-03
    67    6.594091973760e-03
    68   -5.086184319411e-03
    69   -5.606001623466e-03
    70    2.754951238503e-14
    71   -2.224173917477e-02
    72   -8.552654464076e-03
    73   -9.724309396490e-03
    74    3.692493766616e-14
    75   -2.053965672847e-02
    76   -7.414496360691e-03
    77    1.819426818636e-04
    78    1.086549931128e-13
    79   -9.560289674713e-02
    80   -4.869247517460e-02
    81   -1.769530022715e-02
    82   -1.942966694966e-13
    83    9.282172086400e-04
    84   -1.139065124403e-15
    85    7.833033964619e-16
    86   -6.247963866197e-05
    87    8.875289759984e-04
    88   -2.864969762773e-03
    89   -4.328553726321e-03
    90    1.614288930351e-02
    91    2.444414548415e-02
    92    1.648185695205e-14
    93   -1.366620802744e-02
    94    2.736225129576e-02
    95    3.427871219966e-02
    96    2.299990200177e-14
    97    1.261927245710e-01
    98    1.210818957165e-01
    99    2.014841642225e-01
   100    5.588720199618e-14
   101   -2.830535065047e+00
   102    1.256391542666e+00
   103    1.296638480520e+00
   104   -1.402089192872e-12
   105    2.438079487227e-02
   106   -3.779994213689e-15
   107    9.823284120472e-15
   108    1.799325857853e-03
   109   -2.348212887296e-04
   110    2.393006411594e-02
   111    4.148803665533e-02
   112    1.319214571615e-02
   113   -2.024360459461e-03
   114   -1.949708172568e-14
   115   -1.430966523207e-01
   116    1.647750948739e-02
   117   -2.835178392069e-03
   118   -1.581003606114e-14
   119   -2.567422965261e-01
   120    7.916418112699e-02
   121    3.203014927860e-02
   122   -1.205838403286e-13
   123   -5.795237370552e-01
   124   -8.252281261459e-02
   125   -4.027868910655e-02
   126    4.136974038556e-13
   127    3.117405898266e-03
   128   -2.581236676721e-16
   129   -1.361304428026e-17
   130   -7.207182473312e-04
   131   -1.272992792820e-03
   132    1.833560324816e-02
   133    3.174701467627e-02
   134   -1.085011630833e-02
   135   -1.566655389348e-02
   136    7.001631758940e-15
   137   -9.882654621708e-02
   138   -1.627218494836e-02
   139   -2.241270337506e-02
   140    1.909453261098e-14
   141   -2.725802562311e-01
   142   -7.057392250841e-02
   143   -3.196105985780e-02
   144   -5.087551455609e-15
   145   -4.112163495725e-01
   146   -1.798822046560e-01
   147   -4.947546361447e-01
   148    3.177820728137e-13
   149    5.667303288587e-03
   150    9.286901282141e-15
   151    1.867078195858e-15
   152    1.022157332418e-03
   153    2.755386113827e-03
   154    8.330086798010e-03
   155    1.444976817953e-02
   156    2.211900568343e-03
   157   -4.766841944340e-03
   158    1.798526795976e-14
   159   -4.738291637517e-02
   160    4.873731755738e-03
   161   -6.357830749034e-03
   162    1.743578910466e-14
   163   -9.751388262716e-02
   164   -1.646200883424e-02
   165   -4.090459880888e-02
   166    8.688416909402e-14
   167   -9.055353985904e-01
   168   -2.084964398511e-01
   169   -2.963900763195e-01
   170   -1.232364147391e-13
   171    2.475551449763e-03
   172   -1.361741021758e-15
   173   -7.238278435190e-15
   174    2.232329506602e-03
   175    3.062265989938e-03
   176    1.636734837300e-02
   177    2.848770309331e-02
   178   -1.753590275823e-02
   179   -8.243412731377e-03
   180   -3.024789938607e-14
   181   -8.588128851001e-02
   182   -2.468002648520e-02
   183   -1.749915132786e-02
   184   -3.951353749966e-14
   185   -2.216183966249e-01
   186   -8.497810074289e-02
   187    2.339362320719e-02
   188   -1.457314990373e-13
   189    3.082427818970e+00
   190   -1.699219218382e+00
   191    1.117675778993e+00
   192    1.304200040828e-12
   193    9.742993737780e-03
   194    1.083392687415e-15
   195    5.844643512284e-16
   196    4.429289068016e-03
   197    1.112775414946e-03
   198   -9.520971214549e-03
   199   -2.190741488787e-02
   200    1.940386678865e-01
   201    1.791333050688e+00
   202    5.925338796870e-03
   203   -2.317687662380e-03
   204    5.661828808229e-16
Sym=X
Ene= 0.494491
Spin=Alpha
Occup=0
     1    9.297333776698e-03
     2    1.606343925099e-02
     3    2.206924737969e-02
     4    1.773591015639e-02
     5    4.604316994145e-15
     6   -4.507204096721e-02
     7    2.554734090717e-02
     8    1.816910003034e-02
     9    3.220363496425e-14
    10   -1.835145115908e-01
    11    1.772576204878e-01
    12    1.134332319012e-01
    13   -9.885866800825e-14
    14   -3.104375025548e+00
    15    7.650459092312e-01
    16    3.516446048433e+00
    17   -1.443422091494e-13
    18   -3.889044640886e-03
    19   -6.119156523067e-15
    20   -1.420962580143e-15
    21    9.335600684133e-03
    22   -1.030154658829e-02
    23   -6.316702437370e-03
    24   -7.839319366576e-03
    25   -6.847407858707e-01
    26   -1.914227960269e+00
    27    7.958993384576e-03
    28    1.968198450400e-03
    29    7.094657007369e-15
    30   -7.709500589451e-03
    31   -4.749856652303e-02
    32    5.364709017797e-01
    33    5.802093863347e+00
    34    4.204978838506e-03
    35   -8.169430498091e-03
    36    7.396511258516e-16
    37   -1.586761392506e-02
    38   -6.320715897922e-02
    39    1.621759235068e-02
    40   -1.274304471896e-02
    41    4.379881533782e-03
    42   -3.076549444850e-03
    43    1.643864946621e-15
    44   -1.228912949707e-03
    45   -2.924994493359e-03
    46    1.086460941111e-02
    47    1.334277156670e-02
    48   -2.205636007777e-14
    49    2.852425618922e-02
    50    2.571204926861e-02
    51    2.943500871799e-02
    52   -9.253113310334e-15
    53   -8.790635056479e-02
    54    4.732530582628e-02
    55   -1.298410589207e-01
    56   -1.405280741031e-13
    57   -1.620327502979e+00
    58   -6.021579704318e-01
    59   -2.777762642053e-01
    60   -1.780044981826e-13
    61   -5.572056272476e-03
    62    3.626391441378e-15
    63    1.572400483963e-16
    64   -8.677171269684e-04
    65    4.552193894567e-03
    66   -6.739655413752e-03
    67   -1.168033843774e-02
    68   -1.051256392036e-02
    69   -7.430773466453e-03
    70   -4.977123533908e-16
    71    3.957172717307e-02
    72   -1.634909920498e-02
    73   -1.259030776012e-02
    74    1.112308879125e-14
    75    7.142120416929e-02
    76    1.007859030694e-02
    77   -2.000679558791e-02
    78   -1.781691429636e-14
    79    4.032048892089e-01
    80    1.161492552400e-02
    81   -4.712133384366e-02
    82    1.459632634667e-13
    83   -9.774802559706e-04
    84   -1.375492505370e-15
    85    8.552838602550e-17
    86    1.298525531493e-03
    87   -1.415518107867e-03
    88   -1.484542713789e-02
    89   -2.646867488503e-02
    90    5.124309733599e-02
    91    1.665855398012e-02
    92    5.754872597756e-15
    93    8.377639386652e-02
    94    9.345049105016e-02
    95    3.235121746136e-02
    96   -1.117065044926e-15
    97    3.643425574666e-01
    98    2.651879567041e-01
    99    1.573041233696e-01
   100    4.287849248323e-14
   101   -6.876208093781e-01
   102    6.624749702463e-01
   103    1.949410099105e+00
   104   -4.775956921600e-13
   105    1.133718688484e-02
   106    8.100032212406e-16
   107    6.297407644048e-15
   108   -1.609544077634e-03
   109   -1.742451457825e-02
   110    1.451275844394e-02
   111    2.480796570617e-02
   112    4.848929289838e-02
   113    1.309233529082e-02
   114   -3.111454430798e-15
   115   -7.985211918847e-02
   116    6.585755996596e-02
   117    1.422988831813e-02
   118   -5.269486022309e-16
   119   -2.387250876890e-01
   120    1.286796528349e-01
   121    7.893537495231e-02
   122   -1.969400433128e-14
   123   -4.807429974180e-01
   124    4.345181695562e-03
   125   -3.145774657209e-02
   126    5.127284055606e-14
   127   -4.601487374340e-04
   128   -7.024220192879e-16
   129   -5.290780659436e-16
   130   -1.508006635445e-03
   131    5.293377602921e-03
   132   -4.569604356342e-03
   133   -8.170389882663e-03
   134   -1.002266192817e-02
   135    4.867714180108e-03
   136   -2.538130544566e-15
   137    3.245183823242e-02
   138   -1.939207407334e-02
   139    7.677165850612e-03
   140    7.286979188841e-15
   141    3.134529314502e-02
   142   -2.986663122128e-02
   143    2.942738892922e-02
   144   -3.342410182234e-14
   145    1.240326916984e+00
   146   -7.052527896832e-01
   147   -7.208362375816e-01
   148    2.749315340292e-13
   149    1.141016857806e-03
   150    5.184897901228e-15
   151   -9.229909493556e-16
   152    9.700296047947e-03
   153    4.126531485084e-03
   154   -1.723643909106e-02
   155   -2.983657561440e-02
   156   -2.480340480238e-03
   157   -1.790934167598e-02
   158   -3.900884518240e-15
   159    9.351111359546e-02
   160   -6.580591312367e-04
   161   -2.398681625330e-02
   162   -3.037561603734e-15
   163    2.423170704327e-01
   164   -8.909454658440e-03
   165   -8.951226353792e-02
   166   -1.564950911400e-14
   167    4.662829129996e-01
   168   -8.677769230178e-01
   169   -1.140053885080e+00
   170    2.629395471018e-13
   171    5.458266201861e-04
   172   -7.911653003526e-16
   173   -5.544194143487e-15
   174   -1.482742639443e-03
   175    1.533790235092e-03
   176   -4.232727446033e-03
   177   -7.457735403308e-03
   178    1.041785068737e-02
   179   -2.325483007783e-02
   180   -1.342521134209e-14
   181    2.515267831980e-02
   182    1.498219250536e-02
   183   -3.299461123439e-02
   184   -3.035896331787e-14
   185    3.709156422931e-02
   186    5.308942750435e-02
   187   -5.511949198005e-02
   188   -1.794171531317e-14
   189    2.532782771768e+00
   190    2.140570177732e-01
   191   -1.240663854040e+00
   192    4.256298781431e-13
   193    3.490223422294e-03
   194   -1.523195018236e-15
   195   -2.663524137170e-15
   196   -9.879652238628e-03
   197    1.512308216617e-02
   198   -1.962353553914e-02
   199   -3.521342166609e-02
   200   -3.204840928501e-01
   201   -2.353551254183e+00
   202   -1.087177106020e-02
   203   -1.944989719865e-03
   204   -1.142083862888e-15
[5D]
