[Molden Format]
[Atoms] (Angs)
  C      1    6     -0.00754183     -1.75895763      0.00000000
  H      2    1     -2.09769850     -1.41880678     -0.00000000
  H      3    1     -0.13527422     -2.83956838     -0.00000000
  H      4    1      0.04053511      2.02026369      0.00000000
  C      5    6     -1.22066484      0.39918184     -0.00000000
  O      6    8     -2.25210141      1.05663720     -0.00000000
  C      7    6      1.24009552      0.27789184      0.00000000
  O      8    8      2.33767996      1.06122493      0.00000000
  N      9    7      0.03634586      1.00852936      0.00000000
  N     10    7     -1.18738304     -0.97903470     -0.00000000
  C     11    6      1.22288875     -1.12258096      0.00000000
  H     12    1      2.15640383     -1.68445878      0.00000000
[GTO]
1    0
S    6    1.000000
   4.56324000E+03    1.96665000E-03 
   6.82024000E+02    1.52306000E-02 
   1.54973000E+02    7.61269000E-02 
   4.44553000E+01    2.60801000E-01 
   1.30290000E+01    6.16462000E-01 
   1.82773000E+00    2.21006000E-01 
SP   3    1.000000
   2.09642000E+01    1.14660000E-01   4.02487000E-02 
   4.80331000E+00    9.19999000E-01   2.37594000E-01 
   1.45933000E+00   -3.03068000E-03   8.15854000E-01 
SP   1    1.000000
   4.83456000E-01    1.00000000E+00   1.00000000E+00 
SP   1    1.000000
   1.45585000E-01    1.00000000E+00   1.00000000E+00 
SP   1    1.000000
   4.38000000E-02    1.00000000E+00   1.00000000E+00 
D    1    1.000000
   6.26000000E-01    1.00000000E+00 

2    0
S    3    1.000000
   3.38650000E+01    2.54938000E-02 
   5.09479000E+00    1.90373000E-01 
   1.15879000E+00    8.52161000E-01 
S    1    1.000000
   3.25840000E-01    1.00000000E+00 
S    1    1.000000
   1.02741000E-01    1.00000000E+00 
S    1    1.000000
   3.60000000E-02    1.00000000E+00 
P    1    1.000000
   7.50000000E-01    1.00000000E+00 

3    0
S    3    1.000000
   3.38650000E+01    2.54938000E-02 
   5.09479000E+00    1.90373000E-01 
   1.15879000E+00    8.52161000E-01 
S    1    1.000000
   3.25840000E-01    1.00000000E+00 
S    1    1.000000
   1.02741000E-01    1.00000000E+00 
S    1    1.000000
   3.60000000E-02    1.00000000E+00 
P    1    1.000000
   7.50000000E-01    1.00000000E+00 

4    0
S    3    1.000000
   3.38650000E+01    2.54938000E-02 
   5.09479000E+00    1.90373000E-01 
   1.15879000E+00    8.52161000E-01 
S    1    1.000000
   3.25840000E-01    1.00000000E+00 
S    1    1.000000
   1.02741000E-01    1.00000000E+00 
S    1    1.000000
   3.60000000E-02    1.00000000E+00 
P    1    1.000000
   7.50000000E-01    1.00000000E+00 

5    0
S    6    1.000000
   4.56324000E+03    1.96665000E-03 
   6.82024000E+02    1.52306000E-02 
   1.54973000E+02    7.61269000E-02 
   4.44553000E+01    2.60801000E-01 
   1.30290000E+01    6.16462000E-01 
   1.82773000E+00    2.21006000E-01 
SP   3    1.000000
   2.09642000E+01    1.14660000E-01   4.02487000E-02 
   4.80331000E+00    9.19999000E-01   2.37594000E-01 
   1.45933000E+00   -3.03068000E-03   8.15854000E-01 
SP   1    1.000000
   4.83456000E-01    1.00000000E+00   1.00000000E+00 
SP   1    1.000000
   1.45585000E-01    1.00000000E+00   1.00000000E+00 
SP   1    1.000000
   4.38000000E-02    1.00000000E+00   1.00000000E+00 
D    1    1.000000
   6.26000000E-01    1.00000000E+00 

6    0
S    6    1.000000
   8.58850000E+03    1.89515000E-03 
   1.29723000E+03    1.43859000E-02 
   2.99296000E+02    7.07320000E-02 
   8.73771000E+01    2.40001000E-01 
   2.56789000E+01    5.94797000E-01 
   3.74004000E+00    2.80802000E-01 
SP   3    1.000000
   4.21175000E+01    1.13889000E-01   3.65114000E-02 
   9.62837000E+00    9.20811000E-01   2.37153000E-01 
   2.85332000E+00   -3.27447000E-03   8.19702000E-01 
SP   1    1.000000
   9.05661000E-01    1.00000000E+00   1.00000000E+00 
SP   1    1.000000
   2.55611000E-01    1.00000000E+00   1.00000000E+00 
SP   1    1.000000
   8.45000000E-02    1.00000000E+00   1.00000000E+00 
D    1    1.000000
   1.29200000E+00    1.00000000E+00 

7    0
S    6    1.000000
   4.56324000E+03    1.96665000E-03 
   6.82024000E+02    1.52306000E-02 
   1.54973000E+02    7.61269000E-02 
   4.44553000E+01    2.60801000E-01 
   1.30290000E+01    6.16462000E-01 
   1.82773000E+00    2.21006000E-01 
SP   3    1.000000
   2.09642000E+01    1.14660000E-01   4.02487000E-02 
   4.80331000E+00    9.19999000E-01   2.37594000E-01 
   1.45933000E+00   -3.03068000E-03   8.15854000E-01 
SP   1    1.000000
   4.83456000E-01    1.00000000E+00   1.00000000E+00 
SP   1    1.000000
   1.45585000E-01    1.00000000E+00   1.00000000E+00 
SP   1    1.000000
   4.38000000E-02    1.00000000E+00   1.00000000E+00 
D    1    1.000000
   6.26000000E-01    1.00000000E+00 

8    0
S    6    1.000000
   8.58850000E+03    1.89515000E-03 
   1.29723000E+03    1.43859000E-02 
   2.99296000E+02    7.07320000E-02 
   8.73771000E+01    2.40001000E-01 
   2.56789000E+01    5.94797000E-01 
   3.74004000E+00    2.80802000E-01 
SP   3    1.000000
   4.21175000E+01    1.13889000E-01   3.65114000E-02 
   9.62837000E+00    9.20811000E-01   2.37153000E-01 
   2.85332000E+00   -3.27447000E-03   8.19702000E-01 
SP   1    1.000000
   9.05661000E-01    1.00000000E+00   1.00000000E+00 
SP   1    1.000000
   2.55611000E-01    1.00000000E+00   1.00000000E+00 
SP   1    1.000000
   8.45000000E-02    1.00000000E+00   1.00000000E+00 
D    1    1.000000
   1.29200000E+00    1.00000000E+00 

9    0
S    6    1.000000
   6.29348000E+03    1.96979000E-03 
   9.49044000E+02    1.49613000E-02 
   2.18776000E+02    7.35006000E-02 
   6.36916000E+01    2.48937000E-01 
   1.88282000E+01    6.02460000E-01 
   2.72023000E+00    2.56202000E-01 
SP   3    1.000000
   3.06331000E+01    1.11906000E-01   3.83119000E-02 
   7.02614000E+00    9.21666000E-01   2.37403000E-01 
   2.11205000E+00   -2.56919000E-03   8.17592000E-01 
SP   1    1.000000
   6.84009000E-01    1.00000000E+00   1.00000000E+00 
SP   1    1.000000
   2.00878000E-01    1.00000000E+00   1.00000000E+00 
SP   1    1.000000
   6.39000000E-02    1.00000000E+00   1.00000000E+00 
D    1    1.000000
   9.13000000E-01    1.00000000E+00 

10    0
S    6    1.000000
   6.29348000E+03    1.96979000E-03 
   9.49044000E+02    1.49613000E-02 
   2.18776000E+02    7.35006000E-02 
   6.36916000E+01    2.48937000E-01 
   1.88282000E+01    6.02460000E-01 
   2.72023000E+00    2.56202000E-01 
SP   3    1.000000
   3.06331000E+01    1.11906000E-01   3.83119000E-02 
   7.02614000E+00    9.21666000E-01   2.37403000E-01 
   2.11205000E+00   -2.56919000E-03   8.17592000E-01 
SP   1    1.000000
   6.84009000E-01    1.00000000E+00   1.00000000E+00 
SP   1    1.000000
   2.00878000E-01    1.00000000E+00   1.00000000E+00 
SP   1    1.000000
   6.39000000E-02    1.00000000E+00   1.00000000E+00 
D    1    1.000000
   9.13000000E-01    1.00000000E+00 

11    0
S    6    1.000000
   4.56324000E+03    1.96665000E-03 
   6.82024000E+02    1.52306000E-02 
   1.54973000E+02    7.61269000E-02 
   4.44553000E+01    2.60801000E-01 
   1.30290000E+01    6.16462000E-01 
   1.82773000E+00    2.21006000E-01 
SP   3    1.000000
   2.09642000E+01    1.14660000E-01   4.02487000E-02 
   4.80331000E+00    9.19999000E-01   2.37594000E-01 
   1.45933000E+00   -3.03068000E-03   8.15854000E-01 
SP   1    1.000000
   4.83456000E-01    1.00000000E+00   1.00000000E+00 
SP   1    1.000000
   1.45585000E-01    1.00000000E+00   1.00000000E+00 
SP   1    1.000000
   4.38000000E-02    1.00000000E+00   1.00000000E+00 
D    1    1.000000
   6.26000000E-01    1.00000000E+00 

12    0
S    3    1.000000
   3.38650000E+01    2.54938000E-02 
   5.09479000E+00    1.90373000E-01 
   1.15879000E+00    8.52161000E-01 
S    1    1.000000
   3.25840000E-01    1.00000000E+00 
S    1    1.000000
   1.02741000E-01    1.00000000E+00 
S    1    1.000000
   3.60000000E-02    1.00000000E+00 
P    1    1.000000
   7.50000000E-01    1.00000000E+00 

[MO]
Sym=X
Ene= -0.494215
Spin=Alpha
Occup=1
     1    9.825700328708e-03
     2    1.712118043056e-02
     3   -1.501235120036e-02
     4    6.443065200739e-03
     5   -3.224766073594e-14
     6   -5.175151334542e-02
     7   -1.889066086048e-02
     8    6.981090421657e-03
     9   -5.606704409425e-14
    10   -1.722389597225e-01
    11   -8.806649554366e-02
    12    6.953543109300e-02
    13   -1.300641927517e-13
    14    3.835993436294e+00
    15    9.957492527922e-02
    16    2.044179211889e+00
    17    1.459520888465e-12
    18   -2.954273061432e-03
    19    1.634433794767e-14
    20    3.757838519745e-15
    21   -2.821749685231e-03
    22    3.491184249817e-03
    23    4.491335653642e-03
    24    1.133432257661e-02
    25    3.293009269887e-01
    26    2.990144010560e-01
    27   -4.894485457599e-03
    28   -6.046788952333e-03
    29   -1.201780439770e-14
    30    3.209067724041e-03
    31    1.050847700855e-02
    32    2.141608527424e-01
    33    1.613814455644e+00
    34   -4.194997572386e-03
    35   -3.591278225738e-03
    36   -3.042600210987e-15
    37    2.046688263351e-02
    38    6.205188224893e-02
    39    6.707518607062e-01
    40    1.502555657332e+00
    41    1.632538372011e-03
    42    1.403708120459e-02
    43   -7.602411405377e-15
    44   -6.826278220537e-04
    45   -9.776511734741e-04
    46   -2.892294517716e-04
    47   -7.613374633489e-03
    48    7.352471046708e-14
    49   -6.304288904520e-03
    50   -3.514845096175e-03
    51   -7.849274397569e-03
    52    5.990469446140e-14
    53    3.738160640143e-02
    54    2.394866636135e-02
    55   -4.797320754706e-02
    56    5.222068368593e-13
    57   -1.473339479699e+00
    58   -4.675963533570e-01
    59   -1.445860305714e-01
    60   -4.092619645323e-14
    61    3.025138235053e-03
    62   -1.998642347816e-16
    63    3.995674307753e-15
    64    9.200119253948e-03
    65   -1.265573801690e-02
    66    3.747713705058e-03
    67    6.466883597927e-03
    68    7.337339126681e-03
    69   -9.147911172147e-03
    70   -1.978308974696e-14
    71   -1.956547369276e-02
    72    8.274223468134e-03
    73   -1.202068146764e-02
    74   -3.402881810944e-14
    75   -5.623448416988e-02
    76    6.844143916521e-03
    77   -1.008765680554e-02
    78   -3.603369791882e-14
    79    2.833766933955e-01
    80    1.479625275653e-01
    81   -8.119984448087e-02
    82   -4.397080480571e-13
    83    8.942834508341e-04
    84    6.666334653116e-15
    85   -2.645253919150e-15
    86   -1.370315146253e-03
    87    1.204909661623e-03
    88    9.572672342607e-03
    89    1.693790781948e-02
    90   -3.875375807439e-02
    91   -1.150640237694e-02
    92   -2.706840533345e-14
    93   -4.317589613054e-02
    94   -6.734817786720e-02
    95   -2.613838912130e-02
    96   -3.009914609338e-14
    97   -2.669663599315e-01
    98   -2.002729599116e-01
    99   -1.349510498975e-01
   100   -1.034273032452e-13
   101    4.108437607587e+00
   102   -1.619926385709e+00
   103   -4.280724326028e-01
   104    1.205604881785e-12
   105   -8.822893989629e-03
   106    4.779931025623e-15
   107   -1.358702037387e-14
   108    1.486361315599e-02
   109    1.563385413874e-02
   110   -1.395547093969e-02
   111   -2.413373472922e-02
   112   -2.730158487566e-03
   113   -7.490685005022e-02
   114    1.865679050301e-15
   115    8.067059048263e-02
   116   -2.007834601596e-03
   117   -1.013665885976e-01
   118    1.152969145993e-14
   119    1.891627844640e-01
   120   -6.020186351018e-02
   121   -1.214763108909e-01
   122    3.005222101670e-15
   123    4.727003209946e-01
   124   -4.842746117300e-02
   125   -2.676590867786e-02
   126   -2.407415250937e-14
   127    4.974953565295e-05
   128    1.573329613887e-15
   129    1.522854989318e-15
   130   -3.199605607690e-03
   131   -9.381237903986e-04
   132    1.398005755687e-02
   133    2.421356252190e-02
   134    9.229632134069e-03
   135   -3.852978006445e-02
   136   -3.271815897279e-14
   137   -7.593464704121e-02
   138    1.314490418566e-02
   139   -6.031433977099e-02
   140   -4.891880146222e-14
   141   -2.203470330922e-01
   142    4.313989308411e-02
   143   -9.904966124476e-02
   144   -1.514090039792e-13
   145   -1.077796406908e+00
   146   -1.968256407770e-02
   147   -6.956563046215e-01
   148   -6.129842174029e-14
   149   -2.005151846106e-03
   150   -1.208071459885e-14
   151   -2.355582778717e-15
   152   -1.072699626987e-02
   153   -1.557131186959e-03
   154    1.003125089877e-02
   155    1.736204609159e-02
   156    1.629830240741e-02
   157   -2.690638263359e-03
   158   -1.360814407367e-14
   159   -5.445088219383e-02
   160    2.405678379205e-02
   161   -5.268725662345e-03
   162   -1.157543474541e-14
   163   -1.583394694523e-01
   164    2.735968963143e-02
   165   -9.051666078477e-03
   166   -6.354779760407e-14
   167   -1.187924034769e+00
   168    3.653941013979e-01
   169   -8.136211375582e-02
   170   -4.781074034209e-13
   171   -2.363570455897e-04
   172    4.226832364773e-15
   173    9.317434133613e-15
   174   -3.887092106062e-04
   175    3.641279456716e-03
   176   -9.664481816870e-03
   177   -1.696864945002e-02
   178    1.853932869959e-02
   179   -1.166366323382e-02
   180    5.306349476017e-14
   181    4.850463389757e-02
   182    2.388344332522e-02
   183   -6.571529147434e-03
   184    7.019612173883e-14
   185    2.067316961439e-01
   186    9.912488975112e-02
   187   -1.163024716672e-01
   188    3.084533240456e-13
   189   -4.923554648009e+00
   190    3.484240166976e+00
   191   -2.226992499637e+00
   192   -2.134173564317e-12
   193   -2.629777674191e-03
   194   -5.043559872008e-16
   195   -1.799646987809e-15
   196   -2.006315244432e-03
   197   -1.391417841991e-02
   198    2.146792502543e-02
   199    6.684092461763e-02
   200   -3.680562212317e-01
   201   -3.680805533231e+00
   202   -7.174275845846e-03
   203    9.641089445236e-04
   204   -8.773198162370e-17
Sym=X
Ene= 0.494215
Spin=Alpha
Occup=0
     1   -9.284980201745e-03
     2   -1.604251999589e-02
     3   -2.204188524657e-02
     4   -1.778526812627e-02
     5   -4.621728489672e-15
     6    4.501161574962e-02
     7   -2.551781233779e-02
     8   -1.824989058500e-02
     9   -3.216809042574e-14
    10    1.834506459504e-01
    11   -1.773523328009e-01
    12   -1.135747986314e-01
    13    9.879713139478e-14
    14    3.104524231851e+00
    15   -7.648760004486e-01
    16   -3.516212750515e+00
    17    1.442687108818e-13
    18    3.892765575112e-03
    19    6.113958344670e-15
    20    1.401192439360e-15
    21   -9.316905867481e-03
    22    1.030826519115e-02
    23    6.425545484222e-03
    24    8.016671868775e-03
    25    6.848377318503e-01
    26    1.914374612053e+00
    27   -7.958310885288e-03
    28   -1.965427509094e-03
    29   -7.095094432724e-15
    30    7.721673761741e-03
    31    4.749067403064e-02
    32   -5.366472236096e-01
    33   -5.802091133613e+00
    34   -4.209240084295e-03
    35    8.178668448471e-03
    36   -7.389501928834e-16
    37    1.592779098277e-02
    38    6.327164803802e-02
    39   -1.611777132622e-02
    40    1.271043418841e-02
    41   -4.405908494707e-03
    42    3.083435968294e-03
    43   -1.593970627088e-15
    44    1.218288185936e-03
    45    2.907158069610e-03
    46   -1.074808693029e-02
    47   -1.329477492335e-02
    48    2.213904011547e-14
    49   -2.847394195406e-02
    50   -2.551655979116e-02
    51   -2.936460939996e-02
    52    9.251954151148e-15
    53    8.779024178593e-02
    54   -4.728069331168e-02
    55    1.297474352855e-01
    56    1.402564653070e-13
    57    1.619533978360e+00
    58    6.017976060482e-01
    59    2.778572799051e-01
    60    1.776871779672e-13
    61    5.573758863625e-03
    62   -3.622313750414e-15
    63   -1.586424425946e-16
    64    8.996622613144e-04
    65   -4.499643895850e-03
    66    6.741090604412e-03
    67    1.168279093479e-02
    68    1.041749698843e-02
    69    7.425362728208e-03
    70    4.628805569409e-16
    71   -3.958743744486e-02
    72    1.621431405096e-02
    73    1.257761093419e-02
    74   -1.113522179540e-14
    75   -7.137451768845e-02
    76   -1.017301947614e-02
    77    1.996225940628e-02
    78    1.783952795884e-14
    79   -4.030560342710e-01
    80   -1.153907438817e-02
    81    4.709906852803e-02
    82   -1.456613305290e-13
    83    9.798905974624e-04
    84    1.364583194947e-15
    85   -7.696135698176e-17
    86   -1.302074478241e-03
    87    1.422108268896e-03
    88    1.485022967411e-02
    89    2.648083880088e-02
    90   -5.104348417379e-02
    91   -1.658751197716e-02
    92   -5.732676705300e-15
    93   -8.382442210171e-02
    94   -9.319238622522e-02
    95   -3.228198513899e-02
    96    1.124430233180e-15
    97   -3.641035899250e-01
    98   -2.649421914273e-01
    99   -1.570407235213e-01
   100   -4.286624444384e-14
   101    6.878501588964e-01
   102   -6.626179846063e-01
   103   -1.948926344912e+00
   104    4.774918081439e-13
   105   -1.128894928050e-02
   106   -8.419568567410e-16
   107   -6.299368902890e-15
   108    1.541676059223e-03
   109    1.741244232538e-02
   110   -1.444048191403e-02
   111   -2.470134062706e-02
   112   -4.892925262882e-02
   113   -1.297837489807e-02
   114    3.126368059643e-15
   115    7.941623969795e-02
   116   -6.623734826051e-02
   117   -1.411328680664e-02
   118    4.787587942347e-16
   119    2.383953962588e-01
   120   -1.288286036691e-01
   121   -7.891209311143e-02
   122    1.976344015373e-14
   123    4.808079415443e-01
   124   -4.347996522340e-03
   125    3.142793544739e-02
   126   -5.140196947387e-14
   127    4.562246818139e-04
   128    7.050817013448e-16
   129    5.210340601642e-16
   130    1.530297556476e-03
   131   -5.324195165197e-03
   132    4.548742759224e-03
   133    8.135412680628e-03
   134    9.839231278281e-03
   135   -4.829679696502e-03
   136    2.532845753361e-15
   137   -3.235313917728e-02
   138    1.910637157110e-02
   139   -7.629210458291e-03
   140   -7.279511602625e-15
   141   -3.129754451847e-02
   142    2.961842150275e-02
   143   -2.941697061822e-02
   144    3.339039193619e-14
   145   -1.240326516959e+00
   146    7.049902136340e-01
   147    7.206448401070e-01
   148   -2.746741139560e-13
   149   -1.141025885737e-03
   150   -5.208643085564e-15
   151    9.196025988844e-16
   152   -9.707627110729e-03
   153   -4.103609163084e-03
   154    1.724263421012e-02
   155    2.984619769457e-02
   156    2.373492891991e-03
   157    1.784390208741e-02
   158    3.902512301955e-15
   159   -9.354659582915e-02
   160    5.066032513243e-04
   161    2.389863356619e-02
   162    3.004912151770e-15
   163   -2.424201466744e-01
   164    8.848379677385e-03
   165    8.944452739062e-02
   166    1.576363513162e-14
   167   -4.664138393207e-01
   168    8.676193676055e-01
   169    1.139946646699e+00
   170   -2.628296972683e-13
   171   -5.475081675522e-04
   172    7.945937174976e-16
   173    5.577402910974e-15
   174    1.484730847248e-03
   175   -1.522647063362e-03
   176    4.229833609691e-03
   177    7.451363994664e-03
   178   -1.035169144682e-02
   179    2.315120886440e-02
   180    1.340809261516e-14
   181   -2.511279125491e-02
   182   -1.488122054549e-02
   183    3.281282691249e-02
   184    3.034778433601e-14
   185   -3.685025411481e-02
   186   -5.314881443218e-02
   187    5.503096403221e-02
   188    1.792479649514e-14
   189   -2.532410475624e+00
   190   -2.143157680020e-01
   191    1.240555014789e+00
   192   -4.254249803134e-13
   193   -3.480818529659e-03
   194    1.526926258546e-15
   195    2.667544289856e-15
   196    9.888869201474e-03
   197   -1.509474368385e-02
   198    1.968203306500e-02
   199    3.524368916790e-02
   200    3.205475110475e-01
   201    2.353560680105e+00
   202    1.086369991651e-02
   203    1.930830607384e-03
   204    1.141411022790e-15
[5D]
