[Molden Format]
[Atoms] (Angs)
  C      1    6     -0.00754183     -1.75895763      0.00000000
  H      2    1     -2.09769850     -1.41880678     -0.00000000
  H      3    1     -0.13527422     -2.83956838     -0.00000000
  H      4    1      0.04053511      2.02026369      0.00000000
  C      5    6     -1.22066484      0.39918184     -0.00000000
  O      6    8     -2.25210141      1.05663720     -0.00000000
  C      7    6      1.24009552      0.27789184      0.00000000
  O      8    8      2.33767996      1.06122493      0.00000000
  N      9    7      0.03634586      1.00852936      0.00000000
  N     10    7     -1.18738304     -0.97903470     -0.00000000
  C     11    6      1.22288875     -1.12258096      0.00000000
  H     12    1      2.15640383     -1.68445878      0.00000000
[GTO]
1    0
S    6    1.000000
   4.56324000E+03    1.96665000E-03 
   6.82024000E+02    1.52306000E-02 
   1.54973000E+02    7.61269000E-02 
   4.44553000E+01    2.60801000E-01 
   1.30290000E+01    6.16462000E-01 
   1.82773000E+00    2.21006000E-01 
SP   3    1.000000
   2.09642000E+01    1.14660000E-01   4.02487000E-02 
   4.80331000E+00    9.19999000E-01   2.37594000E-01 
   1.45933000E+00   -3.03068000E-03   8.15854000E-01 
SP   1    1.000000
   4.83456000E-01    1.00000000E+00   1.00000000E+00 
SP   1    1.000000
   1.45585000E-01    1.00000000E+00   1.00000000E+00 
SP   1    1.000000
   4.38000000E-02    1.00000000E+00   1.00000000E+00 
D    1    1.000000
   6.26000000E-01    1.00000000E+00 

2    0
S    3    1.000000
   3.38650000E+01    2.54938000E-02 
   5.09479000E+00    1.90373000E-01 
   1.15879000E+00    8.52161000E-01 
S    1    1.000000
   3.25840000E-01    1.00000000E+00 
S    1    1.000000
   1.02741000E-01    1.00000000E+00 
S    1    1.000000
   3.60000000E-02    1.00000000E+00 
P    1    1.000000
   7.50000000E-01    1.00000000E+00 

3    0
S    3    1.000000
   3.38650000E+01    2.54938000E-02 
   5.09479000E+00    1.90373000E-01 
   1.15879000E+00    8.52161000E-01 
S    1    1.000000
   3.25840000E-01    1.00000000E+00 
S    1    1.000000
   1.02741000E-01    1.00000000E+00 
S    1    1.000000
   3.60000000E-02    1.00000000E+00 
P    1    1.000000
   7.50000000E-01    1.00000000E+00 

4    0
S    3    1.000000
   3.38650000E+01    2.54938000E-02 
   5.09479000E+00    1.90373000E-01 
   1.15879000E+00    8.52161000E-01 
S    1    1.000000
   3.25840000E-01    1.00000000E+00 
S    1    1.000000
   1.02741000E-01    1.00000000E+00 
S    1    1.000000
   3.60000000E-02    1.00000000E+00 
P    1    1.000000
   7.50000000E-01    1.00000000E+00 

5    0
S    6    1.000000
   4.56324000E+03    1.96665000E-03 
   6.82024000E+02    1.52306000E-02 
   1.54973000E+02    7.61269000E-02 
   4.44553000E+01    2.60801000E-01 
   1.30290000E+01    6.16462000E-01 
   1.82773000E+00    2.21006000E-01 
SP   3    1.000000
   2.09642000E+01    1.14660000E-01   4.02487000E-02 
   4.80331000E+00    9.19999000E-01   2.37594000E-01 
   1.45933000E+00   -3.03068000E-03   8.15854000E-01 
SP   1    1.000000
   4.83456000E-01    1.00000000E+00   1.00000000E+00 
SP   1    1.000000
   1.45585000E-01    1.00000000E+00   1.00000000E+00 
SP   1    1.000000
   4.38000000E-02    1.00000000E+00   1.00000000E+00 
D    1    1.000000
   6.26000000E-01    1.00000000E+00 

6    0
S    6    1.000000
   8.58850000E+03    1.89515000E-03 
   1.29723000E+03    1.43859000E-02 
   2.99296000E+02    7.07320000E-02 
   8.73771000E+01    2.40001000E-01 
   2.56789000E+01    5.94797000E-01 
   3.74004000E+00    2.80802000E-01 
SP   3    1.000000
   4.21175000E+01    1.13889000E-01   3.65114000E-02 
   9.62837000E+00    9.20811000E-01   2.37153000E-01 
   2.85332000E+00   -3.27447000E-03   8.19702000E-01 
SP   1    1.000000
   9.05661000E-01    1.00000000E+00   1.00000000E+00 
SP   1    1.000000
   2.55611000E-01    1.00000000E+00   1.00000000E+00 
SP   1    1.000000
   8.45000000E-02    1.00000000E+00   1.00000000E+00 
D    1    1.000000
   1.29200000E+00    1.00000000E+00 

7    0
S    6    1.000000
   4.56324000E+03    1.96665000E-03 
   6.82024000E+02    1.52306000E-02 
   1.54973000E+02    7.61269000E-02 
   4.44553000E+01    2.60801000E-01 
   1.30290000E+01    6.16462000E-01 
   1.82773000E+00    2.21006000E-01 
SP   3    1.000000
   2.09642000E+01    1.14660000E-01   4.02487000E-02 
   4.80331000E+00    9.19999000E-01   2.37594000E-01 
   1.45933000E+00   -3.03068000E-03   8.15854000E-01 
SP   1    1.000000
   4.83456000E-01    1.00000000E+00   1.00000000E+00 
SP   1    1.000000
   1.45585000E-01    1.00000000E+00   1.00000000E+00 
SP   1    1.000000
   4.38000000E-02    1.00000000E+00   1.00000000E+00 
D    1    1.000000
   6.26000000E-01    1.00000000E+00 

8    0
S    6    1.000000
   8.58850000E+03    1.89515000E-03 
   1.29723000E+03    1.43859000E-02 
   2.99296000E+02    7.07320000E-02 
   8.73771000E+01    2.40001000E-01 
   2.56789000E+01    5.94797000E-01 
   3.74004000E+00    2.80802000E-01 
SP   3    1.000000
   4.21175000E+01    1.13889000E-01   3.65114000E-02 
   9.62837000E+00    9.20811000E-01   2.37153000E-01 
   2.85332000E+00   -3.27447000E-03   8.19702000E-01 
SP   1    1.000000
   9.05661000E-01    1.00000000E+00   1.00000000E+00 
SP   1    1.000000
   2.55611000E-01    1.00000000E+00   1.00000000E+00 
SP   1    1.000000
   8.45000000E-02    1.00000000E+00   1.00000000E+00 
D    1    1.000000
   1.29200000E+00    1.00000000E+00 

9    0
S    6    1.000000
   6.29348000E+03    1.96979000E-03 
   9.49044000E+02    1.49613000E-02 
   2.18776000E+02    7.35006000E-02 
   6.36916000E+01    2.48937000E-01 
   1.88282000E+01    6.02460000E-01 
   2.72023000E+00    2.56202000E-01 
SP   3    1.000000
   3.06331000E+01    1.11906000E-01   3.83119000E-02 
   7.02614000E+00    9.21666000E-01   2.37403000E-01 
   2.11205000E+00   -2.56919000E-03   8.17592000E-01 
SP   1    1.000000
   6.84009000E-01    1.00000000E+00   1.00000000E+00 
SP   1    1.000000
   2.00878000E-01    1.00000000E+00   1.00000000E+00 
SP   1    1.000000
   6.39000000E-02    1.00000000E+00   1.00000000E+00 
D    1    1.000000
   9.13000000E-01    1.00000000E+00 

10    0
S    6    1.000000
   6.29348000E+03    1.96979000E-03 
   9.49044000E+02    1.49613000E-02 
   2.18776000E+02    7.35006000E-02 
   6.36916000E+01    2.48937000E-01 
   1.88282000E+01    6.02460000E-01 
   2.72023000E+00    2.56202000E-01 
SP   3    1.000000
   3.06331000E+01    1.11906000E-01   3.83119000E-02 
   7.02614000E+00    9.21666000E-01   2.37403000E-01 
   2.11205000E+00   -2.56919000E-03   8.17592000E-01 
SP   1    1.000000
   6.84009000E-01    1.00000000E+00   1.00000000E+00 
SP   1    1.000000
   2.00878000E-01    1.00000000E+00   1.00000000E+00 
SP   1    1.000000
   6.39000000E-02    1.00000000E+00   1.00000000E+00 
D    1    1.000000
   9.13000000E-01    1.00000000E+00 

11    0
S    6    1.000000
   4.56324000E+03    1.96665000E-03 
   6.82024000E+02    1.52306000E-02 
   1.54973000E+02    7.61269000E-02 
   4.44553000E+01    2.60801000E-01 
   1.30290000E+01    6.16462000E-01 
   1.82773000E+00    2.21006000E-01 
SP   3    1.000000
   2.09642000E+01    1.14660000E-01   4.02487000E-02 
   4.80331000E+00    9.19999000E-01   2.37594000E-01 
   1.45933000E+00   -3.03068000E-03   8.15854000E-01 
SP   1    1.000000
   4.83456000E-01    1.00000000E+00   1.00000000E+00 
SP   1    1.000000
   1.45585000E-01    1.00000000E+00   1.00000000E+00 
SP   1    1.000000
   4.38000000E-02    1.00000000E+00   1.00000000E+00 
D    1    1.000000
   6.26000000E-01    1.00000000E+00 

12    0
S    3    1.000000
   3.38650000E+01    2.54938000E-02 
   5.09479000E+00    1.90373000E-01 
   1.15879000E+00    8.52161000E-01 
S    1    1.000000
   3.25840000E-01    1.00000000E+00 
S    1    1.000000
   1.02741000E-01    1.00000000E+00 
S    1    1.000000
   3.60000000E-02    1.00000000E+00 
P    1    1.000000
   7.50000000E-01    1.00000000E+00 

[MO]
Sym=X
Ene= -0.495605
Spin=Alpha
Occup=1
     1   -2.298140904705e-03
     2   -4.128576941619e-03
     3   -4.559140994599e-03
     4   -1.299722313787e-02
     5   -1.172697700438e-14
     6    1.806046951172e-02
     7   -1.027157176837e-02
     8   -1.977098339290e-02
     9   -2.893213189644e-14
    10    3.768232302399e-02
    11    2.871384141824e-03
    12   -4.373028409997e-02
    13   -4.011694104095e-14
    14    1.734288451544e+00
    15   -8.104165376494e-02
    16    1.508404112447e-02
    17    5.654995805962e-13
    18   -7.747332990728e-03
    19    1.210649474833e-14
    20   -1.585458644038e-16
    21    2.364708063542e-03
    22    1.284938070954e-05
    23   -4.954470116502e-03
    24   -9.959164102820e-03
    25    7.906835329527e-03
    26   -1.223255173944e-01
    27    4.787231458575e-03
    28    2.722823961495e-03
    29   -5.432791436063e-15
    30    7.555733041987e-03
    31    1.342135983579e-02
    32   -2.739507727842e-02
    33   -3.582131804805e-01
    34   -3.059928728450e-04
    35    2.382257051485e-03
    36    2.041527425425e-15
    37    2.392538369834e-03
    38    1.198425252997e-03
    39   -2.856577764304e-01
    40   -6.320862490329e-01
    41   -3.677264423810e-03
    42   -1.050285103798e-02
    43   -8.624635308874e-15
    44    2.653293724520e-03
    45    4.150254088025e-03
    46   -1.052411637424e-02
    47   -5.816286438748e-03
    48    4.558618835121e-14
    49    1.329820533439e-03
    50   -1.730594751554e-02
    51   -1.140727947778e-02
    52    6.947837078562e-14
    53   -1.086165609630e-01
    54    8.475310366624e-04
    55    6.069320829162e-02
    56    1.685744320405e-13
    57   -1.120529667557e+00
    58   -3.617471178799e-01
    59    2.122014984259e-01
    60   -5.127390092076e-13
    61   -9.436545363175e-03
    62    2.783919551805e-15
    63   -3.025450463106e-15
    64   -3.984402595005e-03
    65    2.784953492554e-03
    66   -3.823054981728e-03
    67   -6.633114801828e-03
    68    4.966618699493e-03
    69    5.588754043172e-03
    70   -2.755822250864e-14
    71    2.235560367097e-02
    72    8.369919267586e-03
    73    9.694074102196e-03
    74   -3.692620809344e-14
    75    2.074311856317e-02
    76    7.295615708375e-03
    77   -2.287586454689e-04
    78   -1.087608934143e-13
    79    9.555284649970e-02
    80    4.860269764535e-02
    81    1.765536807795e-02
    82    1.950007103596e-13
    83   -9.303266907269e-04
    84    1.140578598514e-15
    85   -7.794438210418e-16
    86    5.592450210568e-05
    87   -8.785071817111e-04
    88    2.899335217872e-03
    89    4.387461808384e-03
    90   -1.611411035402e-02
    91   -2.440121852027e-02
    92   -1.650015599230e-14
    93    1.364243035507e-02
    94   -2.731697129891e-02
    95   -3.424715402648e-02
    96   -2.307675515234e-14
    97   -1.267523149210e-01
    98   -1.212086021026e-01
    99   -2.016419989316e-01
   100   -5.573830821919e-14
   101    2.829739211830e+00
   102   -1.256114839580e+00
   103   -1.296193645883e+00
   104    1.405368032103e-12
   105   -2.443709528758e-02
   106    3.780823772245e-15
   107   -9.810490680347e-15
   108   -1.758223917600e-03
   109    2.694235263715e-04
   110   -2.395982655921e-02
   111   -4.153010317634e-02
   112   -1.329798911340e-02
   113    1.873637679996e-03
   114    1.958525364146e-14
   115    1.432863325109e-01
   116   -1.658070049909e-02
   117    2.643590100791e-03
   118    1.588317296623e-14
   119    2.571915167240e-01
   120   -7.928018073759e-02
   121   -3.219585300612e-02
   122    1.211395328789e-13
   123    5.793308434540e-01
   124    8.252930429670e-02
   125    4.027971042474e-02
   126   -4.157698892284e-13
   127   -3.146274073239e-03
   128    2.591801082020e-16
   129   -3.086244926212e-18
   130    7.177370427125e-04
   131    1.289044140374e-03
   132   -1.838786898802e-02
   133   -3.183489953812e-02
   134    1.083029297838e-02
   135    1.572483132746e-02
   136   -6.961845410547e-15
   137    9.911150519519e-02
   138    1.624310666858e-02
   139    2.249181341984e-02
   140   -1.902088548180e-14
   141    2.731152016977e-01
   142    7.076259155548e-02
   143    3.203228992114e-02
   144    5.207768854649e-15
   145    4.098606180489e-01
   146    1.794557413126e-01
   147    4.949626117803e-01
   148   -3.185331529252e-13
   149   -5.681066222478e-03
   150   -9.302354390213e-15
   151   -1.875279853573e-15
   152   -1.028838918089e-03
   153   -2.757982807538e-03
   154   -8.329235913828e-03
   155   -1.444679940297e-02
   156   -2.199556947009e-03
   157    4.660839129143e-03
   158   -1.795782265880e-14
   159    4.732891960687e-02
   160   -4.847562343334e-03
   161    6.192989243055e-03
   162   -1.739611716633e-14
   163    9.742491103582e-02
   164    1.642397864360e-02
   165    4.081229133516e-02
   166   -8.687802801603e-14
   167    9.050465146187e-01
   168    2.083669834890e-01
   169    2.961987932690e-01
   170    1.235343213450e-13
   171   -2.468711373012e-03
   172    1.366713585611e-15
   173    7.238312906130e-15
   174   -2.218711866828e-03
   175   -3.058398405672e-03
   176   -1.631141506105e-02
   177   -2.838862942160e-02
   178    1.747346991665e-02
   179    8.245552735385e-03
   180    3.024023751911e-14
   181    8.573408397709e-02
   182    2.457633985297e-02
   183    1.757318884403e-02
   184    3.959385813568e-14
   185    2.207977555914e-01
   186    8.522375621688e-02
   187   -2.325024726507e-02
   188    1.455655895957e-13
   189   -3.083871312194e+00
   190    1.698826036945e+00
   191   -1.117089661518e+00
   192   -1.305716448267e-12
   193   -9.751154456929e-03
   194   -1.083658514459e-15
   195   -5.901734238177e-16
   196   -4.426520419902e-03
   197   -1.100778864609e-03
   198    9.401007064904e-03
   199    2.173745839770e-02
   200   -1.938103739026e-01
   201   -1.790043429104e+00
   202   -5.896178418735e-03
   203    2.306942412536e-03
   204   -5.683872619074e-16
Sym=X
Ene= 0.495605
Spin=Alpha
Occup=0
     1   -6.673742217691e-15
     2   -1.428138287180e-14
     3    9.694011750154e-15
     4    5.092359485485e-15
     5   -1.169213068643e-02
     6    3.976434628678e-14
     7   -1.435520211914e-15
     8    4.149770392271e-15
     9   -1.338670867777e-02
    10    5.361380422399e-13
    11    2.392318338544e-13
    12    4.409367030376e-13
    13   -2.864051417463e-02
    14    2.473196944847e-12
    15    3.362197154074e-13
    16    2.278660103876e-12
    17    7.136906213771e-01
    18    9.172798696296e-15
    19   -6.130473574552e-03
    20   -7.708904380119e-03
    21   -8.097635204946e-15
    22   -8.516783932670e-15
    23    8.251597521221e-15
    24   -6.613032996052e-14
    25    4.341717991924e-13
    26    2.401755476256e-12
    27   -2.173060980544e-15
    28    4.357494931857e-15
    29    1.001709529200e-03
    30    5.747192735087e-15
    31   -5.699347611057e-14
    32    9.798911816577e-13
    33    8.802582044181e-13
    34   -2.217118848102e-15
    35    3.702104240182e-15
    36    3.309845548240e-03
    37    1.126722844744e-14
    38   -1.205349034146e-13
    39    1.620416940429e-12
    40   -2.007752518615e-12
    41    2.756737034853e-15
    42    8.878536841920e-15
    43    3.079161368809e-03
    44    7.440541450371e-15
    45    6.547544092714e-15
    46    1.609738147195e-14
    47    2.800282367938e-14
    48   -3.995677675388e-02
    49   -8.279989103114e-15
    50    8.825881501302e-15
    51    1.610728184410e-14
    52   -7.599585155813e-02
    53   -4.671193609042e-13
    54    7.964399688697e-13
    55    4.814052778506e-13
    56   -7.833024188190e-02
    57   -4.549944229081e-12
    58    1.002189313239e-12
    59    3.620370093631e-12
    60    6.220331116573e-01
    61    1.464413654067e-15
    62   -7.192487033963e-03
    63    2.762289881136e-03
    64    3.549223082359e-15
    65    3.820836514965e-16
    66    5.181081379443e-16
    67   -7.897159784268e-16
    68    3.755116799824e-15
    69    5.046125671775e-15
    70    5.775357046471e-03
    71    8.767461771793e-16
    72    5.998496804851e-16
    73    3.824951352171e-16
    74    4.019753597322e-03
    75    7.302084938791e-14
    76    6.616857176016e-14
    77   -1.877793752979e-14
    78    3.478157348210e-02
    79    9.349124542066e-13
    80    3.823478226247e-14
    81   -7.451756821835e-13
    82   -7.223924508271e-02
    83    2.163298638405e-16
    84   -2.423725692280e-03
    85    1.719173989176e-03
    86    4.070682512510e-16
    87    2.268881779973e-15
    88    3.381663309238e-15
    89    8.935313048014e-15
    90    1.462614827968e-14
    91    1.293976274017e-14
    92   -3.538520221174e-02
    93   -4.662747310574e-14
    94    2.919689380537e-14
    95   -2.145195375508e-14
    96   -5.156561780951e-02
    97    5.346238181586e-13
    98   -2.949045811381e-13
    99    1.765777680295e-13
   100   -9.715763732075e-02
   101    1.696617480423e-11
   102   -3.824685088954e-12
   103   -8.177864052221e-13
   104    1.572655346052e+00
   105   -1.537110380708e-14
   106   -3.785181768505e-04
   107    5.094124100725e-03
   108   -9.630523100937e-16
   109   -1.393368081593e-14
   110    6.919082724398e-17
   111    3.335493418922e-16
   112   -7.278635368465e-15
   113    5.481331535922e-15
   114   -4.127108278178e-02
   115   -5.873155903869e-15
   116   -9.655070091275e-16
   117    2.770374303467e-15
   118   -6.029619185229e-02
   119    6.451345712040e-14
   120   -7.143281903904e-14
   121    2.410764026598e-15
   122   -3.416582498481e-02
   123    1.843859274029e-13
   124    1.744334932808e-13
   125   -2.720586756000e-14
   126   -8.758610542829e-02
   127   -5.402000237478e-16
   128    3.593364358417e-03
   129    2.922424451220e-03
   130    1.090468173661e-15
   131    3.067784964850e-15
   132   -5.282715749032e-15
   133   -1.365109410013e-14
   134    2.600688911798e-14
   135   -1.227470171688e-14
   136   -2.099679848543e-02
   137    2.789397712780e-14
   138    1.904292624579e-14
   139   -2.584133973613e-14
   140   -4.906405561299e-02
   141    1.128500847234e-13
   142    2.814280724009e-13
   143    1.651761469913e-13
   144    2.403427113833e-02
   145   -1.066146270313e-11
   146   -7.262018629670e-13
   147    4.616766392767e-13
   148   -5.700412242373e-01
   149   -8.624401371126e-15
   150    3.437368133823e-03
   151    5.031496331579e-03
   152   -3.403774264219e-15
   153   -1.380532158461e-15
   154    5.131582327698e-15
   155    1.062855966190e-14
   156   -7.800239195941e-15
   157    1.464223068236e-14
   158   -1.026940482374e-02
   159    2.489466663778e-15
   160   -2.382750590898e-15
   161    1.709828742735e-14
   162   -2.951240287281e-02
   163   -5.394496182280e-13
   164   -2.658839058252e-13
   165    1.755069676775e-13
   166    3.974955151648e-02
   167    5.251017576965e-12
   168    1.298723910913e-12
   169    1.682077260602e-12
   170   -4.867296706466e-01
   171    1.092009338205e-14
   172   -6.040131392165e-04
   173   -4.568719531499e-03
   174    8.706877315126e-15
   175    8.749513472409e-16
   176   -5.653211746439e-15
   177   -4.928677023614e-15
   178    3.409168150435e-14
   179    1.156709331164e-14
   180   -5.841047549470e-02
   181    3.083685013454e-14
   182    2.766088696260e-14
   183    7.948800025075e-15
   184   -8.200654051784e-02
   185   -1.040151560598e-13
   186    8.595353685432e-13
   187    1.270403506001e-13
   188   -2.007970007741e-01
   189   -1.336103815137e-11
   190    3.111742683217e-12
   191   -3.950989730695e-12
   192   -6.886585370454e-01
   193    1.043116219427e-15
   194    4.241448315346e-03
   195   -5.112034083884e-03
   196    1.660832499751e-14
   197    7.332373502091e-15
   198    3.211855440337e-15
   199   -6.427874620931e-14
   200   -7.126214040733e-13
   201   -7.313535929892e-13
   202    2.696376394622e-15
   203    2.320637526871e-15
   204   -3.706923429899e-04
[5D]
