[Molden Format]
[Atoms] (Angs)
  C      1    6     -0.00754183     -1.75895763      0.00000000
  H      2    1     -2.09769850     -1.41880678     -0.00000000
  H      3    1     -0.13527422     -2.83956838     -0.00000000
  H      4    1      0.04053511      2.02026369      0.00000000
  C      5    6     -1.22066484      0.39918184     -0.00000000
  O      6    8     -2.25210141      1.05663720     -0.00000000
  C      7    6      1.24009552      0.27789184      0.00000000
  O      8    8      2.33767996      1.06122493      0.00000000
  N      9    7      0.03634586      1.00852936      0.00000000
  N     10    7     -1.18738304     -0.97903470     -0.00000000
  C     11    6      1.22288875     -1.12258096      0.00000000
  H     12    1      2.15640383     -1.68445878      0.00000000
[GTO]
1    0
S    6    1.000000
   4.56324000E+03    1.96665000E-03 
   6.82024000E+02    1.52306000E-02 
   1.54973000E+02    7.61269000E-02 
   4.44553000E+01    2.60801000E-01 
   1.30290000E+01    6.16462000E-01 
   1.82773000E+00    2.21006000E-01 
SP   3    1.000000
   2.09642000E+01    1.14660000E-01   4.02487000E-02 
   4.80331000E+00    9.19999000E-01   2.37594000E-01 
   1.45933000E+00   -3.03068000E-03   8.15854000E-01 
SP   1    1.000000
   4.83456000E-01    1.00000000E+00   1.00000000E+00 
SP   1    1.000000
   1.45585000E-01    1.00000000E+00   1.00000000E+00 
SP   1    1.000000
   4.38000000E-02    1.00000000E+00   1.00000000E+00 
D    1    1.000000
   6.26000000E-01    1.00000000E+00 

2    0
S    3    1.000000
   3.38650000E+01    2.54938000E-02 
   5.09479000E+00    1.90373000E-01 
   1.15879000E+00    8.52161000E-01 
S    1    1.000000
   3.25840000E-01    1.00000000E+00 
S    1    1.000000
   1.02741000E-01    1.00000000E+00 
S    1    1.000000
   3.60000000E-02    1.00000000E+00 
P    1    1.000000
   7.50000000E-01    1.00000000E+00 

3    0
S    3    1.000000
   3.38650000E+01    2.54938000E-02 
   5.09479000E+00    1.90373000E-01 
   1.15879000E+00    8.52161000E-01 
S    1    1.000000
   3.25840000E-01    1.00000000E+00 
S    1    1.000000
   1.02741000E-01    1.00000000E+00 
S    1    1.000000
   3.60000000E-02    1.00000000E+00 
P    1    1.000000
   7.50000000E-01    1.00000000E+00 

4    0
S    3    1.000000
   3.38650000E+01    2.54938000E-02 
   5.09479000E+00    1.90373000E-01 
   1.15879000E+00    8.52161000E-01 
S    1    1.000000
   3.25840000E-01    1.00000000E+00 
S    1    1.000000
   1.02741000E-01    1.00000000E+00 
S    1    1.000000
   3.60000000E-02    1.00000000E+00 
P    1    1.000000
   7.50000000E-01    1.00000000E+00 

5    0
S    6    1.000000
   4.56324000E+03    1.96665000E-03 
   6.82024000E+02    1.52306000E-02 
   1.54973000E+02    7.61269000E-02 
   4.44553000E+01    2.60801000E-01 
   1.30290000E+01    6.16462000E-01 
   1.82773000E+00    2.21006000E-01 
SP   3    1.000000
   2.09642000E+01    1.14660000E-01   4.02487000E-02 
   4.80331000E+00    9.19999000E-01   2.37594000E-01 
   1.45933000E+00   -3.03068000E-03   8.15854000E-01 
SP   1    1.000000
   4.83456000E-01    1.00000000E+00   1.00000000E+00 
SP   1    1.000000
   1.45585000E-01    1.00000000E+00   1.00000000E+00 
SP   1    1.000000
   4.38000000E-02    1.00000000E+00   1.00000000E+00 
D    1    1.000000
   6.26000000E-01    1.00000000E+00 

6    0
S    6    1.000000
   8.58850000E+03    1.89515000E-03 
   1.29723000E+03    1.43859000E-02 
   2.99296000E+02    7.07320000E-02 
   8.73771000E+01    2.40001000E-01 
   2.56789000E+01    5.94797000E-01 
   3.74004000E+00    2.80802000E-01 
SP   3    1.000000
   4.21175000E+01    1.13889000E-01   3.65114000E-02 
   9.62837000E+00    9.20811000E-01   2.37153000E-01 
   2.85332000E+00   -3.27447000E-03   8.19702000E-01 
SP   1    1.000000
   9.05661000E-01    1.00000000E+00   1.00000000E+00 
SP   1    1.000000
   2.55611000E-01    1.00000000E+00   1.00000000E+00 
SP   1    1.000000
   8.45000000E-02    1.00000000E+00   1.00000000E+00 
D    1    1.000000
   1.29200000E+00    1.00000000E+00 

7    0
S    6    1.000000
   4.56324000E+03    1.96665000E-03 
   6.82024000E+02    1.52306000E-02 
   1.54973000E+02    7.61269000E-02 
   4.44553000E+01    2.60801000E-01 
   1.30290000E+01    6.16462000E-01 
   1.82773000E+00    2.21006000E-01 
SP   3    1.000000
   2.09642000E+01    1.14660000E-01   4.02487000E-02 
   4.80331000E+00    9.19999000E-01   2.37594000E-01 
   1.45933000E+00   -3.03068000E-03   8.15854000E-01 
SP   1    1.000000
   4.83456000E-01    1.00000000E+00   1.00000000E+00 
SP   1    1.000000
   1.45585000E-01    1.00000000E+00   1.00000000E+00 
SP   1    1.000000
   4.38000000E-02    1.00000000E+00   1.00000000E+00 
D    1    1.000000
   6.26000000E-01    1.00000000E+00 

8    0
S    6    1.000000
   8.58850000E+03    1.89515000E-03 
   1.29723000E+03    1.43859000E-02 
   2.99296000E+02    7.07320000E-02 
   8.73771000E+01    2.40001000E-01 
   2.56789000E+01    5.94797000E-01 
   3.74004000E+00    2.80802000E-01 
SP   3    1.000000
   4.21175000E+01    1.13889000E-01   3.65114000E-02 
   9.62837000E+00    9.20811000E-01   2.37153000E-01 
   2.85332000E+00   -3.27447000E-03   8.19702000E-01 
SP   1    1.000000
   9.05661000E-01    1.00000000E+00   1.00000000E+00 
SP   1    1.000000
   2.55611000E-01    1.00000000E+00   1.00000000E+00 
SP   1    1.000000
   8.45000000E-02    1.00000000E+00   1.00000000E+00 
D    1    1.000000
   1.29200000E+00    1.00000000E+00 

9    0
S    6    1.000000
   6.29348000E+03    1.96979000E-03 
   9.49044000E+02    1.49613000E-02 
   2.18776000E+02    7.35006000E-02 
   6.36916000E+01    2.48937000E-01 
   1.88282000E+01    6.02460000E-01 
   2.72023000E+00    2.56202000E-01 
SP   3    1.000000
   3.06331000E+01    1.11906000E-01   3.83119000E-02 
   7.02614000E+00    9.21666000E-01   2.37403000E-01 
   2.11205000E+00   -2.56919000E-03   8.17592000E-01 
SP   1    1.000000
   6.84009000E-01    1.00000000E+00   1.00000000E+00 
SP   1    1.000000
   2.00878000E-01    1.00000000E+00   1.00000000E+00 
SP   1    1.000000
   6.39000000E-02    1.00000000E+00   1.00000000E+00 
D    1    1.000000
   9.13000000E-01    1.00000000E+00 

10    0
S    6    1.000000
   6.29348000E+03    1.96979000E-03 
   9.49044000E+02    1.49613000E-02 
   2.18776000E+02    7.35006000E-02 
   6.36916000E+01    2.48937000E-01 
   1.88282000E+01    6.02460000E-01 
   2.72023000E+00    2.56202000E-01 
SP   3    1.000000
   3.06331000E+01    1.11906000E-01   3.83119000E-02 
   7.02614000E+00    9.21666000E-01   2.37403000E-01 
   2.11205000E+00   -2.56919000E-03   8.17592000E-01 
SP   1    1.000000
   6.84009000E-01    1.00000000E+00   1.00000000E+00 
SP   1    1.000000
   2.00878000E-01    1.00000000E+00   1.00000000E+00 
SP   1    1.000000
   6.39000000E-02    1.00000000E+00   1.00000000E+00 
D    1    1.000000
   9.13000000E-01    1.00000000E+00 

11    0
S    6    1.000000
   4.56324000E+03    1.96665000E-03 
   6.82024000E+02    1.52306000E-02 
   1.54973000E+02    7.61269000E-02 
   4.44553000E+01    2.60801000E-01 
   1.30290000E+01    6.16462000E-01 
   1.82773000E+00    2.21006000E-01 
SP   3    1.000000
   2.09642000E+01    1.14660000E-01   4.02487000E-02 
   4.80331000E+00    9.19999000E-01   2.37594000E-01 
   1.45933000E+00   -3.03068000E-03   8.15854000E-01 
SP   1    1.000000
   4.83456000E-01    1.00000000E+00   1.00000000E+00 
SP   1    1.000000
   1.45585000E-01    1.00000000E+00   1.00000000E+00 
SP   1    1.000000
   4.38000000E-02    1.00000000E+00   1.00000000E+00 
D    1    1.000000
   6.26000000E-01    1.00000000E+00 

12    0
S    3    1.000000
   3.38650000E+01    2.54938000E-02 
   5.09479000E+00    1.90373000E-01 
   1.15879000E+00    8.52161000E-01 
S    1    1.000000
   3.25840000E-01    1.00000000E+00 
S    1    1.000000
   1.02741000E-01    1.00000000E+00 
S    1    1.000000
   3.60000000E-02    1.00000000E+00 
P    1    1.000000
   7.50000000E-01    1.00000000E+00 

[MO]
Sym=X
Ene= -0.495407
Spin=Alpha
Occup=1
     1   -1.412884988718e-03
     2   -2.398214152864e-03
     3    1.400004569013e-02
     4   -1.908446872082e-02
     5    1.322119087124e-14
     6    7.829008441865e-03
     7    1.761126710658e-02
     8   -2.985321479109e-02
     9    2.555734545838e-14
    10    7.203790300381e-02
    11    4.748189350227e-02
    12   -7.334179082410e-02
    13    8.218070204755e-14
    14   -2.352307162845e+00
    15   -3.983582874412e-01
    16   -1.007800329156e+00
    17   -7.259624136481e-13
    18   -6.144960044933e-03
    19   -9.001632260227e-15
    20    1.096271587107e-15
    21    5.264871427899e-03
    22   -7.812084966792e-04
    23   -2.893450983772e-03
    24   -2.595190060847e-02
    25   -3.946717314118e-01
    26   -9.847487407795e-01
    27    1.525867477168e-02
    28    4.851230828813e-03
    29    5.059987763761e-15
    30    5.630631368362e-03
    31    5.672386171521e-03
    32   -9.159172286650e-02
    33   -5.618013731335e-01
    34    3.519454251405e-03
    35    1.825699669997e-03
    36    2.374558198398e-15
    37   -1.724757543317e-03
    38   -9.223371841100e-03
    39   -1.716074753140e-01
    40   -3.053304419461e-01
    41    1.854815412208e-03
    42   -7.337872234750e-03
    43    1.986170723024e-15
    44    4.549533549930e-03
    45    7.044961837012e-03
    46    5.486797837064e-03
    47    4.442851504010e-04
    48   -2.330522953086e-14
    49    1.461593373058e-02
    50    1.430443050102e-02
    51   -4.077638117363e-03
    52   -3.870468173732e-14
    53   -2.539885863212e-01
    54    1.128650439099e-01
    55   -4.473397669445e-02
    56   -1.143869462039e-13
    57   -2.609591403554e-01
    58    6.448690934171e-01
    59   -4.134480688835e-01
    60    6.416401099403e-13
    61   -2.426825293989e-02
    62    1.162349480208e-15
    63    5.646218226316e-15
    64    9.085510713394e-08
    65    6.764117542849e-03
    66   -2.315746075487e-02
    67   -4.012368440504e-02
    68   -1.417792139781e-02
    69   -1.260403367234e-02
    70    2.148254491518e-14
    71    1.391146427136e-01
    72   -1.625842898031e-02
    73   -1.876535237879e-02
    74    2.348816014020e-14
    75    2.703954303240e-01
    76    2.758197896166e-02
    77   -4.674730416576e-02
    78    9.843102946662e-14
    79    4.003702806030e-01
    80   -7.810655276083e-02
    81    7.586371699879e-02
    82   -2.888052902966e-13
    83   -3.902696146702e-03
    84   -4.670732216879e-16
    85    3.998936144128e-16
    86    6.840279412904e-04
    87   -3.542886741071e-03
    88   -8.504819429175e-04
    89   -1.555608194387e-03
    90    6.665134736668e-03
    91   -1.217791236087e-02
    92    1.573221878080e-14
    93    8.031409050117e-03
    94    9.739151729252e-03
    95   -1.535341948584e-02
    96    2.565997289173e-14
    97    7.057642145409e-03
    98    2.593849188527e-03
    99   -2.188340876104e-03
   100    2.178847436296e-14
   101   -2.308835439491e+00
   102    2.617676268803e-01
   103    4.738990364221e-01
   104   -1.350493024412e-12
   105   -4.636619276109e-03
   106   -4.485864461971e-15
   107    6.122277508036e-15
   108   -2.160341613442e-03
   109   -8.364550321121e-04
   110   -1.592006750030e-03
   111   -2.769250521062e-03
   112   -5.388825119625e-03
   113    7.930182235437e-03
   114   -1.165669798354e-14
   115    9.894541965403e-03
   116   -7.253839460437e-03
   117    1.198663696043e-02
   118   -7.918296785223e-15
   119    4.949792996111e-04
   120   -1.227442756346e-02
   121    1.453636698710e-02
   122   -1.012012112248e-13
   123    8.055654620226e-02
   124   -1.311647941421e-02
   125   -1.434136922631e-02
   126    4.070847894698e-13
   127   -2.869993049597e-04
   128    7.316380788939e-16
   129    1.006670287498e-16
   130   -8.006718123667e-05
   131    2.422679436436e-04
   132   -1.490913776002e-02
   133   -2.584054519818e-02
   134   -1.947216027567e-02
   135    6.181635065123e-03
   136    6.975306003063e-15
   137    8.259723295507e-02
   138   -3.150851738901e-02
   139    7.701901365799e-03
   140    1.246143284311e-14
   141    1.797383484336e-01
   142   -6.820012493150e-02
   143    1.914750404589e-02
   144    2.144823914720e-14
   145    5.379052513081e-01
   146   -5.787695977817e-02
   147    1.842049162356e-01
   148    1.593423488808e-13
   149   -3.830099857478e-03
   150    4.855585202731e-15
   151    8.136383875342e-16
   152    1.076888313440e-03
   153    8.840204909585e-04
   154   -2.331611866108e-02
   155   -4.030750414213e-02
   156   -3.429859318943e-02
   157   -4.065344523040e-03
   158    6.170116741582e-15
   159    1.253344444431e-01
   160   -5.384736790012e-02
   161   -2.699452329110e-03
   162    7.595139596044e-15
   163    3.446951433503e-01
   164   -9.349214750058e-02
   165    4.161306021565e-03
   166    2.020674999011e-14
   167    9.239308255223e-01
   168   -3.770833508835e-01
   169   -6.627296852224e-02
   170   -6.933873484461e-15
   171   -4.125823391242e-03
   172    2.521866361563e-16
   173   -5.753886865612e-15
   174   -3.429366767024e-03
   175   -1.211101553605e-03
   176   -5.206432789372e-03
   177   -8.859040294083e-03
   178   -3.528233721783e-03
   179    3.099698034605e-03
   180   -2.265704349712e-14
   181    2.466987067702e-02
   182   -1.692790966132e-03
   183    4.909269457817e-03
   184   -3.262267600789e-14
   185    7.922576440710e-02
   186   -4.572456142028e-02
   187    4.338534138543e-02
   188   -1.520193618411e-13
   189    4.199836379954e+00
   190   -8.425694665577e-01
   191    4.985747569148e-01
   192    1.350196178326e-12
   193   -2.727316337480e-03
   194    4.437525996227e-16
   195    1.848913357566e-15
   196   -4.923268758503e-03
   197    4.838891381833e-03
   198   -7.179832002751e-03
   199   -7.579368527897e-03
   200   -1.734314127658e-03
   201    1.721268307254e-01
   202   -1.710412489451e-03
   203    4.630141112810e-04
   204    4.180181091098e-15
Sym=X
Ene= 0.495407
Spin=Alpha
Occup=0
     1   -7.100681836930e-15
     2   -1.444440400171e-14
     3   -2.498864624427e-14
     4    3.839678982186e-14
     5   -3.141269994505e-02
     6    3.326018843413e-14
     7   -1.893212901408e-14
     8    1.006092098044e-13
     9   -4.937467086373e-02
    10    5.567211428623e-13
    11   -4.791332836102e-13
    12    5.303159334800e-13
    13   -9.040558418578e-02
    14    1.468867634585e-12
    15    4.350112109893e-12
    16   -2.843851453608e-12
    17    4.531141563367e-01
    18   -8.179907177670e-15
    19    2.479910848622e-03
    20   -4.978633439246e-03
    21   -5.501747137254e-15
    22    1.286520150425e-14
    23   -6.672109176851e-15
    24    9.429520832196e-14
    25   -2.724116057899e-12
    26    2.470008746402e-13
    27    3.734142649981e-15
    28    1.179634577807e-14
    29    4.779786424562e-03
    30    1.564170488026e-14
    31    1.406280536423e-13
    32    4.982114882394e-13
    33   -1.363102085760e-12
    34   -8.244738634007e-15
    35    4.772230317777e-15
    36   -2.968257698999e-04
    37   -2.110829812202e-14
    38   -1.695535081814e-13
    39    2.163500783722e-13
    40   -1.169677850040e-12
    41    6.978114095601e-15
    42    7.372704511448e-15
    43    1.402362374244e-03
    44    4.098846564286e-15
    45    5.137913287653e-15
    46   -1.216618283309e-14
    47    1.118900970315e-14
    48   -5.443066356004e-02
    49   -6.152647354013e-14
    50   -5.590263990539e-15
    51    7.103084113475e-15
    52   -9.926366643385e-02
    53    8.481680497822e-13
    54    1.439435520749e-13
    55    2.399792419374e-13
    56   -1.098390242637e-01
    57    4.068795888754e-12
    58    1.656104673248e-12
    59   -3.177568705202e-13
    60    1.734544713747e+00
    61   -5.966495913932e-15
    62    6.900314232323e-04
    63   -3.162210599815e-03
    64    7.319199808282e-15
    65    7.014192221995e-15
    66    8.113019896012e-16
    67   -1.151660062765e-15
    68   -3.324257922384e-15
    69    1.597268908706e-15
    70   -3.949769199445e-02
    71    2.693381661369e-15
    72    1.237870248242e-14
    73    2.545162286541e-14
    74   -6.152283147987e-02
    75   -1.484725840119e-14
    76   -1.255693330771e-13
    77   -1.015727450251e-13
    78   -1.572703764517e-02
    79   -7.693432753360e-13
    80    2.151219801825e-13
    81    1.272827531753e-12
    82   -1.028092333174e-01
    83   -1.145597362089e-15
    84   -7.540287572758e-03
    85    4.179979900147e-03
    86   -5.387229640508e-15
    87   -4.644979034998e-15
    88    1.759759346828e-14
    89    2.895412232168e-14
    90    1.305966299451e-14
    91   -2.210548188574e-14
    92   -2.457363289087e-03
    93   -6.856547290250e-14
    94    7.820958690417e-14
    95   -3.820769326702e-14
    96   -9.051540651748e-03
    97   -5.744054043782e-13
    98   -4.103630251736e-13
    99   -1.034578439717e-12
   100    1.678083933154e-02
   101   -2.345614217218e-11
   102   -1.378358496959e-13
   103    6.551892268586e-12
   104    3.170003150403e-01
   105   -1.038808460797e-14
   106    1.962153006449e-03
   107   -2.446716491120e-03
   108   -6.761449992599e-15
   109   -5.832696363886e-15
   110   -1.587921707202e-15
   111   -2.982264515412e-15
   112   -3.036359358160e-15
   113   -1.697120895334e-14
   114   -1.050126027405e-02
   115    2.382283098922e-15
   116   -2.395250085004e-15
   117   -3.305430790453e-14
   118   -1.495580469237e-02
   119    1.763692748936e-13
   120   -1.265349101190e-13
   121   -2.094068205600e-14
   122   -2.174881065810e-02
   123    1.318664104759e-12
   124   -4.991902841413e-13
   125   -8.551746455655e-13
   126    1.472346208595e-03
   127    4.928884787051e-15
   128    5.896078204747e-04
   129    4.129765792969e-04
   130   -1.871768548443e-15
   131   -3.692078723738e-15
   132   -9.627798681384e-15
   133   -1.696832283478e-14
   134    7.011481057009e-15
   135   -1.210146432141e-14
   136   -2.434483141442e-02
   137    3.058085314427e-14
   138    6.910413234951e-15
   139   -2.374383209852e-14
   140   -5.470081714925e-02
   141    2.894601280907e-13
   142    3.057587456786e-13
   143    1.545288978626e-13
   144    1.747487860888e-02
   145   -1.970985379175e-12
   146    1.677017934428e-12
   147   -4.374658227534e-13
   148   -6.338458374831e-01
   149    6.337182583523e-15
   150    2.581149567110e-03
   151    3.114528894020e-03
   152   -1.697314721128e-15
   153    1.980480562344e-15
   154    7.439397108156e-15
   155    1.567530728135e-14
   156   -2.879001626803e-14
   157    1.579141892147e-14
   158   -2.330187790420e-02
   159   -2.644754187564e-14
   160   -3.466662277025e-14
   161    2.349099770011e-14
   162   -5.196107560942e-02
   163   -3.703672052178e-13
   164   -2.907815277538e-13
   165    1.298360696070e-13
   166    1.536419054261e-02
   167    3.876818440190e-12
   168   -3.669007370975e-12
   169   -2.461152723035e-13
   170   -5.147953996555e-01
   171    6.041611617420e-16
   172   -5.363067868072e-03
   173   -2.726282971241e-03
   174    4.316155514381e-15
   175   -9.600175111445e-15
   176   -5.239735805381e-15
   177   -6.330236968722e-15
   178   -2.402873376565e-14
   179    1.570765376506e-14
   180   -9.624458103965e-03
   181    7.096523061661e-14
   182   -5.402785935917e-15
   183    3.726851747155e-14
   184   -1.444989788119e-02
   185   -8.591983301592e-13
   186   -1.499578912943e-13
   187   -5.495568088923e-13
   188   -1.302646885855e-02
   189    1.319539286035e-11
   190   -2.806265094474e-12
   191    1.038743104269e-11
   192   -4.077580872265e-01
   193   -8.264382383065e-15
   194    2.730098870733e-03
   195    1.880748092211e-03
   196    2.150158506866e-14
   197   -1.845646177417e-14
   198    3.849590469446e-14
   199   -1.440204081905e-14
   200    1.396841801026e-12
   201    5.092864154480e-12
   202    7.372103293968e-15
   203   -1.639518269511e-15
   204    1.001101923006e-04
[5D]
