[Molden Format]
[Atoms] (Angs)
  C      1    6     -0.00754183     -1.75895763      0.00000000
  H      2    1     -2.09769850     -1.41880678     -0.00000000
  H      3    1     -0.13527422     -2.83956838     -0.00000000
  H      4    1      0.04053511      2.02026369      0.00000000
  C      5    6     -1.22066484      0.39918184     -0.00000000
  O      6    8     -2.25210141      1.05663720     -0.00000000
  C      7    6      1.24009552      0.27789184      0.00000000
  O      8    8      2.33767996      1.06122493      0.00000000
  N      9    7      0.03634586      1.00852936      0.00000000
  N     10    7     -1.18738304     -0.97903470     -0.00000000
  C     11    6      1.22288875     -1.12258096      0.00000000
  H     12    1      2.15640383     -1.68445878      0.00000000
[GTO]
1    0
S    6    1.000000
   4.56324000E+03    1.96665000E-03 
   6.82024000E+02    1.52306000E-02 
   1.54973000E+02    7.61269000E-02 
   4.44553000E+01    2.60801000E-01 
   1.30290000E+01    6.16462000E-01 
   1.82773000E+00    2.21006000E-01 
SP   3    1.000000
   2.09642000E+01    1.14660000E-01   4.02487000E-02 
   4.80331000E+00    9.19999000E-01   2.37594000E-01 
   1.45933000E+00   -3.03068000E-03   8.15854000E-01 
SP   1    1.000000
   4.83456000E-01    1.00000000E+00   1.00000000E+00 
SP   1    1.000000
   1.45585000E-01    1.00000000E+00   1.00000000E+00 
SP   1    1.000000
   4.38000000E-02    1.00000000E+00   1.00000000E+00 
D    1    1.000000
   6.26000000E-01    1.00000000E+00 

2    0
S    3    1.000000
   3.38650000E+01    2.54938000E-02 
   5.09479000E+00    1.90373000E-01 
   1.15879000E+00    8.52161000E-01 
S    1    1.000000
   3.25840000E-01    1.00000000E+00 
S    1    1.000000
   1.02741000E-01    1.00000000E+00 
S    1    1.000000
   3.60000000E-02    1.00000000E+00 
P    1    1.000000
   7.50000000E-01    1.00000000E+00 

3    0
S    3    1.000000
   3.38650000E+01    2.54938000E-02 
   5.09479000E+00    1.90373000E-01 
   1.15879000E+00    8.52161000E-01 
S    1    1.000000
   3.25840000E-01    1.00000000E+00 
S    1    1.000000
   1.02741000E-01    1.00000000E+00 
S    1    1.000000
   3.60000000E-02    1.00000000E+00 
P    1    1.000000
   7.50000000E-01    1.00000000E+00 

4    0
S    3    1.000000
   3.38650000E+01    2.54938000E-02 
   5.09479000E+00    1.90373000E-01 
   1.15879000E+00    8.52161000E-01 
S    1    1.000000
   3.25840000E-01    1.00000000E+00 
S    1    1.000000
   1.02741000E-01    1.00000000E+00 
S    1    1.000000
   3.60000000E-02    1.00000000E+00 
P    1    1.000000
   7.50000000E-01    1.00000000E+00 

5    0
S    6    1.000000
   4.56324000E+03    1.96665000E-03 
   6.82024000E+02    1.52306000E-02 
   1.54973000E+02    7.61269000E-02 
   4.44553000E+01    2.60801000E-01 
   1.30290000E+01    6.16462000E-01 
   1.82773000E+00    2.21006000E-01 
SP   3    1.000000
   2.09642000E+01    1.14660000E-01   4.02487000E-02 
   4.80331000E+00    9.19999000E-01   2.37594000E-01 
   1.45933000E+00   -3.03068000E-03   8.15854000E-01 
SP   1    1.000000
   4.83456000E-01    1.00000000E+00   1.00000000E+00 
SP   1    1.000000
   1.45585000E-01    1.00000000E+00   1.00000000E+00 
SP   1    1.000000
   4.38000000E-02    1.00000000E+00   1.00000000E+00 
D    1    1.000000
   6.26000000E-01    1.00000000E+00 

6    0
S    6    1.000000
   8.58850000E+03    1.89515000E-03 
   1.29723000E+03    1.43859000E-02 
   2.99296000E+02    7.07320000E-02 
   8.73771000E+01    2.40001000E-01 
   2.56789000E+01    5.94797000E-01 
   3.74004000E+00    2.80802000E-01 
SP   3    1.000000
   4.21175000E+01    1.13889000E-01   3.65114000E-02 
   9.62837000E+00    9.20811000E-01   2.37153000E-01 
   2.85332000E+00   -3.27447000E-03   8.19702000E-01 
SP   1    1.000000
   9.05661000E-01    1.00000000E+00   1.00000000E+00 
SP   1    1.000000
   2.55611000E-01    1.00000000E+00   1.00000000E+00 
SP   1    1.000000
   8.45000000E-02    1.00000000E+00   1.00000000E+00 
D    1    1.000000
   1.29200000E+00    1.00000000E+00 

7    0
S    6    1.000000
   4.56324000E+03    1.96665000E-03 
   6.82024000E+02    1.52306000E-02 
   1.54973000E+02    7.61269000E-02 
   4.44553000E+01    2.60801000E-01 
   1.30290000E+01    6.16462000E-01 
   1.82773000E+00    2.21006000E-01 
SP   3    1.000000
   2.09642000E+01    1.14660000E-01   4.02487000E-02 
   4.80331000E+00    9.19999000E-01   2.37594000E-01 
   1.45933000E+00   -3.03068000E-03   8.15854000E-01 
SP   1    1.000000
   4.83456000E-01    1.00000000E+00   1.00000000E+00 
SP   1    1.000000
   1.45585000E-01    1.00000000E+00   1.00000000E+00 
SP   1    1.000000
   4.38000000E-02    1.00000000E+00   1.00000000E+00 
D    1    1.000000
   6.26000000E-01    1.00000000E+00 

8    0
S    6    1.000000
   8.58850000E+03    1.89515000E-03 
   1.29723000E+03    1.43859000E-02 
   2.99296000E+02    7.07320000E-02 
   8.73771000E+01    2.40001000E-01 
   2.56789000E+01    5.94797000E-01 
   3.74004000E+00    2.80802000E-01 
SP   3    1.000000
   4.21175000E+01    1.13889000E-01   3.65114000E-02 
   9.62837000E+00    9.20811000E-01   2.37153000E-01 
   2.85332000E+00   -3.27447000E-03   8.19702000E-01 
SP   1    1.000000
   9.05661000E-01    1.00000000E+00   1.00000000E+00 
SP   1    1.000000
   2.55611000E-01    1.00000000E+00   1.00000000E+00 
SP   1    1.000000
   8.45000000E-02    1.00000000E+00   1.00000000E+00 
D    1    1.000000
   1.29200000E+00    1.00000000E+00 

9    0
S    6    1.000000
   6.29348000E+03    1.96979000E-03 
   9.49044000E+02    1.49613000E-02 
   2.18776000E+02    7.35006000E-02 
   6.36916000E+01    2.48937000E-01 
   1.88282000E+01    6.02460000E-01 
   2.72023000E+00    2.56202000E-01 
SP   3    1.000000
   3.06331000E+01    1.11906000E-01   3.83119000E-02 
   7.02614000E+00    9.21666000E-01   2.37403000E-01 
   2.11205000E+00   -2.56919000E-03   8.17592000E-01 
SP   1    1.000000
   6.84009000E-01    1.00000000E+00   1.00000000E+00 
SP   1    1.000000
   2.00878000E-01    1.00000000E+00   1.00000000E+00 
SP   1    1.000000
   6.39000000E-02    1.00000000E+00   1.00000000E+00 
D    1    1.000000
   9.13000000E-01    1.00000000E+00 

10    0
S    6    1.000000
   6.29348000E+03    1.96979000E-03 
   9.49044000E+02    1.49613000E-02 
   2.18776000E+02    7.35006000E-02 
   6.36916000E+01    2.48937000E-01 
   1.88282000E+01    6.02460000E-01 
   2.72023000E+00    2.56202000E-01 
SP   3    1.000000
   3.06331000E+01    1.11906000E-01   3.83119000E-02 
   7.02614000E+00    9.21666000E-01   2.37403000E-01 
   2.11205000E+00   -2.56919000E-03   8.17592000E-01 
SP   1    1.000000
   6.84009000E-01    1.00000000E+00   1.00000000E+00 
SP   1    1.000000
   2.00878000E-01    1.00000000E+00   1.00000000E+00 
SP   1    1.000000
   6.39000000E-02    1.00000000E+00   1.00000000E+00 
D    1    1.000000
   9.13000000E-01    1.00000000E+00 

11    0
S    6    1.000000
   4.56324000E+03    1.96665000E-03 
   6.82024000E+02    1.52306000E-02 
   1.54973000E+02    7.61269000E-02 
   4.44553000E+01    2.60801000E-01 
   1.30290000E+01    6.16462000E-01 
   1.82773000E+00    2.21006000E-01 
SP   3    1.000000
   2.09642000E+01    1.14660000E-01   4.02487000E-02 
   4.80331000E+00    9.19999000E-01   2.37594000E-01 
   1.45933000E+00   -3.03068000E-03   8.15854000E-01 
SP   1    1.000000
   4.83456000E-01    1.00000000E+00   1.00000000E+00 
SP   1    1.000000
   1.45585000E-01    1.00000000E+00   1.00000000E+00 
SP   1    1.000000
   4.38000000E-02    1.00000000E+00   1.00000000E+00 
D    1    1.000000
   6.26000000E-01    1.00000000E+00 

12    0
S    3    1.000000
   3.38650000E+01    2.54938000E-02 
   5.09479000E+00    1.90373000E-01 
   1.15879000E+00    8.52161000E-01 
S    1    1.000000
   3.25840000E-01    1.00000000E+00 
S    1    1.000000
   1.02741000E-01    1.00000000E+00 
S    1    1.000000
   3.60000000E-02    1.00000000E+00 
P    1    1.000000
   7.50000000E-01    1.00000000E+00 

[MO]
Sym=X
Ene= -0.495530
Spin=Alpha
Occup=1
     1    6.263796322615e-03
     2    1.152288557560e-02
     3   -1.234602396513e-02
     4   -1.972963153773e-02
     5    2.148574651356e-14
     6   -5.634169535629e-02
     7   -1.296147160853e-02
     8   -2.504712225519e-02
     9   -1.406812586543e-14
    10    3.597797784282e-01
    11    2.654174296946e-02
    12    2.264145968537e-01
    13    3.010053148666e-14
    14    9.086161053671e+00
    15    8.413519222467e-01
    16    2.304829538045e+00
    17   -1.613274032634e-14
    18    8.286296088409e-03
    19    1.165731536861e-14
    20   -1.371270485897e-14
    21    9.128248800504e-03
    22   -4.696791096329e-03
    23   -9.206522154691e-03
    24   -8.112785021464e-02
    25   -4.600621814733e-01
    26   -1.913325124534e+00
    27    2.130488998653e-03
    28    4.593079090653e-03
    29   -1.574616211087e-14
    30   -9.448844990303e-03
    31    2.274031046805e-02
    32   -6.972451213785e-02
    33    3.757707074853e-01
    34    5.404696535736e-03
    35    5.151922747772e-03
    36    3.821471767844e-15
    37    1.724054694726e-03
    38   -5.412177129411e-02
    39   -1.211212776338e-01
    40    4.778887113112e-02
    41   -5.250735992348e-03
    42    8.135160244314e-03
    43   -9.638857966053e-15
    44    6.860537712138e-03
    45    1.325847259502e-02
    46   -1.392907465566e-02
    47    4.240260672144e-03
    48    2.236519017704e-14
    49   -7.616414928399e-02
    50   -2.682994259602e-02
    51    7.232253880163e-03
    52    7.007045226178e-14
    53    4.254977219987e-01
    54    1.799412371386e-01
    55   -1.433821107978e-01
    56    1.731645516873e-13
    57   -1.550486935269e+00
    58   -1.239449297357e+00
    59   -9.272487645052e-02
    60    5.148094205571e-13
    61    7.615236755140e-03
    62    6.822231251069e-15
    63   -3.904438749336e-15
    64    9.075961289803e-04
    65    7.834555033135e-03
    66    3.548491605090e-03
    67    6.230446687601e-03
    68   -1.166843696272e-02
    69   -7.645419150415e-03
    70   -2.234479476200e-14
    71   -2.363167953585e-02
    72   -1.216017959582e-02
    73   -1.345543086807e-02
    74   -4.872686665344e-14
    75    2.948874569854e-02
    76   -4.408597502412e-02
    77   -3.328662053251e-03
    78   -3.538591388088e-14
    79   -2.861695348525e-01
    80    8.935127430720e-02
    81   -1.246202683909e-02
    82   -2.482055061153e-13
    83    1.360224336408e-03
    84    2.275051893425e-15
    85   -1.431625658231e-16
    86   -1.309668496747e-03
    87    2.580606502824e-04
    88    1.733704718867e-03
    89    3.778489550154e-03
    90   -2.486309867699e-02
    91   -1.077366021462e-02
    92   -2.423939885412e-14
    93   -3.475319925170e-02
    94   -3.745137577913e-02
    95   -2.070392669629e-02
    96    1.404868031403e-14
    97    4.227280918490e-01
    98   -5.068424811215e-01
    99   -2.571038579811e-01
   100   -1.598204344806e-13
   101    1.703091605529e+01
   102   -3.983774098471e+00
   103   -4.135323385198e+00
   104   -8.821066432474e-13
   105    1.709487356211e-02
   106    7.317073108269e-15
   107   -6.920605308032e-15
   108    4.180130407589e-03
   109    6.255640772566e-03
   110   -1.435853611531e-02
   111   -2.492628445727e-02
   112    1.860543698477e-02
   113    5.069413802730e-04
   114   -2.703075185916e-14
   115    8.542722310954e-02
   116    2.595696746497e-02
   117    4.102252439411e-03
   118    5.249392545683e-15
   119    1.894897960798e-01
   120   -3.183719115864e-02
   121   -5.207689493753e-02
   122   -1.625366564990e-13
   123    7.670081568063e-01
   124   -1.591811662056e-03
   125    5.840166225163e-02
   126    7.497475821011e-13
   127    3.511805912542e-03
   128    2.845489436078e-15
   129    1.944269463425e-15
   130   -7.662809314400e-05
   131   -3.592765785995e-04
   132    6.875372687790e-03
   133    1.171909908763e-02
   134   -1.332428308358e-02
   135    4.336159035191e-03
   136   -1.019795951712e-14
   137   -3.369811093969e-02
   138   -1.636573258721e-02
   139    1.645174691493e-03
   140   -1.849346204149e-14
   141   -2.403851303957e-01
   142   -5.978010628020e-02
   143    2.185186866195e-01
   144   -3.881916906183e-14
   145   -2.636381968585e+00
   146   -5.022418991390e-01
   147    7.834289303141e-01
   148    7.262947264052e-14
   149    8.313269202251e-03
   150   -5.307297749566e-15
   151   -2.320571146557e-15
   152   -5.368840876860e-03
   153   -7.012833461305e-03
   154   -5.210144332712e-03
   155   -9.101495080877e-03
   156   -2.234257335686e-02
   157   -2.005734464802e-02
   158   -1.736973694798e-14
   159    2.963417093034e-02
   160   -3.186539937524e-02
   161   -3.026504052793e-02
   162   -3.398533871888e-14
   163   -2.627644215559e-02
   164   -1.870958899897e-01
   165   -1.384425849363e-01
   166   -5.036653408290e-14
   167   -1.314055828353e+00
   168   -8.756920419703e-01
   169   -2.585324475278e-01
   170   -1.113918809575e-13
   171    7.684617494538e-03
   172    1.049725998676e-14
   173   -1.350044606445e-15
   174    2.360584044427e-04
   175   -2.511749164045e-03
   176    8.355783952537e-03
   177    1.435208062758e-02
   178    8.104785454343e-04
   179   -3.364033723171e-03
   180    6.799677632536e-15
   181   -3.452759402821e-02
   182    5.730268927573e-03
   183    1.934167946418e-04
   184    1.833400909383e-14
   185   -5.772914729853e-01
   186    3.081983670089e-01
   187   -2.639668449817e-01
   188    1.188794429785e-13
   189   -1.899860907538e+01
   190    3.512780373604e+00
   191   -3.503604691752e+00
   192    1.492653943598e-13
   193    1.634523478616e-02
   194   -3.985203384794e-15
   195   -1.391086107867e-15
   196   -9.863220802550e-03
   197   -7.592583394647e-03
   198   -2.536755997594e-03
   199   -2.422937281232e-02
   200   -4.089315036423e-01
   201   -9.821553755519e-01
   202   -4.469962965886e-04
   203   -6.613133853171e-03
   204   -2.713314004500e-15
Sym=X
Ene= 0.495530
Spin=Alpha
Occup=0
     1   -3.386293535225e-15
     2   -7.583788370902e-15
     3    2.260551298181e-14
     4   -5.742196308484e-15
     5    1.684018282838e-02
     6    3.243825499318e-14
     7   -2.758789057309e-14
     8   -3.874547899535e-14
     9    4.130167778566e-02
    10    2.670955461871e-13
    11    6.087778841775e-13
    12    2.207857848125e-13
    13    4.208299217404e-02
    14   -3.314650049621e-11
    15   -2.841292600976e-12
    16   -7.137608081808e-12
    17   -6.964793140428e-01
    18    1.068147219957e-15
    19   -1.283751379005e-02
    20   -6.599932718361e-03
    21   -4.434344249152e-15
    22    3.710187198244e-16
    23    2.896903454513e-15
    24   -5.698182484107e-14
    25    3.385347321024e-13
    26    9.504696163477e-13
    27   -1.339763455995e-14
    28   -5.565252774853e-15
    29    3.173127256684e-04
    30    7.229117142800e-15
    31   -1.160422256496e-13
    32    8.008964142102e-13
    33   -4.387685861580e-13
    34   -8.220728863172e-15
    35   -5.015814545414e-15
    36    5.950423007178e-03
    37    2.666905762844e-14
    38   -9.671733155462e-14
    39    1.216666055496e-12
    40   -1.851026607469e-12
    41    3.900951055207e-15
    42    1.938556667529e-14
    43   -8.864981793479e-05
    44    5.008207297366e-16
    45    6.107849497946e-15
    46    2.563493573751e-14
    47    2.152202535693e-15
    48   -1.601644700701e-02
    49   -2.682445876142e-14
    50    1.232868532226e-14
    51   -1.465625391839e-14
    52   -2.641840850678e-02
    53   -2.502782862014e-13
    54    8.017060927589e-13
    55    2.776438926013e-14
    56   -7.556612268445e-02
    57    9.982413842961e-12
    58    3.374016984246e-12
    59   -1.112532825944e-12
    60   -1.775441493588e+00
    61    1.902015308558e-14
    62   -9.024591805145e-03
    63    4.985657715713e-03
    64    4.603301844213e-15
    65   -7.408797893008e-15
    66   -2.898778121138e-16
    67    1.803094816263e-15
    68    6.424012702082e-16
    69    8.326942649002e-15
    70    4.709109240474e-02
    71   -1.053873504211e-14
    72   -1.256341466195e-14
    73    9.465921396974e-15
    74    8.287974332068e-02
    75    1.284547632829e-13
    76    1.291235520594e-13
    77   -1.600037235872e-14
    78    3.389941747880e-02
    79    1.447883291801e-12
    80    1.549482400128e-13
    81   -8.287905094649e-13
    82    4.915451050555e-01
    83    5.023845599774e-15
    84    1.123246088961e-03
    85   -8.441833722791e-04
    86    1.715136893892e-15
    87    5.663486163171e-15
    88    2.229867479736e-15
    89    6.922138156681e-15
    90    4.327853883762e-15
    91    1.301922568365e-14
    92    1.476609965184e-03
    93   -2.499823745195e-14
    94    1.853351799521e-14
    95    1.588527022764e-14
    96    2.145699645138e-02
    97    3.636997834314e-13
    98   -4.701854349854e-13
    99    3.645661217165e-13
   100   -2.978670246132e-02
   101   -6.613142414676e-12
   102   -2.491666123482e-12
   103    3.041700424148e-12
   104   -4.386184156378e-01
   105   -1.237997266010e-14
   106   -2.535652387315e-03
   107    1.648558749577e-02
   108    1.338686152566e-14
   109   -1.230066594209e-14
   110   -4.191008345836e-15
   111   -1.007071249462e-14
   112    4.874011965812e-15
   113   -8.193703226343e-15
   114   -3.138869040123e-02
   115    3.691476244700e-14
   116    1.681528387878e-14
   117   -1.498254515459e-14
   118   -3.954948938347e-02
   119   -1.797779623522e-14
   120   -4.464204924454e-14
   121   -4.107287513479e-14
   122   -6.283770699400e-02
   123    1.331119846776e-12
   124    2.501496741915e-13
   125   -2.846561167817e-13
   126    1.508759128610e-01
   127   -4.277029698760e-15
   128    1.719287436470e-03
   129   -5.094537712692e-04
   130   -2.028684101207e-15
   131    1.340985815853e-15
   132    1.670777146257e-15
   133    2.993514003265e-15
   134    3.582061927102e-14
   135   -3.008395622141e-14
   136    3.620154194515e-02
   137   -2.161952520178e-14
   138    4.927992204870e-14
   139   -4.351644750063e-14
   140    6.211188096894e-02
   141    8.031333117700e-14
   142    9.279832894575e-14
   143    1.123380179793e-13
   144    6.746922964869e-02
   145   -1.109197789281e-11
   146    9.734224695118e-15
   147    1.736673337897e-12
   148    3.155337658368e-01
   149   -1.207329195056e-14
   150    7.062346860455e-03
   151   -2.539437942875e-04
   152   -7.326168089716e-15
   153    7.177052584829e-15
   154    9.499763713338e-15
   155    1.404754697974e-14
   156    6.517811443802e-15
   157   -3.406699538386e-15
   158    2.606032295599e-02
   159   -2.089161900848e-14
   160    1.983033435491e-14
   161   -2.238660913688e-14
   162    5.153986715484e-02
   163   -4.776065822784e-13
   164   -1.407844314295e-13
   165    5.604550561161e-14
   166    1.595004304130e-02
   167    5.225925410690e-12
   168    2.946670158620e-12
   169   -1.328086545299e-12
   170    5.582212649493e-01
   171    6.933056079338e-15
   172    3.319613287881e-03
   173   -5.572051742609e-03
   174   -2.706047968156e-15
   175    5.702387421955e-15
   176   -1.665306149128e-14
   177   -3.412138181856e-14
   178    5.364434486989e-14
   179   -1.676697921919e-14
   180   -7.545803211667e-02
   181    7.504082215618e-14
   182    5.076295935128e-14
   183   -3.232380102666e-14
   184   -9.034295368269e-02
   185    2.996241900947e-13
   186    9.013995749659e-13
   187    3.121417236245e-13
   188   -3.724548232839e-01
   189    2.833097109537e-11
   190   -6.852663837414e-12
   191    2.009560349798e-12
   192    1.829950096684e+00
   193   -7.370650756930e-15
   194    7.764247862867e-03
   195   -9.254553782116e-03
   196    5.038470143920e-15
   197    1.948885694484e-14
   198   -6.178834102722e-15
   199   -7.914413223588e-14
   200   -5.528769550207e-13
   201    3.953990770124e-12
   202   -9.634580329598e-15
   203    7.006275330893e-15
   204    4.776671532396e-03
[5D]
