[Molden Format]
[Atoms] (Angs)
  C      1    6     -0.00754183     -1.75895763      0.00000000
  H      2    1     -2.09769850     -1.41880678     -0.00000000
  H      3    1     -0.13527422     -2.83956838     -0.00000000
  H      4    1      0.04053511      2.02026369      0.00000000
  C      5    6     -1.22066484      0.39918184     -0.00000000
  O      6    8     -2.25210141      1.05663720     -0.00000000
  C      7    6      1.24009552      0.27789184      0.00000000
  O      8    8      2.33767996      1.06122493      0.00000000
  N      9    7      0.03634586      1.00852936      0.00000000
  N     10    7     -1.18738304     -0.97903470     -0.00000000
  C     11    6      1.22288875     -1.12258096      0.00000000
  H     12    1      2.15640383     -1.68445878      0.00000000
[GTO]
1    0
S    6    1.000000
   4.56324000E+03    1.96665000E-03 
   6.82024000E+02    1.52306000E-02 
   1.54973000E+02    7.61269000E-02 
   4.44553000E+01    2.60801000E-01 
   1.30290000E+01    6.16462000E-01 
   1.82773000E+00    2.21006000E-01 
SP   3    1.000000
   2.09642000E+01    1.14660000E-01   4.02487000E-02 
   4.80331000E+00    9.19999000E-01   2.37594000E-01 
   1.45933000E+00   -3.03068000E-03   8.15854000E-01 
SP   1    1.000000
   4.83456000E-01    1.00000000E+00   1.00000000E+00 
SP   1    1.000000
   1.45585000E-01    1.00000000E+00   1.00000000E+00 
SP   1    1.000000
   4.38000000E-02    1.00000000E+00   1.00000000E+00 
D    1    1.000000
   6.26000000E-01    1.00000000E+00 

2    0
S    3    1.000000
   3.38650000E+01    2.54938000E-02 
   5.09479000E+00    1.90373000E-01 
   1.15879000E+00    8.52161000E-01 
S    1    1.000000
   3.25840000E-01    1.00000000E+00 
S    1    1.000000
   1.02741000E-01    1.00000000E+00 
S    1    1.000000
   3.60000000E-02    1.00000000E+00 
P    1    1.000000
   7.50000000E-01    1.00000000E+00 

3    0
S    3    1.000000
   3.38650000E+01    2.54938000E-02 
   5.09479000E+00    1.90373000E-01 
   1.15879000E+00    8.52161000E-01 
S    1    1.000000
   3.25840000E-01    1.00000000E+00 
S    1    1.000000
   1.02741000E-01    1.00000000E+00 
S    1    1.000000
   3.60000000E-02    1.00000000E+00 
P    1    1.000000
   7.50000000E-01    1.00000000E+00 

4    0
S    3    1.000000
   3.38650000E+01    2.54938000E-02 
   5.09479000E+00    1.90373000E-01 
   1.15879000E+00    8.52161000E-01 
S    1    1.000000
   3.25840000E-01    1.00000000E+00 
S    1    1.000000
   1.02741000E-01    1.00000000E+00 
S    1    1.000000
   3.60000000E-02    1.00000000E+00 
P    1    1.000000
   7.50000000E-01    1.00000000E+00 

5    0
S    6    1.000000
   4.56324000E+03    1.96665000E-03 
   6.82024000E+02    1.52306000E-02 
   1.54973000E+02    7.61269000E-02 
   4.44553000E+01    2.60801000E-01 
   1.30290000E+01    6.16462000E-01 
   1.82773000E+00    2.21006000E-01 
SP   3    1.000000
   2.09642000E+01    1.14660000E-01   4.02487000E-02 
   4.80331000E+00    9.19999000E-01   2.37594000E-01 
   1.45933000E+00   -3.03068000E-03   8.15854000E-01 
SP   1    1.000000
   4.83456000E-01    1.00000000E+00   1.00000000E+00 
SP   1    1.000000
   1.45585000E-01    1.00000000E+00   1.00000000E+00 
SP   1    1.000000
   4.38000000E-02    1.00000000E+00   1.00000000E+00 
D    1    1.000000
   6.26000000E-01    1.00000000E+00 

6    0
S    6    1.000000
   8.58850000E+03    1.89515000E-03 
   1.29723000E+03    1.43859000E-02 
   2.99296000E+02    7.07320000E-02 
   8.73771000E+01    2.40001000E-01 
   2.56789000E+01    5.94797000E-01 
   3.74004000E+00    2.80802000E-01 
SP   3    1.000000
   4.21175000E+01    1.13889000E-01   3.65114000E-02 
   9.62837000E+00    9.20811000E-01   2.37153000E-01 
   2.85332000E+00   -3.27447000E-03   8.19702000E-01 
SP   1    1.000000
   9.05661000E-01    1.00000000E+00   1.00000000E+00 
SP   1    1.000000
   2.55611000E-01    1.00000000E+00   1.00000000E+00 
SP   1    1.000000
   8.45000000E-02    1.00000000E+00   1.00000000E+00 
D    1    1.000000
   1.29200000E+00    1.00000000E+00 

7    0
S    6    1.000000
   4.56324000E+03    1.96665000E-03 
   6.82024000E+02    1.52306000E-02 
   1.54973000E+02    7.61269000E-02 
   4.44553000E+01    2.60801000E-01 
   1.30290000E+01    6.16462000E-01 
   1.82773000E+00    2.21006000E-01 
SP   3    1.000000
   2.09642000E+01    1.14660000E-01   4.02487000E-02 
   4.80331000E+00    9.19999000E-01   2.37594000E-01 
   1.45933000E+00   -3.03068000E-03   8.15854000E-01 
SP   1    1.000000
   4.83456000E-01    1.00000000E+00   1.00000000E+00 
SP   1    1.000000
   1.45585000E-01    1.00000000E+00   1.00000000E+00 
SP   1    1.000000
   4.38000000E-02    1.00000000E+00   1.00000000E+00 
D    1    1.000000
   6.26000000E-01    1.00000000E+00 

8    0
S    6    1.000000
   8.58850000E+03    1.89515000E-03 
   1.29723000E+03    1.43859000E-02 
   2.99296000E+02    7.07320000E-02 
   8.73771000E+01    2.40001000E-01 
   2.56789000E+01    5.94797000E-01 
   3.74004000E+00    2.80802000E-01 
SP   3    1.000000
   4.21175000E+01    1.13889000E-01   3.65114000E-02 
   9.62837000E+00    9.20811000E-01   2.37153000E-01 
   2.85332000E+00   -3.27447000E-03   8.19702000E-01 
SP   1    1.000000
   9.05661000E-01    1.00000000E+00   1.00000000E+00 
SP   1    1.000000
   2.55611000E-01    1.00000000E+00   1.00000000E+00 
SP   1    1.000000
   8.45000000E-02    1.00000000E+00   1.00000000E+00 
D    1    1.000000
   1.29200000E+00    1.00000000E+00 

9    0
S    6    1.000000
   6.29348000E+03    1.96979000E-03 
   9.49044000E+02    1.49613000E-02 
   2.18776000E+02    7.35006000E-02 
   6.36916000E+01    2.48937000E-01 
   1.88282000E+01    6.02460000E-01 
   2.72023000E+00    2.56202000E-01 
SP   3    1.000000
   3.06331000E+01    1.11906000E-01   3.83119000E-02 
   7.02614000E+00    9.21666000E-01   2.37403000E-01 
   2.11205000E+00   -2.56919000E-03   8.17592000E-01 
SP   1    1.000000
   6.84009000E-01    1.00000000E+00   1.00000000E+00 
SP   1    1.000000
   2.00878000E-01    1.00000000E+00   1.00000000E+00 
SP   1    1.000000
   6.39000000E-02    1.00000000E+00   1.00000000E+00 
D    1    1.000000
   9.13000000E-01    1.00000000E+00 

10    0
S    6    1.000000
   6.29348000E+03    1.96979000E-03 
   9.49044000E+02    1.49613000E-02 
   2.18776000E+02    7.35006000E-02 
   6.36916000E+01    2.48937000E-01 
   1.88282000E+01    6.02460000E-01 
   2.72023000E+00    2.56202000E-01 
SP   3    1.000000
   3.06331000E+01    1.11906000E-01   3.83119000E-02 
   7.02614000E+00    9.21666000E-01   2.37403000E-01 
   2.11205000E+00   -2.56919000E-03   8.17592000E-01 
SP   1    1.000000
   6.84009000E-01    1.00000000E+00   1.00000000E+00 
SP   1    1.000000
   2.00878000E-01    1.00000000E+00   1.00000000E+00 
SP   1    1.000000
   6.39000000E-02    1.00000000E+00   1.00000000E+00 
D    1    1.000000
   9.13000000E-01    1.00000000E+00 

11    0
S    6    1.000000
   4.56324000E+03    1.96665000E-03 
   6.82024000E+02    1.52306000E-02 
   1.54973000E+02    7.61269000E-02 
   4.44553000E+01    2.60801000E-01 
   1.30290000E+01    6.16462000E-01 
   1.82773000E+00    2.21006000E-01 
SP   3    1.000000
   2.09642000E+01    1.14660000E-01   4.02487000E-02 
   4.80331000E+00    9.19999000E-01   2.37594000E-01 
   1.45933000E+00   -3.03068000E-03   8.15854000E-01 
SP   1    1.000000
   4.83456000E-01    1.00000000E+00   1.00000000E+00 
SP   1    1.000000
   1.45585000E-01    1.00000000E+00   1.00000000E+00 
SP   1    1.000000
   4.38000000E-02    1.00000000E+00   1.00000000E+00 
D    1    1.000000
   6.26000000E-01    1.00000000E+00 

12    0
S    3    1.000000
   3.38650000E+01    2.54938000E-02 
   5.09479000E+00    1.90373000E-01 
   1.15879000E+00    8.52161000E-01 
S    1    1.000000
   3.25840000E-01    1.00000000E+00 
S    1    1.000000
   1.02741000E-01    1.00000000E+00 
S    1    1.000000
   3.60000000E-02    1.00000000E+00 
P    1    1.000000
   7.50000000E-01    1.00000000E+00 

[MO]
Sym=X
Ene= -0.487240
Spin=Alpha
Occup=1
     1    6.642073649282e-03
     2    1.128518725707e-02
     3    3.974863292436e-03
     4    2.344037309855e-02
     5   -1.111445673799e-15
     6   -2.851826641329e-02
     7    5.011118808289e-03
     8    3.688186551654e-02
     9    2.156709145473e-14
    10   -2.251566380467e-01
    11   -4.208759529049e-02
    12   -1.297536363947e-02
    13    3.198544811665e-14
    14   -2.917068163519e+00
    15    1.209217232572e-01
    16   -2.767426433238e-01
    17    4.810888689147e-14
    18   -1.563683775804e-03
    19   -2.088464259648e-15
    20    6.059922272324e-15
    21   -1.301219197285e-02
    22   -5.381479916348e-04
    23    1.304114350001e-02
    24    7.384342630117e-02
    25    4.633026100737e-01
    26    1.595957613159e+00
    27   -8.657637960473e-03
    28   -5.633079440785e-03
    29    2.689093947964e-15
    30    4.729622943105e-03
    31   -3.904190279365e-03
    32    1.790899095305e-01
    33    7.200719589138e-01
    34   -3.247151076563e-03
    35   -7.668099550625e-03
    36    1.634129329523e-16
    37    5.682915387705e-03
    38    1.359493000343e-02
    39   -4.287583264044e-01
    40   -1.238016043308e+00
    41    5.772241802353e-03
    42   -1.222792505042e-02
    43    5.061484298037e-15
    44    3.542539736328e-03
    45    5.806215594644e-03
    46    1.508534592623e-02
    47   -8.770460682885e-03
    48    7.025668176578e-15
    49    3.254128083624e-03
    50    3.174501547691e-02
    51   -1.201282249648e-02
    52   -3.900760643511e-14
    53   -3.015425167176e-01
    54    1.599439099783e-01
    55   -9.468069205256e-02
    56    1.230593903884e-13
    57   -1.008855167413e+00
    58    4.781589077014e-01
    59   -4.121227222666e-01
    60   -4.226904385330e-13
    61   -1.631106615118e-02
    62   -4.263969817588e-15
    63   -1.446978268935e-15
    64   -6.471903411619e-03
    65   -1.494263439381e-02
    66   -1.600035858988e-02
    67   -2.772017894260e-02
    68    3.505064431522e-02
    69    3.184308476656e-02
    70   -4.911875226793e-15
    71    9.527177756741e-02
    72    4.683432121038e-02
    73    4.401677301215e-02
    74    8.470395731976e-15
    75    2.080691598044e-01
    76    9.337461257703e-02
    77    4.567262524890e-03
    78   -6.065338459889e-14
    79    6.355269581467e-01
    80   -2.105732947528e-02
    81   -8.361760640909e-02
    82    2.189043753775e-13
    83   -2.205794227097e-03
    84   -8.919380793919e-16
    85   -1.729068152529e-16
    86    3.606891434334e-03
    87    1.312485737664e-03
    88    5.280256351327e-03
    89    9.357020259871e-03
    90    1.215013377027e-02
    91   -4.117205357915e-03
    92    1.359830136481e-14
    93   -3.259041022673e-02
    94    2.391606720622e-02
    95   -5.475915569589e-03
    96    1.221640508482e-15
    97   -3.258152009530e-02
    98    2.860586440851e-02
    99    3.576090593202e-02
   100    1.223150899419e-13
   101   -3.843338830910e+00
   102    5.706008946637e-02
   103    1.454541063733e+00
   104    8.959946120786e-13
   105   -7.100888768632e-03
   106   -8.181427581160e-16
   107    1.570885197601e-16
   108   -5.609352586804e-03
   109    3.093803473524e-04
   110   -2.289342091346e-03
   111   -3.977085593023e-03
   112   -6.518316198633e-03
   113    5.200910350842e-03
   114    5.816223869595e-15
   115    1.430695487951e-02
   116   -9.006806758251e-03
   117    6.719315980079e-03
   118   -7.373593200930e-15
   119    4.893046017209e-04
   120   -8.430144545513e-03
   121    1.692340856350e-02
   122    6.290076041958e-14
   123    2.524608726325e-02
   124    4.393300081365e-03
   125   -7.636852962261e-02
   126   -4.002493597538e-13
   127   -2.936722702317e-04
   128   -1.148639980539e-15
   129   -1.534816416248e-15
   130    1.066483963483e-05
   131   -1.653266562420e-04
   132   -1.305545385224e-02
   133   -2.258486341090e-02
   134    6.056301498507e-04
   135    3.284072040112e-02
   136    1.486531915896e-15
   137    6.989982056692e-02
   138   -3.276655773761e-03
   139    5.061105340179e-02
   140   -8.504762865661e-16
   141    2.030039061879e-01
   142   -1.204064183797e-02
   143    7.437038279463e-02
   144    1.244387232654e-14
   145    4.706643055568e-01
   146   -7.899961241049e-02
   147    6.737487217085e-01
   148   -3.414274952096e-13
   149   -3.966897968591e-03
   150    3.134864944577e-16
   151    2.714186977029e-16
   152   -3.345249266007e-04
   153    4.893712195807e-03
   154    6.879578411667e-03
   155    1.173281260619e-02
   156    3.619318862254e-02
   157    3.692766084854e-02
   158   -3.804247416763e-15
   159   -3.168075246141e-02
   160    5.802186234573e-02
   161    5.547054890376e-02
   162    2.958207109118e-15
   163   -1.601557190514e-01
   164    1.223137479338e-01
   165    1.235028628668e-01
   166   -5.220785008726e-14
   167    2.982509668821e-01
   168    4.928447473617e-01
   169    2.225364173154e-01
   170    1.230966634690e-13
   171   -2.680641781026e-03
   172   -1.292279849696e-15
   173    1.379445361059e-15
   174    3.661362744268e-03
   175    7.440291169750e-03
   176   -2.250492792649e-03
   177   -3.749303817571e-03
   178   -9.042847278113e-05
   179    1.140162518141e-02
   180   -7.892660159107e-15
   181    6.219289657960e-03
   182   -1.717950071306e-03
   183    1.127767914730e-02
   184   -8.273577558665e-15
   185    1.477379094876e-01
   186   -8.438478723584e-02
   187    6.428775143243e-02
   188   -9.721310041814e-14
   189    5.189889500006e+00
   190   -5.125337879280e-01
   191    1.171905016749e+00
   192   -3.430414026725e-13
   193   -2.098433326399e-03
   194   -2.437090489275e-15
   195    3.767405399376e-15
   196    4.781949907108e-03
   197    3.324772055601e-04
   198    1.135565810126e-03
   199    1.473999641360e-02
   200    5.261717585207e-02
   201    1.962411003659e-01
   202    5.224161996728e-04
   203    7.761972958236e-04
   204   -1.585253800640e-15
Sym=X
Ene= 0.487240
Spin=Alpha
Occup=0
     1   -1.052282693432e-15
     2   -5.746799008423e-16
     3   -1.273353617791e-15
     4    3.100788869288e-16
     5    1.703370587703e-01
     6   -1.003796387320e-14
     7    3.358742043617e-14
     8   -7.312817249938e-15
     9    2.792103664393e-01
    10    1.975940713255e-13
    11    1.550405927682e-14
    12    4.721875927888e-14
    13    4.728569185860e-01
    14    2.815150577067e-12
    15   -6.854162814284e-13
    16    1.664199962135e-12
    17    4.985823573380e-01
    18    5.922526523901e-16
    19   -7.751381268098e-03
    20   -1.082723917624e-02
    21    2.726224730017e-16
    22    4.927516414847e-15
    23   -7.495610488219e-16
    24   -5.466698884443e-14
    25    1.180617022863e-13
    26    2.645551592258e-13
    27    2.476875815595e-15
    28    3.929059138992e-16
    29   -1.360187706342e-02
    30   -2.554877431209e-15
    31   -5.480545426139e-14
    32    2.145431383018e-13
    33    3.986181434475e-13
    34   -3.786570787764e-15
    35   -3.595442087112e-15
    36    1.998088299882e-02
    37   -6.470389835070e-15
    38    1.199365071628e-13
    39   -6.241486277625e-13
    40   -3.221426382239e-14
    41   -3.102400541771e-15
    42   -5.315478722384e-15
    43    9.850711330694e-03
    44   -5.642866352918e-16
    45   -3.330731493371e-15
    46   -4.894757642524e-15
    47   -3.529330487933e-15
    48    3.768385860590e-02
    49    3.113008820186e-14
    50   -2.217270302401e-15
    51   -2.122485242494e-14
    52    6.811283790487e-02
    53   -1.317364688848e-13
    54   -2.323001103009e-13
    55    1.837952374072e-13
    56    8.996279079197e-02
    57   -2.628451316829e-12
    58   -6.982644343558e-13
    59    8.542120662034e-13
    60    4.156273130192e-03
    61    2.584992035895e-16
    62    1.466705068470e-02
    63    3.473773841854e-02
    64    1.370650398574e-16
    65    1.640577677683e-15
    66    4.380636085354e-16
    67    6.172012486009e-16
    68    1.537213891433e-15
    69   -3.793364871960e-16
    70   -1.959474164161e-02
    71    1.570563088511e-15
    72    9.966646129625e-15
    73    1.123434104183e-15
    74   -2.645627074283e-02
    75   -5.741141362993e-14
    76   -3.613493988275e-14
    77    6.076795133676e-16
    78   -3.564864477472e-02
    79   -4.631577389541e-13
    80    4.601060684728e-15
    81    1.955420485198e-13
    82    1.172758022914e-02
    83   -1.291932664354e-15
    84    3.547753128915e-03
    85    8.192754972812e-04
    86   -1.625833799403e-15
    87   -5.205562915780e-16
    88    9.824604392219e-16
    89    2.436544798866e-15
    90   -8.579834469930e-15
    91    4.662388952078e-15
    92   -1.464550599777e-01
    93   -3.117927055244e-15
    94   -1.440483925917e-14
    95   -2.900322716679e-15
    96   -2.389611837796e-01
    97   -2.441527909094e-13
    98    1.576843782336e-14
    99    6.200795652852e-14
   100   -3.549200282720e-01
   101    5.124098978936e-12
   102    1.112937035288e-12
   103   -1.577277613789e-12
   104   -8.923636491505e-02
   105   -1.644734939785e-15
   106    2.354278000408e-02
   107    2.982256327250e-02
   108   -6.496894751411e-15
   109    2.840554794797e-15
   110    2.709104608834e-16
   111    2.600600454700e-15
   112   -2.512237474854e-15
   113   -2.167582667894e-15
   114    1.076803707737e-01
   115   -1.624766026324e-14
   116   -8.057516053930e-15
   117    2.030164816263e-15
   118    1.590715906194e-01
   119    8.335929908752e-14
   120    8.674751293195e-15
   121   -3.418917745331e-14
   122    2.018112116675e-01
   123   -7.239226583027e-13
   124   -5.105099097614e-14
   125    1.601290983571e-13
   126    1.608488772187e-01
   127    5.117353785369e-16
   128    1.447958870661e-03
   129    2.929652707158e-03
   130   -4.919340701988e-16
   131   -5.157978857889e-16
   132   -3.019941686431e-15
   133   -4.288983695433e-16
   134   -9.154949958612e-15
   135   -9.801911766479e-16
   136    5.000631065101e-02
   137   -4.278821136653e-15
   138   -8.375135548393e-15
   139   -8.689421037072e-15
   140    7.653424652291e-02
   141    1.047506392872e-13
   142   -5.759267053136e-14
   143   -1.092802360477e-13
   144    1.137155101336e-01
   145    1.537304501262e-12
   146    3.982802031308e-13
   147    5.388949121781e-13
   148    1.596549852795e-01
   149   -3.723263607151e-15
   150   -1.929841225957e-02
   151    9.576281093294e-03
   152    3.080336566372e-15
   153   -4.138662251159e-16
   154   -5.707514179144e-16
   155   -1.537602785077e-15
   156   -6.203121304408e-15
   157   -6.046836501036e-15
   158   -8.965959822484e-02
   159    1.683946124838e-16
   160   -1.949111536879e-14
   161   -4.860803184714e-15
   162   -1.376679939745e-01
   163    8.502290760048e-14
   164    1.593702400926e-14
   165   -4.865874391159e-15
   166   -2.169247627396e-01
   167    4.375440244755e-13
   168   -1.099588979370e-14
   169    1.196708031541e-12
   170   -3.263526625900e-01
   171   -2.202588072448e-15
   172    1.746191422852e-02
   173   -1.206632178082e-02
   174   -4.845083984162e-15
   175   -1.709969758092e-15
   176    2.385965177864e-15
   177    5.451976520234e-15
   178   -2.511949803425e-15
   179    5.422178044986e-15
   180   -7.212726558785e-02
   181   -1.156457053908e-15
   182   -1.538192335478e-14
   183   -2.114966476893e-14
   184   -1.150902950904e-01
   185   -1.425971984423e-13
   186    1.301156831890e-13
   187    2.559604748587e-13
   188   -2.075312358676e-01
   189   -4.574337862077e-12
   190    5.950610600038e-13
   191   -2.579235585316e-12
   192   -2.458203406871e-01
   193    1.358342141944e-14
   194   -1.674132862366e-02
   195   -3.603528916199e-02
   196    1.072761681900e-16
   197    4.732611240135e-16
   198   -7.128651659157e-15
   199    1.933039941015e-14
   200   -1.591813564505e-13
   201   -1.657357107813e-12
   202   -6.254590006358e-15
   203    5.813047377757e-15
   204   -5.608939696976e-03
[5D]
