[Molden Format]
[Atoms] (Angs)
  C      1    6     -0.00754183     -1.75895763      0.00000000
  H      2    1     -2.09769850     -1.41880678     -0.00000000
  H      3    1     -0.13527422     -2.83956838     -0.00000000
  H      4    1      0.04053511      2.02026369      0.00000000
  C      5    6     -1.22066484      0.39918184     -0.00000000
  O      6    8     -2.25210141      1.05663720     -0.00000000
  C      7    6      1.24009552      0.27789184      0.00000000
  O      8    8      2.33767996      1.06122493      0.00000000
  N      9    7      0.03634586      1.00852936      0.00000000
  N     10    7     -1.18738304     -0.97903470     -0.00000000
  C     11    6      1.22288875     -1.12258096      0.00000000
  H     12    1      2.15640383     -1.68445878      0.00000000
[GTO]
1    0
S    6    1.000000
   4.56324000E+03    1.96665000E-03 
   6.82024000E+02    1.52306000E-02 
   1.54973000E+02    7.61269000E-02 
   4.44553000E+01    2.60801000E-01 
   1.30290000E+01    6.16462000E-01 
   1.82773000E+00    2.21006000E-01 
SP   3    1.000000
   2.09642000E+01    1.14660000E-01   4.02487000E-02 
   4.80331000E+00    9.19999000E-01   2.37594000E-01 
   1.45933000E+00   -3.03068000E-03   8.15854000E-01 
SP   1    1.000000
   4.83456000E-01    1.00000000E+00   1.00000000E+00 
SP   1    1.000000
   1.45585000E-01    1.00000000E+00   1.00000000E+00 
SP   1    1.000000
   4.38000000E-02    1.00000000E+00   1.00000000E+00 
D    1    1.000000
   6.26000000E-01    1.00000000E+00 

2    0
S    3    1.000000
   3.38650000E+01    2.54938000E-02 
   5.09479000E+00    1.90373000E-01 
   1.15879000E+00    8.52161000E-01 
S    1    1.000000
   3.25840000E-01    1.00000000E+00 
S    1    1.000000
   1.02741000E-01    1.00000000E+00 
S    1    1.000000
   3.60000000E-02    1.00000000E+00 
P    1    1.000000
   7.50000000E-01    1.00000000E+00 

3    0
S    3    1.000000
   3.38650000E+01    2.54938000E-02 
   5.09479000E+00    1.90373000E-01 
   1.15879000E+00    8.52161000E-01 
S    1    1.000000
   3.25840000E-01    1.00000000E+00 
S    1    1.000000
   1.02741000E-01    1.00000000E+00 
S    1    1.000000
   3.60000000E-02    1.00000000E+00 
P    1    1.000000
   7.50000000E-01    1.00000000E+00 

4    0
S    3    1.000000
   3.38650000E+01    2.54938000E-02 
   5.09479000E+00    1.90373000E-01 
   1.15879000E+00    8.52161000E-01 
S    1    1.000000
   3.25840000E-01    1.00000000E+00 
S    1    1.000000
   1.02741000E-01    1.00000000E+00 
S    1    1.000000
   3.60000000E-02    1.00000000E+00 
P    1    1.000000
   7.50000000E-01    1.00000000E+00 

5    0
S    6    1.000000
   4.56324000E+03    1.96665000E-03 
   6.82024000E+02    1.52306000E-02 
   1.54973000E+02    7.61269000E-02 
   4.44553000E+01    2.60801000E-01 
   1.30290000E+01    6.16462000E-01 
   1.82773000E+00    2.21006000E-01 
SP   3    1.000000
   2.09642000E+01    1.14660000E-01   4.02487000E-02 
   4.80331000E+00    9.19999000E-01   2.37594000E-01 
   1.45933000E+00   -3.03068000E-03   8.15854000E-01 
SP   1    1.000000
   4.83456000E-01    1.00000000E+00   1.00000000E+00 
SP   1    1.000000
   1.45585000E-01    1.00000000E+00   1.00000000E+00 
SP   1    1.000000
   4.38000000E-02    1.00000000E+00   1.00000000E+00 
D    1    1.000000
   6.26000000E-01    1.00000000E+00 

6    0
S    6    1.000000
   8.58850000E+03    1.89515000E-03 
   1.29723000E+03    1.43859000E-02 
   2.99296000E+02    7.07320000E-02 
   8.73771000E+01    2.40001000E-01 
   2.56789000E+01    5.94797000E-01 
   3.74004000E+00    2.80802000E-01 
SP   3    1.000000
   4.21175000E+01    1.13889000E-01   3.65114000E-02 
   9.62837000E+00    9.20811000E-01   2.37153000E-01 
   2.85332000E+00   -3.27447000E-03   8.19702000E-01 
SP   1    1.000000
   9.05661000E-01    1.00000000E+00   1.00000000E+00 
SP   1    1.000000
   2.55611000E-01    1.00000000E+00   1.00000000E+00 
SP   1    1.000000
   8.45000000E-02    1.00000000E+00   1.00000000E+00 
D    1    1.000000
   1.29200000E+00    1.00000000E+00 

7    0
S    6    1.000000
   4.56324000E+03    1.96665000E-03 
   6.82024000E+02    1.52306000E-02 
   1.54973000E+02    7.61269000E-02 
   4.44553000E+01    2.60801000E-01 
   1.30290000E+01    6.16462000E-01 
   1.82773000E+00    2.21006000E-01 
SP   3    1.000000
   2.09642000E+01    1.14660000E-01   4.02487000E-02 
   4.80331000E+00    9.19999000E-01   2.37594000E-01 
   1.45933000E+00   -3.03068000E-03   8.15854000E-01 
SP   1    1.000000
   4.83456000E-01    1.00000000E+00   1.00000000E+00 
SP   1    1.000000
   1.45585000E-01    1.00000000E+00   1.00000000E+00 
SP   1    1.000000
   4.38000000E-02    1.00000000E+00   1.00000000E+00 
D    1    1.000000
   6.26000000E-01    1.00000000E+00 

8    0
S    6    1.000000
   8.58850000E+03    1.89515000E-03 
   1.29723000E+03    1.43859000E-02 
   2.99296000E+02    7.07320000E-02 
   8.73771000E+01    2.40001000E-01 
   2.56789000E+01    5.94797000E-01 
   3.74004000E+00    2.80802000E-01 
SP   3    1.000000
   4.21175000E+01    1.13889000E-01   3.65114000E-02 
   9.62837000E+00    9.20811000E-01   2.37153000E-01 
   2.85332000E+00   -3.27447000E-03   8.19702000E-01 
SP   1    1.000000
   9.05661000E-01    1.00000000E+00   1.00000000E+00 
SP   1    1.000000
   2.55611000E-01    1.00000000E+00   1.00000000E+00 
SP   1    1.000000
   8.45000000E-02    1.00000000E+00   1.00000000E+00 
D    1    1.000000
   1.29200000E+00    1.00000000E+00 

9    0
S    6    1.000000
   6.29348000E+03    1.96979000E-03 
   9.49044000E+02    1.49613000E-02 
   2.18776000E+02    7.35006000E-02 
   6.36916000E+01    2.48937000E-01 
   1.88282000E+01    6.02460000E-01 
   2.72023000E+00    2.56202000E-01 
SP   3    1.000000
   3.06331000E+01    1.11906000E-01   3.83119000E-02 
   7.02614000E+00    9.21666000E-01   2.37403000E-01 
   2.11205000E+00   -2.56919000E-03   8.17592000E-01 
SP   1    1.000000
   6.84009000E-01    1.00000000E+00   1.00000000E+00 
SP   1    1.000000
   2.00878000E-01    1.00000000E+00   1.00000000E+00 
SP   1    1.000000
   6.39000000E-02    1.00000000E+00   1.00000000E+00 
D    1    1.000000
   9.13000000E-01    1.00000000E+00 

10    0
S    6    1.000000
   6.29348000E+03    1.96979000E-03 
   9.49044000E+02    1.49613000E-02 
   2.18776000E+02    7.35006000E-02 
   6.36916000E+01    2.48937000E-01 
   1.88282000E+01    6.02460000E-01 
   2.72023000E+00    2.56202000E-01 
SP   3    1.000000
   3.06331000E+01    1.11906000E-01   3.83119000E-02 
   7.02614000E+00    9.21666000E-01   2.37403000E-01 
   2.11205000E+00   -2.56919000E-03   8.17592000E-01 
SP   1    1.000000
   6.84009000E-01    1.00000000E+00   1.00000000E+00 
SP   1    1.000000
   2.00878000E-01    1.00000000E+00   1.00000000E+00 
SP   1    1.000000
   6.39000000E-02    1.00000000E+00   1.00000000E+00 
D    1    1.000000
   9.13000000E-01    1.00000000E+00 

11    0
S    6    1.000000
   4.56324000E+03    1.96665000E-03 
   6.82024000E+02    1.52306000E-02 
   1.54973000E+02    7.61269000E-02 
   4.44553000E+01    2.60801000E-01 
   1.30290000E+01    6.16462000E-01 
   1.82773000E+00    2.21006000E-01 
SP   3    1.000000
   2.09642000E+01    1.14660000E-01   4.02487000E-02 
   4.80331000E+00    9.19999000E-01   2.37594000E-01 
   1.45933000E+00   -3.03068000E-03   8.15854000E-01 
SP   1    1.000000
   4.83456000E-01    1.00000000E+00   1.00000000E+00 
SP   1    1.000000
   1.45585000E-01    1.00000000E+00   1.00000000E+00 
SP   1    1.000000
   4.38000000E-02    1.00000000E+00   1.00000000E+00 
D    1    1.000000
   6.26000000E-01    1.00000000E+00 

12    0
S    3    1.000000
   3.38650000E+01    2.54938000E-02 
   5.09479000E+00    1.90373000E-01 
   1.15879000E+00    8.52161000E-01 
S    1    1.000000
   3.25840000E-01    1.00000000E+00 
S    1    1.000000
   1.02741000E-01    1.00000000E+00 
S    1    1.000000
   3.60000000E-02    1.00000000E+00 
P    1    1.000000
   7.50000000E-01    1.00000000E+00 

[MO]
Sym=X
Ene= -0.493578
Spin=Alpha
Occup=1
     1    2.624699267093e-03
     2    4.482081776903e-03
     3   -8.003882404751e-03
     4   -4.244800560566e-03
     5   -1.818836005939e-14
     6   -1.206736184195e-02
     7   -1.538415430983e-02
     8   -9.868678846709e-03
     9   -3.099281031052e-14
    10   -1.302909006674e-01
    11    3.650454369179e-02
    12   -1.026350487330e-01
    13    1.010396355745e-13
    14   -6.292247629362e+00
    15   -1.382622062613e-01
    16   -2.603435946980e+00
    17    3.636770989030e-13
    18   -1.307646696238e-02
    19    3.250037935208e-15
    20    8.536656205926e-15
    21   -5.403992322852e-03
    22    6.788707305583e-03
    23    5.645089168217e-03
    24    5.083321656259e-02
    25   -2.827113727868e-01
    26   -9.499579714361e-01
    27    9.239893223186e-03
    28    5.521736868233e-03
    29   -2.157596848638e-15
    30    1.518183150170e-02
    31    3.807704174255e-02
    32   -5.788241316297e-02
    33   -1.281847277143e+00
    34    2.261646055803e-03
    35   -2.815499429237e-03
    36   -3.389136713049e-15
    37    2.756858776173e-02
    38    1.397718222138e-01
    39    4.404393928442e-01
    40    1.793792585373e+00
    41   -1.586704815726e-03
    42    4.874903627462e-03
    43    5.116980513507e-15
    44    4.263125713594e-03
    45    7.196083800623e-03
    46   -9.982283199492e-03
    47   -5.369575803476e-03
    48    6.127099940970e-15
    49   -9.806069668438e-03
    50   -1.602918243589e-02
    51   -5.734232073540e-03
    52   -6.395525461507e-14
    53   -2.727488868393e-01
    54   -1.762315143751e-01
    55    4.762279147904e-02
    56    1.577120594925e-13
    57    8.504379742484e-01
    58    1.868444214064e-02
    59   -1.071391757043e+00
    60    5.686105694531e-13
    61   -1.178473810221e-02
    62   -1.279415349213e-14
    63    1.288376018482e-14
    64    1.003899454628e-02
    65   -1.118985606621e-03
    66   -3.339104243945e-03
    67   -5.777243467587e-03
    68    2.849337716573e-03
    69   -1.601788130029e-02
    70    2.483776197182e-14
    71    2.012780646146e-02
    72    1.093633646650e-03
    73   -2.109755096342e-02
    74    2.363910250354e-14
    75   -9.535362805477e-03
    76    1.357634467678e-02
    77   -3.250520948452e-02
    78    1.143949851900e-13
    79    5.285644201020e-02
    80   -4.637916420799e-02
    81    1.018488478772e-01
    82   -4.597271472308e-13
    83   -1.265690925054e-03
    84    1.910563523386e-15
    85   -4.795790549144e-16
    86   -1.446854178093e-03
    87   -6.904379701672e-04
    88    8.651481229951e-03
    89    1.473036904433e-02
    90   -6.311802996939e-02
    91   -4.208026864273e-02
    92   -1.188984809148e-15
    93   -1.341480015361e-02
    94   -1.122900273927e-01
    95   -7.139746917594e-02
    96   -2.732658219803e-14
    97   -6.233421566000e-01
    98   -2.252647462537e-01
    99   -2.494158214709e-01
   100   -5.300110467621e-15
   101   -9.672302880894e+00
   102    1.103475155164e+00
   103    1.393899868210e+00
   104   -1.734586437422e-13
   105   -2.246758900032e-02
   106   -1.694734832714e-15
   107    7.286763497411e-16
   108    1.674601905357e-02
   109    3.299817470298e-02
   110   -1.488422864808e-02
   111   -2.563050990724e-02
   112   -7.110203707466e-02
   113   -6.617424562790e-02
   114    3.641555756581e-15
   115    8.311552931130e-02
   116   -9.315567319809e-02
   117   -8.960746974325e-02
   118    8.524943546204e-15
   119    2.386006722180e-01
   120   -1.686575675342e-01
   121   -1.241511059470e-01
   122   -4.242548937427e-14
   123    7.826919190085e-01
   124   -2.081429429732e-01
   125   -1.797253571230e-01
   126    1.603544920222e-13
   127   -7.418939134442e-04
   128   -2.972140920924e-16
   129    1.360692474101e-15
   130   -1.729154996911e-03
   131   -3.524209621647e-03
   132    3.314604917054e-03
   133    5.681113143303e-03
   134   -1.236235683329e-02
   135   -3.995144628018e-02
   136    4.712582170033e-15
   137   -1.560297306482e-02
   138   -1.870913753332e-02
   139   -6.233553826529e-02
   140    5.133935880047e-15
   141   -1.937255431177e-02
   142   -1.521585427557e-02
   143   -2.310993880654e-01
   144   -2.217847524631e-15
   145    1.578372880939e+00
   146   -1.049284370332e-02
   147   -6.027441633800e-01
   148   -2.935461378477e-14
   149   -8.270923177435e-03
   150   -3.148924322532e-15
   151    3.601049631956e-15
   152   -1.387663644743e-02
   153   -6.980589040873e-03
   154   -7.385984215325e-03
   155   -1.244978254589e-02
   156   -1.767706124987e-02
   157   -1.175670391894e-02
   158    2.221901190062e-14
   159    3.282789950177e-02
   160   -3.317513514205e-02
   161   -2.101919099952e-02
   162    2.518922721832e-14
   163    1.944404264377e-01
   164    5.532293190171e-02
   165    2.943010284869e-02
   166    6.856593777704e-14
   167    1.213894041815e+00
   168   -1.718511395323e-01
   169   -3.942215953099e-01
   170   -6.121829717669e-13
   171   -6.045132010677e-03
   172   -1.675915882686e-15
   173    6.028585921620e-15
   174   -9.479408208623e-04
   175   -1.659110437393e-03
   176    2.480711231490e-03
   177    4.020564511419e-03
   178   -2.997317511978e-02
   179    2.146866159351e-02
   180    1.493042822746e-14
   181   -7.852332596966e-03
   182   -3.906956670855e-02
   183    4.030441188152e-02
   184    2.329556762073e-14
   185   -7.291812569388e-02
   186   -2.069733535931e-01
   187    1.168580064163e-01
   188   -3.449796759118e-14
   189    9.399892396611e+00
   190   -3.074230879594e+00
   191    2.485403052760e+00
   192   -1.808730039738e-13
   193   -1.458403477977e-02
   194    3.520090305065e-15
   195   -1.056999459361e-15
   196   -3.233808159752e-03
   197   -2.367951437976e-02
   198    2.186101626424e-02
   199    6.045510839082e-02
   200    6.232804545720e-01
   201    3.064700537385e+00
   202    6.265546434187e-03
   203   -6.862802136428e-03
   204    5.494415437080e-15
Sym=X
Ene= 0.493578
Spin=Alpha
Occup=0
     1    6.982850713425e-15
     2    1.482293017539e-14
     3   -9.898024307497e-15
     4   -5.083309547909e-15
     5    1.150145387060e-02
     6   -4.144612858387e-14
     7    1.462467679509e-15
     8   -4.212145021067e-15
     9    1.307144132309e-02
    10   -5.344287326317e-13
    11   -2.380571217824e-13
    12   -4.378033923406e-13
    13    2.832957507701e-02
    14   -2.412028918015e-12
    15   -3.282618625698e-13
    16   -2.263064646411e-12
    17   -7.140171511551e-01
    18   -9.028908585815e-15
    19    6.056831006094e-03
    20    7.692587495305e-03
    21    8.084910253438e-15
    22    8.543523662499e-15
    23   -8.031681276374e-15
    24    6.500601946627e-14
    25   -4.338943193072e-13
    26   -2.397683264683e-12
    27    2.003956810942e-15
    28   -4.434243033775e-15
    29   -9.751826530654e-04
    30   -6.067058230953e-15
    31    5.701655505802e-14
    32   -9.778998759545e-13
    33   -8.766685039146e-13
    34    2.206114578239e-15
    35   -3.717588232234e-15
    36   -3.322860061349e-03
    37   -1.121363019004e-14
    38    1.200237079861e-13
    39   -1.616262481921e-12
    40    2.004247804152e-12
    41   -2.752867321224e-15
    42   -8.839093623688e-15
    43   -3.123934682051e-03
    44   -7.378416548474e-15
    45   -6.381571125535e-15
    46   -1.628487688503e-14
    47   -2.810488594162e-14
    48    3.993398000418e-02
    49    7.344950079404e-15
    50   -9.284439485734e-15
    51   -1.601255019308e-14
    52    7.597701930533e-02
    53    4.663030558014e-13
    54   -7.920734329597e-13
    55   -4.814380787913e-13
    56    7.830298413669e-02
    57    4.522038047103e-12
    58   -1.005603251106e-12
    59   -3.609650917758e-12
    60   -6.223634218921e-01
    61   -1.282256355226e-15
    62    7.146440672389e-03
    63   -2.834816407392e-03
    64   -3.637690560987e-15
    65   -3.641162204398e-16
    66   -5.348650966131e-16
    67    7.611357861212e-16
    68   -3.741820684181e-15
    69   -4.922755306687e-15
    70   -5.834300137305e-03
    71   -8.067150877182e-16
    72   -5.339174474576e-16
    73   -2.259595423119e-16
    74   -4.109269522876e-03
    75   -7.189282139424e-14
    76   -6.588148811490e-14
    77    1.885989574852e-14
    78   -3.486517940920e-02
    79   -9.319744136177e-13
    80   -3.753508894887e-14
    81    7.430623009528e-13
    82    7.227339301591e-02
    83   -1.984095361986e-16
    84    2.421466360791e-03
    85   -1.714193296837e-03
    86   -4.039600068415e-16
    87   -2.256325377215e-15
    88   -3.764571874799e-15
    89   -9.599776887249e-15
    90   -1.467286115685e-14
    91   -1.335521646016e-14
    92    3.472497019556e-02
    93    4.893733010500e-14
    94   -2.953696686155e-14
    95    2.047198417826e-14
    96    5.031534599094e-02
    97   -5.306452829915e-13
    98    2.949101209435e-13
    99   -1.765381097060e-13
   100    9.646642820704e-02
   101   -1.689980300514e-11
   102    3.810600131751e-12
   103    8.126882506424e-13
   104   -1.572843475382e+00
   105    1.516255729681e-14
   106    3.147649238311e-04
   107   -5.150060423429e-03
   108    9.461437814449e-16
   109    1.386229017984e-14
   110    1.182113237418e-17
   111   -2.153929367314e-16
   112    7.315092148057e-15
   113   -5.272796735926e-15
   114    4.052661145320e-02
   115    5.261953676485e-15
   116    1.024550897064e-15
   117   -2.644072241854e-15
   118    5.954094547425e-02
   119   -6.455459239746e-14
   120    7.135773251138e-14
   121   -2.115935998575e-15
   122    3.379063224106e-02
   123   -1.855120915546e-13
   124   -1.740097246898e-13
   125    2.796292163541e-14
   126    8.784042342623e-02
   127    5.450755473552e-16
   128   -3.515652011578e-03
   129   -2.820756239891e-03
   130   -1.100768948149e-15
   131   -3.070750023080e-15
   132    5.399437543848e-15
   133    1.375497288867e-14
   134   -2.551905070998e-14
   135    1.230190828459e-14
   136    2.048363914623e-02
   137   -2.787917999679e-14
   138   -1.842600997532e-14
   139    2.578789060582e-14
   140    4.822865316004e-02
   141   -1.144365754349e-13
   142   -2.798138073064e-13
   143   -1.638008430419e-13
   144   -2.475041108774e-02
   145    1.063999922294e-11
   146    7.217753049077e-13
   147   -4.627851477067e-13
   148    5.703049577956e-01
   149    8.631390932704e-15
   150   -3.484912572285e-03
   151   -5.000051757483e-03
   152    3.347697992207e-15
   153    1.337845709156e-15
   154   -5.197544763358e-15
   155   -1.072337872705e-14
   156    7.550037427704e-15
   157   -1.457489851892e-14
   158    1.053481883650e-02
   159   -2.658537842599e-15
   160    1.825339529094e-15
   161   -1.711024001029e-14
   162    2.993786803833e-02
   163    5.385976845839e-13
   164    2.643731698380e-13
   165   -1.757322362560e-13
   166   -3.928799004742e-02
   167   -5.236398731835e-12
   168   -1.296703922811e-12
   169   -1.677678649823e-12
   170    4.869486118798e-01
   171   -1.065630473920e-14
   172    5.907219499212e-04
   173    4.584398168800e-03
   174   -8.663610158519e-15
   175   -8.287041269230e-16
   176    5.541812139056e-15
   177    4.714456035390e-15
   178   -3.367914208737e-14
   179   -1.090426991898e-14
   180    5.796873752999e-02
   181   -2.968093548207e-14
   182   -2.718857667800e-14
   183   -6.709671897219e-15
   184    8.123953189920e-02
   185    1.011241595386e-13
   186   -8.548069874448e-13
   187   -1.282498623148e-13
   188    2.002785466036e-01
   189    1.327169444394e-11
   190   -3.083813242655e-12
   191    3.938482399680e-12
   192    6.888182715860e-01
   193   -1.084581210442e-15
   194   -4.245722374906e-03
   195    5.037024750751e-03
   196   -1.670407248609e-14
   197   -7.390452917864e-15
   198   -3.114900217528e-15
   199    6.397442197305e-14
   200    7.084866951924e-13
   201    7.211184578571e-13
   202   -2.690165068632e-15
   203   -2.286535034982e-15
   204    3.309892193094e-04
[5D]
