[Molden Format]
[Atoms] (Angs)
  C      1    6     -0.00754183     -1.75895763      0.00000000
  H      2    1     -2.09769850     -1.41880678     -0.00000000
  H      3    1     -0.13527422     -2.83956838     -0.00000000
  H      4    1      0.04053511      2.02026369      0.00000000
  C      5    6     -1.22066484      0.39918184     -0.00000000
  O      6    8     -2.25210141      1.05663720     -0.00000000
  C      7    6      1.24009552      0.27789184      0.00000000
  O      8    8      2.33767996      1.06122493      0.00000000
  N      9    7      0.03634586      1.00852936      0.00000000
  N     10    7     -1.18738304     -0.97903470     -0.00000000
  C     11    6      1.22288875     -1.12258096      0.00000000
  H     12    1      2.15640383     -1.68445878      0.00000000
[GTO]
1    0
S    6    1.000000
   4.56324000E+03    1.96665000E-03 
   6.82024000E+02    1.52306000E-02 
   1.54973000E+02    7.61269000E-02 
   4.44553000E+01    2.60801000E-01 
   1.30290000E+01    6.16462000E-01 
   1.82773000E+00    2.21006000E-01 
SP   3    1.000000
   2.09642000E+01    1.14660000E-01   4.02487000E-02 
   4.80331000E+00    9.19999000E-01   2.37594000E-01 
   1.45933000E+00   -3.03068000E-03   8.15854000E-01 
SP   1    1.000000
   4.83456000E-01    1.00000000E+00   1.00000000E+00 
SP   1    1.000000
   1.45585000E-01    1.00000000E+00   1.00000000E+00 
SP   1    1.000000
   4.38000000E-02    1.00000000E+00   1.00000000E+00 
D    1    1.000000
   6.26000000E-01    1.00000000E+00 

2    0
S    3    1.000000
   3.38650000E+01    2.54938000E-02 
   5.09479000E+00    1.90373000E-01 
   1.15879000E+00    8.52161000E-01 
S    1    1.000000
   3.25840000E-01    1.00000000E+00 
S    1    1.000000
   1.02741000E-01    1.00000000E+00 
S    1    1.000000
   3.60000000E-02    1.00000000E+00 
P    1    1.000000
   7.50000000E-01    1.00000000E+00 

3    0
S    3    1.000000
   3.38650000E+01    2.54938000E-02 
   5.09479000E+00    1.90373000E-01 
   1.15879000E+00    8.52161000E-01 
S    1    1.000000
   3.25840000E-01    1.00000000E+00 
S    1    1.000000
   1.02741000E-01    1.00000000E+00 
S    1    1.000000
   3.60000000E-02    1.00000000E+00 
P    1    1.000000
   7.50000000E-01    1.00000000E+00 

4    0
S    3    1.000000
   3.38650000E+01    2.54938000E-02 
   5.09479000E+00    1.90373000E-01 
   1.15879000E+00    8.52161000E-01 
S    1    1.000000
   3.25840000E-01    1.00000000E+00 
S    1    1.000000
   1.02741000E-01    1.00000000E+00 
S    1    1.000000
   3.60000000E-02    1.00000000E+00 
P    1    1.000000
   7.50000000E-01    1.00000000E+00 

5    0
S    6    1.000000
   4.56324000E+03    1.96665000E-03 
   6.82024000E+02    1.52306000E-02 
   1.54973000E+02    7.61269000E-02 
   4.44553000E+01    2.60801000E-01 
   1.30290000E+01    6.16462000E-01 
   1.82773000E+00    2.21006000E-01 
SP   3    1.000000
   2.09642000E+01    1.14660000E-01   4.02487000E-02 
   4.80331000E+00    9.19999000E-01   2.37594000E-01 
   1.45933000E+00   -3.03068000E-03   8.15854000E-01 
SP   1    1.000000
   4.83456000E-01    1.00000000E+00   1.00000000E+00 
SP   1    1.000000
   1.45585000E-01    1.00000000E+00   1.00000000E+00 
SP   1    1.000000
   4.38000000E-02    1.00000000E+00   1.00000000E+00 
D    1    1.000000
   6.26000000E-01    1.00000000E+00 

6    0
S    6    1.000000
   8.58850000E+03    1.89515000E-03 
   1.29723000E+03    1.43859000E-02 
   2.99296000E+02    7.07320000E-02 
   8.73771000E+01    2.40001000E-01 
   2.56789000E+01    5.94797000E-01 
   3.74004000E+00    2.80802000E-01 
SP   3    1.000000
   4.21175000E+01    1.13889000E-01   3.65114000E-02 
   9.62837000E+00    9.20811000E-01   2.37153000E-01 
   2.85332000E+00   -3.27447000E-03   8.19702000E-01 
SP   1    1.000000
   9.05661000E-01    1.00000000E+00   1.00000000E+00 
SP   1    1.000000
   2.55611000E-01    1.00000000E+00   1.00000000E+00 
SP   1    1.000000
   8.45000000E-02    1.00000000E+00   1.00000000E+00 
D    1    1.000000
   1.29200000E+00    1.00000000E+00 

7    0
S    6    1.000000
   4.56324000E+03    1.96665000E-03 
   6.82024000E+02    1.52306000E-02 
   1.54973000E+02    7.61269000E-02 
   4.44553000E+01    2.60801000E-01 
   1.30290000E+01    6.16462000E-01 
   1.82773000E+00    2.21006000E-01 
SP   3    1.000000
   2.09642000E+01    1.14660000E-01   4.02487000E-02 
   4.80331000E+00    9.19999000E-01   2.37594000E-01 
   1.45933000E+00   -3.03068000E-03   8.15854000E-01 
SP   1    1.000000
   4.83456000E-01    1.00000000E+00   1.00000000E+00 
SP   1    1.000000
   1.45585000E-01    1.00000000E+00   1.00000000E+00 
SP   1    1.000000
   4.38000000E-02    1.00000000E+00   1.00000000E+00 
D    1    1.000000
   6.26000000E-01    1.00000000E+00 

8    0
S    6    1.000000
   8.58850000E+03    1.89515000E-03 
   1.29723000E+03    1.43859000E-02 
   2.99296000E+02    7.07320000E-02 
   8.73771000E+01    2.40001000E-01 
   2.56789000E+01    5.94797000E-01 
   3.74004000E+00    2.80802000E-01 
SP   3    1.000000
   4.21175000E+01    1.13889000E-01   3.65114000E-02 
   9.62837000E+00    9.20811000E-01   2.37153000E-01 
   2.85332000E+00   -3.27447000E-03   8.19702000E-01 
SP   1    1.000000
   9.05661000E-01    1.00000000E+00   1.00000000E+00 
SP   1    1.000000
   2.55611000E-01    1.00000000E+00   1.00000000E+00 
SP   1    1.000000
   8.45000000E-02    1.00000000E+00   1.00000000E+00 
D    1    1.000000
   1.29200000E+00    1.00000000E+00 

9    0
S    6    1.000000
   6.29348000E+03    1.96979000E-03 
   9.49044000E+02    1.49613000E-02 
   2.18776000E+02    7.35006000E-02 
   6.36916000E+01    2.48937000E-01 
   1.88282000E+01    6.02460000E-01 
   2.72023000E+00    2.56202000E-01 
SP   3    1.000000
   3.06331000E+01    1.11906000E-01   3.83119000E-02 
   7.02614000E+00    9.21666000E-01   2.37403000E-01 
   2.11205000E+00   -2.56919000E-03   8.17592000E-01 
SP   1    1.000000
   6.84009000E-01    1.00000000E+00   1.00000000E+00 
SP   1    1.000000
   2.00878000E-01    1.00000000E+00   1.00000000E+00 
SP   1    1.000000
   6.39000000E-02    1.00000000E+00   1.00000000E+00 
D    1    1.000000
   9.13000000E-01    1.00000000E+00 

10    0
S    6    1.000000
   6.29348000E+03    1.96979000E-03 
   9.49044000E+02    1.49613000E-02 
   2.18776000E+02    7.35006000E-02 
   6.36916000E+01    2.48937000E-01 
   1.88282000E+01    6.02460000E-01 
   2.72023000E+00    2.56202000E-01 
SP   3    1.000000
   3.06331000E+01    1.11906000E-01   3.83119000E-02 
   7.02614000E+00    9.21666000E-01   2.37403000E-01 
   2.11205000E+00   -2.56919000E-03   8.17592000E-01 
SP   1    1.000000
   6.84009000E-01    1.00000000E+00   1.00000000E+00 
SP   1    1.000000
   2.00878000E-01    1.00000000E+00   1.00000000E+00 
SP   1    1.000000
   6.39000000E-02    1.00000000E+00   1.00000000E+00 
D    1    1.000000
   9.13000000E-01    1.00000000E+00 

11    0
S    6    1.000000
   4.56324000E+03    1.96665000E-03 
   6.82024000E+02    1.52306000E-02 
   1.54973000E+02    7.61269000E-02 
   4.44553000E+01    2.60801000E-01 
   1.30290000E+01    6.16462000E-01 
   1.82773000E+00    2.21006000E-01 
SP   3    1.000000
   2.09642000E+01    1.14660000E-01   4.02487000E-02 
   4.80331000E+00    9.19999000E-01   2.37594000E-01 
   1.45933000E+00   -3.03068000E-03   8.15854000E-01 
SP   1    1.000000
   4.83456000E-01    1.00000000E+00   1.00000000E+00 
SP   1    1.000000
   1.45585000E-01    1.00000000E+00   1.00000000E+00 
SP   1    1.000000
   4.38000000E-02    1.00000000E+00   1.00000000E+00 
D    1    1.000000
   6.26000000E-01    1.00000000E+00 

12    0
S    3    1.000000
   3.38650000E+01    2.54938000E-02 
   5.09479000E+00    1.90373000E-01 
   1.15879000E+00    8.52161000E-01 
S    1    1.000000
   3.25840000E-01    1.00000000E+00 
S    1    1.000000
   1.02741000E-01    1.00000000E+00 
S    1    1.000000
   3.60000000E-02    1.00000000E+00 
P    1    1.000000
   7.50000000E-01    1.00000000E+00 

[MO]
Sym=X
Ene= -0.005279
Spin=Alpha
Occup=1
     1    3.623470053100e-05
     2    6.321639055299e-05
     3   -5.507209347568e-05
     4    2.570729317947e-05
     5    3.246059045781e-16
     6   -1.974039924631e-04
     7   -8.999517826420e-05
     8    4.994344105343e-05
     9   -1.079066798326e-15
    10   -3.616089825615e-04
    11   -3.777922620249e-04
    12    3.485209152778e-04
    13   -3.120896863688e-16
    14    1.521861057224e-02
    15   -7.727218441001e-05
    16    8.222852145956e-03
    17   -1.114481299236e-15
    18   -1.490939923710e-05
    19   -6.416767838148e-17
    20    5.766552134099e-16
    21   -1.283156917168e-05
    22    1.048719181973e-05
    23    8.722955944865e-06
    24   -2.492231868130e-06
    25    1.066687576670e-03
    26    8.835301713080e-04
    27   -2.742512012704e-05
    28   -1.574481923470e-05
    29   -7.804924742700e-16
    30    1.326332342981e-05
    31    1.573347440989e-05
    32    8.855667591461e-04
    33    6.386880377433e-03
    34   -1.418065010315e-05
    35   -1.668932673849e-05
    36    1.166763712535e-15
    37    8.245536135659e-05
    38    1.915420629154e-04
    39    2.741027748625e-03
    40    5.641091937534e-03
    41   -8.976316656874e-06
    42    6.492440919626e-05
    43   -4.876717076674e-16
    44   -1.601958403632e-05
    45    7.418445364734e-05
    46    2.847181364017e-05
    47   -5.297110746534e-05
    48   -1.537941074823e-15
    49   -3.138052851336e-04
    50    3.933796623881e-04
    51   -3.182831304591e-04
    52    2.957703304703e-15
    53    1.964983412369e-04
    54    3.069188126993e-04
    55   -5.912011522618e-04
    56   -2.382226108119e-15
    57   -6.533293514247e-03
    58   -2.445163415830e-03
    59    6.199982069640e-05
    60   -1.691541196718e-15
    61    9.396293526459e-05
    62   -8.631981791520e-16
    63    1.377572223355e-16
    64   -5.283345909546e-05
    65    1.779670132712e-04
    66   -5.515462157226e-01
    67   -4.715686802487e-01
    68   -1.445711234367e-03
    69    1.478578254457e-03
    70   -8.770291660504e-16
    71   -5.568008756234e-03
    72    6.080661422513e-04
    73   -8.859058482226e-04
    74    5.333161858113e-16
    75    1.060556963245e-03
    76   -5.029011774092e-05
    77    1.836724449942e-04
    78   -8.504690354776e-16
    79   -5.186398358663e-04
    80    4.143625724560e-04
    81   -4.099558827998e-04
    82   -7.167978741207e-16
    83    8.514708707384e-05
    84   -1.050240041389e-16
    85    1.085545842894e-15
    86    1.065939945109e-04
    87   -9.858204554257e-05
    88    3.941599023204e-05
    89    6.922325684697e-05
    90   -1.481781867376e-04
    91   -4.469528085247e-05
    92    6.391699917494e-16
    93   -1.762937590882e-04
    94   -2.688598592896e-04
    95   -8.569331500714e-05
    96    1.967347207563e-17
    97   -8.859488825405e-04
    98   -9.026907823023e-04
    99   -5.026942105336e-04
   100   -1.010108896375e-15
   101    1.517261889041e-02
   102   -6.422489558819e-03
   103   -9.018493026899e-04
   104    1.995565301865e-15
   105   -3.821986967629e-05
   106    3.407481449634e-16
   107    2.572100007449e-16
   108    6.652175426406e-05
   109    6.212253596334e-05
   110   -1.681859189896e-04
   111   -2.111565887945e-04
   112   -9.278035528948e-06
   113   -3.634083227902e-04
   114   -9.153921038894e-16
   115    3.711203996417e-04
   116   -5.225288803234e-06
   117   -4.676588331315e-04
   118    2.302922276979e-15
   119    7.051744417767e-04
   120   -2.252011663928e-04
   121   -4.972296972018e-04
   122   -1.730203622677e-15
   123    2.168519288349e-03
   124   -3.559263285716e-04
   125   -1.674247603677e-04
   126    5.740778043565e-16
   127    1.423290042167e-07
   128    2.650441194145e-16
   129   -1.524292594032e-16
   130   -1.457541910301e-05
   131   -3.867038289033e-06
   132    5.476067554897e-05
   133    9.570230950796e-05
   134    1.603632151562e-05
   135   -1.616006353279e-04
   136    2.702950262651e-16
   137   -2.821361600595e-04
   138    9.824008965567e-05
   139   -2.511250318058e-04
   140   -2.006557452270e-15
   141   -1.048560510636e-03
   142    6.472878161589e-05
   143   -2.136232126675e-04
   144    2.889433006627e-15
   145   -4.009239580367e-03
   146   -8.955056140913e-04
   147   -2.881239160433e-03
   148    8.937755671481e-16
   149    5.278212419233e-06
   150    1.805821845600e-16
   151    1.124613908561e-15
   152   -7.106588455625e-05
   153   -1.064772766331e-05
   154    4.124025133645e-05
   155    7.089748351540e-05
   156    5.789128243452e-05
   157   -7.536549275537e-06
   158   -9.332793283238e-16
   159   -1.958075431317e-04
   160    1.157094928902e-04
   161   -6.635325673947e-05
   162    1.680168856244e-16
   163   -9.813466774371e-04
   164   -1.203809966350e-04
   165   -1.788978399897e-04
   166    7.051569858736e-16
   167   -4.715328610642e-03
   168    9.960811738435e-04
   169   -9.558834471631e-05
   170    3.357990514315e-15
   171    6.030899842380e-06
   172   -1.845176783428e-16
   173   -2.637574567722e-16
   174    2.757893993267e-05
   175    2.582286629776e-05
   176   -3.680670081513e-05
   177   -6.361799547783e-05
   178    6.628203249813e-05
   179   -4.909125389211e-05
   180    2.983953390790e-16
   181    1.777069679283e-04
   182    1.038753676044e-04
   183   -3.716456833733e-05
   184    1.579468731693e-15
   185    7.599837823512e-04
   186    4.172117786675e-04
   187   -4.413101482732e-04
   188   -1.644540185924e-15
   189   -1.692911624979e-02
   190    1.336116602782e-02
   191   -8.497018640774e-03
   192   -1.215426180212e-15
   193   -1.316107358198e-05
   194    4.712567915253e-16
   195    1.794741317499e-17
   196   -8.272413325585e-06
   197   -5.248974718648e-05
   198    8.174298668340e-05
   199    2.536196068873e-04
   200   -1.447658022643e-03
   201   -1.432163807033e-02
   202   -2.592350272859e-05
   203    1.521139279579e-06
   204    9.855878829350e-16
Sym=X
Ene= 0.005279
Spin=Alpha
Occup=0
     1   -1.089953556350e-07
     2    3.753376712383e-06
     3    1.486067124960e-06
     4    4.966540316040e-06
     5    5.815766181632e-16
     6   -2.695675542787e-05
     7   -5.973403712384e-06
     8   -9.104824253121e-06
     9   -1.057503912254e-15
    10    4.438299652401e-04
    11    1.045544469926e-04
    12    2.617732386921e-04
    13    6.602296948326e-15
    14   -6.115032154562e-05
    15   -2.996976569160e-04
    16    6.631024312865e-04
    17   -1.039727133182e-14
    18   -2.280193628158e-06
    19    6.699791396845e-16
    20    1.015901456941e-15
    21    9.601057429544e-07
    22   -1.189662289311e-05
    23    5.645532624899e-07
    24   -8.063392750245e-06
    25    7.110351608875e-05
    26   -4.309088474361e-05
    27    2.091039348418e-06
    28   -2.493607268104e-06
    29    1.226054580816e-15
    30    4.494020794882e-07
    31    7.378441999728e-06
    32    1.725595618189e-04
    33    3.792223526728e-04
    34   -6.269145195723e-06
    35   -6.386840051381e-07
    36   -1.599125592398e-15
    37   -5.291596419560e-06
    38   -6.710010445222e-05
    39    5.392426201539e-06
    40   -4.388267262085e-05
    41    3.735607960726e-07
    42    1.838326839409e-05
    43   -7.728498723113e-16
    44    7.186961325598e-07
    45    7.351861666322e-07
    46   -2.070773148299e-06
    47    7.868155799164e-08
    48   -1.108580807887e-15
    49   -1.349662589498e-06
    50    8.218364747989e-07
    51    4.862023169471e-07
    52    1.375394494732e-15
    53    1.828398144471e-04
    54    1.349684548744e-04
    55    2.200910056435e-05
    56    8.973745230923e-16
    57    2.562164435240e-04
    58    6.495399358292e-06
    59    2.042508431116e-04
    60   -7.029731905701e-15
    61   -4.941408611085e-06
    62   -4.352239129195e-16
    63    6.059436469849e-16
    64   -4.685027893726e-08
    65   -6.187447219367e-06
    66    1.093479534998e-04
    67    1.051365653054e-04
    68    1.780516699165e-06
    69   -1.396915135644e-06
    70   -2.766085237646e-16
    71    1.237105465569e-05
    72   -3.665701721350e-07
    73    1.047399605667e-06
    74    1.509468663238e-15
    75   -4.271419515142e-05
    76   -1.552944199191e-05
    77   -1.154855902465e-05
    78   -3.114970846674e-15
    79    3.150986343069e-04
    80    1.674447147408e-04
    81   -3.774215977569e-05
    82    3.995451883140e-15
    83    4.300796108309e-07
    84    5.111671530607e-16
    85    2.620475406560e-16
    86   -1.417383456161e-06
    87    2.317911743108e-07
    88    1.286069177556e-06
    89    5.602595605355e-05
    90    1.437711453722e-05
    91   -2.817316674359e-06
    92    1.540897619609e-16
    93   -1.766611093479e-04
    94   -3.559169937123e-04
    95   -2.541726494080e-04
    96   -3.983317832619e-16
    97    2.917622741596e-04
    98   -7.969254154722e-05
    99   -3.114402730614e-04
   100    3.801313067505e-15
   101    1.416023840736e-03
   102    8.797602262237e-04
   103   -1.730757733743e-04
   104   -1.022001641892e-14
   105    4.375284635212e-05
   106    3.342678974134e-16
   107    1.041191809080e-15
   108   -9.580580548082e-05
   109   -2.338040442486e-04
   110   -5.514843548173e-01
   111   -4.717777127492e-01
   112    1.413154112404e-03
   113    1.146806804154e-03
   114    7.762308528272e-16
   115   -5.274370886904e-03
   116   -6.559724615291e-04
   117   -6.190891788466e-04
   118    2.370148993552e-16
   119    1.055598177396e-03
   120    2.129746940013e-04
   121    2.394150806413e-04
   122   -2.451224695961e-15
   123   -1.609600574829e-03
   124    1.199934519065e-04
   125   -1.873153159616e-05
   126    2.280179792673e-15
   127    6.838993951952e-05
   128    2.974712632179e-16
   129    1.024459925274e-16
   130    9.345254244766e-05
   131    2.448663979241e-04
   132   -1.258570078744e-06
   133    8.905151064581e-08
   134    1.826573971224e-05
   135   -9.331473647871e-06
   136   -9.412022405387e-16
   137    1.827872751370e-05
   138   -5.300198746604e-05
   139    2.645796189398e-05
   140    1.466209268981e-15
   141   -1.475882115465e-04
   142    1.053718827289e-04
   143    1.258860778978e-04
   144   -3.122031550622e-15
   145    3.658289333270e-04
   146    7.433254026361e-04
   147    1.488126847421e-05
   148    5.161819628263e-15
   149    1.208992249159e-05
   150   -8.593609598946e-16
   151    1.937842573353e-17
   152   -2.130210826728e-05
   153    2.566868176240e-05
   154    5.304697315188e-07
   155    1.270281173520e-06
   156    2.389948317768e-06
   157    1.326497915328e-06
   158   -1.287597398474e-16
   159    1.820022233141e-07
   160   -1.370308852611e-06
   161    3.278977361234e-06
   162    2.745657580149e-16
   163   -1.187066456703e-04
   164   -6.935215080811e-05
   165    1.491095222081e-06
   166   -3.367868375312e-15
   167   -2.101436271120e-04
   168    6.175847047100e-05
   169    2.182309580369e-05
   170    5.159566698057e-15
   171   -1.040668832368e-06
   172    4.170894643822e-16
   173   -1.791738319600e-16
   174    1.929243640126e-06
   175    3.844977057992e-06
   176   -1.390839436458e-06
   177    1.940598644848e-06
   178    5.365311421646e-06
   179    2.156197067813e-05
   180   -9.945224170141e-16
   181    7.728119139871e-06
   182   -2.164699331126e-05
   183   -1.190916187189e-04
   184    2.672059269471e-15
   185   -5.906628815710e-04
   186    4.330143322595e-04
   187   -1.087751358254e-04
   188   -8.494985562950e-15
   189   -1.112878617748e-03
   190   -1.092664802647e-04
   191   -1.028626029170e-03
   192    1.602339017719e-14
   193    4.800761837962e-06
   194    3.922830253179e-16
   195   -3.396514929559e-16
   196    5.878241969555e-05
   197   -3.646401629838e-05
   198   -2.155183788280e-06
   199   -1.149773428126e-04
   200   -1.219611407046e-04
   201   -3.523789982577e-04
   202    2.591541532713e-05
   203   -1.597452548526e-05
   204    3.104803676527e-16
[5D]
