[Molden Format]
[Atoms] (Angs)
  C      1    6     -0.00754183     -1.75895763      0.00000000
  H      2    1     -2.09769850     -1.41880678     -0.00000000
  H      3    1     -0.13527422     -2.83956838     -0.00000000
  H      4    1      0.04053511      2.02026369      0.00000000
  C      5    6     -1.22066484      0.39918184     -0.00000000
  O      6    8     -2.25210141      1.05663720     -0.00000000
  C      7    6      1.24009552      0.27789184      0.00000000
  O      8    8      2.33767996      1.06122493      0.00000000
  N      9    7      0.03634586      1.00852936      0.00000000
  N     10    7     -1.18738304     -0.97903470     -0.00000000
  C     11    6      1.22288875     -1.12258096      0.00000000
  H     12    1      2.15640383     -1.68445878      0.00000000
[GTO]
1    0
S    6    1.000000
   4.56324000E+03    1.96665000E-03 
   6.82024000E+02    1.52306000E-02 
   1.54973000E+02    7.61269000E-02 
   4.44553000E+01    2.60801000E-01 
   1.30290000E+01    6.16462000E-01 
   1.82773000E+00    2.21006000E-01 
SP   3    1.000000
   2.09642000E+01    1.14660000E-01   4.02487000E-02 
   4.80331000E+00    9.19999000E-01   2.37594000E-01 
   1.45933000E+00   -3.03068000E-03   8.15854000E-01 
SP   1    1.000000
   4.83456000E-01    1.00000000E+00   1.00000000E+00 
SP   1    1.000000
   1.45585000E-01    1.00000000E+00   1.00000000E+00 
SP   1    1.000000
   4.38000000E-02    1.00000000E+00   1.00000000E+00 
D    1    1.000000
   6.26000000E-01    1.00000000E+00 

2    0
S    3    1.000000
   3.38650000E+01    2.54938000E-02 
   5.09479000E+00    1.90373000E-01 
   1.15879000E+00    8.52161000E-01 
S    1    1.000000
   3.25840000E-01    1.00000000E+00 
S    1    1.000000
   1.02741000E-01    1.00000000E+00 
S    1    1.000000
   3.60000000E-02    1.00000000E+00 
P    1    1.000000
   7.50000000E-01    1.00000000E+00 

3    0
S    3    1.000000
   3.38650000E+01    2.54938000E-02 
   5.09479000E+00    1.90373000E-01 
   1.15879000E+00    8.52161000E-01 
S    1    1.000000
   3.25840000E-01    1.00000000E+00 
S    1    1.000000
   1.02741000E-01    1.00000000E+00 
S    1    1.000000
   3.60000000E-02    1.00000000E+00 
P    1    1.000000
   7.50000000E-01    1.00000000E+00 

4    0
S    3    1.000000
   3.38650000E+01    2.54938000E-02 
   5.09479000E+00    1.90373000E-01 
   1.15879000E+00    8.52161000E-01 
S    1    1.000000
   3.25840000E-01    1.00000000E+00 
S    1    1.000000
   1.02741000E-01    1.00000000E+00 
S    1    1.000000
   3.60000000E-02    1.00000000E+00 
P    1    1.000000
   7.50000000E-01    1.00000000E+00 

5    0
S    6    1.000000
   4.56324000E+03    1.96665000E-03 
   6.82024000E+02    1.52306000E-02 
   1.54973000E+02    7.61269000E-02 
   4.44553000E+01    2.60801000E-01 
   1.30290000E+01    6.16462000E-01 
   1.82773000E+00    2.21006000E-01 
SP   3    1.000000
   2.09642000E+01    1.14660000E-01   4.02487000E-02 
   4.80331000E+00    9.19999000E-01   2.37594000E-01 
   1.45933000E+00   -3.03068000E-03   8.15854000E-01 
SP   1    1.000000
   4.83456000E-01    1.00000000E+00   1.00000000E+00 
SP   1    1.000000
   1.45585000E-01    1.00000000E+00   1.00000000E+00 
SP   1    1.000000
   4.38000000E-02    1.00000000E+00   1.00000000E+00 
D    1    1.000000
   6.26000000E-01    1.00000000E+00 

6    0
S    6    1.000000
   8.58850000E+03    1.89515000E-03 
   1.29723000E+03    1.43859000E-02 
   2.99296000E+02    7.07320000E-02 
   8.73771000E+01    2.40001000E-01 
   2.56789000E+01    5.94797000E-01 
   3.74004000E+00    2.80802000E-01 
SP   3    1.000000
   4.21175000E+01    1.13889000E-01   3.65114000E-02 
   9.62837000E+00    9.20811000E-01   2.37153000E-01 
   2.85332000E+00   -3.27447000E-03   8.19702000E-01 
SP   1    1.000000
   9.05661000E-01    1.00000000E+00   1.00000000E+00 
SP   1    1.000000
   2.55611000E-01    1.00000000E+00   1.00000000E+00 
SP   1    1.000000
   8.45000000E-02    1.00000000E+00   1.00000000E+00 
D    1    1.000000
   1.29200000E+00    1.00000000E+00 

7    0
S    6    1.000000
   4.56324000E+03    1.96665000E-03 
   6.82024000E+02    1.52306000E-02 
   1.54973000E+02    7.61269000E-02 
   4.44553000E+01    2.60801000E-01 
   1.30290000E+01    6.16462000E-01 
   1.82773000E+00    2.21006000E-01 
SP   3    1.000000
   2.09642000E+01    1.14660000E-01   4.02487000E-02 
   4.80331000E+00    9.19999000E-01   2.37594000E-01 
   1.45933000E+00   -3.03068000E-03   8.15854000E-01 
SP   1    1.000000
   4.83456000E-01    1.00000000E+00   1.00000000E+00 
SP   1    1.000000
   1.45585000E-01    1.00000000E+00   1.00000000E+00 
SP   1    1.000000
   4.38000000E-02    1.00000000E+00   1.00000000E+00 
D    1    1.000000
   6.26000000E-01    1.00000000E+00 

8    0
S    6    1.000000
   8.58850000E+03    1.89515000E-03 
   1.29723000E+03    1.43859000E-02 
   2.99296000E+02    7.07320000E-02 
   8.73771000E+01    2.40001000E-01 
   2.56789000E+01    5.94797000E-01 
   3.74004000E+00    2.80802000E-01 
SP   3    1.000000
   4.21175000E+01    1.13889000E-01   3.65114000E-02 
   9.62837000E+00    9.20811000E-01   2.37153000E-01 
   2.85332000E+00   -3.27447000E-03   8.19702000E-01 
SP   1    1.000000
   9.05661000E-01    1.00000000E+00   1.00000000E+00 
SP   1    1.000000
   2.55611000E-01    1.00000000E+00   1.00000000E+00 
SP   1    1.000000
   8.45000000E-02    1.00000000E+00   1.00000000E+00 
D    1    1.000000
   1.29200000E+00    1.00000000E+00 

9    0
S    6    1.000000
   6.29348000E+03    1.96979000E-03 
   9.49044000E+02    1.49613000E-02 
   2.18776000E+02    7.35006000E-02 
   6.36916000E+01    2.48937000E-01 
   1.88282000E+01    6.02460000E-01 
   2.72023000E+00    2.56202000E-01 
SP   3    1.000000
   3.06331000E+01    1.11906000E-01   3.83119000E-02 
   7.02614000E+00    9.21666000E-01   2.37403000E-01 
   2.11205000E+00   -2.56919000E-03   8.17592000E-01 
SP   1    1.000000
   6.84009000E-01    1.00000000E+00   1.00000000E+00 
SP   1    1.000000
   2.00878000E-01    1.00000000E+00   1.00000000E+00 
SP   1    1.000000
   6.39000000E-02    1.00000000E+00   1.00000000E+00 
D    1    1.000000
   9.13000000E-01    1.00000000E+00 

10    0
S    6    1.000000
   6.29348000E+03    1.96979000E-03 
   9.49044000E+02    1.49613000E-02 
   2.18776000E+02    7.35006000E-02 
   6.36916000E+01    2.48937000E-01 
   1.88282000E+01    6.02460000E-01 
   2.72023000E+00    2.56202000E-01 
SP   3    1.000000
   3.06331000E+01    1.11906000E-01   3.83119000E-02 
   7.02614000E+00    9.21666000E-01   2.37403000E-01 
   2.11205000E+00   -2.56919000E-03   8.17592000E-01 
SP   1    1.000000
   6.84009000E-01    1.00000000E+00   1.00000000E+00 
SP   1    1.000000
   2.00878000E-01    1.00000000E+00   1.00000000E+00 
SP   1    1.000000
   6.39000000E-02    1.00000000E+00   1.00000000E+00 
D    1    1.000000
   9.13000000E-01    1.00000000E+00 

11    0
S    6    1.000000
   4.56324000E+03    1.96665000E-03 
   6.82024000E+02    1.52306000E-02 
   1.54973000E+02    7.61269000E-02 
   4.44553000E+01    2.60801000E-01 
   1.30290000E+01    6.16462000E-01 
   1.82773000E+00    2.21006000E-01 
SP   3    1.000000
   2.09642000E+01    1.14660000E-01   4.02487000E-02 
   4.80331000E+00    9.19999000E-01   2.37594000E-01 
   1.45933000E+00   -3.03068000E-03   8.15854000E-01 
SP   1    1.000000
   4.83456000E-01    1.00000000E+00   1.00000000E+00 
SP   1    1.000000
   1.45585000E-01    1.00000000E+00   1.00000000E+00 
SP   1    1.000000
   4.38000000E-02    1.00000000E+00   1.00000000E+00 
D    1    1.000000
   6.26000000E-01    1.00000000E+00 

12    0
S    3    1.000000
   3.38650000E+01    2.54938000E-02 
   5.09479000E+00    1.90373000E-01 
   1.15879000E+00    8.52161000E-01 
S    1    1.000000
   3.25840000E-01    1.00000000E+00 
S    1    1.000000
   1.02741000E-01    1.00000000E+00 
S    1    1.000000
   3.60000000E-02    1.00000000E+00 
P    1    1.000000
   7.50000000E-01    1.00000000E+00 

[MO]
Sym=X
Ene= -0.494693
Spin=Alpha
Occup=1
     1    9.097177404893e-03
     2    1.568575353263e-02
     3    2.190436654744e-02
     4    1.831145899259e-02
     5    4.431514456288e-15
     6   -4.204294295818e-02
     7    2.585603056959e-02
     8    1.951713342547e-02
     9    3.202134141053e-14
    10   -2.057133424323e-01
    11    1.693496822782e-01
    12    1.032924209563e-01
    13   -1.004111691786e-13
    14   -3.157268120234e+00
    15    7.408882701583e-01
    16    3.494444249654e+00
    17   -1.538740643945e-13
    18   -4.128184997132e-03
    19   -6.389832898117e-15
    20   -1.147844491546e-15
    21    8.999970878675e-03
    22   -1.003054095900e-02
    23   -5.957226105329e-03
    24   -5.416967195957e-03
    25   -6.665986358081e-01
    26   -1.863178308989e+00
    27    8.156175267013e-03
    28    1.923222392848e-03
    29    7.573291017302e-15
    30   -7.834603459379e-03
    31   -4.933365994124e-02
    32    5.359445196120e-01
    33    5.787376224401e+00
    34    4.085064375142e-03
    35   -8.349114480897e-03
    36    5.673429793899e-16
    37   -1.513621002670e-02
    38   -6.028610933777e-02
    39    3.118009806182e-02
    40    4.348994600860e-03
    41    4.480847425263e-03
    42   -3.339465765542e-03
    43    1.818651743400e-15
    44   -1.100977236124e-03
    45   -2.758590526388e-03
    46    1.081654747725e-02
    47    1.255141149809e-02
    48   -2.360363302740e-14
    49    2.957387896461e-02
    50    2.588666730690e-02
    51    2.825700812190e-02
    52   -9.509905250688e-15
    53   -1.187289420977e-01
    54    3.394629790220e-02
    55   -1.269415011996e-01
    56   -1.485325709703e-13
    57   -1.604624629737e+00
    58   -5.717465425137e-01
    59   -2.717711960461e-01
    60   -1.852953392492e-13
    61   -5.687561708589e-03
    62    3.599983307384e-15
    63   -1.283665957928e-17
    64   -3.823734280382e-04
    65    4.330188851329e-03
    66   -7.063757499297e-03
    67   -1.226213933145e-02
    68   -1.109896682836e-02
    69   -8.439448238602e-03
    70    3.453905531384e-16
    71    4.069734930514e-02
    72   -1.760974904326e-02
    73   -1.425451563712e-02
    74    1.230792687402e-14
    75    7.502492490039e-02
    76    9.569823383281e-03
    77   -2.276122390983e-02
    78   -1.537334044730e-14
    79    4.074608508185e-01
    80    1.025601584522e-02
    81   -4.646437637171e-02
    82    1.467720826911e-13
    83   -9.737248001283e-04
    84   -1.337721935282e-15
    85    8.096613311862e-18
    86    1.158559647998e-03
    87   -1.439273410665e-03
    88   -1.406648473625e-02
    89   -2.518945985216e-02
    90    4.959992225268e-02
    91    1.429234057587e-02
    92    5.806555068854e-15
    93    7.910367963479e-02
    94    9.075504442057e-02
    95    2.874750161057e-02
    96   -1.630400299709e-15
    97    3.554439796614e-01
    98    2.804911840208e-01
    99    1.555161334065e-01
   100    4.419024714751e-14
   101   -9.820984596671e-01
   102    7.345511861421e-01
   103    2.018862353370e+00
   104   -4.704415438178e-13
   105    1.101584132174e-02
   106    9.870065161875e-16
   107    6.558926432352e-15
   108   -8.240801454308e-04
   109   -1.813628850300e-02
   110    1.530715075046e-02
   111    2.635234545619e-02
   112    5.384572898580e-02
   113    1.247836901801e-02
   114   -2.569750128018e-15
   115   -8.493316183407e-02
   116    7.240214233948e-02
   117    1.289972913366e-02
   118   -3.501375461308e-16
   119   -2.447015304306e-01
   120    1.330676506348e-01
   121    7.806088253100e-02
   122   -1.580442764448e-14
   123   -4.866656600231e-01
   124   -1.344384053150e-03
   125   -2.831983732234e-02
   126    3.657330023024e-14
   127   -3.145031102212e-04
   128   -7.000414550401e-16
   129   -5.176420736328e-16
   130   -1.961642084026e-03
   131    5.168906151105e-03
   132   -5.113723187170e-03
   133   -9.085600447676e-03
   134   -8.944941851601e-03
   135    4.167682829131e-03
   136   -2.316097153359e-15
   137    3.409164717672e-02
   138   -1.773772248664e-02
   139    6.997551541686e-03
   140    7.451835602709e-15
   141    4.847035904601e-02
   142   -3.225428476532e-02
   143    1.888204420179e-02
   144   -3.169885886819e-14
   145    1.294153414696e+00
   146   -6.978059228220e-01
   147   -7.596922111746e-01
   148    2.791329016583e-13
   149    8.668474486793e-04
   150    5.590136079158e-15
   151   -6.355354502913e-16
   152    9.251729386098e-03
   153    4.224333879914e-03
   154   -1.699814028570e-02
   155   -2.944822101012e-02
   156   -2.000851801267e-03
   157   -1.738093593914e-02
   158   -3.745080441024e-15
   159    9.050042187474e-02
   160    1.734595238040e-05
   161   -2.322411879719e-02
   162   -2.427672108464e-15
   163    2.495222691493e-01
   164   -3.024490718276e-03
   165   -8.511454016766e-02
   166   -1.454146284511e-14
   167    4.653973724471e-01
   168   -8.351338259123e-01
   169   -1.120491920548e+00
   170    2.705750998057e-13
   171    2.597230634694e-04
   172   -9.864356344578e-16
   173   -5.883543148579e-15
   174   -1.589692518380e-03
   175    1.464389314286e-03
   176   -4.403272186268e-03
   177   -7.752446949900e-03
   178    9.911038821383e-03
   179   -2.253513632940e-02
   180   -1.363639302444e-14
   181    2.487110743832e-02
   182    1.351305014296e-02
   183   -3.208723430637e-02
   184   -3.033635968058e-14
   185    5.933885594728e-02
   186    4.334556552807e-02
   187   -5.813701186540e-02
   188   -1.993161435250e-14
   189    2.799502334911e+00
   190    2.170787078902e-01
   191   -1.209736385186e+00
   192    4.353529966905e-13
   193    2.805048310324e-03
   194   -1.388729938040e-15
   195   -2.643916454987e-15
   196   -9.556097231340e-03
   197    1.459144777792e-02
   198   -1.977823709521e-02
   199   -3.520180929426e-02
   200   -3.289527149989e-01
   201   -2.380117216202e+00
   202   -1.071195816777e-02
   203   -1.784206591190e-03
   204   -1.326602357273e-15
Sym=X
Ene= 0.494693
Spin=Alpha
Occup=0
     1    6.436769486419e-15
     2    1.388073787522e-14
     3   -9.676620885969e-15
     4   -4.935092320381e-15
     5    1.096343713808e-02
     6   -3.842251919656e-14
     7    1.455647325674e-15
     8   -4.040811832749e-15
     9    1.222263270785e-02
    10   -5.412836374657e-13
    11   -2.373376964618e-13
    12   -4.406439467901e-13
    13    2.759214626545e-02
    14   -2.415771257660e-12
    15   -3.293333084586e-13
    16   -2.261749876511e-12
    17   -7.147959739004e-01
    18   -8.945550114244e-15
    19    6.041901972123e-03
    20    7.630492975471e-03
    21    8.226197128912e-15
    22    8.385065779285e-15
    23   -7.737687936897e-15
    24    6.619566734416e-14
    25   -4.334662267903e-13
    26   -2.395597734162e-12
    27    2.064187490831e-15
    28   -4.310868705106e-15
    29   -9.895212818341e-04
    30   -5.817672780748e-15
    31    5.716562987061e-14
    32   -9.786158123678e-13
    33   -8.752937350194e-13
    34    2.163547837427e-15
    35   -3.565336627334e-15
    36   -3.381946443651e-03
    37   -1.082545491228e-14
    38    1.212068051307e-13
    39   -1.615782869685e-12
    40    2.004827890922e-12
    41   -2.817756449030e-15
    42   -9.007920524884e-15
    43   -3.128597793914e-03
    44   -6.744672980076e-15
    45   -5.202812224356e-15
    46   -1.555347631743e-14
    47   -2.783672875940e-14
    48    3.978048862355e-02
    49    2.183433692380e-15
    50   -8.048890939703e-15
    51   -1.582654909733e-14
    52    7.575389272381e-02
    53    4.728050361265e-13
    54   -7.937431930068e-13
    55   -4.802516330748e-13
    56    7.818696040022e-02
    57    4.507782162143e-12
    58   -1.009969740161e-12
    59   -3.603494201505e-12
    60   -6.228221434120e-01
    61   -5.632018977950e-16
    62    7.087551752100e-03
    63   -2.823062320508e-03
    64   -3.562326953646e-15
    65   -2.487728826342e-16
    66   -8.277347063637e-16
    67    2.567512618139e-16
    68   -5.269844904205e-15
    69   -4.222296534089e-15
    70   -5.866939397617e-03
    71    6.705555819052e-16
    72   -2.782814822332e-15
    73    8.134370847042e-16
    74   -4.164848861954e-03
    75   -7.404435790246e-14
    76   -6.811770039369e-14
    77    1.991735641297e-14
    78   -3.490032234875e-02
    79   -9.247585262297e-13
    80   -3.433578862072e-14
    81    7.404972299810e-13
    82    7.231976943593e-02
    83    3.521516847078e-16
    84    2.413125671147e-03
    85   -1.711073347415e-03
    86   -4.281558614442e-16
    87   -2.139043442596e-15
    88   -2.914371188434e-15
    89   -8.076478582323e-15
    90   -1.459999964469e-14
    91   -1.253695618107e-14
    92    3.416840402091e-02
    93    4.329399831091e-14
    94   -2.968521341128e-14
    95    2.200002961195e-14
    96    4.932436219105e-02
    97   -5.334801101231e-13
    98    2.989482621698e-13
    99   -1.746007068179e-13
   100    9.626375181830e-02
   101   -1.691672663599e-11
   102    3.812337235989e-12
   103    8.170159383544e-13
   104   -1.573038118556e+00
   105    1.579175698905e-14
   106    3.955083867045e-04
   107   -5.053288902417e-03
   108    1.065429977861e-15
   109    1.385254883645e-14
   110   -1.347550465022e-16
   111   -4.392124346189e-16
   112    8.018127473521e-15
   113   -5.136290866517e-15
   114    4.026892867677e-02
   115    6.248660481273e-15
   116    1.701390745206e-15
   117   -2.518600853600e-15
   118    5.924308595906e-02
   119   -6.535996404378e-14
   120    7.237110365195e-14
   121   -1.529322284211e-15
   122    3.364073833569e-02
   123   -1.879720932716e-13
   124   -1.729960823493e-13
   125    2.762128412287e-14
   126    8.802931031787e-02
   127    1.001027423942e-15
   128   -3.480959577686e-03
   129   -2.821088588605e-03
   130   -1.088184495543e-15
   131   -3.103069527362e-15
   132    5.330776006082e-15
   133    1.371110975237e-14
   134   -2.564914714716e-14
   135    1.287369386716e-14
   136    2.013714471901e-02
   137   -2.764903158185e-14
   138   -1.884060470996e-14
   139    2.681053545059e-14
   140    4.768221242578e-02
   141   -1.171437650147e-13
   142   -2.779705108678e-13
   143   -1.642717876907e-13
   144   -2.520404707214e-02
   145    1.064908038266e-11
   146    7.263494958276e-13
   147   -4.674262734488e-13
   148    5.709254718593e-01
   149    8.889037724563e-15
   150   -3.511340145307e-03
   151   -4.948287184096e-03
   152    3.349720998502e-15
   153    1.375869269379e-15
   154   -5.140918501910e-15
   155   -1.067125071556e-14
   156    7.718957883217e-15
   157   -1.567618071945e-14
   158    1.028536917330e-02
   159   -2.253089353643e-15
   160    2.003108486077e-15
   161   -1.840778748911e-14
   162    2.954731748541e-02
   163    5.361925549809e-13
   164    2.666619111889e-13
   165   -1.797166820155e-13
   166   -3.956952829605e-02
   167   -5.227997543641e-12
   168   -1.293499210559e-12
   169   -1.677051416038e-12
   170    4.873431626593e-01
   171   -1.059248723177e-14
   172    5.459190029515e-04
   173    4.592366263155e-03
   174   -8.531075507368e-15
   175   -8.685689630331e-16
   176    5.754317981617e-15
   177    5.099553226103e-15
   178   -3.409334519215e-14
   179   -1.222323816785e-14
   180    5.735084170123e-02
   181   -3.150747055457e-14
   182   -2.797860609350e-14
   183   -8.884306942950e-15
   184    8.018356639553e-02
   185    1.054831304866e-13
   186   -8.594690433900e-13
   187   -1.273488325824e-13
   188    1.995643589280e-01
   189    1.329163635688e-11
   190   -3.084183005378e-12
   191    3.939751258921e-12
   192    6.890642564722e-01
   193   -8.525097790203e-16
   194   -4.178029163949e-03
   195    4.906630306310e-03
   196   -1.647195480935e-14
   197   -7.269120061120e-15
   198   -3.098890915553e-15
   199    6.492112644358e-14
   200    7.087244880452e-13
   201    7.188364095087e-13
   202   -2.726216894362e-15
   203   -2.291222320472e-15
   204    2.895745017129e-04
[5D]
