[Molden Format]
[Atoms] (Angs)
  C      1    6     -0.00754183     -1.75895763      0.00000000
  H      2    1     -2.09769850     -1.41880678     -0.00000000
  H      3    1     -0.13527422     -2.83956838     -0.00000000
  H      4    1      0.04053511      2.02026369      0.00000000
  C      5    6     -1.22066484      0.39918184     -0.00000000
  O      6    8     -2.25210141      1.05663720     -0.00000000
  C      7    6      1.24009552      0.27789184      0.00000000
  O      8    8      2.33767996      1.06122493      0.00000000
  N      9    7      0.03634586      1.00852936      0.00000000
  N     10    7     -1.18738304     -0.97903470     -0.00000000
  C     11    6      1.22288875     -1.12258096      0.00000000
  H     12    1      2.15640383     -1.68445878      0.00000000
[GTO]
1    0
S    6    1.000000
   4.56324000E+03    1.96665000E-03 
   6.82024000E+02    1.52306000E-02 
   1.54973000E+02    7.61269000E-02 
   4.44553000E+01    2.60801000E-01 
   1.30290000E+01    6.16462000E-01 
   1.82773000E+00    2.21006000E-01 
SP   3    1.000000
   2.09642000E+01    1.14660000E-01   4.02487000E-02 
   4.80331000E+00    9.19999000E-01   2.37594000E-01 
   1.45933000E+00   -3.03068000E-03   8.15854000E-01 
SP   1    1.000000
   4.83456000E-01    1.00000000E+00   1.00000000E+00 
SP   1    1.000000
   1.45585000E-01    1.00000000E+00   1.00000000E+00 
SP   1    1.000000
   4.38000000E-02    1.00000000E+00   1.00000000E+00 
D    1    1.000000
   6.26000000E-01    1.00000000E+00 

2    0
S    3    1.000000
   3.38650000E+01    2.54938000E-02 
   5.09479000E+00    1.90373000E-01 
   1.15879000E+00    8.52161000E-01 
S    1    1.000000
   3.25840000E-01    1.00000000E+00 
S    1    1.000000
   1.02741000E-01    1.00000000E+00 
S    1    1.000000
   3.60000000E-02    1.00000000E+00 
P    1    1.000000
   7.50000000E-01    1.00000000E+00 

3    0
S    3    1.000000
   3.38650000E+01    2.54938000E-02 
   5.09479000E+00    1.90373000E-01 
   1.15879000E+00    8.52161000E-01 
S    1    1.000000
   3.25840000E-01    1.00000000E+00 
S    1    1.000000
   1.02741000E-01    1.00000000E+00 
S    1    1.000000
   3.60000000E-02    1.00000000E+00 
P    1    1.000000
   7.50000000E-01    1.00000000E+00 

4    0
S    3    1.000000
   3.38650000E+01    2.54938000E-02 
   5.09479000E+00    1.90373000E-01 
   1.15879000E+00    8.52161000E-01 
S    1    1.000000
   3.25840000E-01    1.00000000E+00 
S    1    1.000000
   1.02741000E-01    1.00000000E+00 
S    1    1.000000
   3.60000000E-02    1.00000000E+00 
P    1    1.000000
   7.50000000E-01    1.00000000E+00 

5    0
S    6    1.000000
   4.56324000E+03    1.96665000E-03 
   6.82024000E+02    1.52306000E-02 
   1.54973000E+02    7.61269000E-02 
   4.44553000E+01    2.60801000E-01 
   1.30290000E+01    6.16462000E-01 
   1.82773000E+00    2.21006000E-01 
SP   3    1.000000
   2.09642000E+01    1.14660000E-01   4.02487000E-02 
   4.80331000E+00    9.19999000E-01   2.37594000E-01 
   1.45933000E+00   -3.03068000E-03   8.15854000E-01 
SP   1    1.000000
   4.83456000E-01    1.00000000E+00   1.00000000E+00 
SP   1    1.000000
   1.45585000E-01    1.00000000E+00   1.00000000E+00 
SP   1    1.000000
   4.38000000E-02    1.00000000E+00   1.00000000E+00 
D    1    1.000000
   6.26000000E-01    1.00000000E+00 

6    0
S    6    1.000000
   8.58850000E+03    1.89515000E-03 
   1.29723000E+03    1.43859000E-02 
   2.99296000E+02    7.07320000E-02 
   8.73771000E+01    2.40001000E-01 
   2.56789000E+01    5.94797000E-01 
   3.74004000E+00    2.80802000E-01 
SP   3    1.000000
   4.21175000E+01    1.13889000E-01   3.65114000E-02 
   9.62837000E+00    9.20811000E-01   2.37153000E-01 
   2.85332000E+00   -3.27447000E-03   8.19702000E-01 
SP   1    1.000000
   9.05661000E-01    1.00000000E+00   1.00000000E+00 
SP   1    1.000000
   2.55611000E-01    1.00000000E+00   1.00000000E+00 
SP   1    1.000000
   8.45000000E-02    1.00000000E+00   1.00000000E+00 
D    1    1.000000
   1.29200000E+00    1.00000000E+00 

7    0
S    6    1.000000
   4.56324000E+03    1.96665000E-03 
   6.82024000E+02    1.52306000E-02 
   1.54973000E+02    7.61269000E-02 
   4.44553000E+01    2.60801000E-01 
   1.30290000E+01    6.16462000E-01 
   1.82773000E+00    2.21006000E-01 
SP   3    1.000000
   2.09642000E+01    1.14660000E-01   4.02487000E-02 
   4.80331000E+00    9.19999000E-01   2.37594000E-01 
   1.45933000E+00   -3.03068000E-03   8.15854000E-01 
SP   1    1.000000
   4.83456000E-01    1.00000000E+00   1.00000000E+00 
SP   1    1.000000
   1.45585000E-01    1.00000000E+00   1.00000000E+00 
SP   1    1.000000
   4.38000000E-02    1.00000000E+00   1.00000000E+00 
D    1    1.000000
   6.26000000E-01    1.00000000E+00 

8    0
S    6    1.000000
   8.58850000E+03    1.89515000E-03 
   1.29723000E+03    1.43859000E-02 
   2.99296000E+02    7.07320000E-02 
   8.73771000E+01    2.40001000E-01 
   2.56789000E+01    5.94797000E-01 
   3.74004000E+00    2.80802000E-01 
SP   3    1.000000
   4.21175000E+01    1.13889000E-01   3.65114000E-02 
   9.62837000E+00    9.20811000E-01   2.37153000E-01 
   2.85332000E+00   -3.27447000E-03   8.19702000E-01 
SP   1    1.000000
   9.05661000E-01    1.00000000E+00   1.00000000E+00 
SP   1    1.000000
   2.55611000E-01    1.00000000E+00   1.00000000E+00 
SP   1    1.000000
   8.45000000E-02    1.00000000E+00   1.00000000E+00 
D    1    1.000000
   1.29200000E+00    1.00000000E+00 

9    0
S    6    1.000000
   6.29348000E+03    1.96979000E-03 
   9.49044000E+02    1.49613000E-02 
   2.18776000E+02    7.35006000E-02 
   6.36916000E+01    2.48937000E-01 
   1.88282000E+01    6.02460000E-01 
   2.72023000E+00    2.56202000E-01 
SP   3    1.000000
   3.06331000E+01    1.11906000E-01   3.83119000E-02 
   7.02614000E+00    9.21666000E-01   2.37403000E-01 
   2.11205000E+00   -2.56919000E-03   8.17592000E-01 
SP   1    1.000000
   6.84009000E-01    1.00000000E+00   1.00000000E+00 
SP   1    1.000000
   2.00878000E-01    1.00000000E+00   1.00000000E+00 
SP   1    1.000000
   6.39000000E-02    1.00000000E+00   1.00000000E+00 
D    1    1.000000
   9.13000000E-01    1.00000000E+00 

10    0
S    6    1.000000
   6.29348000E+03    1.96979000E-03 
   9.49044000E+02    1.49613000E-02 
   2.18776000E+02    7.35006000E-02 
   6.36916000E+01    2.48937000E-01 
   1.88282000E+01    6.02460000E-01 
   2.72023000E+00    2.56202000E-01 
SP   3    1.000000
   3.06331000E+01    1.11906000E-01   3.83119000E-02 
   7.02614000E+00    9.21666000E-01   2.37403000E-01 
   2.11205000E+00   -2.56919000E-03   8.17592000E-01 
SP   1    1.000000
   6.84009000E-01    1.00000000E+00   1.00000000E+00 
SP   1    1.000000
   2.00878000E-01    1.00000000E+00   1.00000000E+00 
SP   1    1.000000
   6.39000000E-02    1.00000000E+00   1.00000000E+00 
D    1    1.000000
   9.13000000E-01    1.00000000E+00 

11    0
S    6    1.000000
   4.56324000E+03    1.96665000E-03 
   6.82024000E+02    1.52306000E-02 
   1.54973000E+02    7.61269000E-02 
   4.44553000E+01    2.60801000E-01 
   1.30290000E+01    6.16462000E-01 
   1.82773000E+00    2.21006000E-01 
SP   3    1.000000
   2.09642000E+01    1.14660000E-01   4.02487000E-02 
   4.80331000E+00    9.19999000E-01   2.37594000E-01 
   1.45933000E+00   -3.03068000E-03   8.15854000E-01 
SP   1    1.000000
   4.83456000E-01    1.00000000E+00   1.00000000E+00 
SP   1    1.000000
   1.45585000E-01    1.00000000E+00   1.00000000E+00 
SP   1    1.000000
   4.38000000E-02    1.00000000E+00   1.00000000E+00 
D    1    1.000000
   6.26000000E-01    1.00000000E+00 

12    0
S    3    1.000000
   3.38650000E+01    2.54938000E-02 
   5.09479000E+00    1.90373000E-01 
   1.15879000E+00    8.52161000E-01 
S    1    1.000000
   3.25840000E-01    1.00000000E+00 
S    1    1.000000
   1.02741000E-01    1.00000000E+00 
S    1    1.000000
   3.60000000E-02    1.00000000E+00 
P    1    1.000000
   7.50000000E-01    1.00000000E+00 

[MO]
Sym=X
Ene= -0.490516
Spin=Alpha
Occup=1
     1   -1.116922591545e-15
     2   -1.092721864095e-15
     3   -2.171594817103e-15
     4    1.344823094234e-15
     5    1.572801126030e-01
     6   -5.586938702462e-15
     7    2.746668414460e-14
     8   -3.279157021370e-15
     9    2.569508363563e-01
    10    1.486955442638e-13
    11    4.657076847802e-14
    12    2.863835085483e-14
    13    4.722559649472e-01
    14    3.369626670611e-12
    15   -5.819890626016e-13
    16    1.795470262084e-12
    17    4.879634371870e-01
    18    1.230243362611e-15
    19   -7.361555868493e-03
    20   -1.099129328802e-02
    21   -1.111222439225e-15
    22    5.696678952786e-15
    23    1.918369384248e-16
    24   -4.420568319803e-14
    25    1.086032792754e-13
    26    3.451696300277e-13
    27    2.736046456164e-15
    28    1.104339998790e-15
    29   -1.407024369089e-02
    30   -1.789162267764e-15
    31   -5.168787840876e-14
    32    2.067955074315e-13
    33    4.299951161979e-13
    34   -3.294001800994e-15
    35   -3.665832350630e-15
    36    1.899789147604e-02
    37   -6.827926539580e-15
    38    1.109935071198e-13
    39   -5.335421914717e-13
    40   -8.263547352878e-14
    41   -2.735997446051e-15
    42   -4.180544011762e-15
    43    1.026341455739e-02
    44   -4.825539952961e-16
    45   -2.965884311906e-15
    46   -4.975429740241e-15
    47   -2.602134580604e-15
    48    3.694792748821e-02
    49    3.088545646129e-14
    50   -3.502912478836e-15
    51   -1.820924462540e-14
    52    6.752026219922e-02
    53   -1.557460834309e-13
    54   -2.176434783134e-13
    55    1.729456244969e-13
    56    9.329010153821e-02
    57   -2.926472995542e-12
    58   -7.203375401921e-13
    59    9.933065061152e-13
    60    1.537284353982e-02
    61    2.215520899445e-16
    62    1.501132187167e-02
    63    3.517756955941e-02
    64    1.070566161094e-16
    65    2.463326635619e-15
    66    4.096972395792e-16
    67    5.161657732162e-16
    68    1.787847235257e-15
    69    4.311041820561e-17
    70   -2.405950107636e-02
    71    2.046741966875e-15
    72    9.514762720437e-15
    73    2.110873900841e-15
    74   -3.241568632368e-02
    75   -5.502284411517e-14
    76   -2.959897860521e-14
    77    3.159635099075e-15
    78   -4.025228534156e-02
    79   -4.222611141672e-13
    80    8.850929522735e-15
    81    1.629564964233e-13
    82    9.691028684086e-03
    83   -1.039556277246e-15
    84    3.579529143318e-03
    85    9.659477686194e-04
    86   -1.275029250722e-15
    87   -4.826476832594e-16
    88    1.401427554805e-15
    89    3.277114381944e-15
    90   -6.468995835699e-15
    91    6.256662954021e-15
    92   -1.362929280794e-01
    93   -8.099630742900e-15
    94   -9.756336177951e-15
    95   -4.920291710243e-16
    96   -2.214716586595e-01
    97   -2.275489846836e-13
    98    3.089553200140e-14
    99    9.564206452428e-14
   100   -3.530779674014e-01
   101    6.163417502525e-12
   102    9.206148832804e-13
   103   -1.684458864835e-12
   104   -8.128856907154e-02
   105   -2.815309809030e-15
   106    2.583212476370e-02
   107    3.242137590346e-02
   108   -6.682817982213e-15
   109    2.409496617728e-15
   110    6.145692484436e-16
   111    3.321311301310e-15
   112   -2.542682737762e-15
   113   -2.217570097985e-15
   114    1.251366399775e-01
   115   -1.850076376067e-14
   116   -8.531623380274e-15
   117    1.579796312824e-15
   118    1.876580638349e-01
   119    7.262172245232e-14
   120    1.386454418130e-14
   121   -2.999666217035e-14
   122    2.417631329435e-01
   123   -7.436818156357e-13
   124   -4.971515222759e-14
   125    1.758427487491e-13
   126    1.725494676572e-01
   127   -3.271031389397e-16
   128   -1.535286807778e-04
   129    1.955216681892e-03
   130   -6.107563725801e-16
   131   -7.599143046217e-16
   132   -3.675838767124e-15
   133   -1.701106880806e-15
   134   -8.083676145091e-15
   135   -1.657583688405e-15
   136    5.134013304825e-02
   137    2.993064843671e-16
   138   -8.564886366393e-15
   139   -9.666470537695e-15
   140    7.877458553846e-02
   141    1.317448201397e-13
   142   -5.265664461169e-14
   143   -1.057607174996e-13
   144    1.223023757268e-01
   145    1.118638165583e-12
   146    3.205453835791e-13
   147    5.321610880997e-13
   148    1.507412731368e-01
   149   -4.403666533464e-15
   150   -1.833570715748e-02
   151    9.349354280034e-03
   152    2.735401561384e-15
   153    2.970097242241e-16
   154   -7.131998410357e-17
   155   -7.295941454605e-16
   156   -6.627099670773e-15
   157   -5.101541104150e-15
   158   -9.148133284563e-02
   159   -1.028363925159e-15
   160   -2.054142873248e-14
   161   -3.307863540604e-15
   162   -1.412834230767e-01
   163    6.432120899114e-14
   164    2.848131205489e-14
   165   -7.458848909381e-15
   166   -2.318017284076e-01
   167    7.197414444847e-13
   168    6.377296579135e-14
   169    1.225396100638e-12
   170   -3.259652905256e-01
   171   -1.689875467987e-15
   172    1.655370461058e-02
   173   -1.155072082518e-02
   174   -3.523589355335e-15
   175   -2.411039580286e-15
   176    2.027830799836e-15
   177    4.818974957937e-15
   178   -1.444454835147e-15
   179    7.312232955858e-15
   180   -7.494481688678e-02
   181   -3.874858755271e-16
   182   -1.400097338840e-14
   183   -1.899520137324e-14
   184   -1.186585940718e-01
   185   -1.103125346241e-13
   186    1.216273689049e-13
   187    2.837458396492e-13
   188   -2.249839859795e-01
   189   -5.695812930270e-12
   190    9.235049245153e-13
   191   -2.773799277556e-12
   192   -2.395863004881e-01
   193    1.425444028545e-14
   194   -1.520426093319e-02
   195   -3.413154215509e-02
   196    4.768706545389e-16
   197    1.504325157083e-15
   198   -7.471492892467e-15
   199    2.666880605791e-14
   200   -1.892907000732e-13
   201   -1.805204339718e-12
   202   -7.541588727492e-15
   203    6.499474992487e-15
   204   -5.991588566096e-03
Sym=X
Ene= 0.490516
Spin=Alpha
Occup=0
     1   -3.192411736483e-15
     2   -4.820257392860e-15
     3    1.720569170832e-14
     4   -3.811510507793e-14
     5   -2.694523274415e-02
     6    2.964632633957e-14
     7   -2.350829816135e-14
     8   -8.522398055782e-14
     9   -5.754072041125e-02
    10   -2.601557351685e-13
    11    2.615124276961e-13
    12   -2.003912689462e-13
    13   -1.946565709621e-02
    14    6.744998223341e-12
    15    2.804735868044e-12
    16    3.367798557166e-12
    17   -4.496807902635e-01
    18    5.368493756673e-15
    19    2.681255848721e-03
    20    5.921363848511e-03
    21   -3.438167956268e-15
    22   -1.548338406439e-14
    23    2.436626594987e-14
    24   -1.331420453413e-13
    25    1.848368591091e-12
    26    9.708409029351e-13
    27   -1.860133573261e-14
    28   -6.492300650385e-15
    29   -4.803641991792e-03
    30   -2.969525676297e-15
    31   -5.323040456825e-14
    32    2.738684404330e-14
    33    2.702549168867e-12
    34   -1.013188850081e-15
    35    9.580228875842e-15
    36   -7.848719010137e-03
    37   -3.467280370444e-15
    38   -6.808687238037e-14
    39    6.149856006903e-13
    40    1.914856965004e-13
    41   -2.818619285148e-15
    42   -6.249029933821e-15
    43    9.465856099669e-03
    44    4.271572520696e-15
    45    3.996072796610e-15
    46    1.059482272129e-14
    47    7.406925123655e-15
    48   -1.928725418067e-02
    49   -1.181083869206e-14
    50   -1.281963825523e-14
    51    4.491174711546e-14
    52   -4.657346409183e-02
    53   -3.353088444948e-13
    54    2.988202274521e-13
    55   -1.882311510545e-13
    56   -6.840556660267e-03
    57   -1.087912850991e-12
    58    3.123104455762e-13
    59    2.739866930590e-13
    60   -4.040867985979e-01
    61    2.041460410208e-15
    62    3.807129464269e-03
    63   -2.075092271357e-03
    64   -1.190844340863e-14
    65   -8.370594653595e-15
    66   -7.896586647774e-16
    67   -1.247398325161e-15
    68   -4.290768387125e-17
    69    5.926917399436e-16
    70    2.994294239035e-02
    71    1.164550363103e-14
    72   -2.310880149313e-14
    73   -1.249500690712e-14
    74    4.036434647257e-02
    75   -8.052486862775e-15
    76    9.431341319189e-14
    77    5.385821228877e-14
    78    4.858027726334e-02
    79    1.411318427708e-12
    80   -1.056402219694e-13
    81   -1.093234848361e-12
    82   -5.634030044830e-02
    83    3.635296813336e-15
    84    1.380430095687e-03
    85    2.105068731236e-03
    86    3.067691850843e-15
    87    4.724033744546e-15
    88   -1.370333937017e-14
    89   -1.853899658753e-14
    90    1.005044850064e-14
    91   -4.746686771447e-15
    92   -9.056686043057e-02
    93    5.353858153645e-14
    94   -3.660592360865e-14
    95   -2.091055513735e-14
    96   -1.139053333764e-01
    97    5.783838701045e-13
    98    1.937304000938e-13
    99    3.552816583676e-13
   100   -3.921679524983e-01
   101    5.121511942261e-12
   102   -2.436731231053e-12
   103    1.653491820250e-13
   104    1.249838222548e+00
   105    1.474625759004e-14
   106    6.943577174945e-03
   107   -2.472749958205e-03
   108    1.403923890052e-15
   109   -3.389143220966e-15
   110   -1.133625114579e-15
   111   -1.324324295706e-15
   112    7.627297085522e-15
   113    1.448677734438e-14
   114   -3.926531441344e-03
   115    8.733005064680e-15
   116    7.395937671123e-15
   117    3.400610110647e-14
   118   -2.062402173617e-02
   119   -1.034753323735e-13
   120    2.614974637268e-14
   121    4.274525468455e-14
   122    7.166294715452e-02
   123    2.294251390547e-13
   124    3.623071829378e-13
   125    1.060297123977e-13
   126   -3.415699812602e-01
   127   -3.763211848674e-15
   128    4.476835572946e-03
   129    2.920021717721e-03
   130    2.226787650935e-15
   131    5.130568344452e-15
   132    5.492265662058e-15
   133    6.492847430310e-15
   134    1.077711175422e-14
   135    2.505603350670e-14
   136   -4.237495071740e-03
   137   -1.202903867117e-14
   138   -1.475151567099e-15
   139    3.876370864801e-14
   140   -6.305480662688e-03
   141   -2.259014381600e-13
   142    2.533771414136e-14
   143    1.444593112590e-13
   144   -3.425958981658e-03
   145   -1.753771350932e-12
   146   -1.638334317296e-12
   147   -1.253462423794e-12
   148    2.551042736482e-01
   149    4.341276585363e-15
   150   -3.844793530457e-03
   151    9.105894975627e-03
   152    3.017891411265e-15
   153   -4.801969354385e-15
   154   -5.352533129194e-15
   155   -1.170112672560e-14
   156    2.598424984015e-14
   157    1.105965375483e-14
   158    5.232196444646e-02
   159    3.160463074502e-14
   160    2.618055110765e-14
   161    1.568167344893e-14
   162    7.289236449269e-02
   163    1.726083876931e-13
   164    9.134456469228e-14
   165   -2.759722237375e-14
   166    1.763645178507e-01
   167   -3.090123216618e-12
   168    1.608000824562e-12
   169   -1.702239822339e-12
   170   -4.356319980992e-01
   171   -4.194251364552e-15
   172    2.171354055916e-03
   173    3.568003064582e-03
   174    9.382627092852e-16
   175    1.207110590497e-14
   176   -2.377941432422e-15
   177    2.741244537418e-15
   178    2.633973374280e-14
   179   -1.736571781957e-14
   180    7.378395596103e-04
   181   -2.489927333759e-14
   182   -3.022043579507e-16
   183    1.497650632798e-15
   184    2.448059200764e-02
   185    3.073547601644e-13
   186    1.153959531895e-13
   187   -9.480606124457e-14
   188   -4.292999061586e-02
   189   -1.300278322090e-11
   190    4.027556704068e-12
   191   -3.284542112827e-13
   192    5.272327369147e-01
   193   -1.503075350244e-14
   194    1.105514706615e-02
   195   -8.462269511525e-03
   196   -1.121209069187e-14
   197    1.026870332495e-14
   198   -1.359746456195e-15
   199   -3.083481696644e-14
   200   -1.223352267370e-13
   201   -6.204349657454e-13
   202   -1.595405693601e-15
   203   -5.947031401314e-15
   204    9.165939046523e-03
[5D]
