[Molden Format]
[Atoms] (Angs)
  C      1    6     -0.00754183     -1.75895763      0.00000000
  H      2    1     -2.09769850     -1.41880678     -0.00000000
  H      3    1     -0.13527422     -2.83956838     -0.00000000
  H      4    1      0.04053511      2.02026369      0.00000000
  C      5    6     -1.22066484      0.39918184     -0.00000000
  O      6    8     -2.25210141      1.05663720     -0.00000000
  C      7    6      1.24009552      0.27789184      0.00000000
  O      8    8      2.33767996      1.06122493      0.00000000
  N      9    7      0.03634586      1.00852936      0.00000000
  N     10    7     -1.18738304     -0.97903470     -0.00000000
  C     11    6      1.22288875     -1.12258096      0.00000000
  H     12    1      2.15640383     -1.68445878      0.00000000
[GTO]
1    0
S    6    1.000000
   4.56324000E+03    1.96665000E-03 
   6.82024000E+02    1.52306000E-02 
   1.54973000E+02    7.61269000E-02 
   4.44553000E+01    2.60801000E-01 
   1.30290000E+01    6.16462000E-01 
   1.82773000E+00    2.21006000E-01 
SP   3    1.000000
   2.09642000E+01    1.14660000E-01   4.02487000E-02 
   4.80331000E+00    9.19999000E-01   2.37594000E-01 
   1.45933000E+00   -3.03068000E-03   8.15854000E-01 
SP   1    1.000000
   4.83456000E-01    1.00000000E+00   1.00000000E+00 
SP   1    1.000000
   1.45585000E-01    1.00000000E+00   1.00000000E+00 
SP   1    1.000000
   4.38000000E-02    1.00000000E+00   1.00000000E+00 
D    1    1.000000
   6.26000000E-01    1.00000000E+00 

2    0
S    3    1.000000
   3.38650000E+01    2.54938000E-02 
   5.09479000E+00    1.90373000E-01 
   1.15879000E+00    8.52161000E-01 
S    1    1.000000
   3.25840000E-01    1.00000000E+00 
S    1    1.000000
   1.02741000E-01    1.00000000E+00 
S    1    1.000000
   3.60000000E-02    1.00000000E+00 
P    1    1.000000
   7.50000000E-01    1.00000000E+00 

3    0
S    3    1.000000
   3.38650000E+01    2.54938000E-02 
   5.09479000E+00    1.90373000E-01 
   1.15879000E+00    8.52161000E-01 
S    1    1.000000
   3.25840000E-01    1.00000000E+00 
S    1    1.000000
   1.02741000E-01    1.00000000E+00 
S    1    1.000000
   3.60000000E-02    1.00000000E+00 
P    1    1.000000
   7.50000000E-01    1.00000000E+00 

4    0
S    3    1.000000
   3.38650000E+01    2.54938000E-02 
   5.09479000E+00    1.90373000E-01 
   1.15879000E+00    8.52161000E-01 
S    1    1.000000
   3.25840000E-01    1.00000000E+00 
S    1    1.000000
   1.02741000E-01    1.00000000E+00 
S    1    1.000000
   3.60000000E-02    1.00000000E+00 
P    1    1.000000
   7.50000000E-01    1.00000000E+00 

5    0
S    6    1.000000
   4.56324000E+03    1.96665000E-03 
   6.82024000E+02    1.52306000E-02 
   1.54973000E+02    7.61269000E-02 
   4.44553000E+01    2.60801000E-01 
   1.30290000E+01    6.16462000E-01 
   1.82773000E+00    2.21006000E-01 
SP   3    1.000000
   2.09642000E+01    1.14660000E-01   4.02487000E-02 
   4.80331000E+00    9.19999000E-01   2.37594000E-01 
   1.45933000E+00   -3.03068000E-03   8.15854000E-01 
SP   1    1.000000
   4.83456000E-01    1.00000000E+00   1.00000000E+00 
SP   1    1.000000
   1.45585000E-01    1.00000000E+00   1.00000000E+00 
SP   1    1.000000
   4.38000000E-02    1.00000000E+00   1.00000000E+00 
D    1    1.000000
   6.26000000E-01    1.00000000E+00 

6    0
S    6    1.000000
   8.58850000E+03    1.89515000E-03 
   1.29723000E+03    1.43859000E-02 
   2.99296000E+02    7.07320000E-02 
   8.73771000E+01    2.40001000E-01 
   2.56789000E+01    5.94797000E-01 
   3.74004000E+00    2.80802000E-01 
SP   3    1.000000
   4.21175000E+01    1.13889000E-01   3.65114000E-02 
   9.62837000E+00    9.20811000E-01   2.37153000E-01 
   2.85332000E+00   -3.27447000E-03   8.19702000E-01 
SP   1    1.000000
   9.05661000E-01    1.00000000E+00   1.00000000E+00 
SP   1    1.000000
   2.55611000E-01    1.00000000E+00   1.00000000E+00 
SP   1    1.000000
   8.45000000E-02    1.00000000E+00   1.00000000E+00 
D    1    1.000000
   1.29200000E+00    1.00000000E+00 

7    0
S    6    1.000000
   4.56324000E+03    1.96665000E-03 
   6.82024000E+02    1.52306000E-02 
   1.54973000E+02    7.61269000E-02 
   4.44553000E+01    2.60801000E-01 
   1.30290000E+01    6.16462000E-01 
   1.82773000E+00    2.21006000E-01 
SP   3    1.000000
   2.09642000E+01    1.14660000E-01   4.02487000E-02 
   4.80331000E+00    9.19999000E-01   2.37594000E-01 
   1.45933000E+00   -3.03068000E-03   8.15854000E-01 
SP   1    1.000000
   4.83456000E-01    1.00000000E+00   1.00000000E+00 
SP   1    1.000000
   1.45585000E-01    1.00000000E+00   1.00000000E+00 
SP   1    1.000000
   4.38000000E-02    1.00000000E+00   1.00000000E+00 
D    1    1.000000
   6.26000000E-01    1.00000000E+00 

8    0
S    6    1.000000
   8.58850000E+03    1.89515000E-03 
   1.29723000E+03    1.43859000E-02 
   2.99296000E+02    7.07320000E-02 
   8.73771000E+01    2.40001000E-01 
   2.56789000E+01    5.94797000E-01 
   3.74004000E+00    2.80802000E-01 
SP   3    1.000000
   4.21175000E+01    1.13889000E-01   3.65114000E-02 
   9.62837000E+00    9.20811000E-01   2.37153000E-01 
   2.85332000E+00   -3.27447000E-03   8.19702000E-01 
SP   1    1.000000
   9.05661000E-01    1.00000000E+00   1.00000000E+00 
SP   1    1.000000
   2.55611000E-01    1.00000000E+00   1.00000000E+00 
SP   1    1.000000
   8.45000000E-02    1.00000000E+00   1.00000000E+00 
D    1    1.000000
   1.29200000E+00    1.00000000E+00 

9    0
S    6    1.000000
   6.29348000E+03    1.96979000E-03 
   9.49044000E+02    1.49613000E-02 
   2.18776000E+02    7.35006000E-02 
   6.36916000E+01    2.48937000E-01 
   1.88282000E+01    6.02460000E-01 
   2.72023000E+00    2.56202000E-01 
SP   3    1.000000
   3.06331000E+01    1.11906000E-01   3.83119000E-02 
   7.02614000E+00    9.21666000E-01   2.37403000E-01 
   2.11205000E+00   -2.56919000E-03   8.17592000E-01 
SP   1    1.000000
   6.84009000E-01    1.00000000E+00   1.00000000E+00 
SP   1    1.000000
   2.00878000E-01    1.00000000E+00   1.00000000E+00 
SP   1    1.000000
   6.39000000E-02    1.00000000E+00   1.00000000E+00 
D    1    1.000000
   9.13000000E-01    1.00000000E+00 

10    0
S    6    1.000000
   6.29348000E+03    1.96979000E-03 
   9.49044000E+02    1.49613000E-02 
   2.18776000E+02    7.35006000E-02 
   6.36916000E+01    2.48937000E-01 
   1.88282000E+01    6.02460000E-01 
   2.72023000E+00    2.56202000E-01 
SP   3    1.000000
   3.06331000E+01    1.11906000E-01   3.83119000E-02 
   7.02614000E+00    9.21666000E-01   2.37403000E-01 
   2.11205000E+00   -2.56919000E-03   8.17592000E-01 
SP   1    1.000000
   6.84009000E-01    1.00000000E+00   1.00000000E+00 
SP   1    1.000000
   2.00878000E-01    1.00000000E+00   1.00000000E+00 
SP   1    1.000000
   6.39000000E-02    1.00000000E+00   1.00000000E+00 
D    1    1.000000
   9.13000000E-01    1.00000000E+00 

11    0
S    6    1.000000
   4.56324000E+03    1.96665000E-03 
   6.82024000E+02    1.52306000E-02 
   1.54973000E+02    7.61269000E-02 
   4.44553000E+01    2.60801000E-01 
   1.30290000E+01    6.16462000E-01 
   1.82773000E+00    2.21006000E-01 
SP   3    1.000000
   2.09642000E+01    1.14660000E-01   4.02487000E-02 
   4.80331000E+00    9.19999000E-01   2.37594000E-01 
   1.45933000E+00   -3.03068000E-03   8.15854000E-01 
SP   1    1.000000
   4.83456000E-01    1.00000000E+00   1.00000000E+00 
SP   1    1.000000
   1.45585000E-01    1.00000000E+00   1.00000000E+00 
SP   1    1.000000
   4.38000000E-02    1.00000000E+00   1.00000000E+00 
D    1    1.000000
   6.26000000E-01    1.00000000E+00 

12    0
S    3    1.000000
   3.38650000E+01    2.54938000E-02 
   5.09479000E+00    1.90373000E-01 
   1.15879000E+00    8.52161000E-01 
S    1    1.000000
   3.25840000E-01    1.00000000E+00 
S    1    1.000000
   1.02741000E-01    1.00000000E+00 
S    1    1.000000
   3.60000000E-02    1.00000000E+00 
P    1    1.000000
   7.50000000E-01    1.00000000E+00 

[MO]
Sym=X
Ene= -0.485550
Spin=Alpha
Occup=1
     1    3.886389387184e-16
     2    3.477417485399e-15
     3   -7.581191106461e-15
     4   -2.655985144673e-14
     5    1.066922511556e-01
     6   -1.306676582338e-14
     7    4.621471336173e-14
     8   -4.722228016463e-14
     9    1.744381613837e-01
    10   -4.006620133233e-13
    11   -5.746526503569e-13
    12   -3.388365571209e-13
    13    2.618586355761e-01
    14    2.521361090371e-11
    15    4.756438772401e-12
    16    4.796476472388e-12
    17    1.160720067395e-01
    18   -5.945008362603e-15
    19    1.076736481469e-02
    20   -3.326849910706e-03
    21    9.442849192556e-15
    22    4.399624183254e-15
    23    7.397446416421e-15
    24   -8.492931112929e-14
    25    4.665202411200e-13
    26   -1.552550193451e-12
    27   -9.627642205403e-15
    28   -5.256043965168e-15
    29   -8.480964290692e-03
    30   -1.372291316272e-14
    31    5.023085017517e-14
    32   -8.297811580272e-13
    33    1.299458675544e-12
    34   -2.839614259097e-15
    35    8.784595501975e-15
    36    1.074229443245e-02
    37   -3.245509114855e-14
    38    7.001967729693e-14
    39   -2.036612311059e-12
    40    1.603917634341e-12
    41   -2.827511639865e-15
    42   -1.697528476889e-14
    43    1.200444061666e-02
    44   -2.382814451975e-15
    45   -3.637859642372e-15
    46   -1.918377050303e-14
    47   -1.623998487503e-14
    48    1.181203944776e-02
    49   -1.299663521443e-14
    50   -1.103014996190e-14
    51    1.961909033059e-14
    52    2.102636513896e-02
    53    6.815624624963e-13
    54   -7.066212199741e-13
    55   -4.227264032128e-13
    56    1.607516459910e-02
    57   -2.463180359005e-12
    58   -2.372376477966e-12
    59   -1.975493623533e-12
    60   -3.911301826220e-03
    61   -9.923549522833e-15
    62    1.725507359698e-02
    63    1.895172624498e-02
    64   -1.360176963511e-14
    65   -4.202333816707e-15
    66   -9.737529310939e-16
    67   -1.855587529365e-15
    68   -1.164708439399e-15
    69   -1.204784206066e-14
    70   -1.315597350957e-02
    71    1.118020757645e-14
    72    6.243001232692e-15
    73   -1.636546383374e-14
    74   -2.000213331121e-02
    75   -8.500482207474e-14
    76   -1.232513500591e-13
    77    1.575322186801e-15
    78   -2.512834080987e-02
    79   -8.691378698086e-13
    80   -7.758055686968e-14
    81    7.205845750453e-13
    82   -1.187650213797e-02
    83   -1.063063823914e-15
    84    6.549652183732e-04
    85    1.062930862712e-03
    86   -8.742839864381e-16
    87   -2.160682883430e-15
    88   -9.802859657396e-15
    89   -1.706336146624e-14
    90   -1.248554429483e-14
    91   -3.484883440630e-14
    92   -2.107773700392e-01
    93    7.367897309581e-14
    94   -4.161049243535e-14
    95   -4.328436606862e-14
    96   -3.580645889546e-01
    97   -1.939907258073e-13
    98    3.577932768984e-13
    99   -6.874702495153e-13
   100   -5.010839371517e-01
   101   -7.528320310141e-12
   102    2.221011735287e-12
   103    6.039252282101e-14
   104   -1.684274906420e-01
   105    2.215833496050e-14
   106   -4.884852143249e-03
   107    1.270030053648e-02
   108   -8.040924695128e-15
   109    1.857484580141e-14
   110    1.372914064270e-16
   111    2.544318382895e-15
   112    8.473876362984e-15
   113    1.331121128177e-15
   114    2.037685049345e-01
   115   -1.049967144095e-14
   116    4.110168250601e-16
   117    1.516048864303e-14
   118    2.730565485381e-01
   119    1.895491441145e-14
   120    1.221011394177e-14
   121    3.409707635212e-14
   122    2.610267263378e-01
   123   -4.254333830321e-13
   124   -1.064236426420e-13
   125   -1.929407136144e-13
   126    5.768627649860e-02
   127    9.152166072563e-16
   128    5.106026841611e-03
   129    5.235231339301e-03
   130    5.592648688910e-16
   131   -3.760417916507e-15
   132    8.518650037568e-15
   133    2.012715763261e-14
   134   -3.175200058409e-14
   135    2.834460664339e-14
   136    9.006316849267e-02
   137   -5.479531892376e-14
   138   -3.107591809379e-14
   139    3.519401674534e-14
   140    1.382828121104e-01
   141   -2.413034485888e-13
   142   -1.423131850626e-13
   143   -2.079274639669e-14
   144    2.387654202720e-01
   145    1.244783219278e-11
   146    2.133443408144e-13
   147   -1.007089690276e-12
   148    1.646468976937e-01
   149    1.578185659448e-14
   150   -1.727154464662e-02
   151    8.593049663096e-03
   152    6.507118579307e-15
   153   -4.483619642322e-15
   154   -1.098081167129e-14
   155   -1.899173372566e-14
   156    1.014077765308e-14
   157   -2.651541270403e-16
   158   -6.707320280709e-02
   159    1.928412066102e-14
   160   -1.950260282316e-14
   161    1.010928707719e-14
   162   -1.033143277254e-01
   163    6.569505723469e-13
   164    2.517355139504e-13
   165   -1.534209286752e-13
   166   -1.673770876334e-01
   167   -8.484122993171e-12
   168   -2.272452815424e-12
   169   -1.180822154522e-12
   170   -1.186450902830e-01
   171   -1.673873247825e-14
   172    8.339186741664e-03
   173   -5.752448102811e-03
   174   -1.287333856045e-14
   175    4.928042868204e-15
   176    1.018413988961e-14
   177    1.862429487740e-14
   178   -4.644124505691e-14
   179   -1.645150646474e-14
   180    1.638847201214e-03
   181   -3.671431882060e-14
   182   -5.433724432225e-14
   183   -1.507486316050e-14
   184    3.292454793316e-03
   185   -3.836399601442e-13
   186   -1.048704327724e-12
   187   -6.151501388864e-13
   188    6.475340873390e-02
   189   -1.850799594680e-11
   190    3.698886595659e-12
   191    3.849070841996e-12
   192    4.339986771923e-02
   193   -5.683801621786e-15
   194   -1.621843325458e-02
   195   -3.521952704083e-02
   196   -1.645164874321e-14
   197   -1.323636230589e-14
   198    1.599470655629e-14
   199    8.675050575596e-14
   200    1.591405945759e-12
   201    1.433759364339e-14
   202   -7.041262771566e-16
   203   -2.162844594487e-15
   204    1.410794934256e-03
Sym=X
Ene= 0.485550
Spin=Alpha
Occup=0
     1   -3.417944655621e-15
     2   -7.664299479955e-15
     3    2.270389232319e-14
     4   -5.683515569625e-15
     5    1.537362218377e-02
     6    3.279949599633e-14
     7   -2.767165019922e-14
     8   -3.864796521339e-14
     9    3.899667521044e-02
    10    2.700136771535e-13
    11    6.096773645890e-13
    12    2.226388040239e-13
    13    3.954849643576e-02
    14   -3.315353669982e-11
    15   -2.847387239937e-12
    16   -7.137075890323e-12
    17   -6.982738265689e-01
    18    1.064475753176e-15
    19   -1.304819508853e-02
    20   -6.771187252696e-03
    21   -4.480200564073e-15
    22    3.113872061942e-16
    23    2.877873124230e-15
    24   -5.764488882448e-14
    25    3.419208344391e-13
    26    9.595883851074e-13
    27   -1.331751070672e-14
    28   -5.527851414198e-15
    29    3.618481646117e-04
    30    7.284178936871e-15
    31   -1.169906137727e-13
    32    8.054785175821e-13
    33   -4.411658760791e-13
    34   -8.238375566441e-15
    35   -5.065531365551e-15
    36    5.793820507392e-03
    37    2.682432752305e-14
    38   -9.729933338417e-14
    39    1.224345419393e-12
    40   -1.861399212008e-12
    41    3.972666813447e-15
    42    1.952849270662e-14
    43   -3.210666061707e-06
    44    5.001292222694e-16
    45    6.150032250100e-15
    46    2.573834793393e-14
    47    2.245379526270e-15
    48   -1.582451268266e-02
    49   -2.693431696361e-14
    50    1.228235598625e-14
    51   -1.463734178602e-14
    52   -2.601076267281e-02
    53   -2.526978104530e-13
    54    8.080016237960e-13
    55    3.032343515390e-14
    56   -7.522058791218e-02
    57    9.966209012895e-12
    58    3.376473911695e-12
    59   -1.098075286498e-12
    60   -1.773883269601e+00
    61    1.900395608723e-14
    62   -8.908203897539e-03
    63    4.897976321724e-03
    64    4.686203507820e-15
    65   -7.417210510501e-15
    66   -2.849509458717e-16
    67    1.818289211056e-15
    68    7.410033437163e-16
    69    8.324730587599e-15
    70    4.637465598217e-02
    71   -1.068057956237e-14
    72   -1.243009215519e-14
    73    9.411242782720e-15
    74    8.177597910625e-02
    75    1.297476481105e-13
    76    1.294115146788e-13
    77   -1.623830875297e-14
    78    3.264887511913e-02
    79    1.453015993458e-12
    80    1.565392558607e-13
    81   -8.321390024788e-13
    82    4.914462546659e-01
    83    4.976300317259e-15
    84    1.126265998730e-03
    85   -8.252052423995e-04
    86    1.721953106813e-15
    87    5.689172704933e-15
    88    2.262017639925e-15
    89    6.994561958960e-15
    90    4.368443116882e-15
    91    1.308884666599e-14
    92    7.804244611758e-04
    93   -2.531772261957e-14
    94    1.855885914102e-14
    95    1.593206410525e-14
    96    2.007381625716e-02
    97    3.649841633312e-13
    98   -4.712213733996e-13
    99    3.663987193046e-13
   100   -2.979051335577e-02
   101   -6.505590148145e-12
   102   -2.512046459694e-12
   103    3.030842278590e-12
   104   -4.386522620779e-01
   105   -1.242720017646e-14
   106   -2.649510288451e-03
   107    1.728674795108e-02
   108    1.337446019134e-14
   109   -1.238053106549e-14
   110   -4.183415248573e-15
   111   -1.005545943560e-14
   112    4.884700381194e-15
   113   -8.230395660143e-15
   114   -3.138180910813e-02
   115    3.686244811684e-14
   116    1.677852334253e-14
   117   -1.483048650582e-14
   118   -4.010497231061e-02
   119   -1.760820516638e-14
   120   -4.506325348327e-14
   121   -4.178778653413e-14
   122   -6.363549296754e-02
   123    1.329516614994e-12
   124    2.514858824350e-13
   125   -2.834808333247e-13
   126    1.528987878708e-01
   127   -4.202778511103e-15
   128    1.771636463971e-03
   129   -4.595287183244e-04
   130   -2.026206482384e-15
   131    1.395096911201e-15
   132    1.699391811121e-15
   133    2.998119661004e-15
   134    3.597852947749e-14
   135   -3.023277148187e-14
   136    3.703296819164e-02
   137   -2.157561186427e-14
   138    4.964543318379e-14
   139   -4.376867132266e-14
   140    6.331448494994e-02
   141    8.119480090127e-14
   142    9.439557199641e-14
   143    1.132036426890e-13
   144    6.837758747138e-02
   145   -1.115358814583e-11
   146    9.363978129816e-15
   147    1.745091202539e-12
   148    3.137436841627e-01
   149   -1.212407735523e-14
   150    7.094478173612e-03
   151   -2.424912268071e-04
   152   -7.351631642964e-15
   153    7.185643957780e-15
   154    9.545363965357e-15
   155    1.414074470527e-14
   156    6.497048138296e-15
   157   -3.346510867979e-15
   158    2.635943373621e-02
   159   -2.091167994226e-14
   160    1.988639053058e-14
   161   -2.233949466779e-14
   162    5.199331144164e-02
   163   -4.817963479173e-13
   164   -1.429192879569e-13
   165    5.749320380374e-14
   166    1.644596915034e-02
   167    5.259830607340e-12
   168    2.958613924171e-12
   169   -1.316000650327e-12
   170    5.597383907946e-01
   171    7.027930091521e-15
   172    3.223575677991e-03
   173   -5.439307962118e-03
   174   -2.629602737241e-15
   175    5.671681889492e-15
   176   -1.668898129721e-14
   177   -3.418668751107e-14
   178    5.390633804423e-14
   179   -1.666503392714e-14
   180   -7.748932883832e-02
   181    7.506013273332e-14
   182    5.081828555372e-14
   183   -3.231069361502e-14
   184   -9.366707806540e-02
   185    3.020094979552e-13
   186    9.062049635127e-13
   187    3.145782231934e-13
   188   -3.755605345574e-01
   189    2.827168212820e-11
   190   -6.837914829182e-12
   191    1.982877139815e-12
   192    1.830621889035e+00
   193   -7.381280877252e-15
   194    7.942280649731e-03
   195   -9.603196682011e-03
   196    5.072761740197e-15
   197    1.960352240207e-14
   198   -6.199739579998e-15
   199   -7.901161719830e-14
   200   -5.590976872856e-13
   201    3.947088979407e-12
   202   -9.632079588247e-15
   203    7.088325794114e-15
   204    4.622880299434e-03
[5D]
