[Molden Format]
[Atoms] (Angs)
  C      1    6     -0.00754183     -1.75895763      0.00000000
  H      2    1     -2.09769850     -1.41880678     -0.00000000
  H      3    1     -0.13527422     -2.83956838     -0.00000000
  H      4    1      0.04053511      2.02026369      0.00000000
  C      5    6     -1.22066484      0.39918184     -0.00000000
  O      6    8     -2.25210141      1.05663720     -0.00000000
  C      7    6      1.24009552      0.27789184      0.00000000
  O      8    8      2.33767996      1.06122493      0.00000000
  N      9    7      0.03634586      1.00852936      0.00000000
  N     10    7     -1.18738304     -0.97903470     -0.00000000
  C     11    6      1.22288875     -1.12258096      0.00000000
  H     12    1      2.15640383     -1.68445878      0.00000000
[GTO]
1    0
S    6    1.000000
   4.56324000E+03    1.96665000E-03 
   6.82024000E+02    1.52306000E-02 
   1.54973000E+02    7.61269000E-02 
   4.44553000E+01    2.60801000E-01 
   1.30290000E+01    6.16462000E-01 
   1.82773000E+00    2.21006000E-01 
SP   3    1.000000
   2.09642000E+01    1.14660000E-01   4.02487000E-02 
   4.80331000E+00    9.19999000E-01   2.37594000E-01 
   1.45933000E+00   -3.03068000E-03   8.15854000E-01 
SP   1    1.000000
   4.83456000E-01    1.00000000E+00   1.00000000E+00 
SP   1    1.000000
   1.45585000E-01    1.00000000E+00   1.00000000E+00 
SP   1    1.000000
   4.38000000E-02    1.00000000E+00   1.00000000E+00 
D    1    1.000000
   6.26000000E-01    1.00000000E+00 

2    0
S    3    1.000000
   3.38650000E+01    2.54938000E-02 
   5.09479000E+00    1.90373000E-01 
   1.15879000E+00    8.52161000E-01 
S    1    1.000000
   3.25840000E-01    1.00000000E+00 
S    1    1.000000
   1.02741000E-01    1.00000000E+00 
S    1    1.000000
   3.60000000E-02    1.00000000E+00 
P    1    1.000000
   7.50000000E-01    1.00000000E+00 

3    0
S    3    1.000000
   3.38650000E+01    2.54938000E-02 
   5.09479000E+00    1.90373000E-01 
   1.15879000E+00    8.52161000E-01 
S    1    1.000000
   3.25840000E-01    1.00000000E+00 
S    1    1.000000
   1.02741000E-01    1.00000000E+00 
S    1    1.000000
   3.60000000E-02    1.00000000E+00 
P    1    1.000000
   7.50000000E-01    1.00000000E+00 

4    0
S    3    1.000000
   3.38650000E+01    2.54938000E-02 
   5.09479000E+00    1.90373000E-01 
   1.15879000E+00    8.52161000E-01 
S    1    1.000000
   3.25840000E-01    1.00000000E+00 
S    1    1.000000
   1.02741000E-01    1.00000000E+00 
S    1    1.000000
   3.60000000E-02    1.00000000E+00 
P    1    1.000000
   7.50000000E-01    1.00000000E+00 

5    0
S    6    1.000000
   4.56324000E+03    1.96665000E-03 
   6.82024000E+02    1.52306000E-02 
   1.54973000E+02    7.61269000E-02 
   4.44553000E+01    2.60801000E-01 
   1.30290000E+01    6.16462000E-01 
   1.82773000E+00    2.21006000E-01 
SP   3    1.000000
   2.09642000E+01    1.14660000E-01   4.02487000E-02 
   4.80331000E+00    9.19999000E-01   2.37594000E-01 
   1.45933000E+00   -3.03068000E-03   8.15854000E-01 
SP   1    1.000000
   4.83456000E-01    1.00000000E+00   1.00000000E+00 
SP   1    1.000000
   1.45585000E-01    1.00000000E+00   1.00000000E+00 
SP   1    1.000000
   4.38000000E-02    1.00000000E+00   1.00000000E+00 
D    1    1.000000
   6.26000000E-01    1.00000000E+00 

6    0
S    6    1.000000
   8.58850000E+03    1.89515000E-03 
   1.29723000E+03    1.43859000E-02 
   2.99296000E+02    7.07320000E-02 
   8.73771000E+01    2.40001000E-01 
   2.56789000E+01    5.94797000E-01 
   3.74004000E+00    2.80802000E-01 
SP   3    1.000000
   4.21175000E+01    1.13889000E-01   3.65114000E-02 
   9.62837000E+00    9.20811000E-01   2.37153000E-01 
   2.85332000E+00   -3.27447000E-03   8.19702000E-01 
SP   1    1.000000
   9.05661000E-01    1.00000000E+00   1.00000000E+00 
SP   1    1.000000
   2.55611000E-01    1.00000000E+00   1.00000000E+00 
SP   1    1.000000
   8.45000000E-02    1.00000000E+00   1.00000000E+00 
D    1    1.000000
   1.29200000E+00    1.00000000E+00 

7    0
S    6    1.000000
   4.56324000E+03    1.96665000E-03 
   6.82024000E+02    1.52306000E-02 
   1.54973000E+02    7.61269000E-02 
   4.44553000E+01    2.60801000E-01 
   1.30290000E+01    6.16462000E-01 
   1.82773000E+00    2.21006000E-01 
SP   3    1.000000
   2.09642000E+01    1.14660000E-01   4.02487000E-02 
   4.80331000E+00    9.19999000E-01   2.37594000E-01 
   1.45933000E+00   -3.03068000E-03   8.15854000E-01 
SP   1    1.000000
   4.83456000E-01    1.00000000E+00   1.00000000E+00 
SP   1    1.000000
   1.45585000E-01    1.00000000E+00   1.00000000E+00 
SP   1    1.000000
   4.38000000E-02    1.00000000E+00   1.00000000E+00 
D    1    1.000000
   6.26000000E-01    1.00000000E+00 

8    0
S    6    1.000000
   8.58850000E+03    1.89515000E-03 
   1.29723000E+03    1.43859000E-02 
   2.99296000E+02    7.07320000E-02 
   8.73771000E+01    2.40001000E-01 
   2.56789000E+01    5.94797000E-01 
   3.74004000E+00    2.80802000E-01 
SP   3    1.000000
   4.21175000E+01    1.13889000E-01   3.65114000E-02 
   9.62837000E+00    9.20811000E-01   2.37153000E-01 
   2.85332000E+00   -3.27447000E-03   8.19702000E-01 
SP   1    1.000000
   9.05661000E-01    1.00000000E+00   1.00000000E+00 
SP   1    1.000000
   2.55611000E-01    1.00000000E+00   1.00000000E+00 
SP   1    1.000000
   8.45000000E-02    1.00000000E+00   1.00000000E+00 
D    1    1.000000
   1.29200000E+00    1.00000000E+00 

9    0
S    6    1.000000
   6.29348000E+03    1.96979000E-03 
   9.49044000E+02    1.49613000E-02 
   2.18776000E+02    7.35006000E-02 
   6.36916000E+01    2.48937000E-01 
   1.88282000E+01    6.02460000E-01 
   2.72023000E+00    2.56202000E-01 
SP   3    1.000000
   3.06331000E+01    1.11906000E-01   3.83119000E-02 
   7.02614000E+00    9.21666000E-01   2.37403000E-01 
   2.11205000E+00   -2.56919000E-03   8.17592000E-01 
SP   1    1.000000
   6.84009000E-01    1.00000000E+00   1.00000000E+00 
SP   1    1.000000
   2.00878000E-01    1.00000000E+00   1.00000000E+00 
SP   1    1.000000
   6.39000000E-02    1.00000000E+00   1.00000000E+00 
D    1    1.000000
   9.13000000E-01    1.00000000E+00 

10    0
S    6    1.000000
   6.29348000E+03    1.96979000E-03 
   9.49044000E+02    1.49613000E-02 
   2.18776000E+02    7.35006000E-02 
   6.36916000E+01    2.48937000E-01 
   1.88282000E+01    6.02460000E-01 
   2.72023000E+00    2.56202000E-01 
SP   3    1.000000
   3.06331000E+01    1.11906000E-01   3.83119000E-02 
   7.02614000E+00    9.21666000E-01   2.37403000E-01 
   2.11205000E+00   -2.56919000E-03   8.17592000E-01 
SP   1    1.000000
   6.84009000E-01    1.00000000E+00   1.00000000E+00 
SP   1    1.000000
   2.00878000E-01    1.00000000E+00   1.00000000E+00 
SP   1    1.000000
   6.39000000E-02    1.00000000E+00   1.00000000E+00 
D    1    1.000000
   9.13000000E-01    1.00000000E+00 

11    0
S    6    1.000000
   4.56324000E+03    1.96665000E-03 
   6.82024000E+02    1.52306000E-02 
   1.54973000E+02    7.61269000E-02 
   4.44553000E+01    2.60801000E-01 
   1.30290000E+01    6.16462000E-01 
   1.82773000E+00    2.21006000E-01 
SP   3    1.000000
   2.09642000E+01    1.14660000E-01   4.02487000E-02 
   4.80331000E+00    9.19999000E-01   2.37594000E-01 
   1.45933000E+00   -3.03068000E-03   8.15854000E-01 
SP   1    1.000000
   4.83456000E-01    1.00000000E+00   1.00000000E+00 
SP   1    1.000000
   1.45585000E-01    1.00000000E+00   1.00000000E+00 
SP   1    1.000000
   4.38000000E-02    1.00000000E+00   1.00000000E+00 
D    1    1.000000
   6.26000000E-01    1.00000000E+00 

12    0
S    3    1.000000
   3.38650000E+01    2.54938000E-02 
   5.09479000E+00    1.90373000E-01 
   1.15879000E+00    8.52161000E-01 
S    1    1.000000
   3.25840000E-01    1.00000000E+00 
S    1    1.000000
   1.02741000E-01    1.00000000E+00 
S    1    1.000000
   3.60000000E-02    1.00000000E+00 
P    1    1.000000
   7.50000000E-01    1.00000000E+00 

[MO]
Sym=X
Ene= -0.487440
Spin=Alpha
Occup=1
     1   -1.000209327198e-02
     2   -1.740069966001e-02
     3    1.507557597274e-02
     4   -6.643226988517e-03
     5    3.225776526909e-14
     6    5.277879813068e-02
     7    1.890201125984e-02
     8   -7.224955611113e-03
     9    5.608682735382e-14
    10    1.721323698224e-01
    11    8.815404322891e-02
    12   -6.993409413581e-02
    13    1.301159887203e-13
    14   -3.842871313218e+00
    15   -1.010949540754e-01
    16   -2.045434252630e+00
    17   -1.461847282972e-12
    18    3.002409443282e-03
    19   -1.635962861623e-14
    20   -3.782738721573e-15
    21    2.841557534311e-03
    22   -3.538762170459e-03
    23   -4.327440432576e-03
    24   -1.124052058688e-02
    25   -3.288348347394e-01
    26   -2.988482773401e-01
    27    4.907234734012e-03
    28    6.052143134568e-03
    29    1.207419760026e-14
    30   -3.051493823945e-03
    31   -1.037289613866e-02
    32   -2.142255860160e-01
    33   -1.613902622118e+00
    34    4.201173986849e-03
    35    3.608663032797e-03
    36    3.030844811278e-15
    37   -2.012732975292e-02
    38   -6.174642418344e-02
    39   -6.700792857705e-01
    40   -1.501419156645e+00
    41   -1.640383910547e-03
    42   -1.404869396270e-02
    43    7.639941753309e-15
    44    7.104698890160e-04
    45    1.012457786709e-03
    46    3.840429731853e-04
    47    7.702233961541e-03
    48   -7.352471522622e-14
    49    6.358185971824e-03
    50    3.715848228952e-03
    51    7.971969775830e-03
    52   -5.993265969264e-14
    53   -3.803141175269e-02
    54   -2.431816358753e-02
    55    4.825318121455e-02
    56   -5.231190993543e-13
    57    1.472558278946e+00
    58    4.669365261278e-01
    59    1.444799405624e-01
    60    4.211366730449e-14
    61   -3.016860131839e-03
    62    1.727659582955e-16
    63   -3.945264022980e-15
    64   -9.293782355385e-03
    65    1.284714242929e-02
    66   -3.781555383598e-03
    67   -6.523592576267e-03
    68   -7.490527970268e-03
    69    9.222341466156e-03
    70    1.979303097712e-14
    71    1.977873201130e-02
    72   -8.438296616482e-03
    73    1.208931528144e-02
    74    3.417351822261e-14
    75    5.624534492884e-02
    76   -7.052110430786e-03
    77    1.011195163684e-02
    78    3.635890746978e-14
    79   -2.832860150725e-01
    80   -1.477903805598e-01
    81    8.123868706382e-02
    82    4.392155215091e-13
    83   -8.773118034877e-04
    84   -6.670750733819e-15
    85    2.676523833945e-15
    86    1.370990448558e-03
    87   -1.198293453664e-03
    88   -9.594806705967e-03
    89   -1.695526600345e-02
    90    3.924495753644e-02
    91    1.154774881396e-02
    92    2.712176946911e-14
    93    4.327548822777e-02
    94    6.809410080050e-02
    95    2.626535524800e-02
    96    3.028942960294e-14
    97    2.667091827763e-01
    98    2.009485043789e-01
    99    1.353145570880e-01
   100    1.030397006263e-13
   101   -4.109212613152e+00
   102    1.619867212121e+00
   103    4.278015569421e-01
   104   -1.208440950765e-12
   105    8.933896885252e-03
   106   -4.804903127884e-15
   107    1.355814592356e-14
   108   -1.501225877546e-02
   109   -1.565744702574e-02
   110    1.402437669369e-02
   111    2.423773528792e-02
   112    2.243420853098e-03
   113    7.482989581761e-02
   114   -1.868254702652e-15
   115   -8.102254659849e-02
   116    1.376463601960e-03
   117    1.012903447701e-01
   118   -1.153372059008e-14
   119   -1.896864939705e-01
   120    5.993297292745e-02
   121    1.214814658611e-01
   122   -3.091388745095e-15
   123   -4.731704562538e-01
   124    4.846922493945e-02
   125    2.694175099167e-02
   126    2.471946156849e-14
   127   -4.727789847021e-05
   128   -1.564027899956e-15
   129   -1.538548292953e-15
   130    3.239791293991e-03
   131    9.381513525839e-04
   132   -1.404970856983e-02
   133   -2.433431610850e-02
   134   -9.530921590312e-03
   135    3.902198538799e-02
   136    3.273200293865e-14
   137    7.641666580018e-02
   138   -1.364303037815e-02
   139    6.105678793398e-02
   140    4.886605405308e-14
   141    2.205602450507e-01
   142   -4.350101269280e-02
   143    9.935524977110e-02
   144    1.518510090172e-13
   145    1.077635306403e+00
   146    2.013246759716e-02
   147    6.952549705559e-01
   148    6.172880370327e-14
   149    2.027051523006e-03
   150    1.210502837953e-14
   151    2.363461615967e-15
   152    1.078383140812e-02
   153    1.585612796528e-03
   154   -1.013696219596e-02
   155   -1.754593005870e-02
   156   -1.646255820893e-02
   157    2.597857808030e-03
   158    1.362989078245e-14
   159    5.508336081661e-02
   160   -2.424130299148e-02
   161    5.160484588213e-03
   162    1.157716604044e-14
   163    1.588791522924e-01
   164   -2.749271877377e-02
   165    9.003615579776e-03
   166    6.374840682666e-14
   167    1.188212190218e+00
   168   -3.647940018651e-01
   169    8.175002491103e-02
   170    4.788245175524e-13
   171    2.270593694546e-04
   172   -4.248111245695e-15
   173   -9.287470266052e-15
   174    3.750444017821e-04
   175   -3.661069611820e-03
   176    9.851952606805e-03
   177    1.726900845923e-02
   178   -1.875315037032e-02
   179    1.185783810137e-02
   180   -5.310135175167e-14
   181   -4.952033411000e-02
   182   -2.417582442346e-02
   183    6.902201587964e-03
   184   -7.018990732232e-14
   185   -2.064492944324e-01
   186   -9.912547571671e-02
   187    1.166358689950e-01
   188   -3.087385729501e-13
   189    4.931716416561e+00
   190   -3.485788868470e+00
   191    2.226315796818e+00
   192    2.137645683935e-12
   193    2.666040693481e-03
   194    5.096639277246e-16
   195    1.779463225781e-15
   196    1.996036659659e-03
   197    1.411769840757e-02
   198   -2.166787044364e-02
   199   -6.712101589856e-02
   200    3.675199131248e-01
   201    3.680005773314e+00
   202    7.186809344793e-03
   203   -9.835395072863e-04
   204   -2.261917104904e-18
Sym=X
Ene= 0.487440
Spin=Alpha
Occup=0
     1    1.114430795905e-15
     2    4.569128901449e-16
     3   -2.054207081508e-15
     4    9.154888424514e-15
     5    1.363552564121e-01
     6   -1.094168001288e-14
     7   -1.427623787721e-14
     8    4.550044045850e-14
     9    2.216872359857e-01
    10    4.449408908417e-13
    11    3.633484353420e-13
    12    2.933980645774e-13
    13    4.259274625498e-01
    14   -4.371461927907e-11
    15   -5.799794295998e-12
    16   -1.050300508033e-11
    17    6.826357158736e-01
    18   -1.073551873347e-14
    19   -2.641405112790e-02
    20   -8.676528615942e-03
    21    7.500519527317e-15
    22   -8.072136004576e-16
    23    3.773762406537e-15
    24    9.193326196463e-15
    25   -3.616891124429e-13
    26   -3.613999419915e-14
    27   -6.187493424789e-15
    28   -2.533386550473e-15
    29    1.228867487566e-03
    30    1.011680642922e-14
    31    3.283362894494e-14
    32    4.873985020732e-13
    33   -2.488616756446e-12
    34   -8.268397607379e-15
    35    5.337083722056e-15
    36    1.643954870149e-02
    37    1.486377706207e-14
    38   -5.030968619636e-14
    39    2.964435981449e-13
    40   -5.470246895867e-13
    41    5.061835971520e-15
    42    1.096054873256e-14
    43    4.141976931491e-03
    44    2.871717733451e-15
    45    3.115479069155e-15
    46    9.293891528766e-15
    47    5.484343090603e-15
    48   -1.278621839732e-01
    49   -3.049924255632e-14
    50    2.528051374513e-14
    51   -2.145663400420e-14
    52   -2.118598556122e-01
    53    1.768136272917e-13
    54    3.793630788904e-13
    55    5.459018061382e-14
    56   -3.701481143440e-01
    57    1.249892128800e-11
    58    3.548103399626e-12
    59   -2.765818695968e-12
    60   -1.614228523513e-01
    61    1.240465988248e-14
    62   -2.532807300722e-02
    63    1.981508050389e-02
    64    9.161156091631e-15
    65   -6.221588613494e-15
    66    9.797459624200e-16
    67    2.086286724773e-15
    68   -3.621786519413e-15
    69    8.315715414096e-15
    70    8.854417416340e-02
    71   -8.297982924583e-15
    72   -8.021018225781e-15
    73    9.644023149638e-15
    74    1.298266840100e-01
    75    2.311366679501e-14
    76    4.329035394172e-14
    77   -1.056424981535e-14
    78    1.896727860092e-01
    79    5.115635717723e-13
    80   -1.934273751702e-14
    81   -9.506501684211e-14
    82    1.695711445712e-01
    83    1.406229903300e-15
    84   -3.576998982553e-03
    85    2.784993091003e-03
    86   -1.766386817919e-15
    87    5.433315454960e-16
    88    5.111388237394e-15
    89    9.285055586089e-15
    90    2.030920963378e-15
    91    1.124624857126e-14
    92    1.056795527807e-01
    93   -4.418928955287e-14
    94    2.370789395288e-14
    95    8.148186080392e-15
    96    1.824590392042e-01
    97    3.894240162164e-13
    98   -5.737493258104e-13
    99   -2.263391378269e-13
   100    3.075378718696e-01
   101   -1.831149047871e-11
   102    9.867818129635e-13
   103    3.287562919954e-12
   104    1.182913796974e-01
   105   -1.814787125058e-14
   106   -1.044858830979e-02
   107    4.264245808445e-02
   108   -5.926995864743e-15
   109   -1.154804113423e-14
   110   -5.715773383093e-15
   111   -9.613075578917e-15
   112    1.626482004037e-15
   113   -7.202438800597e-15
   114   -3.098889422995e-02
   115    3.839667330527e-14
   116    1.973870589115e-14
   117   -2.199500193513e-14
   118   -4.039153057811e-02
   119    5.200883495901e-14
   120   -8.102337248444e-14
   121   -3.194992103025e-14
   122   -5.627867668437e-02
   123    1.586945982789e-12
   124   -3.467072740349e-14
   125   -3.595898869254e-13
   126   -4.548120662919e-02
   127    4.943410398804e-15
   128   -8.431258376069e-03
   129   -1.868326459207e-03
   130    2.510445546595e-15
   131    1.859101621732e-15
   132    9.069093287015e-16
   133   -9.214379024897e-16
   134    1.958088990022e-14
   135   -1.679565531700e-14
   136    2.320062524984e-02
   137   -9.372250035050e-16
   138    3.375019830053e-14
   139   -3.352086532723e-14
   140    3.592803967723e-02
   141   -4.593135906022e-15
   142    6.166885055901e-14
   143    1.751166318080e-13
   144    4.594921412945e-02
   145   -5.676471630279e-12
   146    7.298096774964e-13
   147    1.672850871847e-12
   148    1.369157482124e-01
   149   -3.080695104801e-15
   150    2.503891296805e-02
   151    3.477617347881e-03
   152   -3.855226392833e-15
   153   -1.972190871430e-15
   154    7.384307594273e-15
   155    1.045948612925e-14
   156    4.537316617077e-15
   157   -1.175800107013e-15
   158   -1.087995104261e-02
   159   -7.859993231964e-15
   160    2.691464958719e-14
   161   -1.157676034956e-14
   162   -1.776995481802e-02
   163   -3.791363889168e-13
   164   -1.851732247909e-13
   165    2.715387769945e-14
   166   -2.062975388286e-02
   167    3.634620051778e-12
   168    1.650533323297e-12
   169   -9.940996215120e-13
   170   -8.416583320597e-02
   171    1.485836817639e-15
   172    1.089037123746e-02
   173   -2.581355175545e-02
   174   -1.753074757839e-15
   175    2.781219330442e-15
   176   -1.243868858650e-14
   177   -2.452288401573e-14
   178    2.011904026012e-14
   179   -9.928860578938e-15
   180   -1.329696683229e-01
   181    1.221768737740e-13
   182    7.045536531092e-14
   183   -1.799906931212e-14
   184   -2.126126132838e-01
   185   -7.191014033879e-13
   186    5.703275858250e-13
   187   -7.935806028724e-14
   188   -4.663103148276e-01
   189    4.713736183324e-11
   190   -1.243086992176e-11
   191    3.245549622167e-12
   192   -8.420231340008e-01
   193    1.329475105262e-14
   194   -2.362909006934e-02
   195   -3.527700374466e-03
   196    1.584887636791e-14
   197   -8.425104376065e-15
   198    3.177763121162e-15
   199   -7.921442376784e-14
   200   -1.187260560457e-13
   201    5.094512082789e-12
   202   -1.776971701915e-15
   203   -3.149443546051e-16
   204   -1.947750810576e-02
[5D]
