[Molden Format]
[Atoms] (Angs)
  C      1    6     -0.00754183     -1.75895763      0.00000000
  H      2    1     -2.09769850     -1.41880678     -0.00000000
  H      3    1     -0.13527422     -2.83956838     -0.00000000
  H      4    1      0.04053511      2.02026369      0.00000000
  C      5    6     -1.22066484      0.39918184     -0.00000000
  O      6    8     -2.25210141      1.05663720     -0.00000000
  C      7    6      1.24009552      0.27789184      0.00000000
  O      8    8      2.33767996      1.06122493      0.00000000
  N      9    7      0.03634586      1.00852936      0.00000000
  N     10    7     -1.18738304     -0.97903470     -0.00000000
  C     11    6      1.22288875     -1.12258096      0.00000000
  H     12    1      2.15640383     -1.68445878      0.00000000
[GTO]
1    0
S    6    1.000000
   4.56324000E+03    1.96665000E-03 
   6.82024000E+02    1.52306000E-02 
   1.54973000E+02    7.61269000E-02 
   4.44553000E+01    2.60801000E-01 
   1.30290000E+01    6.16462000E-01 
   1.82773000E+00    2.21006000E-01 
SP   3    1.000000
   2.09642000E+01    1.14660000E-01   4.02487000E-02 
   4.80331000E+00    9.19999000E-01   2.37594000E-01 
   1.45933000E+00   -3.03068000E-03   8.15854000E-01 
SP   1    1.000000
   4.83456000E-01    1.00000000E+00   1.00000000E+00 
SP   1    1.000000
   1.45585000E-01    1.00000000E+00   1.00000000E+00 
SP   1    1.000000
   4.38000000E-02    1.00000000E+00   1.00000000E+00 
D    1    1.000000
   6.26000000E-01    1.00000000E+00 

2    0
S    3    1.000000
   3.38650000E+01    2.54938000E-02 
   5.09479000E+00    1.90373000E-01 
   1.15879000E+00    8.52161000E-01 
S    1    1.000000
   3.25840000E-01    1.00000000E+00 
S    1    1.000000
   1.02741000E-01    1.00000000E+00 
S    1    1.000000
   3.60000000E-02    1.00000000E+00 
P    1    1.000000
   7.50000000E-01    1.00000000E+00 

3    0
S    3    1.000000
   3.38650000E+01    2.54938000E-02 
   5.09479000E+00    1.90373000E-01 
   1.15879000E+00    8.52161000E-01 
S    1    1.000000
   3.25840000E-01    1.00000000E+00 
S    1    1.000000
   1.02741000E-01    1.00000000E+00 
S    1    1.000000
   3.60000000E-02    1.00000000E+00 
P    1    1.000000
   7.50000000E-01    1.00000000E+00 

4    0
S    3    1.000000
   3.38650000E+01    2.54938000E-02 
   5.09479000E+00    1.90373000E-01 
   1.15879000E+00    8.52161000E-01 
S    1    1.000000
   3.25840000E-01    1.00000000E+00 
S    1    1.000000
   1.02741000E-01    1.00000000E+00 
S    1    1.000000
   3.60000000E-02    1.00000000E+00 
P    1    1.000000
   7.50000000E-01    1.00000000E+00 

5    0
S    6    1.000000
   4.56324000E+03    1.96665000E-03 
   6.82024000E+02    1.52306000E-02 
   1.54973000E+02    7.61269000E-02 
   4.44553000E+01    2.60801000E-01 
   1.30290000E+01    6.16462000E-01 
   1.82773000E+00    2.21006000E-01 
SP   3    1.000000
   2.09642000E+01    1.14660000E-01   4.02487000E-02 
   4.80331000E+00    9.19999000E-01   2.37594000E-01 
   1.45933000E+00   -3.03068000E-03   8.15854000E-01 
SP   1    1.000000
   4.83456000E-01    1.00000000E+00   1.00000000E+00 
SP   1    1.000000
   1.45585000E-01    1.00000000E+00   1.00000000E+00 
SP   1    1.000000
   4.38000000E-02    1.00000000E+00   1.00000000E+00 
D    1    1.000000
   6.26000000E-01    1.00000000E+00 

6    0
S    6    1.000000
   8.58850000E+03    1.89515000E-03 
   1.29723000E+03    1.43859000E-02 
   2.99296000E+02    7.07320000E-02 
   8.73771000E+01    2.40001000E-01 
   2.56789000E+01    5.94797000E-01 
   3.74004000E+00    2.80802000E-01 
SP   3    1.000000
   4.21175000E+01    1.13889000E-01   3.65114000E-02 
   9.62837000E+00    9.20811000E-01   2.37153000E-01 
   2.85332000E+00   -3.27447000E-03   8.19702000E-01 
SP   1    1.000000
   9.05661000E-01    1.00000000E+00   1.00000000E+00 
SP   1    1.000000
   2.55611000E-01    1.00000000E+00   1.00000000E+00 
SP   1    1.000000
   8.45000000E-02    1.00000000E+00   1.00000000E+00 
D    1    1.000000
   1.29200000E+00    1.00000000E+00 

7    0
S    6    1.000000
   4.56324000E+03    1.96665000E-03 
   6.82024000E+02    1.52306000E-02 
   1.54973000E+02    7.61269000E-02 
   4.44553000E+01    2.60801000E-01 
   1.30290000E+01    6.16462000E-01 
   1.82773000E+00    2.21006000E-01 
SP   3    1.000000
   2.09642000E+01    1.14660000E-01   4.02487000E-02 
   4.80331000E+00    9.19999000E-01   2.37594000E-01 
   1.45933000E+00   -3.03068000E-03   8.15854000E-01 
SP   1    1.000000
   4.83456000E-01    1.00000000E+00   1.00000000E+00 
SP   1    1.000000
   1.45585000E-01    1.00000000E+00   1.00000000E+00 
SP   1    1.000000
   4.38000000E-02    1.00000000E+00   1.00000000E+00 
D    1    1.000000
   6.26000000E-01    1.00000000E+00 

8    0
S    6    1.000000
   8.58850000E+03    1.89515000E-03 
   1.29723000E+03    1.43859000E-02 
   2.99296000E+02    7.07320000E-02 
   8.73771000E+01    2.40001000E-01 
   2.56789000E+01    5.94797000E-01 
   3.74004000E+00    2.80802000E-01 
SP   3    1.000000
   4.21175000E+01    1.13889000E-01   3.65114000E-02 
   9.62837000E+00    9.20811000E-01   2.37153000E-01 
   2.85332000E+00   -3.27447000E-03   8.19702000E-01 
SP   1    1.000000
   9.05661000E-01    1.00000000E+00   1.00000000E+00 
SP   1    1.000000
   2.55611000E-01    1.00000000E+00   1.00000000E+00 
SP   1    1.000000
   8.45000000E-02    1.00000000E+00   1.00000000E+00 
D    1    1.000000
   1.29200000E+00    1.00000000E+00 

9    0
S    6    1.000000
   6.29348000E+03    1.96979000E-03 
   9.49044000E+02    1.49613000E-02 
   2.18776000E+02    7.35006000E-02 
   6.36916000E+01    2.48937000E-01 
   1.88282000E+01    6.02460000E-01 
   2.72023000E+00    2.56202000E-01 
SP   3    1.000000
   3.06331000E+01    1.11906000E-01   3.83119000E-02 
   7.02614000E+00    9.21666000E-01   2.37403000E-01 
   2.11205000E+00   -2.56919000E-03   8.17592000E-01 
SP   1    1.000000
   6.84009000E-01    1.00000000E+00   1.00000000E+00 
SP   1    1.000000
   2.00878000E-01    1.00000000E+00   1.00000000E+00 
SP   1    1.000000
   6.39000000E-02    1.00000000E+00   1.00000000E+00 
D    1    1.000000
   9.13000000E-01    1.00000000E+00 

10    0
S    6    1.000000
   6.29348000E+03    1.96979000E-03 
   9.49044000E+02    1.49613000E-02 
   2.18776000E+02    7.35006000E-02 
   6.36916000E+01    2.48937000E-01 
   1.88282000E+01    6.02460000E-01 
   2.72023000E+00    2.56202000E-01 
SP   3    1.000000
   3.06331000E+01    1.11906000E-01   3.83119000E-02 
   7.02614000E+00    9.21666000E-01   2.37403000E-01 
   2.11205000E+00   -2.56919000E-03   8.17592000E-01 
SP   1    1.000000
   6.84009000E-01    1.00000000E+00   1.00000000E+00 
SP   1    1.000000
   2.00878000E-01    1.00000000E+00   1.00000000E+00 
SP   1    1.000000
   6.39000000E-02    1.00000000E+00   1.00000000E+00 
D    1    1.000000
   9.13000000E-01    1.00000000E+00 

11    0
S    6    1.000000
   4.56324000E+03    1.96665000E-03 
   6.82024000E+02    1.52306000E-02 
   1.54973000E+02    7.61269000E-02 
   4.44553000E+01    2.60801000E-01 
   1.30290000E+01    6.16462000E-01 
   1.82773000E+00    2.21006000E-01 
SP   3    1.000000
   2.09642000E+01    1.14660000E-01   4.02487000E-02 
   4.80331000E+00    9.19999000E-01   2.37594000E-01 
   1.45933000E+00   -3.03068000E-03   8.15854000E-01 
SP   1    1.000000
   4.83456000E-01    1.00000000E+00   1.00000000E+00 
SP   1    1.000000
   1.45585000E-01    1.00000000E+00   1.00000000E+00 
SP   1    1.000000
   4.38000000E-02    1.00000000E+00   1.00000000E+00 
D    1    1.000000
   6.26000000E-01    1.00000000E+00 

12    0
S    3    1.000000
   3.38650000E+01    2.54938000E-02 
   5.09479000E+00    1.90373000E-01 
   1.15879000E+00    8.52161000E-01 
S    1    1.000000
   3.25840000E-01    1.00000000E+00 
S    1    1.000000
   1.02741000E-01    1.00000000E+00 
S    1    1.000000
   3.60000000E-02    1.00000000E+00 
P    1    1.000000
   7.50000000E-01    1.00000000E+00 

[MO]
Sym=X
Ene= -0.046460
Spin=Alpha
Occup=1
     1   -8.190941398613e-06
     2   -1.740042071628e-05
     3   -5.135020327287e-06
     4   -3.171480480486e-05
     5   -6.056665785197e-16
     6    5.799275747050e-05
     7    1.904299790654e-06
     8   -3.124102234439e-05
     9    1.073895115371e-15
    10   -7.378820800071e-05
    11   -2.516524363313e-05
    12   -1.951071849487e-04
    13   -6.702914465261e-15
    14    3.512102909511e-03
    15    9.353583574289e-05
    16   -2.764500463189e-04
    17    1.037390997802e-14
    18    3.800818005458e-06
    19   -6.711440758511e-16
    20   -1.008713012450e-15
    21    1.376127254928e-05
    22    1.181927305035e-05
    23   -1.682585249675e-05
    24   -8.617663558842e-05
    25   -6.580767039668e-04
    26   -1.950804952834e-03
    27    8.723913620657e-06
    28    8.823091159497e-06
    29   -1.226068688485e-15
    30   -6.839761523302e-06
    31   -9.770616923383e-07
    32   -3.674814678231e-04
    33   -1.210691176868e-03
    34    8.943499784595e-06
    35    9.821452920358e-06
    36    1.606201036359e-15
    37   -1.702915639216e-07
    38    3.108985465203e-05
    39    5.916214316420e-04
    40    1.614086728225e-03
    41   -9.843147054806e-06
    42    3.709921155356e-06
    43    7.676206422216e-16
    44   -5.109728403845e-06
    45   -8.713540764606e-06
    46   -1.721781951709e-05
    47    1.049017562036e-05
    48    1.062841166994e-15
    49   -1.024295895526e-06
    50   -4.366904304550e-05
    51    1.553500472841e-05
    52   -1.247431623190e-15
    53    2.337972877551e-04
    54   -3.386236622203e-04
    55    1.092643320258e-04
    56   -1.147630906457e-15
    57    1.077782800953e-03
    58   -5.893659324104e-04
    59    3.498775162367e-04
    60    7.494205736684e-15
    61    2.547984862534e-05
    62    4.655744908510e-16
    63   -6.172006446010e-16
    64    1.040449890481e-05
    65    2.453722005756e-05
    66   -1.353740994441e-04
    67   -1.124557684680e-04
    68   -5.706091255396e-05
    69   -5.021123956817e-05
    70    2.605564357854e-16
    71   -1.521457559689e-04
    72   -7.147920137492e-05
    73   -6.747279349956e-05
    74   -1.496772283464e-15
    75   -2.397959511702e-04
    76   -1.124658898816e-04
    77    4.182940423935e-07
    78    3.190643521722e-15
    79   -1.074364445106e-03
    80   -1.167273152378e-04
    81    1.487234120384e-04
    82   -4.231708638754e-15
    83    3.530982535994e-06
    84   -5.182134067124e-16
    85   -2.793171167097e-16
    86   -4.365658909363e-06
    87   -2.509888754188e-06
    88   -8.867825610580e-06
    89   -6.771309227222e-05
    90   -1.421043295852e-05
    91    1.423961141450e-05
    92   -2.061233258720e-16
    93    2.208554222416e-04
    94    3.028872522936e-04
    95    2.497545553323e-04
    96    4.452877786401e-16
    97   -2.739197939488e-04
    98    3.801918151142e-06
    99    1.555285125025e-04
   100   -4.016315410611e-15
   101    2.776173464575e-03
   102   -8.842147365579e-04
   103   -1.462307523481e-03
   104    9.128333983111e-15
   105   -3.557304140422e-05
   106   -3.290300753806e-16
   107   -1.060097987949e-15
   108    9.287706542668e-05
   109    2.099827242574e-04
   110    5.515438497705e-01
   111    4.717399158334e-01
   112   -1.407818960136e-03
   113   -9.845875737440e-04
   114   -7.597112497600e-16
   115    5.178959314961e-03
   116    6.783397219321e-04
   117    4.544163617999e-04
   118   -2.601221777091e-16
   119   -8.924725256889e-04
   120   -2.418107102480e-04
   121   -2.202981878054e-04
   122    2.415405266323e-15
   123    1.509216743947e-03
   124   -9.206585017023e-05
   125    6.312443841725e-05
   126   -1.825334318904e-15
   127   -5.448998828740e-05
   128   -3.282235550255e-16
   129   -4.505229153238e-17
   130   -8.029374716364e-05
   131   -1.706420930707e-04
   132    1.814596259529e-05
   133    2.963105861574e-05
   134   -1.593008301629e-05
   135   -3.564602120026e-05
   136    9.302706701723e-16
   137   -1.061702168952e-04
   138    4.299950752307e-05
   139   -9.267797612819e-05
   140   -1.457465219981e-15
   141   -1.317443549011e-04
   142   -7.328888095795e-05
   143   -2.181507924412e-04
   144    3.101143155752e-15
   145   -8.828069748838e-04
   146   -4.972603122589e-04
   147   -8.853132003890e-04
   148   -4.647740864577e-15
   149   -1.537379434377e-06
   150    8.837965919147e-16
   151   -1.197172780860e-17
   152    1.908203390392e-05
   153   -3.473132250281e-05
   154   -8.752668240321e-06
   155   -1.555651082100e-05
   156   -4.690340445261e-05
   157   -4.766197511597e-05
   158    1.310158693162e-16
   159    3.943560523212e-05
   160   -6.989210035349e-05
   161   -6.843232666310e-05
   162   -2.804865697182e-16
   163    3.033681081237e-04
   164   -9.534065126955e-05
   165   -1.615767101215e-04
   166    3.442070455370e-15
   167   -1.724461068876e-04
   168   -6.902966710866e-04
   169   -3.093227978852e-04
   170   -5.286145592057e-15
   171    4.177323497496e-06
   172   -4.358367626469e-16
   173    1.668230613505e-16
   174   -5.624943985261e-06
   175   -1.260927010707e-05
   176    4.779118420564e-06
   177    3.152758455204e-06
   178   -6.620621754343e-06
   179   -3.451795105543e-05
   180    1.079373231329e-15
   181   -1.082432225496e-05
   182    2.020626898373e-05
   183    9.164215754805e-05
   184   -2.767696391205e-15
   185    2.506494593191e-04
   186   -2.405333531815e-04
   187   -5.394590107136e-06
   188    8.714728239705e-15
   189   -4.714226016386e-03
   190    6.931161689297e-04
   191   -3.834584146561e-04
   192   -1.564969488379e-14
   193   -2.169242240926e-06
   194   -3.840506994512e-16
   195    3.260138059858e-16
   196   -5.688562277960e-05
   197    3.532930533441e-05
   198    5.521373252769e-07
   199    7.803332618861e-05
   200    2.379115249787e-05
   201    1.019252619866e-04
   202   -2.400019221362e-05
   203    1.177692892911e-05
   204   -3.086553657227e-16
Sym=X
Ene= 0.046460
Spin=Alpha
Occup=0
     1   -6.967100750755e-08
     2   -8.305179882571e-07
     3    3.009217949199e-06
     4   -3.890443011657e-06
     5    4.676630482147e-16
     6    6.682335653471e-07
     7   -2.213401225334e-05
     8    2.090844585697e-05
     9   -8.620295341622e-16
    10    2.553638259445e-04
    11   -6.831116515317e-05
    12   -5.577186714419e-06
    13    2.093365387275e-16
    14   -2.297119390179e-04
    15   -5.969583584499e-04
    16   -2.670382781047e-05
    17   -6.971534468606e-15
    18   -2.169740217496e-06
    19   -1.439579255360e-16
    20    5.581083378778e-16
    21   -3.279197845594e-06
    22   -5.447725667257e-06
    23   -4.661077299769e-06
    24   -5.427093293314e-05
    25   -1.105280343805e-04
    26   -2.529787329576e-04
    27   -1.037893384208e-05
    28    8.072172082948e-06
    29   -7.157372917254e-16
    30    4.009104150621e-06
    31   -3.708031455114e-05
    32    9.321026711889e-06
    33   -4.226917165141e-05
    34    1.763395795128e-06
    35   -4.191683061439e-06
    36    1.179088085620e-15
    37   -2.070364124561e-06
    38   -6.850540526421e-05
    39   -2.337414658461e-05
    40   -3.192381920773e-04
    41   -1.237154450515e-05
    42    8.052384852679e-06
    43   -4.731009971611e-16
    44   -9.369657932492e-06
    45    7.762124850836e-05
    46    4.248841928877e-05
    47   -2.678355253970e-05
    48   -1.843366134931e-15
    49   -2.969373058282e-04
    50    3.862311146192e-04
    51   -2.577125557945e-04
    52    2.794833657461e-15
    53   -1.053048143870e-05
    54    4.316927895125e-04
    55   -3.640341698242e-04
    56   -4.575886420005e-15
    57   -6.930845679937e-04
    58   -6.915859293495e-04
    59    5.062320220597e-04
    60   -1.653958858550e-15
    61    6.841934807973e-05
    62   -8.345569582512e-16
    63    9.081294070028e-17
    64   -9.063390797805e-05
    65    2.058822282313e-04
    66   -5.514416880436e-01
    67   -4.717138884466e-01
    68   -1.611982146041e-03
    69    1.109890435339e-03
    70   -8.382012898853e-16
    71   -5.554451247542e-03
    72    7.081027233141e-04
    73   -4.885998387103e-04
    74    7.182382112970e-16
    75    1.429097865821e-03
    76   -1.275789383590e-04
    77    1.031013919666e-04
    78   -7.498153457281e-16
    79   -1.539384000909e-03
    80   -6.824776976958e-05
    81    1.778352103098e-06
    82    1.153156330856e-15
    83    8.801155095606e-05
    84   -1.286497605688e-16
    85    1.094659603062e-15
    86    6.591520110945e-05
    87   -1.124892922061e-04
    88    3.106215277282e-07
    89   -6.716870117721e-07
    90    3.609379998191e-06
    91   -2.444671895907e-06
    92    7.547298619560e-16
    93    3.430742732621e-06
    94   -2.012595766097e-05
    95    1.602118681093e-05
    96    1.664873557252e-16
    97    2.320251760106e-04
    98   -9.518659693422e-05
    99    7.499879675267e-05
   100   -6.709336946257e-16
   101   -6.991820052983e-04
   102   -1.551281784799e-04
   103    7.464374548260e-04
   104   -2.715935354583e-15
   105   -3.571385823291e-06
   106    3.136391396283e-16
   107    3.099020543351e-16
   108    7.653988833766e-06
   109   -2.818922400807e-07
   110   -1.574715809065e-04
   111   -1.528668598723e-04
   112    1.458189677621e-07
   113    6.936687634424e-07
   114   -8.881642451259e-16
   115    1.386945509634e-06
   116   -7.744209608948e-08
   117   -1.322103001099e-06
   118    2.188579466520e-15
   119   -4.032570776882e-05
   120    1.536659385228e-05
   121    8.360074021894e-06
   122   -1.671004404673e-15
   123    1.880054753298e-04
   124   -9.763830213731e-05
   125   -6.046796676172e-05
   126    6.248577467116e-16
   127   -5.013265215104e-07
   128    2.628060415540e-16
   129   -1.586102583917e-16
   130   -5.844814283329e-07
   131   -6.307017705986e-07
   132   -1.883021023691e-07
   133   -1.123963432372e-06
   134   -1.286672681711e-05
   135   -3.049840210179e-06
   136    3.936702688435e-16
   137    2.696349810851e-05
   138    3.815268576150e-05
   139   -4.900686984142e-06
   140   -1.810927911544e-15
   141   -2.605268333862e-04
   142   -8.656054971352e-05
   143    2.585900175003e-04
   144    3.518259865274e-15
   145    5.207429816946e-06
   146   -6.523676432208e-04
   147    2.188584635106e-05
   148    1.162078541271e-15
   149    7.889340980624e-06
   150    2.368543279146e-16
   151    1.130068722959e-15
   152   -2.193832369598e-05
   153   -1.086534476012e-05
   154    8.349046650100e-07
   155    6.930090106664e-07
   156   -4.435940134286e-06
   157    8.863974966917e-06
   158   -8.868498280479e-16
   159    2.398594486540e-05
   160    2.425561624805e-05
   161   -3.524600949670e-05
   162    2.083254961842e-16
   163   -3.298451218676e-04
   164   -2.280186805141e-04
   165   -9.488912112044e-05
   166    9.419769784233e-16
   167    5.444061948217e-05
   168   -3.366080606690e-04
   169    4.013324654851e-04
   170    5.357766665006e-15
   171    1.015410863823e-05
   172   -2.054178600358e-16
   173   -3.100374867679e-16
   174    2.170299447339e-05
   175    1.442551708942e-05
   176   -7.094467002567e-08
   177    6.692667133964e-07
   178   -1.464755981405e-06
   179    2.930023999643e-07
   180    8.590038583391e-17
   181   -1.034952775846e-05
   182    1.168102882601e-05
   183   -5.843386159657e-06
   184    1.304496702185e-15
   185    5.007195176339e-05
   186   -1.893041548413e-05
   187    2.766993292340e-05
   188   -2.864589268643e-15
   189    2.738802802152e-03
   190   -3.750613778478e-04
   191    2.582220296480e-04
   192    7.282768615356e-15
   193   -3.815740403554e-06
   194    4.791628587990e-16
   195    3.591068530797e-17
   196   -1.755471124432e-06
   197    3.667014256943e-06
   198   -4.232318443182e-07
   199    2.203182960880e-06
   200    6.329179576656e-06
   201    1.214955835981e-04
   202    3.830870614965e-07
   203   -7.384621861313e-07
   204    9.807477979443e-16
[5D]
