[Molden Format]
[Atoms] (Angs)
  C      1    6     -0.00754183     -1.75895763      0.00000000
  H      2    1     -2.09769850     -1.41880678     -0.00000000
  H      3    1     -0.13527422     -2.83956838     -0.00000000
  H      4    1      0.04053511      2.02026369      0.00000000
  C      5    6     -1.22066484      0.39918184     -0.00000000
  O      6    8     -2.25210141      1.05663720     -0.00000000
  C      7    6      1.24009552      0.27789184      0.00000000
  O      8    8      2.33767996      1.06122493      0.00000000
  N      9    7      0.03634586      1.00852936      0.00000000
  N     10    7     -1.18738304     -0.97903470     -0.00000000
  C     11    6      1.22288875     -1.12258096      0.00000000
  H     12    1      2.15640383     -1.68445878      0.00000000
[GTO]
1    0
S    6    1.000000
   4.56324000E+03    1.96665000E-03 
   6.82024000E+02    1.52306000E-02 
   1.54973000E+02    7.61269000E-02 
   4.44553000E+01    2.60801000E-01 
   1.30290000E+01    6.16462000E-01 
   1.82773000E+00    2.21006000E-01 
SP   3    1.000000
   2.09642000E+01    1.14660000E-01   4.02487000E-02 
   4.80331000E+00    9.19999000E-01   2.37594000E-01 
   1.45933000E+00   -3.03068000E-03   8.15854000E-01 
SP   1    1.000000
   4.83456000E-01    1.00000000E+00   1.00000000E+00 
SP   1    1.000000
   1.45585000E-01    1.00000000E+00   1.00000000E+00 
SP   1    1.000000
   4.38000000E-02    1.00000000E+00   1.00000000E+00 
D    1    1.000000
   6.26000000E-01    1.00000000E+00 

2    0
S    3    1.000000
   3.38650000E+01    2.54938000E-02 
   5.09479000E+00    1.90373000E-01 
   1.15879000E+00    8.52161000E-01 
S    1    1.000000
   3.25840000E-01    1.00000000E+00 
S    1    1.000000
   1.02741000E-01    1.00000000E+00 
S    1    1.000000
   3.60000000E-02    1.00000000E+00 
P    1    1.000000
   7.50000000E-01    1.00000000E+00 

3    0
S    3    1.000000
   3.38650000E+01    2.54938000E-02 
   5.09479000E+00    1.90373000E-01 
   1.15879000E+00    8.52161000E-01 
S    1    1.000000
   3.25840000E-01    1.00000000E+00 
S    1    1.000000
   1.02741000E-01    1.00000000E+00 
S    1    1.000000
   3.60000000E-02    1.00000000E+00 
P    1    1.000000
   7.50000000E-01    1.00000000E+00 

4    0
S    3    1.000000
   3.38650000E+01    2.54938000E-02 
   5.09479000E+00    1.90373000E-01 
   1.15879000E+00    8.52161000E-01 
S    1    1.000000
   3.25840000E-01    1.00000000E+00 
S    1    1.000000
   1.02741000E-01    1.00000000E+00 
S    1    1.000000
   3.60000000E-02    1.00000000E+00 
P    1    1.000000
   7.50000000E-01    1.00000000E+00 

5    0
S    6    1.000000
   4.56324000E+03    1.96665000E-03 
   6.82024000E+02    1.52306000E-02 
   1.54973000E+02    7.61269000E-02 
   4.44553000E+01    2.60801000E-01 
   1.30290000E+01    6.16462000E-01 
   1.82773000E+00    2.21006000E-01 
SP   3    1.000000
   2.09642000E+01    1.14660000E-01   4.02487000E-02 
   4.80331000E+00    9.19999000E-01   2.37594000E-01 
   1.45933000E+00   -3.03068000E-03   8.15854000E-01 
SP   1    1.000000
   4.83456000E-01    1.00000000E+00   1.00000000E+00 
SP   1    1.000000
   1.45585000E-01    1.00000000E+00   1.00000000E+00 
SP   1    1.000000
   4.38000000E-02    1.00000000E+00   1.00000000E+00 
D    1    1.000000
   6.26000000E-01    1.00000000E+00 

6    0
S    6    1.000000
   8.58850000E+03    1.89515000E-03 
   1.29723000E+03    1.43859000E-02 
   2.99296000E+02    7.07320000E-02 
   8.73771000E+01    2.40001000E-01 
   2.56789000E+01    5.94797000E-01 
   3.74004000E+00    2.80802000E-01 
SP   3    1.000000
   4.21175000E+01    1.13889000E-01   3.65114000E-02 
   9.62837000E+00    9.20811000E-01   2.37153000E-01 
   2.85332000E+00   -3.27447000E-03   8.19702000E-01 
SP   1    1.000000
   9.05661000E-01    1.00000000E+00   1.00000000E+00 
SP   1    1.000000
   2.55611000E-01    1.00000000E+00   1.00000000E+00 
SP   1    1.000000
   8.45000000E-02    1.00000000E+00   1.00000000E+00 
D    1    1.000000
   1.29200000E+00    1.00000000E+00 

7    0
S    6    1.000000
   4.56324000E+03    1.96665000E-03 
   6.82024000E+02    1.52306000E-02 
   1.54973000E+02    7.61269000E-02 
   4.44553000E+01    2.60801000E-01 
   1.30290000E+01    6.16462000E-01 
   1.82773000E+00    2.21006000E-01 
SP   3    1.000000
   2.09642000E+01    1.14660000E-01   4.02487000E-02 
   4.80331000E+00    9.19999000E-01   2.37594000E-01 
   1.45933000E+00   -3.03068000E-03   8.15854000E-01 
SP   1    1.000000
   4.83456000E-01    1.00000000E+00   1.00000000E+00 
SP   1    1.000000
   1.45585000E-01    1.00000000E+00   1.00000000E+00 
SP   1    1.000000
   4.38000000E-02    1.00000000E+00   1.00000000E+00 
D    1    1.000000
   6.26000000E-01    1.00000000E+00 

8    0
S    6    1.000000
   8.58850000E+03    1.89515000E-03 
   1.29723000E+03    1.43859000E-02 
   2.99296000E+02    7.07320000E-02 
   8.73771000E+01    2.40001000E-01 
   2.56789000E+01    5.94797000E-01 
   3.74004000E+00    2.80802000E-01 
SP   3    1.000000
   4.21175000E+01    1.13889000E-01   3.65114000E-02 
   9.62837000E+00    9.20811000E-01   2.37153000E-01 
   2.85332000E+00   -3.27447000E-03   8.19702000E-01 
SP   1    1.000000
   9.05661000E-01    1.00000000E+00   1.00000000E+00 
SP   1    1.000000
   2.55611000E-01    1.00000000E+00   1.00000000E+00 
SP   1    1.000000
   8.45000000E-02    1.00000000E+00   1.00000000E+00 
D    1    1.000000
   1.29200000E+00    1.00000000E+00 

9    0
S    6    1.000000
   6.29348000E+03    1.96979000E-03 
   9.49044000E+02    1.49613000E-02 
   2.18776000E+02    7.35006000E-02 
   6.36916000E+01    2.48937000E-01 
   1.88282000E+01    6.02460000E-01 
   2.72023000E+00    2.56202000E-01 
SP   3    1.000000
   3.06331000E+01    1.11906000E-01   3.83119000E-02 
   7.02614000E+00    9.21666000E-01   2.37403000E-01 
   2.11205000E+00   -2.56919000E-03   8.17592000E-01 
SP   1    1.000000
   6.84009000E-01    1.00000000E+00   1.00000000E+00 
SP   1    1.000000
   2.00878000E-01    1.00000000E+00   1.00000000E+00 
SP   1    1.000000
   6.39000000E-02    1.00000000E+00   1.00000000E+00 
D    1    1.000000
   9.13000000E-01    1.00000000E+00 

10    0
S    6    1.000000
   6.29348000E+03    1.96979000E-03 
   9.49044000E+02    1.49613000E-02 
   2.18776000E+02    7.35006000E-02 
   6.36916000E+01    2.48937000E-01 
   1.88282000E+01    6.02460000E-01 
   2.72023000E+00    2.56202000E-01 
SP   3    1.000000
   3.06331000E+01    1.11906000E-01   3.83119000E-02 
   7.02614000E+00    9.21666000E-01   2.37403000E-01 
   2.11205000E+00   -2.56919000E-03   8.17592000E-01 
SP   1    1.000000
   6.84009000E-01    1.00000000E+00   1.00000000E+00 
SP   1    1.000000
   2.00878000E-01    1.00000000E+00   1.00000000E+00 
SP   1    1.000000
   6.39000000E-02    1.00000000E+00   1.00000000E+00 
D    1    1.000000
   9.13000000E-01    1.00000000E+00 

11    0
S    6    1.000000
   4.56324000E+03    1.96665000E-03 
   6.82024000E+02    1.52306000E-02 
   1.54973000E+02    7.61269000E-02 
   4.44553000E+01    2.60801000E-01 
   1.30290000E+01    6.16462000E-01 
   1.82773000E+00    2.21006000E-01 
SP   3    1.000000
   2.09642000E+01    1.14660000E-01   4.02487000E-02 
   4.80331000E+00    9.19999000E-01   2.37594000E-01 
   1.45933000E+00   -3.03068000E-03   8.15854000E-01 
SP   1    1.000000
   4.83456000E-01    1.00000000E+00   1.00000000E+00 
SP   1    1.000000
   1.45585000E-01    1.00000000E+00   1.00000000E+00 
SP   1    1.000000
   4.38000000E-02    1.00000000E+00   1.00000000E+00 
D    1    1.000000
   6.26000000E-01    1.00000000E+00 

12    0
S    3    1.000000
   3.38650000E+01    2.54938000E-02 
   5.09479000E+00    1.90373000E-01 
   1.15879000E+00    8.52161000E-01 
S    1    1.000000
   3.25840000E-01    1.00000000E+00 
S    1    1.000000
   1.02741000E-01    1.00000000E+00 
S    1    1.000000
   3.60000000E-02    1.00000000E+00 
P    1    1.000000
   7.50000000E-01    1.00000000E+00 

[MO]
Sym=X
Ene= -0.494935
Spin=Alpha
Occup=1
     1    1.410317757308e-03
     2    2.392574434368e-03
     3   -1.412156009590e-02
     4    1.935989726240e-02
     5   -1.318891566841e-14
     6   -7.780976224325e-03
     7   -1.781479643994e-02
     8    3.030168784970e-02
     9   -2.554740953063e-14
    10   -7.220175417018e-02
    11   -4.766132041600e-02
    12    7.348746490317e-02
    13   -8.203225975923e-14
    14    2.352958455334e+00
    15    3.980803753564e-01
    16    1.008150055869e+00
    17    7.258475661986e-13
    18    6.131024473982e-03
    19    8.973882002307e-15
    20   -1.091747465848e-15
    21   -5.239714329034e-03
    22    6.987948983680e-04
    23    2.503417833406e-03
    24    2.555003568966e-02
    25    3.953520825025e-01
    26    9.847656281331e-01
    27   -1.535356289835e-02
    28   -4.906644481602e-03
    29   -5.128573956717e-15
    30   -5.837396003766e-03
    31   -6.001279607381e-03
    32    9.158947628465e-02
    33    5.619262408895e-01
    34   -3.537208144978e-03
    35   -1.853618290154e-03
    36   -2.365135680997e-15
    37    1.690968763896e-03
    38    9.164132699252e-03
    39    1.717075020959e-01
    40    3.054868368993e-01
    41   -1.833629220606e-03
    42    7.369553581692e-03
    43   -1.997940429649e-15
    44   -4.510927950820e-03
    45   -6.976154028926e-03
    46   -5.592008212548e-03
    47   -5.680327107799e-04
    48    2.336866967769e-14
    49   -1.473445784595e-02
    50   -1.451925707805e-02
    51    3.883921308444e-03
    52    3.899293607117e-14
    53    2.531386839120e-01
    54   -1.130203949696e-01
    55    4.476410888285e-02
    56    1.142233650129e-13
    57    2.600427477224e-01
    58   -6.452306515151e-01
    59    4.133148544376e-01
    60   -6.414499496067e-13
    61    2.423852366589e-02
    62   -1.096433848006e-15
    63   -5.718813209574e-15
    64    4.796760590155e-05
    65   -6.841811155103e-03
    66    2.311394114317e-02
    67    4.006148790561e-02
    68    1.403756155120e-02
    69    1.222022681462e-02
    70   -2.156768460966e-14
    71   -1.388268889719e-01
    72    1.610029905488e-02
    73    1.832174351669e-02
    74   -2.343449416375e-14
    75   -2.702021948704e-01
    76   -2.770843698334e-02
    77    4.648647253768e-02
    78   -9.876433028480e-14
    79   -4.006954074540e-01
    80    7.804179058989e-02
    81   -7.575304654529e-02
    82    2.889178162403e-13
    83    3.882003585117e-03
    84    4.628965614199e-16
    85   -4.166225711407e-16
    86   -7.111790073139e-04
    87    3.518597291995e-03
    88    8.637595318292e-04
    89    1.578811484142e-03
    90   -6.690149922926e-03
    91    1.235055470944e-02
    92   -1.568416392054e-14
    93   -8.105656805080e-03
    94   -9.769226546244e-03
    95    1.562424603818e-02
    96   -2.554204921864e-14
    97   -6.977940165938e-03
    98   -2.509742398878e-03
    99    2.381922836466e-03
   100   -2.177452720328e-14
   101    2.311376763391e+00
   102   -2.618931399581e-01
   103   -4.744569443423e-01
   104    1.349979125458e-12
   105    4.630072924894e-03
   106    4.479520263477e-15
   107   -6.140186781734e-15
   108    2.204349479477e-03
   109    7.981054153142e-04
   110    1.601934464667e-03
   111    2.785762058375e-03
   112    5.441387395684e-03
   113   -8.079335494323e-03
   114    1.162692077622e-14
   115   -9.937229937962e-03
   116    7.330733371002e-03
   117   -1.221586026290e-02
   118    7.898995077011e-15
   119   -6.466362424695e-04
   120    1.241326530082e-02
   121   -1.474763993947e-02
   122    1.011211190913e-13
   123   -8.061538142924e-02
   124    1.311707866173e-02
   125    1.433782270618e-02
   126   -4.067954170384e-13
   127    2.898390500802e-04
   128   -7.278699344323e-16
   129   -9.660076251082e-17
   130    8.024769448345e-05
   131   -2.335345054981e-04
   132    1.493331303552e-02
   133    2.587896724390e-02
   134    1.968883285350e-02
   135   -6.221944843989e-03
   136   -7.013588347340e-15
   137   -8.274108106585e-02
   138    3.185944099834e-02
   139   -7.764522710493e-03
   140   -1.249867981021e-14
   141   -1.794243755583e-01
   142    6.822765793138e-02
   143   -1.929453387607e-02
   144   -2.150964207211e-14
   145   -5.375123428188e-01
   146    5.747805163784e-02
   147   -1.841712450504e-01
   148   -1.591538808761e-13
   149    3.849306918384e-03
   150   -4.829014037631e-15
   151   -8.238845649461e-16
   152   -1.072473100175e-03
   153   -8.855277169079e-04
   154    2.337578237995e-02
   155    4.039503757800e-02
   156    3.482496622775e-02
   157    4.185348144586e-03
   158   -6.209724743112e-15
   159   -1.255802082929e-01
   160    5.468467730093e-02
   161    2.945780921727e-03
   162   -7.660276806476e-15
   163   -3.445606878464e-01
   164    9.416363905538e-02
   165   -3.815105230751e-03
   166   -2.019000062698e-14
   167   -9.248155172900e-01
   168    3.772505091758e-01
   169    6.639124662915e-02
   170    6.681351355705e-15
   171    4.135022072541e-03
   172   -2.155720167509e-16
   173    5.768944419904e-15
   174    3.418731524908e-03
   175    1.157885231893e-03
   176    5.219542446848e-03
   177    8.878047051736e-03
   178    3.611372829611e-03
   179   -3.249649415277e-03
   180    2.265748934036e-14
   181   -2.469448130900e-02
   182    1.793752536948e-03
   183   -5.140869467269e-03
   184    3.259484791223e-14
   185   -7.908559780294e-02
   186    4.582460270286e-02
   187   -4.361009058096e-02
   188    1.518956651627e-13
   189   -4.202091541742e+00
   190    8.428690290263e-01
   191   -4.993443551558e-01
   192   -1.349788091106e-12
   193    2.718719361632e-03
   194   -4.349569791561e-16
   195   -1.835871650069e-15
   196    4.971601231988e-03
   197   -4.858924561983e-03
   198    7.309844411919e-03
   199    7.789246167279e-03
   200    1.756771146413e-03
   201   -1.723091218621e-01
   202    1.696526036525e-03
   203   -4.581123685159e-04
   204   -4.177851053551e-15
Sym=X
Ene= 0.494935
Spin=Alpha
Occup=0
     1    6.423941352489e-03
     2    1.095249938877e-02
     3    3.862972302012e-03
     4    2.352888286770e-02
     5   -8.989003853265e-16
     6   -2.847927549970e-02
     7    5.008274732695e-03
     8    3.650253041515e-02
     9    2.180921600405e-14
    10   -2.195021518344e-01
    11   -4.297511001402e-02
    12   -1.272099833865e-02
    13    3.211357445124e-14
    14   -2.946182976354e+00
    15    1.111762901918e-01
    16   -2.824125319831e-01
    17    4.688259773273e-14
    18   -1.623860621477e-03
    19   -2.235198309514e-15
    20    6.092010220705e-15
    21   -1.273538488949e-02
    22   -5.502914878840e-04
    23    1.376270054595e-02
    24    7.589902090192e-02
    25    4.515776608248e-01
    26    1.593608661439e+00
    27   -8.574022966985e-03
    28   -5.598307262752e-03
    29    3.076734040237e-15
    30    4.886810977169e-03
    31   -4.241426891837e-03
    32    1.787517691405e-01
    33    7.147654001768e-01
    34   -3.253166736749e-03
    35   -7.669279761592e-03
    36    2.929614593073e-16
    37    5.126037151151e-03
    38    1.381454516202e-02
    39   -4.261928535800e-01
    40   -1.245863842315e+00
    41    5.983390869619e-03
    42   -1.209975150614e-02
    43    4.564978309061e-15
    44    3.864959259347e-03
    45    6.308644650035e-03
    46    1.532256937735e-02
    47   -9.946930948833e-03
    48    6.917169007631e-15
    49    2.416378782252e-03
    50    3.238824255041e-02
    51   -1.402471778307e-02
    52   -3.872801642494e-14
    53   -3.066390387216e-01
    54    1.480093629888e-01
    55   -9.566870162205e-02
    56    1.212353974167e-13
    57   -1.029466421633e+00
    58    4.824332476050e-01
    59   -3.988770417925e-01
    60   -4.230768767114e-13
    61   -1.649589853301e-02
    62   -3.917022106940e-15
    63   -1.524510430754e-15
    64   -4.933799744140e-03
    65   -1.394796690866e-02
    66   -1.466842610010e-02
    67   -2.525607807891e-02
    68    3.076292368245e-02
    69    2.483077933442e-02
    70   -5.083019137579e-15
    71    8.672748764122e-02
    72    4.063991596714e-02
    73    3.337186585517e-02
    74    8.474363479966e-15
    75    2.051666638544e-01
    76    9.017393782306e-02
    77    1.118418258633e-04
    78   -6.081183930223e-14
    79    6.103560049151e-01
    80   -3.225503094000e-02
    81   -8.261865555699e-02
    82    2.220845901077e-13
    83   -2.226825649710e-03
    84   -9.049469834055e-16
    85   -1.667703375682e-16
    86    2.986958085554e-03
    87    1.242204435201e-03
    88    5.401831946907e-03
    89    9.596603950529e-03
    90    1.254763023288e-02
    91   -3.892127762887e-03
    92    1.370567481983e-14
    93   -3.390315951501e-02
    94    2.489245635251e-02
    95   -5.380311582167e-03
    96    1.145023659068e-15
    97   -3.250648401286e-02
    98    2.799208984009e-02
    99    3.849639314386e-02
   100    1.234388562257e-13
   101   -3.967772320969e+00
   102    7.363162659139e-02
   103    1.500565659463e+00
   104    8.943660292089e-13
   105   -7.120410795604e-03
   106   -1.022346334515e-15
   107    2.197921130828e-17
   108   -5.213841226992e-03
   109    2.975478748138e-04
   110   -2.228231920632e-03
   111   -3.872491592174e-03
   112   -6.119999405911e-03
   113    4.240817883369e-03
   114    5.853020755374e-15
   115    1.415376000530e-02
   116   -8.235693427746e-03
   117    5.114600716852e-03
   118   -7.744713377799e-15
   119   -9.813405530031e-04
   120   -6.842708809884e-03
   121    1.518687187000e-02
   122    6.313139639773e-14
   123    2.865199154758e-02
   124    4.994184946729e-04
   125   -7.863531190882e-02
   126   -4.006198909808e-13
   127   -3.037302344163e-04
   128   -1.131450132893e-15
   129   -1.486166084457e-15
   130   -7.705137197256e-05
   131   -1.223708518419e-04
   132   -1.351449468080e-02
   133   -2.334856808060e-02
   134   -2.964994543170e-04
   135    3.263042108684e-02
   136    1.579799851305e-15
   137    7.303906496022e-02
   138   -4.512511838853e-03
   139    5.029404014561e-02
   140   -5.427767229591e-16
   141    2.072355825639e-01
   142   -1.589965305805e-02
   143    6.902616105931e-02
   144    1.331997530401e-14
   145    4.975646596306e-01
   146   -1.011973666066e-01
   147    6.603976734309e-01
   148   -3.429229307182e-13
   149   -3.981200695724e-03
   150    6.297346734218e-16
   151    4.235214547503e-17
   152   -5.650919464199e-04
   153    4.877730356572e-03
   154    7.123489299902e-03
   155    1.217021169830e-02
   156    3.687742637928e-02
   157    3.662063005138e-02
   158   -3.670137042761e-15
   159   -3.393169129232e-02
   160    5.879477533654e-02
   161    5.470224258756e-02
   162    3.008451990718e-15
   163   -1.605795690632e-01
   164    1.236231049744e-01
   165    1.215924198186e-01
   166   -5.175498872197e-14
   167    3.088977009586e-01
   168    4.698974392583e-01
   169    2.273032344883e-01
   170    1.226659994937e-13
   171   -2.822343364916e-03
   172   -1.549002808262e-15
   173    1.506241406491e-15
   174    3.415855221072e-03
   175    7.530740841718e-03
   176   -2.109522758985e-03
   177   -3.506670349946e-03
   178   -9.375975533934e-05
   179    1.104729078579e-02
   180   -7.925263527867e-15
   181    5.660375163444e-03
   182   -1.597889738779e-03
   183    1.050798109221e-02
   184   -8.609503093873e-15
   185    1.485428583818e-01
   186   -8.362621109366e-02
   187    6.445741376657e-02
   188   -9.814907121087e-14
   189    5.352710628908e+00
   190   -5.420111164629e-01
   191    1.201902133506e+00
   192   -3.393683245098e-13
   193   -2.108171047809e-03
   194   -2.470800927774e-15
   195    3.641351422997e-15
   196    4.898862235451e-03
   197    3.823375567402e-04
   198    1.160992604666e-03
   199    1.424792186147e-02
   200    5.257550069761e-02
   201    2.108603181136e-01
   202    5.492904880550e-04
   203    7.477315047503e-04
   204   -1.780830000185e-15
[5D]
