[Molden Format]
[Atoms] (Angs)
  C      1    6     -0.00754183     -1.75895763      0.00000000
  H      2    1     -2.09769850     -1.41880678     -0.00000000
  H      3    1     -0.13527422     -2.83956838     -0.00000000
  H      4    1      0.04053511      2.02026369      0.00000000
  C      5    6     -1.22066484      0.39918184     -0.00000000
  O      6    8     -2.25210141      1.05663720     -0.00000000
  C      7    6      1.24009552      0.27789184      0.00000000
  O      8    8      2.33767996      1.06122493      0.00000000
  N      9    7      0.03634586      1.00852936      0.00000000
  N     10    7     -1.18738304     -0.97903470     -0.00000000
  C     11    6      1.22288875     -1.12258096      0.00000000
  H     12    1      2.15640383     -1.68445878      0.00000000
[GTO]
1    0
S    6    1.000000
   4.56324000E+03    1.96665000E-03 
   6.82024000E+02    1.52306000E-02 
   1.54973000E+02    7.61269000E-02 
   4.44553000E+01    2.60801000E-01 
   1.30290000E+01    6.16462000E-01 
   1.82773000E+00    2.21006000E-01 
SP   3    1.000000
   2.09642000E+01    1.14660000E-01   4.02487000E-02 
   4.80331000E+00    9.19999000E-01   2.37594000E-01 
   1.45933000E+00   -3.03068000E-03   8.15854000E-01 
SP   1    1.000000
   4.83456000E-01    1.00000000E+00   1.00000000E+00 
SP   1    1.000000
   1.45585000E-01    1.00000000E+00   1.00000000E+00 
SP   1    1.000000
   4.38000000E-02    1.00000000E+00   1.00000000E+00 
D    1    1.000000
   6.26000000E-01    1.00000000E+00 

2    0
S    3    1.000000
   3.38650000E+01    2.54938000E-02 
   5.09479000E+00    1.90373000E-01 
   1.15879000E+00    8.52161000E-01 
S    1    1.000000
   3.25840000E-01    1.00000000E+00 
S    1    1.000000
   1.02741000E-01    1.00000000E+00 
S    1    1.000000
   3.60000000E-02    1.00000000E+00 
P    1    1.000000
   7.50000000E-01    1.00000000E+00 

3    0
S    3    1.000000
   3.38650000E+01    2.54938000E-02 
   5.09479000E+00    1.90373000E-01 
   1.15879000E+00    8.52161000E-01 
S    1    1.000000
   3.25840000E-01    1.00000000E+00 
S    1    1.000000
   1.02741000E-01    1.00000000E+00 
S    1    1.000000
   3.60000000E-02    1.00000000E+00 
P    1    1.000000
   7.50000000E-01    1.00000000E+00 

4    0
S    3    1.000000
   3.38650000E+01    2.54938000E-02 
   5.09479000E+00    1.90373000E-01 
   1.15879000E+00    8.52161000E-01 
S    1    1.000000
   3.25840000E-01    1.00000000E+00 
S    1    1.000000
   1.02741000E-01    1.00000000E+00 
S    1    1.000000
   3.60000000E-02    1.00000000E+00 
P    1    1.000000
   7.50000000E-01    1.00000000E+00 

5    0
S    6    1.000000
   4.56324000E+03    1.96665000E-03 
   6.82024000E+02    1.52306000E-02 
   1.54973000E+02    7.61269000E-02 
   4.44553000E+01    2.60801000E-01 
   1.30290000E+01    6.16462000E-01 
   1.82773000E+00    2.21006000E-01 
SP   3    1.000000
   2.09642000E+01    1.14660000E-01   4.02487000E-02 
   4.80331000E+00    9.19999000E-01   2.37594000E-01 
   1.45933000E+00   -3.03068000E-03   8.15854000E-01 
SP   1    1.000000
   4.83456000E-01    1.00000000E+00   1.00000000E+00 
SP   1    1.000000
   1.45585000E-01    1.00000000E+00   1.00000000E+00 
SP   1    1.000000
   4.38000000E-02    1.00000000E+00   1.00000000E+00 
D    1    1.000000
   6.26000000E-01    1.00000000E+00 

6    0
S    6    1.000000
   8.58850000E+03    1.89515000E-03 
   1.29723000E+03    1.43859000E-02 
   2.99296000E+02    7.07320000E-02 
   8.73771000E+01    2.40001000E-01 
   2.56789000E+01    5.94797000E-01 
   3.74004000E+00    2.80802000E-01 
SP   3    1.000000
   4.21175000E+01    1.13889000E-01   3.65114000E-02 
   9.62837000E+00    9.20811000E-01   2.37153000E-01 
   2.85332000E+00   -3.27447000E-03   8.19702000E-01 
SP   1    1.000000
   9.05661000E-01    1.00000000E+00   1.00000000E+00 
SP   1    1.000000
   2.55611000E-01    1.00000000E+00   1.00000000E+00 
SP   1    1.000000
   8.45000000E-02    1.00000000E+00   1.00000000E+00 
D    1    1.000000
   1.29200000E+00    1.00000000E+00 

7    0
S    6    1.000000
   4.56324000E+03    1.96665000E-03 
   6.82024000E+02    1.52306000E-02 
   1.54973000E+02    7.61269000E-02 
   4.44553000E+01    2.60801000E-01 
   1.30290000E+01    6.16462000E-01 
   1.82773000E+00    2.21006000E-01 
SP   3    1.000000
   2.09642000E+01    1.14660000E-01   4.02487000E-02 
   4.80331000E+00    9.19999000E-01   2.37594000E-01 
   1.45933000E+00   -3.03068000E-03   8.15854000E-01 
SP   1    1.000000
   4.83456000E-01    1.00000000E+00   1.00000000E+00 
SP   1    1.000000
   1.45585000E-01    1.00000000E+00   1.00000000E+00 
SP   1    1.000000
   4.38000000E-02    1.00000000E+00   1.00000000E+00 
D    1    1.000000
   6.26000000E-01    1.00000000E+00 

8    0
S    6    1.000000
   8.58850000E+03    1.89515000E-03 
   1.29723000E+03    1.43859000E-02 
   2.99296000E+02    7.07320000E-02 
   8.73771000E+01    2.40001000E-01 
   2.56789000E+01    5.94797000E-01 
   3.74004000E+00    2.80802000E-01 
SP   3    1.000000
   4.21175000E+01    1.13889000E-01   3.65114000E-02 
   9.62837000E+00    9.20811000E-01   2.37153000E-01 
   2.85332000E+00   -3.27447000E-03   8.19702000E-01 
SP   1    1.000000
   9.05661000E-01    1.00000000E+00   1.00000000E+00 
SP   1    1.000000
   2.55611000E-01    1.00000000E+00   1.00000000E+00 
SP   1    1.000000
   8.45000000E-02    1.00000000E+00   1.00000000E+00 
D    1    1.000000
   1.29200000E+00    1.00000000E+00 

9    0
S    6    1.000000
   6.29348000E+03    1.96979000E-03 
   9.49044000E+02    1.49613000E-02 
   2.18776000E+02    7.35006000E-02 
   6.36916000E+01    2.48937000E-01 
   1.88282000E+01    6.02460000E-01 
   2.72023000E+00    2.56202000E-01 
SP   3    1.000000
   3.06331000E+01    1.11906000E-01   3.83119000E-02 
   7.02614000E+00    9.21666000E-01   2.37403000E-01 
   2.11205000E+00   -2.56919000E-03   8.17592000E-01 
SP   1    1.000000
   6.84009000E-01    1.00000000E+00   1.00000000E+00 
SP   1    1.000000
   2.00878000E-01    1.00000000E+00   1.00000000E+00 
SP   1    1.000000
   6.39000000E-02    1.00000000E+00   1.00000000E+00 
D    1    1.000000
   9.13000000E-01    1.00000000E+00 

10    0
S    6    1.000000
   6.29348000E+03    1.96979000E-03 
   9.49044000E+02    1.49613000E-02 
   2.18776000E+02    7.35006000E-02 
   6.36916000E+01    2.48937000E-01 
   1.88282000E+01    6.02460000E-01 
   2.72023000E+00    2.56202000E-01 
SP   3    1.000000
   3.06331000E+01    1.11906000E-01   3.83119000E-02 
   7.02614000E+00    9.21666000E-01   2.37403000E-01 
   2.11205000E+00   -2.56919000E-03   8.17592000E-01 
SP   1    1.000000
   6.84009000E-01    1.00000000E+00   1.00000000E+00 
SP   1    1.000000
   2.00878000E-01    1.00000000E+00   1.00000000E+00 
SP   1    1.000000
   6.39000000E-02    1.00000000E+00   1.00000000E+00 
D    1    1.000000
   9.13000000E-01    1.00000000E+00 

11    0
S    6    1.000000
   4.56324000E+03    1.96665000E-03 
   6.82024000E+02    1.52306000E-02 
   1.54973000E+02    7.61269000E-02 
   4.44553000E+01    2.60801000E-01 
   1.30290000E+01    6.16462000E-01 
   1.82773000E+00    2.21006000E-01 
SP   3    1.000000
   2.09642000E+01    1.14660000E-01   4.02487000E-02 
   4.80331000E+00    9.19999000E-01   2.37594000E-01 
   1.45933000E+00   -3.03068000E-03   8.15854000E-01 
SP   1    1.000000
   4.83456000E-01    1.00000000E+00   1.00000000E+00 
SP   1    1.000000
   1.45585000E-01    1.00000000E+00   1.00000000E+00 
SP   1    1.000000
   4.38000000E-02    1.00000000E+00   1.00000000E+00 
D    1    1.000000
   6.26000000E-01    1.00000000E+00 

12    0
S    3    1.000000
   3.38650000E+01    2.54938000E-02 
   5.09479000E+00    1.90373000E-01 
   1.15879000E+00    8.52161000E-01 
S    1    1.000000
   3.25840000E-01    1.00000000E+00 
S    1    1.000000
   1.02741000E-01    1.00000000E+00 
S    1    1.000000
   3.60000000E-02    1.00000000E+00 
P    1    1.000000
   7.50000000E-01    1.00000000E+00 

[MO]
Sym=X
Ene= -0.494284
Spin=Alpha
Occup=1
     1    6.419698796403e-03
     2    1.177148991609e-02
     3   -1.249943379283e-02
     4   -1.993273445115e-02
     5    2.149451505560e-14
     6   -5.701580227987e-02
     7   -1.320958355411e-02
     8   -2.539043028337e-02
     9   -1.412905793555e-14
    10    3.582687078214e-01
    11    2.658440629133e-02
    12    2.257856176976e-01
    13    3.143645593152e-14
    14    9.068103711852e+00
    15    8.404291782906e-01
    16    2.299631158538e+00
    17   -1.763603207691e-14
    18    8.439935204050e-03
    19    1.173132282879e-14
    20   -1.366180102502e-14
    21    9.271579445271e-03
    22   -4.797185483242e-03
    23   -8.896617289600e-03
    24   -8.076928037035e-02
    25   -4.586470605597e-01
    26   -1.910023107109e+00
    27    2.121604113994e-03
    28    4.584802313875e-03
    29   -1.585154456367e-14
    30   -9.491506445526e-03
    31    2.260789264806e-02
    32   -7.000986186741e-02
    33    3.744956936194e-01
    34    5.401873204820e-03
    35    5.159300893175e-03
    36    3.822307651443e-15
    37    1.634762233318e-03
    38   -5.437193785470e-02
    39   -1.201508266220e-01
    40    4.887545489778e-02
    41   -5.210875790621e-03
    42    8.143879122139e-03
    43   -9.746882858142e-15
    44    6.869750265671e-03
    45    1.326266095252e-02
    46   -1.391486848506e-02
    47    4.406426492610e-03
    48    2.205171210866e-14
    49   -7.590681127281e-02
    50   -2.669727585197e-02
    51    7.461020610859e-03
    52    6.895973580479e-14
    53    4.239859179554e-01
    54    1.789844208770e-01
    55   -1.432338816569e-01
    56    1.758667060039e-13
    57   -1.551313976113e+00
    58   -1.238975398706e+00
    59   -9.279529751563e-02
    60    5.175461235234e-13
    61    7.693686555976e-03
    62    6.671861811022e-15
    63   -3.897073899523e-15
    64    9.484433810941e-04
    65    7.932302028406e-03
    66    3.551121847929e-03
    67    6.233154865165e-03
    68   -1.161752306877e-02
    69   -7.705185844696e-03
    70   -2.239811196015e-14
    71   -2.357783378725e-02
    72   -1.203298823446e-02
    73   -1.357493244303e-02
    74   -4.885731472761e-14
    75    2.924839684689e-02
    76   -4.404730540431e-02
    77   -3.420395113460e-03
    78   -3.613648090886e-14
    79   -2.849617257013e-01
    80    8.965064800846e-02
    81   -1.240907907118e-02
    82   -2.484428279660e-13
    83    1.357203654018e-03
    84    2.252574805677e-15
    85   -1.818001240403e-16
    86   -1.297248727277e-03
    87    2.400915106793e-04
    88    1.970375748704e-03
    89    4.209130024746e-03
    90   -2.561170364963e-02
    91   -1.114693806696e-02
    92   -2.408948731213e-14
    93   -3.657272171365e-02
    94   -3.851159835134e-02
    95   -2.112538370857e-02
    96    1.444141275536e-14
    97    4.247555410546e-01
    98   -5.078396838220e-01
    99   -2.575698957182e-01
   100   -1.595435548696e-13
   101    1.700968033043e+01
   102   -3.981785298171e+00
   103   -4.131458361196e+00
   104   -8.915016135561e-13
   105    1.753770320656e-02
   106    7.287529541836e-15
   107   -7.005160457458e-15
   108    4.282563350205e-03
   109    6.478575318588e-03
   110   -1.467115576514e-02
   111   -2.540246831333e-02
   112    1.918488343525e-02
   113    6.409447613799e-04
   114   -2.742349990214e-14
   115    8.702917907376e-02
   116    2.647120056527e-02
   117    4.155033950770e-03
   118    4.939834036812e-15
   119    1.905516595749e-01
   120   -3.125992391159e-02
   121   -5.184692346982e-02
   122   -1.647910901819e-13
   123    7.652516194474e-01
   124   -5.189172864022e-04
   125    5.885594522675e-02
   126    7.568071890766e-13
   127    3.637961516868e-03
   128    2.842199191472e-15
   129    1.978679433480e-15
   130   -1.378378161185e-04
   131   -4.295214726501e-04
   132    6.985101935133e-03
   133    1.189283376498e-02
   134   -1.360810576930e-02
   135    4.255029978282e-03
   136   -1.032696459807e-14
   137   -3.401981847317e-02
   138   -1.687615347872e-02
   139    1.585482138415e-03
   140   -1.875699854608e-14
   141   -2.421710598582e-01
   142   -6.093863079253e-02
   143    2.188183100249e-01
   144   -3.924119398829e-14
   145   -2.632014979546e+00
   146   -4.998023914837e-01
   147    7.806835039750e-01
   148    7.289503209842e-14
   149    8.416263415078e-03
   150   -5.200971960818e-15
   151   -2.342732709181e-15
   152   -5.406419065550e-03
   153   -7.000202158826e-03
   154   -5.217522309683e-03
   155   -9.115306327215e-03
   156   -2.259073059861e-02
   157   -2.030202078240e-02
   158   -1.741734213066e-14
   159    2.978911057772e-02
   160   -3.225213945333e-02
   161   -3.063579457918e-02
   162   -3.399460852560e-14
   163   -2.649488183519e-02
   164   -1.871222694219e-01
   165   -1.386841984347e-01
   166   -5.101985096760e-14
   167   -1.312415415948e+00
   168   -8.743609563608e-01
   169   -2.586120972988e-01
   170   -1.127219858043e-13
   171    7.729821954298e-03
   172    1.045872401541e-14
   173   -1.370966125105e-15
   174    2.067870236855e-04
   175   -2.519256820712e-03
   176    8.548557491599e-03
   177    1.468875132796e-02
   178    8.070061159826e-04
   179   -3.408345577250e-03
   180    6.759067618158e-15
   181   -3.553473003385e-02
   182    5.806905956709e-03
   183   -1.624881397668e-04
   184    1.831607770902e-14
   185   -5.794415698402e-01
   186    3.075089814240e-01
   187   -2.644108330689e-01
   188    1.174402012161e-13
   189   -1.896783971115e+01
   190    3.506130857003e+00
   191   -3.497308274170e+00
   192    1.550130729285e-13
   193    1.650921950358e-02
   194   -3.958738009321e-15
   195   -1.353103141261e-15
   196   -9.944572537607e-03
   197   -7.646118790561e-03
   198   -2.619007256162e-03
   199   -2.418932398379e-02
   200   -4.083116925794e-01
   201   -9.796027402839e-01
   202   -4.300405982052e-04
   203   -6.599333653031e-03
   204   -2.790121147680e-15
Sym=X
Ene= 0.494284
Spin=Alpha
Occup=0
     1   -2.238996758791e-16
     2    2.674487032538e-15
     3   -5.820580848660e-15
     4   -2.542408962280e-14
     5    1.244822393038e-01
     6   -1.098382218902e-14
     7    4.793283828787e-14
     8   -4.692249077686e-14
     9    2.039954526690e-01
    10   -3.125525851295e-13
    11   -5.461471983274e-13
    12   -2.775299101759e-13
    13    2.804702607547e-01
    14    2.444846458420e-11
    15    4.461233104005e-12
    16    4.698953606092e-12
    17    1.183528211899e-01
    18   -4.904767962740e-15
    19    1.099548976632e-02
    20   -3.228325108074e-03
    21    7.775461527474e-15
    22    3.079183446142e-15
    23    7.732830877253e-15
    24   -9.982063683799e-14
    25    5.814987126650e-13
    26   -1.304765275606e-12
    27   -9.202628775296e-15
    28   -4.326816846823e-15
    29   -8.476047179624e-03
    30   -1.375771259980e-14
    31    3.755129435126e-14
    32   -7.277602662164e-13
    33    1.223935226920e-12
    34   -3.952938740145e-15
    35    7.718491055432e-15
    36    1.200318619214e-02
    37   -3.014382697056e-14
    38    6.130797844358e-14
    39   -1.770615347497e-12
    40    1.357982481222e-12
    41   -2.985771394750e-15
    42   -1.650775083505e-14
    43    1.211531495570e-02
    44   -1.827312659990e-15
    45   -3.094762952090e-15
    46   -1.638150830447e-14
    47   -1.214256046943e-14
    48    1.075185798760e-02
    49   -1.080189553529e-14
    50   -8.557274664350e-15
    51    2.061985277122e-14
    52    1.887769834984e-02
    53    5.580737954834e-13
    54   -5.776541472177e-13
    55   -3.296670480830e-13
    56    1.286466961339e-02
    57   -2.844775155417e-12
    58   -2.259573593501e-12
    59   -1.576823978012e-12
    60   -1.113378445034e-02
    61   -7.443327815144e-15
    62    1.738120327542e-02
    63    1.971542973810e-02
    64   -1.307045443958e-14
    65   -3.084605038179e-15
    66   -1.061709025168e-15
    67   -1.997187028028e-15
    68   -1.683461171764e-15
    69   -1.156076277407e-14
    70   -1.184869398192e-02
    71    1.166930818064e-14
    72    6.074642524014e-15
    73   -1.430848242210e-14
    74   -1.774448983126e-02
    75   -6.492883527681e-14
    76   -1.061956110603e-13
    77   -9.898596342755e-15
    78   -2.140552308987e-02
    79   -7.329691791400e-13
    80   -6.079908780309e-14
    81    6.102956778422e-13
    82   -7.795556571405e-03
    83   -9.904846518406e-16
    84    6.930486072536e-04
    85    1.048603775291e-03
    86   -8.234482066169e-16
    87   -2.028793664842e-15
    88   -9.203363180491e-15
    89   -1.591309979827e-14
    90   -1.189779041917e-14
    91   -3.263755385397e-14
    92   -2.309407141574e-01
    93    6.848444294322e-14
    94   -3.824465518927e-14
    95   -4.539422653472e-14
    96   -3.904959944930e-01
    97   -1.346584549813e-13
    98    3.326505899304e-13
    99   -6.324615750978e-13
   100   -5.139014389212e-01
   101   -5.625946177070e-12
   102    1.704124236578e-12
   103    4.716555820659e-14
   104   -1.478145091971e-01
   105    1.923986231912e-14
   106   -8.994308741374e-03
   107    9.547141793276e-03
   108   -7.160541575354e-15
   109    1.610282494307e-14
   110    2.013605635293e-16
   111    2.409955901161e-15
   112    5.876684937369e-15
   113    2.242949786214e-15
   114    1.437369323928e-01
   115   -1.040164443159e-14
   116    5.784328226135e-16
   117    1.164889437670e-14
   118    1.916529838988e-01
   119    2.294890134800e-14
   120    3.412675299633e-15
   121    4.098432274369e-14
   122    2.045584719016e-01
   123   -4.314906387999e-13
   124   -6.229023266328e-14
   125   -1.841926259768e-13
   126    6.020197052534e-02
   127    6.908080393742e-17
   128    7.523568233762e-03
   129    6.855540001451e-03
   130    2.002500124870e-16
   131   -3.474680059441e-15
   132    7.475091912933e-15
   133    1.860583356460e-14
   134   -2.672507367237e-14
   135    2.552286798486e-14
   136    9.310784194691e-02
   137   -5.187544576349e-14
   138   -2.725222357139e-14
   139    3.125933143576e-14
   140    1.409619967287e-01
   141   -2.306183357079e-13
   142   -9.651751517051e-14
   143   -1.708883541501e-14
   144    2.358467326662e-01
   145    1.090119358471e-11
   146    1.390251274865e-13
   147   -9.345315231225e-13
   148    1.657205130936e-01
   149    1.378954947732e-14
   150   -1.862841310933e-02
   151    9.383035849977e-03
   152    6.875384819938e-15
   153   -3.770345581231e-15
   154   -9.987623204853e-15
   155   -1.702719824651e-14
   156    9.443130742316e-15
   157    1.716830756610e-15
   158   -6.840717376013e-02
   159    1.624006638517e-14
   160   -1.842195518666e-14
   161    1.041426843339e-14
   162   -1.038666866877e-01
   163    5.867421758612e-13
   164    2.079811447233e-13
   165   -1.087021588672e-13
   166   -1.636462182104e-01
   167   -7.702205560682e-12
   168   -1.958604450833e-12
   169   -9.000091495018e-13
   170   -1.202225705048e-01
   171   -1.498486384701e-14
   172    9.539258800212e-03
   173   -6.655021701355e-03
   174   -1.285772979126e-14
   175    5.661452294241e-15
   176    9.522523491987e-15
   177    1.769034183250e-14
   178   -4.062406248274e-14
   179   -1.475821456212e-14
   180    6.007340316397e-03
   181   -3.581458226146e-14
   182   -5.324999404244e-14
   183   -1.308563135382e-14
   184    1.041950132196e-02
   185   -3.491284695641e-13
   186   -8.939567106126e-13
   187   -5.865232513312e-13
   188    6.596963253786e-02
   189   -1.864898990691e-11
   190    3.935730536858e-12
   191    3.308074830763e-12
   192    3.280562538106e-02
   193   -5.949303193609e-15
   194   -1.779176064984e-02
   195   -3.817753576587e-02
   196   -1.517577492110e-14
   197   -1.202382729100e-14
   198    1.438671252146e-14
   199    7.410223342206e-14
   200    1.391903244937e-12
   201   -1.481484370771e-13
   202   -1.043348474743e-15
   203   -1.971863370045e-15
   204    1.701137663222e-03
[5D]
