[Molden Format]
[Atoms] (Angs)
  C      1    6     -0.00754183     -1.75895763      0.00000000
  H      2    1     -2.09769850     -1.41880678     -0.00000000
  H      3    1     -0.13527422     -2.83956838     -0.00000000
  H      4    1      0.04053511      2.02026369      0.00000000
  C      5    6     -1.22066484      0.39918184     -0.00000000
  O      6    8     -2.25210141      1.05663720     -0.00000000
  C      7    6      1.24009552      0.27789184      0.00000000
  O      8    8      2.33767996      1.06122493      0.00000000
  N      9    7      0.03634586      1.00852936      0.00000000
  N     10    7     -1.18738304     -0.97903470     -0.00000000
  C     11    6      1.22288875     -1.12258096      0.00000000
  H     12    1      2.15640383     -1.68445878      0.00000000
[GTO]
1    0
S    6    1.000000
   4.56324000E+03    1.96665000E-03 
   6.82024000E+02    1.52306000E-02 
   1.54973000E+02    7.61269000E-02 
   4.44553000E+01    2.60801000E-01 
   1.30290000E+01    6.16462000E-01 
   1.82773000E+00    2.21006000E-01 
SP   3    1.000000
   2.09642000E+01    1.14660000E-01   4.02487000E-02 
   4.80331000E+00    9.19999000E-01   2.37594000E-01 
   1.45933000E+00   -3.03068000E-03   8.15854000E-01 
SP   1    1.000000
   4.83456000E-01    1.00000000E+00   1.00000000E+00 
SP   1    1.000000
   1.45585000E-01    1.00000000E+00   1.00000000E+00 
SP   1    1.000000
   4.38000000E-02    1.00000000E+00   1.00000000E+00 
D    1    1.000000
   6.26000000E-01    1.00000000E+00 

2    0
S    3    1.000000
   3.38650000E+01    2.54938000E-02 
   5.09479000E+00    1.90373000E-01 
   1.15879000E+00    8.52161000E-01 
S    1    1.000000
   3.25840000E-01    1.00000000E+00 
S    1    1.000000
   1.02741000E-01    1.00000000E+00 
S    1    1.000000
   3.60000000E-02    1.00000000E+00 
P    1    1.000000
   7.50000000E-01    1.00000000E+00 

3    0
S    3    1.000000
   3.38650000E+01    2.54938000E-02 
   5.09479000E+00    1.90373000E-01 
   1.15879000E+00    8.52161000E-01 
S    1    1.000000
   3.25840000E-01    1.00000000E+00 
S    1    1.000000
   1.02741000E-01    1.00000000E+00 
S    1    1.000000
   3.60000000E-02    1.00000000E+00 
P    1    1.000000
   7.50000000E-01    1.00000000E+00 

4    0
S    3    1.000000
   3.38650000E+01    2.54938000E-02 
   5.09479000E+00    1.90373000E-01 
   1.15879000E+00    8.52161000E-01 
S    1    1.000000
   3.25840000E-01    1.00000000E+00 
S    1    1.000000
   1.02741000E-01    1.00000000E+00 
S    1    1.000000
   3.60000000E-02    1.00000000E+00 
P    1    1.000000
   7.50000000E-01    1.00000000E+00 

5    0
S    6    1.000000
   4.56324000E+03    1.96665000E-03 
   6.82024000E+02    1.52306000E-02 
   1.54973000E+02    7.61269000E-02 
   4.44553000E+01    2.60801000E-01 
   1.30290000E+01    6.16462000E-01 
   1.82773000E+00    2.21006000E-01 
SP   3    1.000000
   2.09642000E+01    1.14660000E-01   4.02487000E-02 
   4.80331000E+00    9.19999000E-01   2.37594000E-01 
   1.45933000E+00   -3.03068000E-03   8.15854000E-01 
SP   1    1.000000
   4.83456000E-01    1.00000000E+00   1.00000000E+00 
SP   1    1.000000
   1.45585000E-01    1.00000000E+00   1.00000000E+00 
SP   1    1.000000
   4.38000000E-02    1.00000000E+00   1.00000000E+00 
D    1    1.000000
   6.26000000E-01    1.00000000E+00 

6    0
S    6    1.000000
   8.58850000E+03    1.89515000E-03 
   1.29723000E+03    1.43859000E-02 
   2.99296000E+02    7.07320000E-02 
   8.73771000E+01    2.40001000E-01 
   2.56789000E+01    5.94797000E-01 
   3.74004000E+00    2.80802000E-01 
SP   3    1.000000
   4.21175000E+01    1.13889000E-01   3.65114000E-02 
   9.62837000E+00    9.20811000E-01   2.37153000E-01 
   2.85332000E+00   -3.27447000E-03   8.19702000E-01 
SP   1    1.000000
   9.05661000E-01    1.00000000E+00   1.00000000E+00 
SP   1    1.000000
   2.55611000E-01    1.00000000E+00   1.00000000E+00 
SP   1    1.000000
   8.45000000E-02    1.00000000E+00   1.00000000E+00 
D    1    1.000000
   1.29200000E+00    1.00000000E+00 

7    0
S    6    1.000000
   4.56324000E+03    1.96665000E-03 
   6.82024000E+02    1.52306000E-02 
   1.54973000E+02    7.61269000E-02 
   4.44553000E+01    2.60801000E-01 
   1.30290000E+01    6.16462000E-01 
   1.82773000E+00    2.21006000E-01 
SP   3    1.000000
   2.09642000E+01    1.14660000E-01   4.02487000E-02 
   4.80331000E+00    9.19999000E-01   2.37594000E-01 
   1.45933000E+00   -3.03068000E-03   8.15854000E-01 
SP   1    1.000000
   4.83456000E-01    1.00000000E+00   1.00000000E+00 
SP   1    1.000000
   1.45585000E-01    1.00000000E+00   1.00000000E+00 
SP   1    1.000000
   4.38000000E-02    1.00000000E+00   1.00000000E+00 
D    1    1.000000
   6.26000000E-01    1.00000000E+00 

8    0
S    6    1.000000
   8.58850000E+03    1.89515000E-03 
   1.29723000E+03    1.43859000E-02 
   2.99296000E+02    7.07320000E-02 
   8.73771000E+01    2.40001000E-01 
   2.56789000E+01    5.94797000E-01 
   3.74004000E+00    2.80802000E-01 
SP   3    1.000000
   4.21175000E+01    1.13889000E-01   3.65114000E-02 
   9.62837000E+00    9.20811000E-01   2.37153000E-01 
   2.85332000E+00   -3.27447000E-03   8.19702000E-01 
SP   1    1.000000
   9.05661000E-01    1.00000000E+00   1.00000000E+00 
SP   1    1.000000
   2.55611000E-01    1.00000000E+00   1.00000000E+00 
SP   1    1.000000
   8.45000000E-02    1.00000000E+00   1.00000000E+00 
D    1    1.000000
   1.29200000E+00    1.00000000E+00 

9    0
S    6    1.000000
   6.29348000E+03    1.96979000E-03 
   9.49044000E+02    1.49613000E-02 
   2.18776000E+02    7.35006000E-02 
   6.36916000E+01    2.48937000E-01 
   1.88282000E+01    6.02460000E-01 
   2.72023000E+00    2.56202000E-01 
SP   3    1.000000
   3.06331000E+01    1.11906000E-01   3.83119000E-02 
   7.02614000E+00    9.21666000E-01   2.37403000E-01 
   2.11205000E+00   -2.56919000E-03   8.17592000E-01 
SP   1    1.000000
   6.84009000E-01    1.00000000E+00   1.00000000E+00 
SP   1    1.000000
   2.00878000E-01    1.00000000E+00   1.00000000E+00 
SP   1    1.000000
   6.39000000E-02    1.00000000E+00   1.00000000E+00 
D    1    1.000000
   9.13000000E-01    1.00000000E+00 

10    0
S    6    1.000000
   6.29348000E+03    1.96979000E-03 
   9.49044000E+02    1.49613000E-02 
   2.18776000E+02    7.35006000E-02 
   6.36916000E+01    2.48937000E-01 
   1.88282000E+01    6.02460000E-01 
   2.72023000E+00    2.56202000E-01 
SP   3    1.000000
   3.06331000E+01    1.11906000E-01   3.83119000E-02 
   7.02614000E+00    9.21666000E-01   2.37403000E-01 
   2.11205000E+00   -2.56919000E-03   8.17592000E-01 
SP   1    1.000000
   6.84009000E-01    1.00000000E+00   1.00000000E+00 
SP   1    1.000000
   2.00878000E-01    1.00000000E+00   1.00000000E+00 
SP   1    1.000000
   6.39000000E-02    1.00000000E+00   1.00000000E+00 
D    1    1.000000
   9.13000000E-01    1.00000000E+00 

11    0
S    6    1.000000
   4.56324000E+03    1.96665000E-03 
   6.82024000E+02    1.52306000E-02 
   1.54973000E+02    7.61269000E-02 
   4.44553000E+01    2.60801000E-01 
   1.30290000E+01    6.16462000E-01 
   1.82773000E+00    2.21006000E-01 
SP   3    1.000000
   2.09642000E+01    1.14660000E-01   4.02487000E-02 
   4.80331000E+00    9.19999000E-01   2.37594000E-01 
   1.45933000E+00   -3.03068000E-03   8.15854000E-01 
SP   1    1.000000
   4.83456000E-01    1.00000000E+00   1.00000000E+00 
SP   1    1.000000
   1.45585000E-01    1.00000000E+00   1.00000000E+00 
SP   1    1.000000
   4.38000000E-02    1.00000000E+00   1.00000000E+00 
D    1    1.000000
   6.26000000E-01    1.00000000E+00 

12    0
S    3    1.000000
   3.38650000E+01    2.54938000E-02 
   5.09479000E+00    1.90373000E-01 
   1.15879000E+00    8.52161000E-01 
S    1    1.000000
   3.25840000E-01    1.00000000E+00 
S    1    1.000000
   1.02741000E-01    1.00000000E+00 
S    1    1.000000
   3.60000000E-02    1.00000000E+00 
P    1    1.000000
   7.50000000E-01    1.00000000E+00 

[MO]
Sym=X
Ene= -0.482792
Spin=Alpha
Occup=1
     1   -2.066148861566e-15
     2   -4.385571579431e-15
     3   -1.160455795960e-14
     4    3.437024939042e-14
     5   -3.290151366216e-02
     6    1.368021785008e-14
     7    1.989564903197e-14
     8    8.421119051915e-15
     9   -5.676258793075e-02
    10    1.979872009560e-13
    11   -4.800552674065e-14
    12   -5.164460928075e-14
    13   -5.725302990615e-02
    14    1.705810509113e-11
    15   -1.894382386359e-12
    16    8.256247559498e-12
    17   -3.506762642242e-02
    18    1.876866600978e-14
    19    2.557514906354e-02
    20   -1.918618388817e-03
    21   -9.229693967377e-15
    22    1.752515689976e-14
    23   -4.771987049073e-14
    24    1.420733810751e-13
    25   -2.242667140659e-12
    26    1.222557396816e-12
    27    4.055642584858e-14
    28    1.101347916650e-14
    29   -1.184070245152e-02
    30    9.186925692419e-16
    31   -2.203503791137e-13
    32    8.181687320955e-13
    33    1.661396178696e-12
    34    1.782279692121e-14
    35   -2.651132875933e-14
    36   -3.493794959526e-03
    37    4.662202652353e-15
    38    2.511660868510e-13
    39   -9.866044559524e-13
    40   -3.670816715531e-13
    41   -1.738542225143e-14
    42   -3.228886154172e-15
    43   -1.253357023466e-02
    44   -6.472966723589e-15
    45   -1.321323469006e-14
    46   -2.443345961062e-14
    47   -2.769708770154e-14
    48    2.460041948688e-01
    49    1.223454619405e-13
    50   -5.116708240907e-14
    51   -8.428607180489e-14
    52    4.250465760447e-01
    53   -5.897046373259e-13
    54   -6.808072377377e-13
    55    3.884798320577e-13
    56    6.342310415862e-01
    57   -1.322534991832e-11
    58   -2.209848945365e-12
    59    6.185818954270e-12
    60    1.972528880748e-01
    61   -1.595003766415e-14
    62   -5.754292666380e-03
    63   -2.433452837474e-03
    64    1.570556411115e-14
    65    2.322382303072e-14
    66    1.031108844535e-15
    67    1.326178100107e-15
    68    8.943207033938e-15
    69    2.379291878370e-17
    70   -1.995762333933e-01
    71   -1.643800140570e-15
    72    2.789862345096e-14
    73    2.647889975880e-15
    74   -2.699395265841e-01
    75   -7.465100136941e-14
    76   -7.683845787566e-14
    77    3.358266164419e-14
    78   -2.908035007682e-01
    79   -1.783483924952e-12
    80    1.770201993011e-13
    81    8.814858536087e-13
    82   -1.105249569943e-01
    83   -5.510137722007e-15
    84    1.086117673566e-02
    85   -7.030358033381e-03
    86   -4.181819719305e-15
    87   -4.535431154409e-15
    88    1.491677888541e-14
    89    2.380716996111e-14
    90   -1.933347363530e-14
    91    3.344306039729e-14
    92   -1.950039809512e-02
    93   -4.585251646373e-14
    94   -4.434344188051e-14
    95    7.913049150320e-14
    96   -3.524472592246e-02
    97   -1.682369308973e-12
    98    1.954592850727e-13
    99    8.151891165335e-13
   100   -2.485020911672e-02
   101    2.392901519066e-11
   102    4.235545515361e-12
   103   -6.771080580452e-12
   104   -2.086908653464e-02
   105   -2.083144664721e-15
   106    1.739126151010e-02
   107   -1.821640723519e-02
   108    8.013446150846e-15
   109    2.861856036153e-15
   110    7.249817276931e-15
   111    1.363183790260e-14
   112   -6.900188549829e-15
   113   -1.282563116093e-14
   114    1.940702168202e-02
   115   -7.320471808697e-14
   116   -3.920844733414e-14
   117    4.773105704821e-15
   118    2.950166276442e-02
   119    1.906749469752e-13
   120    1.104961679638e-13
   121   -1.564776050901e-13
   122    3.620885030389e-02
   123   -3.045533752358e-12
   124   -4.608948057727e-13
   125    8.803821826415e-13
   126    2.020691871886e-02
   127   -1.107899525365e-15
   128    8.184636430060e-04
   129   -1.014851348145e-03
   130   -6.612056938142e-15
   131   -2.817367068146e-15
   132   -1.805613606644e-14
   133   -2.820045170612e-14
   134   -4.255689105846e-14
   135   -1.817850734413e-14
   136   -9.655963808096e-02
   137    7.878203642906e-14
   138   -4.870712867839e-14
   139   -4.278620709659e-14
   140   -1.480650924002e-01
   141    5.889447860845e-13
   142   -3.317138106215e-13
   143   -3.192925969971e-13
   144   -2.708077784462e-01
   145    3.325936244196e-12
   146    1.941738941582e-12
   147    6.116392379824e-13
   148   -1.660514053330e-01
   149   -1.980161346503e-14
   150   -2.121757854917e-02
   151   -7.353246355405e-03
   152   -2.882523285415e-15
   153    3.833453155016e-15
   154   -6.905300377933e-16
   155    1.433640459423e-15
   156   -5.577180973037e-14
   157   -3.892958036796e-14
   158   -7.952275662065e-02
   159   -4.595613771004e-15
   160   -8.636876717260e-14
   161   -4.573164816166e-14
   162   -1.212907571067e-01
   163    2.520313571114e-14
   164    2.934975047404e-14
   165   -5.239951386615e-14
   166   -2.370845523719e-01
   167    6.456758645051e-12
   168   -2.344852567495e-12
   169    4.846114992704e-12
   170   -1.726534062062e-01
   171    1.349510002311e-14
   172   -4.088713235232e-03
   173    2.606687470014e-02
   174    1.204501439194e-15
   175   -2.735211957730e-14
   176    1.369023420614e-14
   177    2.753059667494e-14
   178   -1.568219566808e-14
   179    4.779498398256e-14
   180    6.456938569678e-02
   181   -1.287639158739e-13
   182   -8.252202186430e-14
   183   -2.190850469530e-14
   184    1.034663797441e-01
   185    7.817718907372e-13
   186    1.543434878563e-13
   187    1.493939155307e-12
   188    1.775827509796e-01
   189   -2.298054194278e-11
   190    4.924089456633e-12
   191   -1.180945213472e-11
   192    9.492920776606e-02
   193    2.567664420477e-14
   194    2.407481593440e-03
   195    4.193868286324e-04
   196    3.726250889614e-15
   197    1.595360086998e-14
   198   -3.436727316072e-14
   199    1.044070773310e-13
   200   -1.414641890162e-12
   201   -8.420316960803e-12
   202   -1.023249065147e-15
   203    9.844450055304e-15
   204    6.464518314799e-03
Sym=X
Ene= 0.482792
Spin=Alpha
Occup=0
     1   -3.173919561567e-15
     2   -4.763155576666e-15
     3    1.713754795507e-14
     4   -3.816417528763e-14
     5   -2.901326562110e-02
     6    2.963427910432e-14
     7   -2.406770949741e-14
     8   -8.503394234773e-14
     9   -6.122892071631e-02
    10   -2.651230063076e-13
    11    2.623609142882e-13
    12   -2.027906010904e-13
    13   -2.272738984131e-02
    14    6.739802641124e-12
    15    2.812875966433e-12
    16    3.359556792259e-12
    17   -4.489507872101e-01
    18    5.354817671337e-15
    19    2.096329568622e-03
    20    5.615295425960e-03
    21   -3.416602949457e-15
    22   -1.562424331741e-14
    23    2.468132583836e-14
    24   -1.325385886386e-13
    25    1.851136061195e-12
    26    9.635356874466e-13
    27   -1.889840075548e-14
    28   -6.530262150415e-15
    29   -4.563732677655e-03
    30   -3.019081403701e-15
    31   -5.166522137074e-14
    32    1.966181503201e-14
    33    2.704053573769e-12
    34   -1.010614821640e-15
    35    9.661660455528e-15
    36   -8.041687698616e-03
    37   -3.445917206012e-15
    38   -6.901853276948e-14
    39    6.189436562561e-13
    40    2.044008929983e-13
    41   -2.809596358606e-15
    42   -6.420416569060e-15
    43    9.554106597786e-03
    44    4.316629104849e-15
    45    4.070942316895e-15
    46    1.056268355176e-14
    47    7.476799285620e-15
    48   -1.855801364469e-02
    49   -1.220627496787e-14
    50   -1.267916391382e-14
    51    4.526540892326e-14
    52   -4.512583392684e-02
    53   -3.333359857311e-13
    54    2.964675501799e-13
    55   -1.931609019613e-13
    56   -5.543063892184e-03
    57   -1.064382182976e-12
    58    3.109562871114e-13
    59    2.537954143757e-13
    60   -4.045282064689e-01
    61    2.056677853607e-15
    62    4.166209885200e-03
    63   -2.541313538902e-03
    64   -1.194875515630e-14
    65   -8.386989406906e-15
    66   -7.895580515153e-16
    67   -1.247023870466e-15
    68   -1.068592109940e-16
    69    6.729399741578e-16
    70    3.006106962982e-02
    71    1.169714996851e-14
    72   -2.339942436617e-14
    73   -1.254848467317e-14
    74    4.091107660995e-02
    75   -8.807260230936e-15
    76    9.482177800431e-14
    77    5.468273988775e-14
    78    4.896214652108e-02
    79    1.415540888470e-12
    80   -1.069162130074e-13
    81   -1.096839889362e-12
    82   -5.850985860845e-02
    83    3.639453503297e-15
    84    1.443525587703e-03
    85    2.102858199575e-03
    86    3.046955416485e-15
    87    4.733966626110e-15
    88   -1.374911713274e-14
    89   -1.857528635219e-14
    90    1.019960410757e-14
    91   -4.790383100981e-15
    92   -9.073172259704e-02
    93    5.346438939786e-14
    94   -3.663894796295e-14
    95   -2.084436346244e-14
    96   -1.139181035989e-01
    97    5.842237076049e-13
    98    1.952570596932e-13
    99    3.541366365110e-13
   100   -3.940371027574e-01
   101    5.078094784537e-12
   102   -2.438709942220e-12
   103    1.674806690548e-13
   104    1.250356798276e+00
   105    1.483324568354e-14
   106    7.243098603073e-03
   107   -1.867659487009e-03
   108    1.423505103511e-15
   109   -3.412558066369e-15
   110   -1.150090193538e-15
   111   -1.338542636162e-15
   112    7.760768826187e-15
   113    1.446879035999e-14
   114   -3.207484298238e-03
   115    8.838226514266e-15
   116    7.534490272073e-15
   117    3.409668338899e-14
   118   -1.964825430813e-02
   119   -1.043255296008e-13
   120    2.656050113053e-14
   121    4.318571950275e-14
   122    7.317388518606e-02
   123    2.340441102492e-13
   124    3.629982191373e-13
   125    1.077850017445e-13
   126   -3.426580267858e-01
   127   -3.653407070067e-15
   128    4.403303687126e-03
   129    2.903183631081e-03
   130    2.279508562876e-15
   131    5.206048002257e-15
   132    5.220728735017e-15
   133    6.253435062693e-15
   134    1.081913131969e-14
   135    2.514376285107e-14
   136   -3.376415033643e-03
   137   -1.192202322807e-14
   138   -1.404431276229e-15
   139    3.890036863939e-14
   140   -4.956300840425e-03
   141   -2.279877195476e-13
   142    2.479002471979e-14
   143    1.453219529291e-13
   144   -1.999431538854e-03
   145   -1.726315987437e-12
   146   -1.650420157243e-12
   147   -1.266758747498e-12
   148    2.578518111292e-01
   149    4.430891061028e-15
   150   -4.048745896645e-03
   151    9.183455832142e-03
   152    3.071829945067e-15
   153   -4.946688544484e-15
   154   -5.423683684970e-15
   155   -1.181580277267e-14
   156    2.617674444531e-14
   157    1.109483566734e-14
   158    5.489198718214e-02
   159    3.189133594146e-14
   160    2.642048544544e-14
   161    1.576360272577e-14
   162    7.693821497048e-02
   163    1.743182985075e-13
   164    9.260958871649e-14
   165   -2.893839499394e-14
   166    1.812693270625e-01
   167   -3.127541586054e-12
   168    1.611231358987e-12
   169   -1.725008195608e-12
   170   -4.367979979988e-01
   171   -4.343160582624e-15
   172    1.912765319341e-03
   173    4.003266781589e-03
   174    8.814402917886e-16
   175    1.218630548101e-14
   176   -2.395858717654e-15
   177    2.739957758889e-15
   178    2.636356975601e-14
   179   -1.765465596030e-14
   180   -2.931075404704e-03
   181   -2.483096123782e-14
   182   -1.457557819802e-16
   183    1.778608619999e-15
   184    1.853025460415e-02
   185    3.063635300919e-13
   186    1.117543346171e-13
   187   -9.978708031570e-14
   188   -4.889256680427e-02
   189   -1.298292057082e-11
   190    4.033271593378e-12
   191   -3.114347144334e-13
   192    5.256239226482e-01
   193   -1.510433561181e-14
   194    1.143385605759e-02
   195   -8.497127999705e-03
   196   -1.121477128020e-14
   197    1.019121303638e-14
   198   -1.515071709920e-15
   199   -3.075694080788e-14
   200   -1.225385150456e-13
   201   -6.211576606333e-13
   202   -1.557970400629e-15
   203   -6.117713801266e-15
   204    8.845514988472e-03
[5D]
