[Molden Format]
[Atoms] (Angs)
  C      1    6     -0.00754183     -1.75895763      0.00000000
  H      2    1     -2.09769850     -1.41880678     -0.00000000
  H      3    1     -0.13527422     -2.83956838     -0.00000000
  H      4    1      0.04053511      2.02026369      0.00000000
  C      5    6     -1.22066484      0.39918184     -0.00000000
  O      6    8     -2.25210141      1.05663720     -0.00000000
  C      7    6      1.24009552      0.27789184      0.00000000
  O      8    8      2.33767996      1.06122493      0.00000000
  N      9    7      0.03634586      1.00852936      0.00000000
  N     10    7     -1.18738304     -0.97903470     -0.00000000
  C     11    6      1.22288875     -1.12258096      0.00000000
  H     12    1      2.15640383     -1.68445878      0.00000000
[GTO]
1    0
S    6    1.000000
   4.56324000E+03    1.96665000E-03 
   6.82024000E+02    1.52306000E-02 
   1.54973000E+02    7.61269000E-02 
   4.44553000E+01    2.60801000E-01 
   1.30290000E+01    6.16462000E-01 
   1.82773000E+00    2.21006000E-01 
SP   3    1.000000
   2.09642000E+01    1.14660000E-01   4.02487000E-02 
   4.80331000E+00    9.19999000E-01   2.37594000E-01 
   1.45933000E+00   -3.03068000E-03   8.15854000E-01 
SP   1    1.000000
   4.83456000E-01    1.00000000E+00   1.00000000E+00 
SP   1    1.000000
   1.45585000E-01    1.00000000E+00   1.00000000E+00 
SP   1    1.000000
   4.38000000E-02    1.00000000E+00   1.00000000E+00 
D    1    1.000000
   6.26000000E-01    1.00000000E+00 

2    0
S    3    1.000000
   3.38650000E+01    2.54938000E-02 
   5.09479000E+00    1.90373000E-01 
   1.15879000E+00    8.52161000E-01 
S    1    1.000000
   3.25840000E-01    1.00000000E+00 
S    1    1.000000
   1.02741000E-01    1.00000000E+00 
S    1    1.000000
   3.60000000E-02    1.00000000E+00 
P    1    1.000000
   7.50000000E-01    1.00000000E+00 

3    0
S    3    1.000000
   3.38650000E+01    2.54938000E-02 
   5.09479000E+00    1.90373000E-01 
   1.15879000E+00    8.52161000E-01 
S    1    1.000000
   3.25840000E-01    1.00000000E+00 
S    1    1.000000
   1.02741000E-01    1.00000000E+00 
S    1    1.000000
   3.60000000E-02    1.00000000E+00 
P    1    1.000000
   7.50000000E-01    1.00000000E+00 

4    0
S    3    1.000000
   3.38650000E+01    2.54938000E-02 
   5.09479000E+00    1.90373000E-01 
   1.15879000E+00    8.52161000E-01 
S    1    1.000000
   3.25840000E-01    1.00000000E+00 
S    1    1.000000
   1.02741000E-01    1.00000000E+00 
S    1    1.000000
   3.60000000E-02    1.00000000E+00 
P    1    1.000000
   7.50000000E-01    1.00000000E+00 

5    0
S    6    1.000000
   4.56324000E+03    1.96665000E-03 
   6.82024000E+02    1.52306000E-02 
   1.54973000E+02    7.61269000E-02 
   4.44553000E+01    2.60801000E-01 
   1.30290000E+01    6.16462000E-01 
   1.82773000E+00    2.21006000E-01 
SP   3    1.000000
   2.09642000E+01    1.14660000E-01   4.02487000E-02 
   4.80331000E+00    9.19999000E-01   2.37594000E-01 
   1.45933000E+00   -3.03068000E-03   8.15854000E-01 
SP   1    1.000000
   4.83456000E-01    1.00000000E+00   1.00000000E+00 
SP   1    1.000000
   1.45585000E-01    1.00000000E+00   1.00000000E+00 
SP   1    1.000000
   4.38000000E-02    1.00000000E+00   1.00000000E+00 
D    1    1.000000
   6.26000000E-01    1.00000000E+00 

6    0
S    6    1.000000
   8.58850000E+03    1.89515000E-03 
   1.29723000E+03    1.43859000E-02 
   2.99296000E+02    7.07320000E-02 
   8.73771000E+01    2.40001000E-01 
   2.56789000E+01    5.94797000E-01 
   3.74004000E+00    2.80802000E-01 
SP   3    1.000000
   4.21175000E+01    1.13889000E-01   3.65114000E-02 
   9.62837000E+00    9.20811000E-01   2.37153000E-01 
   2.85332000E+00   -3.27447000E-03   8.19702000E-01 
SP   1    1.000000
   9.05661000E-01    1.00000000E+00   1.00000000E+00 
SP   1    1.000000
   2.55611000E-01    1.00000000E+00   1.00000000E+00 
SP   1    1.000000
   8.45000000E-02    1.00000000E+00   1.00000000E+00 
D    1    1.000000
   1.29200000E+00    1.00000000E+00 

7    0
S    6    1.000000
   4.56324000E+03    1.96665000E-03 
   6.82024000E+02    1.52306000E-02 
   1.54973000E+02    7.61269000E-02 
   4.44553000E+01    2.60801000E-01 
   1.30290000E+01    6.16462000E-01 
   1.82773000E+00    2.21006000E-01 
SP   3    1.000000
   2.09642000E+01    1.14660000E-01   4.02487000E-02 
   4.80331000E+00    9.19999000E-01   2.37594000E-01 
   1.45933000E+00   -3.03068000E-03   8.15854000E-01 
SP   1    1.000000
   4.83456000E-01    1.00000000E+00   1.00000000E+00 
SP   1    1.000000
   1.45585000E-01    1.00000000E+00   1.00000000E+00 
SP   1    1.000000
   4.38000000E-02    1.00000000E+00   1.00000000E+00 
D    1    1.000000
   6.26000000E-01    1.00000000E+00 

8    0
S    6    1.000000
   8.58850000E+03    1.89515000E-03 
   1.29723000E+03    1.43859000E-02 
   2.99296000E+02    7.07320000E-02 
   8.73771000E+01    2.40001000E-01 
   2.56789000E+01    5.94797000E-01 
   3.74004000E+00    2.80802000E-01 
SP   3    1.000000
   4.21175000E+01    1.13889000E-01   3.65114000E-02 
   9.62837000E+00    9.20811000E-01   2.37153000E-01 
   2.85332000E+00   -3.27447000E-03   8.19702000E-01 
SP   1    1.000000
   9.05661000E-01    1.00000000E+00   1.00000000E+00 
SP   1    1.000000
   2.55611000E-01    1.00000000E+00   1.00000000E+00 
SP   1    1.000000
   8.45000000E-02    1.00000000E+00   1.00000000E+00 
D    1    1.000000
   1.29200000E+00    1.00000000E+00 

9    0
S    6    1.000000
   6.29348000E+03    1.96979000E-03 
   9.49044000E+02    1.49613000E-02 
   2.18776000E+02    7.35006000E-02 
   6.36916000E+01    2.48937000E-01 
   1.88282000E+01    6.02460000E-01 
   2.72023000E+00    2.56202000E-01 
SP   3    1.000000
   3.06331000E+01    1.11906000E-01   3.83119000E-02 
   7.02614000E+00    9.21666000E-01   2.37403000E-01 
   2.11205000E+00   -2.56919000E-03   8.17592000E-01 
SP   1    1.000000
   6.84009000E-01    1.00000000E+00   1.00000000E+00 
SP   1    1.000000
   2.00878000E-01    1.00000000E+00   1.00000000E+00 
SP   1    1.000000
   6.39000000E-02    1.00000000E+00   1.00000000E+00 
D    1    1.000000
   9.13000000E-01    1.00000000E+00 

10    0
S    6    1.000000
   6.29348000E+03    1.96979000E-03 
   9.49044000E+02    1.49613000E-02 
   2.18776000E+02    7.35006000E-02 
   6.36916000E+01    2.48937000E-01 
   1.88282000E+01    6.02460000E-01 
   2.72023000E+00    2.56202000E-01 
SP   3    1.000000
   3.06331000E+01    1.11906000E-01   3.83119000E-02 
   7.02614000E+00    9.21666000E-01   2.37403000E-01 
   2.11205000E+00   -2.56919000E-03   8.17592000E-01 
SP   1    1.000000
   6.84009000E-01    1.00000000E+00   1.00000000E+00 
SP   1    1.000000
   2.00878000E-01    1.00000000E+00   1.00000000E+00 
SP   1    1.000000
   6.39000000E-02    1.00000000E+00   1.00000000E+00 
D    1    1.000000
   9.13000000E-01    1.00000000E+00 

11    0
S    6    1.000000
   4.56324000E+03    1.96665000E-03 
   6.82024000E+02    1.52306000E-02 
   1.54973000E+02    7.61269000E-02 
   4.44553000E+01    2.60801000E-01 
   1.30290000E+01    6.16462000E-01 
   1.82773000E+00    2.21006000E-01 
SP   3    1.000000
   2.09642000E+01    1.14660000E-01   4.02487000E-02 
   4.80331000E+00    9.19999000E-01   2.37594000E-01 
   1.45933000E+00   -3.03068000E-03   8.15854000E-01 
SP   1    1.000000
   4.83456000E-01    1.00000000E+00   1.00000000E+00 
SP   1    1.000000
   1.45585000E-01    1.00000000E+00   1.00000000E+00 
SP   1    1.000000
   4.38000000E-02    1.00000000E+00   1.00000000E+00 
D    1    1.000000
   6.26000000E-01    1.00000000E+00 

12    0
S    3    1.000000
   3.38650000E+01    2.54938000E-02 
   5.09479000E+00    1.90373000E-01 
   1.15879000E+00    8.52161000E-01 
S    1    1.000000
   3.25840000E-01    1.00000000E+00 
S    1    1.000000
   1.02741000E-01    1.00000000E+00 
S    1    1.000000
   3.60000000E-02    1.00000000E+00 
P    1    1.000000
   7.50000000E-01    1.00000000E+00 

[MO]
Sym=X
Ene= -0.044759
Spin=Alpha
Occup=1
     1    5.537343108956e-07
     2    1.473391586953e-06
     3    2.847767333843e-06
     4   -3.306239074433e-06
     5    4.927146573839e-16
     6   -1.132797801789e-05
     7   -3.261317753755e-06
     8    5.879098652379e-06
     9   -8.918859684618e-16
    10    2.399140607608e-04
    11   -4.382090689787e-05
    12    5.694736808878e-05
    13    2.565910606660e-16
    14   -1.705575526568e-04
    15   -4.275316901050e-04
    16    2.326385653142e-05
    17   -7.060378103679e-15
    18   -2.856109381531e-06
    19   -1.636598923692e-16
    20    5.362068624861e-16
    21   -9.914334627773e-07
    22    1.079780452083e-06
    23   -3.231195327425e-06
    24   -3.412819542579e-05
    25   -6.670564730900e-05
    26   -2.234738263032e-04
    27   -9.109146516352e-06
    28    4.557012599908e-06
    29   -6.819169289082e-16
    30    2.543618393131e-06
    31   -1.542880190126e-05
    32    3.362662815786e-05
    33    1.897717495520e-06
    34    2.486421574390e-06
    35   -3.135037205080e-06
    36    1.175972378374e-15
    37   -2.850921802073e-06
    38   -5.272619914522e-05
    39   -2.368754971599e-05
    40   -2.666500013449e-04
    41   -5.933149249929e-06
    42    9.752860533723e-06
    43   -4.450122944556e-16
    44   -2.501488697317e-08
    45    7.818069937989e-05
    46    5.336020730816e-05
    47   -3.268573928869e-05
    48   -1.793514581546e-15
    49   -2.600889944231e-04
    50    3.705962970016e-04
    51   -2.337167780484e-04
    52    2.763432722403e-15
    53    2.057308503357e-04
    54    1.382448647306e-04
    55   -9.813636092723e-05
    56   -4.522021919027e-15
    57   -3.898353633770e-04
    58   -5.702404956404e-04
    59    4.284293200950e-04
    60   -1.626996967038e-15
    61    3.255021013493e-05
    62   -8.244484246156e-16
    63    8.450922978464e-17
    64   -9.827039676771e-05
    65    2.043691393814e-04
    66   -5.515877699111e-01
    67   -4.716466483381e-01
    68   -1.512155472617e-03
    69    9.551405627941e-04
    70   -8.413885879792e-16
    71   -5.157498455189e-03
    72    6.478348251707e-04
    73   -3.985534922225e-04
    74    7.271517642136e-16
    75    6.776294310138e-04
    76   -2.371992031556e-04
    77    1.678145244198e-04
    78   -7.593751548515e-16
    79   -1.354189785474e-03
    80   -3.826227633938e-05
    81    5.453925909923e-06
    82    1.117115087273e-15
    83    2.685221434299e-04
    84   -1.345049873299e-16
    85    1.126086482646e-15
    86    2.591412940835e-05
    87   -6.550547534491e-05
    88    4.279289120926e-07
    89    9.203616726594e-07
    90    2.320067532363e-06
    91   -1.829891517813e-06
    92    8.178795914441e-16
    93   -6.648532578280e-06
    94   -2.359345508804e-06
    95    3.675655515550e-06
    96    1.093332728646e-16
    97    1.973807939911e-04
    98   -1.291563381900e-04
    99   -2.849165348155e-06
   100   -6.294281012063e-16
   101   -7.088794138726e-04
   102   -9.910466852915e-05
   103    6.107422011359e-04
   104   -2.894677418539e-15
   105   -2.778580566023e-06
   106    2.863634806199e-16
   107    3.614978379710e-16
   108    4.527740504365e-07
   109    7.260063969851e-07
   110   -1.847205539899e-07
   111   -3.451477023787e-07
   112   -1.824265148711e-06
   113    6.199107170426e-07
   114   -8.869396295568e-16
   115    2.471985697552e-06
   116   -7.551193952079e-08
   117   -2.335007467289e-07
   118    2.184341679624e-15
   119   -7.575018941871e-06
   120    1.005495249628e-06
   121    1.302342538646e-06
   122   -1.694860101562e-15
   123    1.583694851199e-04
   124   -7.325314531780e-05
   125   -5.898706536728e-05
   126    6.965302584114e-16
   127   -4.536459287992e-07
   128    3.049610795684e-16
   129   -2.251537813671e-16
   130   -1.030277509263e-06
   131   -4.747544713579e-07
   132   -1.057524988069e-06
   133   -3.094777485626e-07
   134   -1.909886687328e-05
   135   -1.415898270932e-06
   136    3.979500280729e-16
   137    1.361939931105e-05
   138    4.621501394106e-05
   139    9.563094321602e-06
   140   -1.806895262923e-15
   141   -1.892124395356e-04
   142   -5.442378043480e-05
   143    1.695785457824e-04
   144    3.443921734122e-15
   145    3.468300414495e-05
   146   -3.997007228543e-04
   147   -8.446721537880e-06
   148    1.228279283416e-15
   149    9.095291396572e-06
   150    2.125273356764e-16
   151    1.119772049798e-15
   152   -2.860850170967e-05
   153   -1.246464475005e-05
   154   -1.695645999822e-06
   155   -9.598435788434e-07
   156   -8.868202604942e-06
   157    1.800698397123e-05
   158   -8.842446125534e-16
   159    1.492850745281e-05
   160    1.630651190788e-05
   161   -4.330905719509e-05
   162    2.183388484414e-16
   163   -1.909542210741e-04
   164   -1.556011798856e-04
   165   -2.695912017587e-05
   166    8.768195660992e-16
   167    4.619878235689e-05
   168   -2.193741709049e-04
   169    2.553324608717e-04
   170    5.392653756514e-15
   171    9.395144903616e-06
   172   -1.708033806267e-16
   173   -3.315965981624e-16
   174    2.568809217365e-05
   175    1.808290185155e-05
   176   -2.756181585029e-07
   177    6.001249961155e-07
   178   -2.618092817769e-06
   179    1.405660906830e-06
   180   -2.293109047518e-17
   181   -3.848240711344e-06
   182    1.459168363524e-05
   183   -7.361831386164e-06
   184    1.461963148546e-15
   185   -7.344842345295e-05
   186    3.884690431462e-05
   187   -1.705036748705e-05
   188   -2.988660154854e-15
   189    2.117594854092e-03
   190   -2.831349393855e-04
   191    2.113849576418e-04
   192    7.456337303553e-15
   193   -2.453293931683e-06
   194    4.631519418276e-16
   195    7.809522373252e-17
   196    2.068722725716e-07
   197   -6.501227978017e-07
   198   -5.346864075360e-07
   199   -1.114836444413e-05
   200   -3.548912422892e-06
   201    1.111389389809e-04
   202    2.539642560341e-06
   203   -1.890465431716e-06
   204    9.975497581665e-16
Sym=X
Ene= 0.044759
Spin=Alpha
Occup=0
     1   -2.405732146457e-07
     2   -3.679111772919e-06
     3    4.535581838652e-07
     4   -1.290425875409e-06
     5   -5.945437553151e-16
     6    2.239368157019e-05
     7    1.539261104218e-05
     8    1.470871352192e-05
     9    1.095637997288e-15
    10   -3.315625675796e-04
    11   -8.438455853070e-05
    12   -2.022844371907e-04
    13   -6.672135558314e-15
    14   -4.013953934026e-04
    15    1.141215967231e-04
    16   -5.901789519974e-04
    17    1.034472134030e-14
    18    1.260941177784e-06
    19   -6.924909836552e-16
    20   -1.006820563914e-15
    21   -3.617983950629e-06
    22    1.226044404159e-05
    23    4.849355044668e-08
    24    1.642819997707e-05
    25   -7.813407178186e-05
    26    2.809309668542e-05
    27   -1.940127446352e-06
    28    8.124867073252e-07
    29   -1.212139857326e-15
    30   -6.298592293419e-07
    31   -9.222315694680e-06
    32   -1.314336412519e-04
    33   -2.933521216019e-04
    34    5.071429981173e-06
    35   -8.098849567836e-07
    36    1.604840954433e-15
    37    2.928561624570e-06
    38    3.965053669382e-05
    39    2.347349854538e-05
    40    7.581063613940e-05
    41   -2.170761733454e-06
    42   -9.664266572165e-06
    43    7.932881179028e-16
    44   -2.529173663603e-07
    45   -7.437457360586e-07
    46    1.546305672875e-06
    47    7.943073398250e-08
    48    1.064798961144e-15
    49    5.943155233184e-06
    50   -6.845724053141e-07
    51    2.727310921582e-06
    52   -1.267541855365e-15
    53   -1.520428444041e-04
    54   -1.716201546790e-04
    55    1.348489678745e-05
    56   -1.075419836785e-15
    57   -3.328916601577e-04
    58   -4.646174425862e-05
    59   -1.523823056013e-04
    60    6.991651276464e-15
    61    4.194610266963e-06
    62    4.780961945967e-16
    63   -6.313417566673e-16
    64    1.394753711338e-06
    65    3.013910052795e-06
    66   -2.750909918433e-08
    67    5.984968624005e-08
    68   -1.137704336335e-06
    69    2.359875451034e-07
    70    2.511273977088e-16
    71   -1.175660695960e-06
    72    9.929035929473e-07
    73   -2.485117028499e-06
    74   -1.476006936770e-15
    75   -3.782866867696e-06
    76    2.964412939573e-07
    77    1.429147174021e-05
    78    3.149497127989e-15
    79   -2.920248667656e-04
    80   -1.369291775466e-04
    81    4.351843111187e-05
    82   -3.976851254670e-15
    83    4.187347307751e-07
    84   -5.164124423496e-16
    85   -2.722269297528e-16
    86    1.188298946135e-06
    87   -2.394053284065e-07
    88   -3.034907619348e-06
    89   -5.379885716594e-05
    90    1.732722253600e-05
    91    1.498050537820e-05
    92   -1.851860125656e-16
    93    1.789981643930e-04
    94    3.131828034368e-04
    95    2.237307393879e-04
    96    4.437712018297e-16
    97   -3.726990385295e-04
    98   -1.433720473542e-05
    99    9.161797588885e-05
   100   -3.860198014641e-15
   101   -1.208256466222e-03
   102   -7.499737939187e-04
   103    2.130434764873e-04
   104    1.025920392790e-14
   105   -5.529919500485e-05
   106   -3.356224596993e-16
   107   -1.048851539151e-15
   108    8.268411269569e-05
   109    1.919567038901e-04
   110    5.515849746674e-01
   111    4.717122397634e-01
   112   -1.397147722221e-03
   113   -8.905211778322e-04
   114   -7.415901059395e-16
   115    5.092548864080e-03
   116    6.391977400976e-04
   117    3.914485263551e-04
   118   -2.815240800972e-16
   119   -6.993728997967e-04
   120   -2.682690191583e-04
   121   -2.060416188940e-04
   122    2.534993554365e-15
   123    1.472392813650e-03
   124   -1.162254296325e-04
   125   -5.828754239090e-05
   126   -2.414652419244e-15
   127   -6.888676384340e-05
   128   -3.208922523952e-16
   129   -6.047040817554e-17
   130   -4.799242090039e-05
   131   -1.735617671070e-04
   132    4.686705450535e-07
   133   -3.141882606635e-07
   134   -1.384581799497e-05
   135    5.317902937650e-06
   136    9.332640203682e-16
   137   -1.162162573744e-05
   138    4.265129618185e-05
   139   -2.248629407950e-05
   140   -1.450450453703e-15
   141    1.600167835220e-04
   142   -7.666676417465e-05
   143   -1.207507295179e-04
   144    3.115270383547e-15
   145   -2.967464365483e-04
   146   -5.902580709650e-04
   147   -1.281904197381e-05
   148   -5.071386395297e-15
   149   -6.610077791382e-06
   150    8.935767372728e-16
   151   -1.232869884452e-17
   152    1.997343667648e-05
   153   -2.177052009327e-05
   154   -1.707104967809e-08
   155   -2.152179777124e-07
   156   -7.375658531338e-07
   157   -2.876909352088e-07
   158    1.268698101656e-16
   159   -5.712492797302e-06
   160    3.375671959308e-06
   161    1.127860340442e-06
   162   -2.784908621094e-16
   163    1.186008244247e-04
   164    7.127715724083e-05
   165    8.779774761362e-06
   166    3.385024053790e-15
   167    2.165644045909e-04
   168   -7.905759113928e-05
   169   -6.009890412553e-06
   170   -5.096900232175e-15
   171    5.826678792868e-08
   172   -4.421070581640e-16
   173    1.631277735809e-16
   174   -4.795764594470e-07
   175   -2.556106014801e-06
   176    2.656879723371e-06
   177    1.841985046333e-07
   178   -8.357561901617e-06
   179   -2.088101216295e-05
   180    1.051196063321e-15
   181   -3.838770264661e-06
   182    1.772561595305e-05
   183    9.679299756091e-05
   184   -2.764376826266e-15
   185    3.361676759551e-04
   186   -3.183428171414e-04
   187    2.402311941714e-05
   188    8.591433129321e-15
   189    1.495021545669e-03
   190   -4.608798295027e-05
   191    7.986048608128e-04
   192   -1.598850355490e-14
   193   -2.645553889720e-06
   194   -3.979279264026e-16
   195    3.327423349976e-16
   196   -4.601347263580e-05
   197    3.562874738458e-05
   198    3.384821300191e-08
   199    9.149817523292e-05
   200    5.756446877206e-05
   201    3.183556388481e-04
   202   -2.177998497553e-05
   203    1.280800362856e-05
   204   -3.084056628011e-16
[5D]
