[Molden Format]
[Atoms] (Angs)
  C      1    6     -0.00754183     -1.75895763      0.00000000
  H      2    1     -2.09769850     -1.41880678     -0.00000000
  H      3    1     -0.13527422     -2.83956838     -0.00000000
  H      4    1      0.04053511      2.02026369      0.00000000
  C      5    6     -1.22066484      0.39918184     -0.00000000
  O      6    8     -2.25210141      1.05663720     -0.00000000
  C      7    6      1.24009552      0.27789184      0.00000000
  O      8    8      2.33767996      1.06122493      0.00000000
  N      9    7      0.03634586      1.00852936      0.00000000
  N     10    7     -1.18738304     -0.97903470     -0.00000000
  C     11    6      1.22288875     -1.12258096      0.00000000
  H     12    1      2.15640383     -1.68445878      0.00000000
[GTO]
1    0
S    6    1.000000
   4.56324000E+03    1.96665000E-03 
   6.82024000E+02    1.52306000E-02 
   1.54973000E+02    7.61269000E-02 
   4.44553000E+01    2.60801000E-01 
   1.30290000E+01    6.16462000E-01 
   1.82773000E+00    2.21006000E-01 
SP   3    1.000000
   2.09642000E+01    1.14660000E-01   4.02487000E-02 
   4.80331000E+00    9.19999000E-01   2.37594000E-01 
   1.45933000E+00   -3.03068000E-03   8.15854000E-01 
SP   1    1.000000
   4.83456000E-01    1.00000000E+00   1.00000000E+00 
SP   1    1.000000
   1.45585000E-01    1.00000000E+00   1.00000000E+00 
SP   1    1.000000
   4.38000000E-02    1.00000000E+00   1.00000000E+00 
D    1    1.000000
   6.26000000E-01    1.00000000E+00 

2    0
S    3    1.000000
   3.38650000E+01    2.54938000E-02 
   5.09479000E+00    1.90373000E-01 
   1.15879000E+00    8.52161000E-01 
S    1    1.000000
   3.25840000E-01    1.00000000E+00 
S    1    1.000000
   1.02741000E-01    1.00000000E+00 
S    1    1.000000
   3.60000000E-02    1.00000000E+00 
P    1    1.000000
   7.50000000E-01    1.00000000E+00 

3    0
S    3    1.000000
   3.38650000E+01    2.54938000E-02 
   5.09479000E+00    1.90373000E-01 
   1.15879000E+00    8.52161000E-01 
S    1    1.000000
   3.25840000E-01    1.00000000E+00 
S    1    1.000000
   1.02741000E-01    1.00000000E+00 
S    1    1.000000
   3.60000000E-02    1.00000000E+00 
P    1    1.000000
   7.50000000E-01    1.00000000E+00 

4    0
S    3    1.000000
   3.38650000E+01    2.54938000E-02 
   5.09479000E+00    1.90373000E-01 
   1.15879000E+00    8.52161000E-01 
S    1    1.000000
   3.25840000E-01    1.00000000E+00 
S    1    1.000000
   1.02741000E-01    1.00000000E+00 
S    1    1.000000
   3.60000000E-02    1.00000000E+00 
P    1    1.000000
   7.50000000E-01    1.00000000E+00 

5    0
S    6    1.000000
   4.56324000E+03    1.96665000E-03 
   6.82024000E+02    1.52306000E-02 
   1.54973000E+02    7.61269000E-02 
   4.44553000E+01    2.60801000E-01 
   1.30290000E+01    6.16462000E-01 
   1.82773000E+00    2.21006000E-01 
SP   3    1.000000
   2.09642000E+01    1.14660000E-01   4.02487000E-02 
   4.80331000E+00    9.19999000E-01   2.37594000E-01 
   1.45933000E+00   -3.03068000E-03   8.15854000E-01 
SP   1    1.000000
   4.83456000E-01    1.00000000E+00   1.00000000E+00 
SP   1    1.000000
   1.45585000E-01    1.00000000E+00   1.00000000E+00 
SP   1    1.000000
   4.38000000E-02    1.00000000E+00   1.00000000E+00 
D    1    1.000000
   6.26000000E-01    1.00000000E+00 

6    0
S    6    1.000000
   8.58850000E+03    1.89515000E-03 
   1.29723000E+03    1.43859000E-02 
   2.99296000E+02    7.07320000E-02 
   8.73771000E+01    2.40001000E-01 
   2.56789000E+01    5.94797000E-01 
   3.74004000E+00    2.80802000E-01 
SP   3    1.000000
   4.21175000E+01    1.13889000E-01   3.65114000E-02 
   9.62837000E+00    9.20811000E-01   2.37153000E-01 
   2.85332000E+00   -3.27447000E-03   8.19702000E-01 
SP   1    1.000000
   9.05661000E-01    1.00000000E+00   1.00000000E+00 
SP   1    1.000000
   2.55611000E-01    1.00000000E+00   1.00000000E+00 
SP   1    1.000000
   8.45000000E-02    1.00000000E+00   1.00000000E+00 
D    1    1.000000
   1.29200000E+00    1.00000000E+00 

7    0
S    6    1.000000
   4.56324000E+03    1.96665000E-03 
   6.82024000E+02    1.52306000E-02 
   1.54973000E+02    7.61269000E-02 
   4.44553000E+01    2.60801000E-01 
   1.30290000E+01    6.16462000E-01 
   1.82773000E+00    2.21006000E-01 
SP   3    1.000000
   2.09642000E+01    1.14660000E-01   4.02487000E-02 
   4.80331000E+00    9.19999000E-01   2.37594000E-01 
   1.45933000E+00   -3.03068000E-03   8.15854000E-01 
SP   1    1.000000
   4.83456000E-01    1.00000000E+00   1.00000000E+00 
SP   1    1.000000
   1.45585000E-01    1.00000000E+00   1.00000000E+00 
SP   1    1.000000
   4.38000000E-02    1.00000000E+00   1.00000000E+00 
D    1    1.000000
   6.26000000E-01    1.00000000E+00 

8    0
S    6    1.000000
   8.58850000E+03    1.89515000E-03 
   1.29723000E+03    1.43859000E-02 
   2.99296000E+02    7.07320000E-02 
   8.73771000E+01    2.40001000E-01 
   2.56789000E+01    5.94797000E-01 
   3.74004000E+00    2.80802000E-01 
SP   3    1.000000
   4.21175000E+01    1.13889000E-01   3.65114000E-02 
   9.62837000E+00    9.20811000E-01   2.37153000E-01 
   2.85332000E+00   -3.27447000E-03   8.19702000E-01 
SP   1    1.000000
   9.05661000E-01    1.00000000E+00   1.00000000E+00 
SP   1    1.000000
   2.55611000E-01    1.00000000E+00   1.00000000E+00 
SP   1    1.000000
   8.45000000E-02    1.00000000E+00   1.00000000E+00 
D    1    1.000000
   1.29200000E+00    1.00000000E+00 

9    0
S    6    1.000000
   6.29348000E+03    1.96979000E-03 
   9.49044000E+02    1.49613000E-02 
   2.18776000E+02    7.35006000E-02 
   6.36916000E+01    2.48937000E-01 
   1.88282000E+01    6.02460000E-01 
   2.72023000E+00    2.56202000E-01 
SP   3    1.000000
   3.06331000E+01    1.11906000E-01   3.83119000E-02 
   7.02614000E+00    9.21666000E-01   2.37403000E-01 
   2.11205000E+00   -2.56919000E-03   8.17592000E-01 
SP   1    1.000000
   6.84009000E-01    1.00000000E+00   1.00000000E+00 
SP   1    1.000000
   2.00878000E-01    1.00000000E+00   1.00000000E+00 
SP   1    1.000000
   6.39000000E-02    1.00000000E+00   1.00000000E+00 
D    1    1.000000
   9.13000000E-01    1.00000000E+00 

10    0
S    6    1.000000
   6.29348000E+03    1.96979000E-03 
   9.49044000E+02    1.49613000E-02 
   2.18776000E+02    7.35006000E-02 
   6.36916000E+01    2.48937000E-01 
   1.88282000E+01    6.02460000E-01 
   2.72023000E+00    2.56202000E-01 
SP   3    1.000000
   3.06331000E+01    1.11906000E-01   3.83119000E-02 
   7.02614000E+00    9.21666000E-01   2.37403000E-01 
   2.11205000E+00   -2.56919000E-03   8.17592000E-01 
SP   1    1.000000
   6.84009000E-01    1.00000000E+00   1.00000000E+00 
SP   1    1.000000
   2.00878000E-01    1.00000000E+00   1.00000000E+00 
SP   1    1.000000
   6.39000000E-02    1.00000000E+00   1.00000000E+00 
D    1    1.000000
   9.13000000E-01    1.00000000E+00 

11    0
S    6    1.000000
   4.56324000E+03    1.96665000E-03 
   6.82024000E+02    1.52306000E-02 
   1.54973000E+02    7.61269000E-02 
   4.44553000E+01    2.60801000E-01 
   1.30290000E+01    6.16462000E-01 
   1.82773000E+00    2.21006000E-01 
SP   3    1.000000
   2.09642000E+01    1.14660000E-01   4.02487000E-02 
   4.80331000E+00    9.19999000E-01   2.37594000E-01 
   1.45933000E+00   -3.03068000E-03   8.15854000E-01 
SP   1    1.000000
   4.83456000E-01    1.00000000E+00   1.00000000E+00 
SP   1    1.000000
   1.45585000E-01    1.00000000E+00   1.00000000E+00 
SP   1    1.000000
   4.38000000E-02    1.00000000E+00   1.00000000E+00 
D    1    1.000000
   6.26000000E-01    1.00000000E+00 

12    0
S    3    1.000000
   3.38650000E+01    2.54938000E-02 
   5.09479000E+00    1.90373000E-01 
   1.15879000E+00    8.52161000E-01 
S    1    1.000000
   3.25840000E-01    1.00000000E+00 
S    1    1.000000
   1.02741000E-01    1.00000000E+00 
S    1    1.000000
   3.60000000E-02    1.00000000E+00 
P    1    1.000000
   7.50000000E-01    1.00000000E+00 

[MO]
Sym=X
Ene= -0.495022
Spin=Alpha
Occup=1
     1   -9.126384183876e-03
     2   -1.573357255178e-02
     3   -2.206248768777e-02
     4   -1.844522012779e-02
     5   -4.396101119208e-15
     6    4.221077664289e-02
     7   -2.609183314141e-02
     8   -1.971313985759e-02
     9   -3.190328895201e-14
    10    2.058149165463e-01
    11   -1.700404348374e-01
    12   -1.034257274883e-01
    13    1.000720932279e-13
    14    3.154211288158e+00
    15   -7.425996332822e-01
    16   -3.494203744572e+00
    17    1.536364953334e-13
    18    4.140808468541e-03
    19    6.375384105828e-15
    20    1.135747242136e-15
    21   -9.045554937912e-03
    22    1.005909527950e-02
    23    5.979571833454e-03
    24    5.498896453133e-03
    25    6.667115076410e-01
    26    1.863123788442e+00
    27   -8.156369521825e-03
    28   -1.932138224741e-03
    29   -7.560636780209e-15
    30    7.937387496871e-03
    31    4.950999849527e-02
    32   -5.363833508694e-01
    33   -5.787969472212e+00
    34   -4.094764979861e-03
    35    8.383183937244e-03
    36   -5.594737933654e-16
    37    1.511887914568e-02
    38    6.017736933369e-02
    39   -3.124391298285e-02
    40   -4.434664205462e-03
    41   -4.473976512655e-03
    42    3.342119563314e-03
    43   -1.809144792403e-15
    44    1.123095486732e-03
    45    2.795748878471e-03
    46   -1.081549017700e-02
    47   -1.251948203473e-02
    48    2.364976262981e-14
    49   -2.965633797453e-02
    50   -2.589063557660e-02
    51   -2.818205676563e-02
    52    9.836892067551e-15
    53    1.184226438344e-01
    54   -3.391444024933e-02
    55    1.269022762000e-01
    56    1.479783509321e-13
    57    1.603342030552e+00
    58    5.714597046442e-01
    59    2.718319849309e-01
    60    1.850680144950e-13
    61    5.683124619220e-03
    62   -3.576551571982e-15
    63   -5.050660828803e-18
    64    4.126469701079e-04
    65   -4.312847268529e-03
    66    7.044021045683e-03
    67    1.222775125675e-02
    68    1.102855139216e-02
    69    8.380482816746e-03
    70   -3.638339685797e-16
    71   -4.058657953652e-02
    72    1.750574037205e-02
    73    1.416169969726e-02
    74   -1.232522182255e-14
    75   -7.485959575376e-02
    76   -9.654428990140e-03
    77    2.267458006703e-02
    78    1.538727761807e-14
    79   -4.073039467612e-01
    80   -1.021318290262e-02
    81    4.646198700346e-02
    82   -1.466715193986e-13
    83    9.699103718762e-04
    84    1.349660334075e-15
    85   -1.467987198620e-17
    86   -1.164314552765e-03
    87    1.437605331346e-03
    88    1.400777626837e-02
    89    2.508547555003e-02
    90   -4.949932544969e-02
    91   -1.430570144689e-02
    92   -5.789702909092e-15
    93   -7.876535106201e-02
    94   -9.057713454164e-02
    95   -2.878301652448e-02
    96    1.645859644468e-15
    97   -3.547159987493e-01
    98   -2.800230260820e-01
    99   -1.552720609760e-01
   100   -4.422648006823e-14
   101    9.831260462850e-01
   102   -7.342130825479e-01
   103   -2.018021184300e+00
   104    4.706261840969e-13
   105   -1.099163709963e-02
   106   -9.879838734757e-16
   107   -6.542544023721e-15
   108    8.056096552156e-04
   109    1.805346265919e-02
   110   -1.529026885234e-02
   111   -2.632023234441e-02
   112   -5.372477401751e-02
   113   -1.230584112357e-02
   114    2.579035358578e-15
   115    8.483734586583e-02
   116   -7.223341826044e-02
   117   -1.269921961646e-02
   118    3.362767592027e-16
   119    2.442520731940e-01
   120   -1.328301058394e-01
   121   -7.784363219018e-02
   122    1.595356820724e-14
   123    4.862741639758e-01
   124    1.359887313979e-03
   125    2.842315851492e-02
   126   -3.697349842518e-14
   127    3.118434614749e-04
   128    7.023499616073e-16
   129    5.119101647752e-16
   130    1.955407011390e-03
   131   -5.167799339108e-03
   132    5.088667292940e-03
   133    9.043577173716e-03
   134    8.949003369339e-03
   135   -4.161541078522e-03
   136    2.308303584748e-15
   137   -3.395785918051e-02
   138    1.774462778398e-02
   139   -6.982611756043e-03
   140   -7.456799036512e-15
   141   -4.823936410935e-02
   142    3.219185569688e-02
   143   -1.884870034320e-02
   144    3.175162786470e-14
   145   -1.294067349073e+00
   146    6.976137228711e-01
   147    7.594542054274e-01
   148   -2.790012602928e-13
   149   -8.621740451950e-04
   150   -5.589018261708e-15
   151    6.284225672269e-16
   152   -9.239409270666e-03
   153   -4.219970899768e-03
   154    1.702028929844e-02
   155    2.948556832009e-02
   156    2.000070480201e-03
   157    1.733171129669e-02
   158    3.718948434233e-15
   159   -9.061785710490e-02
   160   -1.458297212301e-05
   161    2.316761660757e-02
   162    2.358584484377e-15
   163   -2.498878990457e-01
   164    2.969562975932e-03
   165    8.529674165785e-02
   166    1.462361700739e-14
   167   -4.658821426740e-01
   168    8.350464845852e-01
   169    1.120556487818e+00
   170   -2.700617129154e-13
   171   -2.565461897503e-04
   172    9.796840498153e-16
   173    5.886588669675e-15
   174    1.597447573781e-03
   175   -1.470856001607e-03
   176    4.406081963236e-03
   177    7.761049507449e-03
   178   -9.806202923914e-03
   179    2.258665438512e-02
   180    1.361291397575e-14
   181   -2.486667723160e-02
   182   -1.334924212751e-02
   183    3.217996861138e-02
   184    3.025133890949e-14
   185   -5.896096978485e-02
   186   -4.359228248424e-02
   187    5.800236102583e-02
   188    2.016497029601e-14
   189   -2.795057940425e+00
   190   -2.184396161733e-01
   191    1.208112588718e+00
   192   -4.352819403185e-13
   193   -2.793483978940e-03
   194    1.384771168570e-15
   195    2.643652317389e-15
   196    9.559315794456e-03
   197   -1.458331395146e-02
   198    1.979919873528e-02
   199    3.526632455156e-02
   200    3.289929774343e-01
   201    2.380022717557e+00
   202    1.071087346507e-02
   203    1.770602622173e-03
   204    1.333657508785e-15
Sym=X
Ene= 0.495022
Spin=Alpha
Occup=0
     1   -5.798321117582e-15
     2   -1.058748578008e-14
     3    1.686578647090e-14
     4    3.621000508070e-15
     5    6.300340398433e-02
     6    5.505375942960e-14
     7   -4.718354928837e-14
     8   -3.467341212619e-14
     9    7.545928023175e-02
    10   -8.922511266284e-14
    11    2.696723302393e-13
    12    5.246407380838e-14
    13    2.763099807989e-01
    14    1.896639917053e-11
    15    2.387854561308e-12
    16    7.379749216648e-12
    17   -1.177280821749e+00
    18    2.726331038677e-14
    19   -2.449529902122e-03
    20    1.547184703832e-02
    21   -2.102719586148e-14
    22   -2.605638594679e-14
    23    1.296818165894e-14
    24   -6.498041458398e-14
    25    8.747535203872e-13
    26    2.698835412526e-12
    27   -1.403463433773e-15
    28    7.268398427287e-15
    29   -2.043651857056e-03
    30    4.205380090365e-15
    31   -1.338790643975e-13
    32    7.176745203598e-13
    33    2.836575677275e-12
    34   -3.888431573286e-16
    35   -2.184066619033e-15
    36   -6.864507684693e-03
    37    9.132445143580e-15
    38   -7.938290993655e-14
    39    2.106058612762e-12
    40   -1.429588974577e-12
    41    4.893977055195e-15
    42    3.272972943565e-15
    43    7.675346426988e-03
    44    4.066466085144e-15
    45    4.960836782651e-15
    46    2.463880732901e-14
    47    2.654414688159e-14
    48   -3.334530135995e-02
    49    1.718834735870e-14
    50   -3.066837374498e-14
    51    3.775235384617e-14
    52   -4.901772868171e-02
    53   -9.582859389939e-13
    54    6.676094980985e-13
    55    3.886382257891e-13
    56   -1.386125124867e-01
    57   -9.992181781345e-12
    58   -2.541839158194e-13
    59    5.059785647006e-12
    60   -5.495300251254e-01
    61    1.652199954960e-15
    62   -7.062259045515e-03
    63    2.122640755565e-03
    64    1.750892119823e-15
    65   -1.650543399986e-17
    66   -1.749783219026e-15
    67   -1.563481708868e-15
    68    4.630257813487e-15
    69    1.922660167146e-15
    70    2.523986163997e-02
    71    7.307546161074e-15
    72   -8.596747401930e-15
    73   -1.918073992807e-15
    74    4.062493109706e-02
    75    6.230071453855e-14
    76    8.796222962593e-14
    77    9.855190548538e-15
    78    3.980354792172e-02
    79    1.374339638679e-12
    80    1.449218531910e-13
    81   -1.096319683826e-12
    82    1.750763307052e-01
    83    4.712975369540e-16
    84   -5.902095544219e-04
    85    1.173823986535e-03
    86    1.441170953287e-15
    87    3.730518838877e-15
    88    1.654737991772e-16
    89    4.247196759713e-15
    90    2.439551375768e-14
    91    1.597892286984e-14
    92   -4.398704185692e-02
    93   -1.190851614805e-14
    94    8.284865293078e-15
    95   -1.017020708788e-14
    96   -5.440158366350e-02
    97    8.814967019183e-14
    98    1.828509576687e-13
    99    8.883804853020e-13
   100   -2.227531791358e-01
   101    2.889879339028e-11
   102   -4.526476135263e-12
   103   -2.965363503256e-12
   104    1.743649560809e+00
   105   -1.197025662640e-15
   106   -6.096802333246e-03
   107   -2.481500540263e-03
   108    5.742710617955e-15
   109   -1.483043754733e-14
   110    2.445567938691e-15
   111    5.755213854819e-15
   112   -5.639435191962e-15
   113    6.453269980324e-15
   114   -2.966573653806e-02
   115   -1.843707984088e-14
   116   -1.557754315637e-14
   117    2.226427421660e-14
   118   -4.677302696350e-02
   119   -6.122783756252e-14
   120    2.442203024046e-14
   121   -1.579584502751e-14
   122   -8.095182772354e-03
   123   -8.882673608172e-13
   124    3.093312901267e-13
   125    4.107275132927e-13
   126   -9.366164121744e-02
   127   -3.592401487570e-15
   128    4.144728406749e-03
   129    4.597668829126e-03
   130   -1.096963589374e-15
   131    4.716839689149e-15
   132   -8.687428299035e-15
   133   -1.357067909868e-14
   134    2.511060847460e-14
   135   -1.161801309756e-14
   136    6.544335190324e-04
   137    2.498166615904e-14
   138    1.785570297023e-14
   139   -1.195599279749e-14
   140   -1.524948955293e-03
   141    2.287740727223e-13
   142    1.688161289933e-13
   143   -4.770592807079e-14
   144    2.292858229961e-02
   145   -9.654946716513e-12
   146   -1.295802434805e-12
   147   -7.146668329672e-13
   148    3.665628664270e-02
   149   -1.176701918910e-14
   150    3.030277935386e-03
   151    7.090290682367e-03
   152    5.350742506160e-16
   153    7.988884976247e-16
   154    2.969117218723e-15
   155    5.017809180179e-15
   156   -6.581316366284e-15
   157    1.350189985874e-14
   158    2.612023447320e-02
   159    1.448851932945e-15
   160   -1.972796503910e-14
   161    1.487110381256e-14
   162    4.835042082845e-02
   163   -2.995924113126e-13
   164   -8.963010584853e-14
   165    1.757225138434e-13
   166    2.323130102990e-02
   167    4.416581537775e-12
   168    1.577644695102e-12
   169    1.706986296063e-12
   170    3.931548015578e-01
   171    7.667852478374e-15
   172    6.588996227167e-03
   173   -4.558770367727e-03
   174    5.167554494878e-15
   175    2.514890044376e-15
   176   -2.626557041474e-15
   177    2.546391727129e-15
   178    4.798154768946e-14
   179    1.366123746016e-14
   180    2.142249699673e-02
   181   -6.523459026473e-14
   182   -2.854464173734e-14
   183    2.242508499225e-14
   184    2.781009445879e-02
   185    1.141510300845e-12
   186    6.753946075313e-13
   187    5.250201139938e-13
   188    8.710980121496e-02
   189   -3.401074335064e-11
   190    9.968976202724e-12
   191   -7.671367716462e-12
   192   -7.612930669288e-01
   193   -2.264475817050e-14
   194   -9.001022903449e-03
   195    2.058221741136e-04
   196    1.333123995089e-14
   197    2.342371241732e-14
   198   -2.182022468902e-14
   199   -1.689247683888e-14
   200   -1.535053075349e-12
   201   -5.182082954150e-12
   202    3.436811631843e-15
   203   -6.958706607789e-15
   204   -3.454536414803e-03
[5D]
