[Molden Format]
[Atoms] (Angs)
  C      1    6     -0.00754183     -1.75895763      0.00000000
  H      2    1     -2.09769850     -1.41880678     -0.00000000
  H      3    1     -0.13527422     -2.83956838     -0.00000000
  H      4    1      0.04053511      2.02026369      0.00000000
  C      5    6     -1.22066484      0.39918184     -0.00000000
  O      6    8     -2.25210141      1.05663720     -0.00000000
  C      7    6      1.24009552      0.27789184      0.00000000
  O      8    8      2.33767996      1.06122493      0.00000000
  N      9    7      0.03634586      1.00852936      0.00000000
  N     10    7     -1.18738304     -0.97903470     -0.00000000
  C     11    6      1.22288875     -1.12258096      0.00000000
  H     12    1      2.15640383     -1.68445878      0.00000000
[GTO]
1    0
S    6    1.000000
   4.56324000E+03    1.96665000E-03 
   6.82024000E+02    1.52306000E-02 
   1.54973000E+02    7.61269000E-02 
   4.44553000E+01    2.60801000E-01 
   1.30290000E+01    6.16462000E-01 
   1.82773000E+00    2.21006000E-01 
SP   3    1.000000
   2.09642000E+01    1.14660000E-01   4.02487000E-02 
   4.80331000E+00    9.19999000E-01   2.37594000E-01 
   1.45933000E+00   -3.03068000E-03   8.15854000E-01 
SP   1    1.000000
   4.83456000E-01    1.00000000E+00   1.00000000E+00 
SP   1    1.000000
   1.45585000E-01    1.00000000E+00   1.00000000E+00 
SP   1    1.000000
   4.38000000E-02    1.00000000E+00   1.00000000E+00 
D    1    1.000000
   6.26000000E-01    1.00000000E+00 

2    0
S    3    1.000000
   3.38650000E+01    2.54938000E-02 
   5.09479000E+00    1.90373000E-01 
   1.15879000E+00    8.52161000E-01 
S    1    1.000000
   3.25840000E-01    1.00000000E+00 
S    1    1.000000
   1.02741000E-01    1.00000000E+00 
S    1    1.000000
   3.60000000E-02    1.00000000E+00 
P    1    1.000000
   7.50000000E-01    1.00000000E+00 

3    0
S    3    1.000000
   3.38650000E+01    2.54938000E-02 
   5.09479000E+00    1.90373000E-01 
   1.15879000E+00    8.52161000E-01 
S    1    1.000000
   3.25840000E-01    1.00000000E+00 
S    1    1.000000
   1.02741000E-01    1.00000000E+00 
S    1    1.000000
   3.60000000E-02    1.00000000E+00 
P    1    1.000000
   7.50000000E-01    1.00000000E+00 

4    0
S    3    1.000000
   3.38650000E+01    2.54938000E-02 
   5.09479000E+00    1.90373000E-01 
   1.15879000E+00    8.52161000E-01 
S    1    1.000000
   3.25840000E-01    1.00000000E+00 
S    1    1.000000
   1.02741000E-01    1.00000000E+00 
S    1    1.000000
   3.60000000E-02    1.00000000E+00 
P    1    1.000000
   7.50000000E-01    1.00000000E+00 

5    0
S    6    1.000000
   4.56324000E+03    1.96665000E-03 
   6.82024000E+02    1.52306000E-02 
   1.54973000E+02    7.61269000E-02 
   4.44553000E+01    2.60801000E-01 
   1.30290000E+01    6.16462000E-01 
   1.82773000E+00    2.21006000E-01 
SP   3    1.000000
   2.09642000E+01    1.14660000E-01   4.02487000E-02 
   4.80331000E+00    9.19999000E-01   2.37594000E-01 
   1.45933000E+00   -3.03068000E-03   8.15854000E-01 
SP   1    1.000000
   4.83456000E-01    1.00000000E+00   1.00000000E+00 
SP   1    1.000000
   1.45585000E-01    1.00000000E+00   1.00000000E+00 
SP   1    1.000000
   4.38000000E-02    1.00000000E+00   1.00000000E+00 
D    1    1.000000
   6.26000000E-01    1.00000000E+00 

6    0
S    6    1.000000
   8.58850000E+03    1.89515000E-03 
   1.29723000E+03    1.43859000E-02 
   2.99296000E+02    7.07320000E-02 
   8.73771000E+01    2.40001000E-01 
   2.56789000E+01    5.94797000E-01 
   3.74004000E+00    2.80802000E-01 
SP   3    1.000000
   4.21175000E+01    1.13889000E-01   3.65114000E-02 
   9.62837000E+00    9.20811000E-01   2.37153000E-01 
   2.85332000E+00   -3.27447000E-03   8.19702000E-01 
SP   1    1.000000
   9.05661000E-01    1.00000000E+00   1.00000000E+00 
SP   1    1.000000
   2.55611000E-01    1.00000000E+00   1.00000000E+00 
SP   1    1.000000
   8.45000000E-02    1.00000000E+00   1.00000000E+00 
D    1    1.000000
   1.29200000E+00    1.00000000E+00 

7    0
S    6    1.000000
   4.56324000E+03    1.96665000E-03 
   6.82024000E+02    1.52306000E-02 
   1.54973000E+02    7.61269000E-02 
   4.44553000E+01    2.60801000E-01 
   1.30290000E+01    6.16462000E-01 
   1.82773000E+00    2.21006000E-01 
SP   3    1.000000
   2.09642000E+01    1.14660000E-01   4.02487000E-02 
   4.80331000E+00    9.19999000E-01   2.37594000E-01 
   1.45933000E+00   -3.03068000E-03   8.15854000E-01 
SP   1    1.000000
   4.83456000E-01    1.00000000E+00   1.00000000E+00 
SP   1    1.000000
   1.45585000E-01    1.00000000E+00   1.00000000E+00 
SP   1    1.000000
   4.38000000E-02    1.00000000E+00   1.00000000E+00 
D    1    1.000000
   6.26000000E-01    1.00000000E+00 

8    0
S    6    1.000000
   8.58850000E+03    1.89515000E-03 
   1.29723000E+03    1.43859000E-02 
   2.99296000E+02    7.07320000E-02 
   8.73771000E+01    2.40001000E-01 
   2.56789000E+01    5.94797000E-01 
   3.74004000E+00    2.80802000E-01 
SP   3    1.000000
   4.21175000E+01    1.13889000E-01   3.65114000E-02 
   9.62837000E+00    9.20811000E-01   2.37153000E-01 
   2.85332000E+00   -3.27447000E-03   8.19702000E-01 
SP   1    1.000000
   9.05661000E-01    1.00000000E+00   1.00000000E+00 
SP   1    1.000000
   2.55611000E-01    1.00000000E+00   1.00000000E+00 
SP   1    1.000000
   8.45000000E-02    1.00000000E+00   1.00000000E+00 
D    1    1.000000
   1.29200000E+00    1.00000000E+00 

9    0
S    6    1.000000
   6.29348000E+03    1.96979000E-03 
   9.49044000E+02    1.49613000E-02 
   2.18776000E+02    7.35006000E-02 
   6.36916000E+01    2.48937000E-01 
   1.88282000E+01    6.02460000E-01 
   2.72023000E+00    2.56202000E-01 
SP   3    1.000000
   3.06331000E+01    1.11906000E-01   3.83119000E-02 
   7.02614000E+00    9.21666000E-01   2.37403000E-01 
   2.11205000E+00   -2.56919000E-03   8.17592000E-01 
SP   1    1.000000
   6.84009000E-01    1.00000000E+00   1.00000000E+00 
SP   1    1.000000
   2.00878000E-01    1.00000000E+00   1.00000000E+00 
SP   1    1.000000
   6.39000000E-02    1.00000000E+00   1.00000000E+00 
D    1    1.000000
   9.13000000E-01    1.00000000E+00 

10    0
S    6    1.000000
   6.29348000E+03    1.96979000E-03 
   9.49044000E+02    1.49613000E-02 
   2.18776000E+02    7.35006000E-02 
   6.36916000E+01    2.48937000E-01 
   1.88282000E+01    6.02460000E-01 
   2.72023000E+00    2.56202000E-01 
SP   3    1.000000
   3.06331000E+01    1.11906000E-01   3.83119000E-02 
   7.02614000E+00    9.21666000E-01   2.37403000E-01 
   2.11205000E+00   -2.56919000E-03   8.17592000E-01 
SP   1    1.000000
   6.84009000E-01    1.00000000E+00   1.00000000E+00 
SP   1    1.000000
   2.00878000E-01    1.00000000E+00   1.00000000E+00 
SP   1    1.000000
   6.39000000E-02    1.00000000E+00   1.00000000E+00 
D    1    1.000000
   9.13000000E-01    1.00000000E+00 

11    0
S    6    1.000000
   4.56324000E+03    1.96665000E-03 
   6.82024000E+02    1.52306000E-02 
   1.54973000E+02    7.61269000E-02 
   4.44553000E+01    2.60801000E-01 
   1.30290000E+01    6.16462000E-01 
   1.82773000E+00    2.21006000E-01 
SP   3    1.000000
   2.09642000E+01    1.14660000E-01   4.02487000E-02 
   4.80331000E+00    9.19999000E-01   2.37594000E-01 
   1.45933000E+00   -3.03068000E-03   8.15854000E-01 
SP   1    1.000000
   4.83456000E-01    1.00000000E+00   1.00000000E+00 
SP   1    1.000000
   1.45585000E-01    1.00000000E+00   1.00000000E+00 
SP   1    1.000000
   4.38000000E-02    1.00000000E+00   1.00000000E+00 
D    1    1.000000
   6.26000000E-01    1.00000000E+00 

12    0
S    3    1.000000
   3.38650000E+01    2.54938000E-02 
   5.09479000E+00    1.90373000E-01 
   1.15879000E+00    8.52161000E-01 
S    1    1.000000
   3.25840000E-01    1.00000000E+00 
S    1    1.000000
   1.02741000E-01    1.00000000E+00 
S    1    1.000000
   3.60000000E-02    1.00000000E+00 
P    1    1.000000
   7.50000000E-01    1.00000000E+00 

[MO]
Sym=X
Ene= -0.487995
Spin=Alpha
Occup=1
     1    2.871611093066e-04
     2    7.029709286208e-05
     3    8.539052088373e-03
     4    3.229446761523e-03
     5    1.237490563796e-14
     6    1.536031727175e-02
     7    1.213253517546e-02
     8   -5.498560293174e-03
     9    1.283999458159e-15
    10   -3.555680884152e-01
    11   -2.828994491628e-02
    12   -1.994232719624e-01
    13    8.168469702312e-14
    14    1.006413679184e+00
    15    2.338545142744e-01
    16   -2.611603021845e-02
    17   -4.010185355173e-13
    18   -1.459165472439e-02
    19   -4.598164973804e-15
    20   -6.806157556180e-16
    21   -8.249815772730e-03
    22   -5.799598440757e-04
    23    1.973794484376e-02
    24    1.381098618243e-01
    25    3.717020998126e-01
    26    1.511767488770e+00
    27    4.239593561275e-03
    28   -1.893797085915e-03
    29   -4.822044556309e-16
    30    1.544569807325e-02
    31   -1.039476139671e-03
    32    1.036082583776e-01
    33   -3.622523325040e-01
    34   -2.236109798021e-05
    35   -4.922199005631e-03
    36    8.441543040878e-16
    37    1.978500361363e-02
    38    1.387531838743e-01
    39    5.040437818134e-01
    40    1.850670614918e+00
    41   -1.975363860554e-03
    42    3.714280930506e-03
    43    5.811951826323e-15
    44    2.991400155821e-03
    45    3.960875201356e-03
    46    2.001440595289e-02
    47   -1.310109129125e-02
    48   -4.543046608386e-14
    49    4.434757501895e-02
    50    4.177561203996e-02
    51   -3.356407666067e-02
    52   -7.502041968403e-14
    53   -8.216408695334e-01
    54   -1.423926032391e-01
    55    1.258006169553e-01
    56   -1.501949557957e-13
    57   -6.532215900603e+00
    58   -1.346398629480e+00
    59    1.470523328746e+00
    60    3.264422865901e-13
    61   -3.146219603362e-02
    62   -3.007611078518e-15
    63   -4.722928177469e-15
    64    1.218372111725e-02
    65   -1.992207249965e-02
    66   -6.501283271720e-03
    67   -1.120980627055e-02
    68    4.003135271514e-02
    69   -5.073100968895e-02
    70    1.907576241420e-14
    71    3.679684551226e-02
    72    5.276245580254e-02
    73   -6.908024438655e-02
    74    2.374468851867e-14
    75    9.323489396831e-02
    76    7.741226362185e-02
    77   -7.716802629928e-02
    78    4.279074868333e-14
    79    2.154131681314e-01
    80    4.280083108843e-02
    81   -5.027937122415e-02
    82    6.013197810393e-14
    83   -5.268940608706e-03
    84   -2.373006355737e-15
    85    3.239207338902e-15
    86   -1.943666046704e-03
    87    1.231404755690e-04
    88   -2.324232952652e-03
    89   -4.433297372020e-03
    90   -5.535121353270e-03
    91   -5.982791016471e-03
    92    2.152440545121e-14
    93    3.085233286548e-02
    94   -1.084272205300e-02
    95   -9.446084499456e-03
    96    5.373348273728e-14
    97   -3.136862190920e-01
    98    1.622867607684e-01
    99    7.910872215398e-02
   100    5.903460562253e-14
   101    4.448914276447e+00
   102   -3.556298311230e-01
   103   -1.994000998606e+00
   104   -8.360074872442e-13
   105   -1.048864233996e-02
   106   -1.041481788603e-15
   107   -2.339145397617e-15
   108    9.251426087594e-03
   109    7.957169047167e-03
   110   -2.678722081494e-03
   111   -4.636730180621e-03
   112   -8.309045976737e-03
   113   -1.319239895137e-02
   114   -1.660156375998e-14
   115    1.698564169805e-02
   116   -7.425499627810e-03
   117   -1.622478896427e-02
   118   -2.345265232025e-14
   119   -1.920814525644e-02
   120   -2.935068840769e-02
   121   -3.386808142156e-02
   122   -3.554523072096e-14
   123    1.565775939828e-01
   124    2.717929201063e-02
   125    1.195217364808e-01
   126    1.049006585365e-13
   127   -1.071181391055e-03
   128    9.466036010973e-16
   129   -1.082437443364e-15
   130   -7.134273592316e-04
   131    3.511231172419e-04
   132    1.628968972996e-03
   133    2.988048715512e-03
   134   -8.898030819281e-03
   135   -4.399640181984e-02
   136    8.183376292843e-15
   137   -1.141242183061e-02
   138   -1.157027503460e-02
   139   -6.543235771035e-02
   140    3.989565731786e-15
   141    7.252111669251e-02
   142   -7.194144285466e-02
   143   -3.148847643172e-01
   144    1.187833178877e-14
   145    1.640778230918e+00
   146   -2.221786156646e-01
   147   -7.302166134630e-01
   148    1.974126574918e-13
   149   -1.132997246629e-02
   150    6.566986001779e-15
   151    5.030250933279e-15
   152   -6.920096241294e-03
   153    1.855757330570e-03
   154   -5.152307333114e-03
   155   -8.895808826373e-03
   156    2.504707573217e-02
   157    1.883069988551e-02
   158    2.641731630006e-14
   159    2.918462340543e-02
   160    3.546551975906e-02
   161    2.772257688077e-02
   162    3.310948507526e-14
   163    1.629341541447e-01
   164    2.334183302673e-01
   165    1.953389199717e-01
   166    1.157955218430e-13
   167    2.479932201359e+00
   168    3.494025377676e-01
   169    5.398064349093e-01
   170   -3.086382608223e-13
   171   -1.226839797371e-02
   172    3.244110440002e-15
   173   -7.795403476026e-15
   174   -2.944540749522e-04
   175    7.387172489382e-03
   176   -3.607880596792e-03
   177   -6.048905493214e-03
   178    9.966831558340e-04
   179   -6.887535772830e-03
   180   -2.438349006402e-14
   181    9.560852332209e-03
   182   -1.073500326388e-06
   183   -5.849341410496e-03
   184   -1.544611608503e-14
   185    3.799928684013e-01
   186   -1.960356308080e-01
   187    6.112768557670e-02
   188   -1.902147333861e-13
   189   -5.141693325530e+00
   190    6.314769982958e-01
   191   -1.148415623071e+00
   192    1.020976516316e-12
   193   -1.426647128666e-02
   194    3.649403471572e-15
   195    7.619809120067e-15
   196   -3.588248358293e-04
   197   -1.423709052777e-03
   198    9.692366562605e-03
   199    3.851161939731e-02
   200    1.397148123618e-01
   201   -6.891365403613e-01
   202   -1.435757246627e-03
   203    4.517294536202e-04
   204   -1.957630224577e-15
Sym=X
Ene= 0.487995
Spin=Alpha
Occup=0
     1   -1.742645977930e-15
     2   -3.229340571171e-15
     3   -9.024921109090e-15
     4    3.196075314778e-14
     5   -3.748539694181e-02
     6    7.909354873926e-15
     7    2.230938133374e-14
     8    5.641451692042e-15
     9   -6.441212438984e-02
    10    2.193373988262e-13
    11    1.736617605134e-15
    12   -7.181522318407e-14
    13   -6.390807930318e-02
    14    1.742463185234e-11
    15   -1.958800005617e-12
    16    8.363760319431e-12
    17   -4.069362073319e-02
    18    1.569730550758e-14
    19    2.622451260331e-02
    20   -2.304744613562e-03
    21   -7.322638383849e-15
    22    2.227755196637e-14
    23   -5.229371095105e-14
    24    1.562447814790e-13
    25   -2.117572956257e-12
    26    1.211470828029e-12
    27    4.829462829479e-14
    28    1.227773879288e-14
    29   -1.195948672662e-02
    30   -1.180915300113e-16
    31   -2.254557000270e-13
    32    7.693758956238e-13
    33    1.686755207161e-12
    34    2.077865443063e-14
    35   -2.869403321818e-14
    36   -3.777832448465e-03
    37    8.326339643860e-15
    38    2.588164147482e-13
    39   -9.798776766186e-13
    40   -3.487325409423e-13
    41   -1.761633486943e-14
    42    2.511036170581e-16
    43   -1.253063173284e-02
    44   -6.671069662341e-15
    45   -1.358850633624e-14
    46   -2.397207989637e-14
    47   -3.209780689921e-14
    48    2.656842668768e-01
    49    1.254005181958e-13
    50   -4.847436482770e-14
    51   -8.758296978319e-14
    52    4.554706780273e-01
    53   -6.221781259609e-13
    54   -6.965599952309e-13
    55    3.816367779517e-13
    56    6.422695363416e-01
    57   -1.344913432589e-11
    58   -2.291023362114e-12
    59    6.196923785987e-12
    60    1.756269054427e-01
    61   -1.664230769600e-14
    62   -9.557681077203e-03
    63   -5.100020415530e-05
    64    1.515099258641e-14
    65    2.350501145709e-14
    66    9.287657411353e-16
    67    1.162956218929e-15
    68    8.814155044195e-15
    69    4.807875568218e-16
    70   -1.581436907594e-01
    71   -1.870840606021e-15
    72    2.826172402408e-14
    73    3.022190021720e-15
    74   -2.134696446952e-01
    75   -7.163776519304e-14
    76   -7.099662720439e-14
    77    3.976871336400e-14
    78   -2.525492336937e-01
    79   -1.781465068908e-12
    80    1.420125860046e-13
    81    8.109423839325e-13
    82   -1.079917161223e-01
    83   -5.515625051371e-15
    84    1.298882944908e-02
    85   -8.443084516645e-03
    86   -2.777718524048e-15
    87   -3.348553283969e-15
    88    1.398732323684e-14
    89    2.193847647202e-14
    90   -2.290561474285e-14
    91    3.590441316110e-14
    92   -2.087398907483e-02
    93   -4.318537533842e-14
    94   -4.621491261965e-14
    95    8.360253711565e-14
    96   -3.739024269736e-02
    97   -1.641691747289e-12
    98    1.911551226215e-13
    99    8.895587928462e-13
   100   -2.606139266052e-02
   101    2.466111059329e-11
   102    4.113059307745e-12
   103   -6.873793844859e-12
   104   -2.306993351677e-02
   105   -5.297681059024e-16
   106    1.760061689862e-02
   107   -1.849851230362e-02
   108    8.815391835558e-15
   109    5.903845184329e-15
   110    7.130547399097e-15
   111    1.327843019340e-14
   112   -6.733109316554e-15
   113   -1.033936205853e-14
   114    1.847215312038e-02
   115   -7.064716902262e-14
   116   -3.746987756500e-14
   117    6.720700083576e-15
   118    2.759592405627e-02
   119    1.762089814284e-13
   120    1.207388598248e-13
   121   -1.528431652661e-13
   122    3.253389629701e-02
   123   -3.056228641628e-12
   124   -4.386455836651e-13
   125    9.053622647310e-13
   126    2.046508979103e-02
   127   -2.650654803248e-15
   128    9.813916042088e-04
   129   -8.917476073971e-04
   130   -7.090061524769e-15
   131   -2.675800647443e-15
   132   -1.672822625475e-14
   133   -2.668147056140e-14
   134   -4.327256399814e-14
   135   -1.682280728597e-14
   136   -9.894921589952e-02
   137    7.664787071317e-14
   138   -4.945747535933e-14
   139   -3.727313859298e-14
   140   -1.491938289244e-01
   141    5.602201969828e-13
   142   -3.540369665774e-13
   143   -3.310763525374e-13
   144   -2.658510904057e-01
   145    3.342719211751e-12
   146    1.760754038009e-12
   147    5.974098753263e-13
   148   -1.633088967960e-01
   149   -2.003014601159e-14
   150   -2.284024126014e-02
   151   -7.933157260590e-03
   152   -4.414675614808e-15
   153    5.459712241040e-15
   154   -9.358599433059e-16
   155    1.154532547593e-15
   156   -5.332666415655e-14
   157   -4.121372001239e-14
   158   -8.300000510738e-02
   159   -4.858731706788e-15
   160   -7.631326066324e-14
   161   -4.540558415120e-14
   162   -1.244860550254e-01
   163    3.527238635750e-14
   164    4.187026274408e-14
   165   -6.152686394498e-14
   166   -2.356920550312e-01
   167    6.236899520224e-12
   168   -2.199230130075e-12
   169    4.815749805020e-12
   170   -1.681285954208e-01
   171    1.757291950155e-14
   172   -4.634455722924e-03
   173    2.808597701297e-02
   174    5.000380095378e-15
   175   -2.872342000117e-14
   176    1.376377422708e-14
   177    2.796303802832e-14
   178   -1.467614482185e-14
   179    4.905079793177e-14
   180    6.530556417662e-02
   181   -1.328327142421e-13
   182   -7.467849582099e-14
   183   -2.620961912480e-14
   184    1.041485108779e-01
   185    8.072007270835e-13
   186    1.740277752412e-13
   187    1.547770387103e-12
   188    1.725563138619e-01
   189   -2.362907255417e-11
   190    5.149601539181e-12
   191   -1.201846132731e-11
   192    1.025158653739e-01
   193    2.801813795290e-14
   194    3.278105171664e-03
   195    6.186763680368e-04
   196   -1.511208594099e-15
   197    1.821061550940e-14
   198   -3.286412967948e-14
   199    9.616990066745e-14
   200   -1.431880054211e-12
   201   -8.554551915117e-12
   202   -7.254440316409e-16
   203    1.280067052185e-14
   204    6.364623863964e-03
[5D]
