[Molden Format]
[Atoms] (Angs)
  C      1    6     -0.00754183     -1.75895763      0.00000000
  H      2    1     -2.09769850     -1.41880678     -0.00000000
  H      3    1     -0.13527422     -2.83956838     -0.00000000
  H      4    1      0.04053511      2.02026369      0.00000000
  C      5    6     -1.22066484      0.39918184     -0.00000000
  O      6    8     -2.25210141      1.05663720     -0.00000000
  C      7    6      1.24009552      0.27789184      0.00000000
  O      8    8      2.33767996      1.06122493      0.00000000
  N      9    7      0.03634586      1.00852936      0.00000000
  N     10    7     -1.18738304     -0.97903470     -0.00000000
  C     11    6      1.22288875     -1.12258096      0.00000000
  H     12    1      2.15640383     -1.68445878      0.00000000
[GTO]
1    0
S    6    1.000000
   4.56324000E+03    1.96665000E-03 
   6.82024000E+02    1.52306000E-02 
   1.54973000E+02    7.61269000E-02 
   4.44553000E+01    2.60801000E-01 
   1.30290000E+01    6.16462000E-01 
   1.82773000E+00    2.21006000E-01 
SP   3    1.000000
   2.09642000E+01    1.14660000E-01   4.02487000E-02 
   4.80331000E+00    9.19999000E-01   2.37594000E-01 
   1.45933000E+00   -3.03068000E-03   8.15854000E-01 
SP   1    1.000000
   4.83456000E-01    1.00000000E+00   1.00000000E+00 
SP   1    1.000000
   1.45585000E-01    1.00000000E+00   1.00000000E+00 
SP   1    1.000000
   4.38000000E-02    1.00000000E+00   1.00000000E+00 
D    1    1.000000
   6.26000000E-01    1.00000000E+00 

2    0
S    3    1.000000
   3.38650000E+01    2.54938000E-02 
   5.09479000E+00    1.90373000E-01 
   1.15879000E+00    8.52161000E-01 
S    1    1.000000
   3.25840000E-01    1.00000000E+00 
S    1    1.000000
   1.02741000E-01    1.00000000E+00 
S    1    1.000000
   3.60000000E-02    1.00000000E+00 
P    1    1.000000
   7.50000000E-01    1.00000000E+00 

3    0
S    3    1.000000
   3.38650000E+01    2.54938000E-02 
   5.09479000E+00    1.90373000E-01 
   1.15879000E+00    8.52161000E-01 
S    1    1.000000
   3.25840000E-01    1.00000000E+00 
S    1    1.000000
   1.02741000E-01    1.00000000E+00 
S    1    1.000000
   3.60000000E-02    1.00000000E+00 
P    1    1.000000
   7.50000000E-01    1.00000000E+00 

4    0
S    3    1.000000
   3.38650000E+01    2.54938000E-02 
   5.09479000E+00    1.90373000E-01 
   1.15879000E+00    8.52161000E-01 
S    1    1.000000
   3.25840000E-01    1.00000000E+00 
S    1    1.000000
   1.02741000E-01    1.00000000E+00 
S    1    1.000000
   3.60000000E-02    1.00000000E+00 
P    1    1.000000
   7.50000000E-01    1.00000000E+00 

5    0
S    6    1.000000
   4.56324000E+03    1.96665000E-03 
   6.82024000E+02    1.52306000E-02 
   1.54973000E+02    7.61269000E-02 
   4.44553000E+01    2.60801000E-01 
   1.30290000E+01    6.16462000E-01 
   1.82773000E+00    2.21006000E-01 
SP   3    1.000000
   2.09642000E+01    1.14660000E-01   4.02487000E-02 
   4.80331000E+00    9.19999000E-01   2.37594000E-01 
   1.45933000E+00   -3.03068000E-03   8.15854000E-01 
SP   1    1.000000
   4.83456000E-01    1.00000000E+00   1.00000000E+00 
SP   1    1.000000
   1.45585000E-01    1.00000000E+00   1.00000000E+00 
SP   1    1.000000
   4.38000000E-02    1.00000000E+00   1.00000000E+00 
D    1    1.000000
   6.26000000E-01    1.00000000E+00 

6    0
S    6    1.000000
   8.58850000E+03    1.89515000E-03 
   1.29723000E+03    1.43859000E-02 
   2.99296000E+02    7.07320000E-02 
   8.73771000E+01    2.40001000E-01 
   2.56789000E+01    5.94797000E-01 
   3.74004000E+00    2.80802000E-01 
SP   3    1.000000
   4.21175000E+01    1.13889000E-01   3.65114000E-02 
   9.62837000E+00    9.20811000E-01   2.37153000E-01 
   2.85332000E+00   -3.27447000E-03   8.19702000E-01 
SP   1    1.000000
   9.05661000E-01    1.00000000E+00   1.00000000E+00 
SP   1    1.000000
   2.55611000E-01    1.00000000E+00   1.00000000E+00 
SP   1    1.000000
   8.45000000E-02    1.00000000E+00   1.00000000E+00 
D    1    1.000000
   1.29200000E+00    1.00000000E+00 

7    0
S    6    1.000000
   4.56324000E+03    1.96665000E-03 
   6.82024000E+02    1.52306000E-02 
   1.54973000E+02    7.61269000E-02 
   4.44553000E+01    2.60801000E-01 
   1.30290000E+01    6.16462000E-01 
   1.82773000E+00    2.21006000E-01 
SP   3    1.000000
   2.09642000E+01    1.14660000E-01   4.02487000E-02 
   4.80331000E+00    9.19999000E-01   2.37594000E-01 
   1.45933000E+00   -3.03068000E-03   8.15854000E-01 
SP   1    1.000000
   4.83456000E-01    1.00000000E+00   1.00000000E+00 
SP   1    1.000000
   1.45585000E-01    1.00000000E+00   1.00000000E+00 
SP   1    1.000000
   4.38000000E-02    1.00000000E+00   1.00000000E+00 
D    1    1.000000
   6.26000000E-01    1.00000000E+00 

8    0
S    6    1.000000
   8.58850000E+03    1.89515000E-03 
   1.29723000E+03    1.43859000E-02 
   2.99296000E+02    7.07320000E-02 
   8.73771000E+01    2.40001000E-01 
   2.56789000E+01    5.94797000E-01 
   3.74004000E+00    2.80802000E-01 
SP   3    1.000000
   4.21175000E+01    1.13889000E-01   3.65114000E-02 
   9.62837000E+00    9.20811000E-01   2.37153000E-01 
   2.85332000E+00   -3.27447000E-03   8.19702000E-01 
SP   1    1.000000
   9.05661000E-01    1.00000000E+00   1.00000000E+00 
SP   1    1.000000
   2.55611000E-01    1.00000000E+00   1.00000000E+00 
SP   1    1.000000
   8.45000000E-02    1.00000000E+00   1.00000000E+00 
D    1    1.000000
   1.29200000E+00    1.00000000E+00 

9    0
S    6    1.000000
   6.29348000E+03    1.96979000E-03 
   9.49044000E+02    1.49613000E-02 
   2.18776000E+02    7.35006000E-02 
   6.36916000E+01    2.48937000E-01 
   1.88282000E+01    6.02460000E-01 
   2.72023000E+00    2.56202000E-01 
SP   3    1.000000
   3.06331000E+01    1.11906000E-01   3.83119000E-02 
   7.02614000E+00    9.21666000E-01   2.37403000E-01 
   2.11205000E+00   -2.56919000E-03   8.17592000E-01 
SP   1    1.000000
   6.84009000E-01    1.00000000E+00   1.00000000E+00 
SP   1    1.000000
   2.00878000E-01    1.00000000E+00   1.00000000E+00 
SP   1    1.000000
   6.39000000E-02    1.00000000E+00   1.00000000E+00 
D    1    1.000000
   9.13000000E-01    1.00000000E+00 

10    0
S    6    1.000000
   6.29348000E+03    1.96979000E-03 
   9.49044000E+02    1.49613000E-02 
   2.18776000E+02    7.35006000E-02 
   6.36916000E+01    2.48937000E-01 
   1.88282000E+01    6.02460000E-01 
   2.72023000E+00    2.56202000E-01 
SP   3    1.000000
   3.06331000E+01    1.11906000E-01   3.83119000E-02 
   7.02614000E+00    9.21666000E-01   2.37403000E-01 
   2.11205000E+00   -2.56919000E-03   8.17592000E-01 
SP   1    1.000000
   6.84009000E-01    1.00000000E+00   1.00000000E+00 
SP   1    1.000000
   2.00878000E-01    1.00000000E+00   1.00000000E+00 
SP   1    1.000000
   6.39000000E-02    1.00000000E+00   1.00000000E+00 
D    1    1.000000
   9.13000000E-01    1.00000000E+00 

11    0
S    6    1.000000
   4.56324000E+03    1.96665000E-03 
   6.82024000E+02    1.52306000E-02 
   1.54973000E+02    7.61269000E-02 
   4.44553000E+01    2.60801000E-01 
   1.30290000E+01    6.16462000E-01 
   1.82773000E+00    2.21006000E-01 
SP   3    1.000000
   2.09642000E+01    1.14660000E-01   4.02487000E-02 
   4.80331000E+00    9.19999000E-01   2.37594000E-01 
   1.45933000E+00   -3.03068000E-03   8.15854000E-01 
SP   1    1.000000
   4.83456000E-01    1.00000000E+00   1.00000000E+00 
SP   1    1.000000
   1.45585000E-01    1.00000000E+00   1.00000000E+00 
SP   1    1.000000
   4.38000000E-02    1.00000000E+00   1.00000000E+00 
D    1    1.000000
   6.26000000E-01    1.00000000E+00 

12    0
S    3    1.000000
   3.38650000E+01    2.54938000E-02 
   5.09479000E+00    1.90373000E-01 
   1.15879000E+00    8.52161000E-01 
S    1    1.000000
   3.25840000E-01    1.00000000E+00 
S    1    1.000000
   1.02741000E-01    1.00000000E+00 
S    1    1.000000
   3.60000000E-02    1.00000000E+00 
P    1    1.000000
   7.50000000E-01    1.00000000E+00 

[MO]
Sym=X
Ene= -0.486842
Spin=Alpha
Occup=1
     1   -9.142274001387e-16
     2   -2.074553745251e-16
     3    2.313708876629e-15
     4   -9.619550116393e-15
     5   -1.265168112085e-01
     6    1.067228902341e-14
     7    1.543970146269e-14
     8   -4.755399937788e-14
     9   -2.052022693312e-01
    10   -4.683399086836e-13
    11   -3.783433060147e-13
    12   -3.026278130237e-13
    13   -4.220268684873e-01
    14    4.358279740951e-11
    15    5.737679769688e-12
    16    1.049055837427e-11
    17   -6.859554594508e-01
    18    1.157517889288e-14
    19    2.632360158853e-02
    20    8.666438677477e-03
    21   -7.779048578878e-15
    22   -2.343519559857e-15
    23   -9.491969292236e-16
    24   -2.575058084286e-14
    25    4.392103982722e-13
    26   -1.070061093246e-14
    27    1.883730825011e-15
    28    1.435457428900e-15
    29   -1.364412133996e-03
    30   -9.965887033456e-15
    31   -3.280287892490e-14
    32   -4.965452191137e-13
    33    2.502870630275e-12
    34    6.663898147647e-15
    35   -4.227490886227e-15
    36   -1.558902372646e-02
    37   -1.556223927194e-14
    38    6.170237157265e-14
    39   -3.309586150715e-13
    40    5.936269748829e-13
    41   -4.467626666434e-15
    42   -1.316451948660e-14
    43   -4.531077639887e-03
    44   -2.812407920851e-15
    45   -2.941707037674e-15
    46   -8.341964282354e-15
    47   -3.644078082370e-15
    48    1.208704182959e-01
    49    2.860555525188e-14
    50   -2.550345442065e-14
    51    2.201526768656e-14
    52    2.005558356712e-01
    53   -1.812084751783e-13
    54   -3.809936249857e-13
    55   -3.325428834724e-14
    56    3.716829088829e-01
    57   -1.243055895576e-11
    58   -3.589921721253e-12
    59    2.663444006949e-12
    60    1.449573850163e-01
    61   -1.188753144145e-14
    62    2.615025221577e-02
    63   -2.055166099474e-02
    64   -9.101759072329e-15
    65    4.829915393535e-15
    66   -9.001755811542e-16
    67   -1.859339215989e-15
    68    3.547806394752e-15
    69   -8.623912472316e-15
    70   -9.378663121315e-02
    71    7.497723520888e-15
    72    7.712234187805e-15
    73   -9.670960940538e-15
    74   -1.393498822906e-01
    75   -2.861292119745e-14
    76   -4.698883688026e-14
    77    6.721547842725e-15
    78   -2.065847761348e-01
    79   -5.043707752388e-13
    80    1.771440275882e-14
    81    8.817272289525e-14
    82   -1.706140351413e-01
    83   -1.598599524610e-15
    84    2.651876462738e-03
    85   -2.209737865426e-03
    86    1.172022610811e-15
    87   -6.675186679159e-16
    88   -5.639091138038e-15
    89   -1.011732710687e-14
    90   -1.459234350356e-15
    91   -1.265333739442e-14
    92   -1.042008689018e-01
    93    4.760410231253e-14
    94   -2.487895737970e-14
    95   -1.009752285214e-14
    96   -1.802055468346e-01
    97   -3.868059277803e-13
    98    5.986324124879e-13
    99    2.172778118795e-13
   100   -3.167137675733e-01
   101    1.837567478482e-11
   102   -9.536380343560e-13
   103   -3.367599194685e-12
   104   -1.337691103893e-01
   105    1.891725525873e-14
   106    1.073696663769e-02
   107   -4.356445170131e-02
   108    5.228688717383e-15
   109    1.131985862738e-14
   110    5.610699085055e-15
   111    9.422274872122e-15
   112   -2.108306539694e-15
   113    7.326615930951e-15
   114    3.873232847344e-02
   115   -3.719367853720e-14
   116   -2.093411720960e-14
   117    2.251379788452e-14
   118    5.070024211858e-02
   119   -5.537825199654e-14
   120    8.156746990349e-14
   121    3.292288904010e-14
   122    6.497009408981e-02
   123   -1.601453120594e-12
   124    4.825275038100e-14
   125    3.642046373439e-13
   126    4.733212067549e-02
   127   -3.376663059220e-15
   128    8.616657387516e-03
   129    1.729895251813e-03
   130   -1.911602842305e-15
   131   -1.286681363712e-15
   132   -5.045953553385e-16
   133    1.944911968142e-15
   134   -1.940059635799e-14
   135    1.701422133916e-14
   136   -2.588789407677e-02
   137   -2.958575815344e-15
   138   -3.379340661037e-14
   139    3.444538345590e-14
   140   -4.050567680272e-02
   141   -6.850004785286e-15
   142   -5.217072568814e-14
   143   -1.922598317304e-13
   144   -5.161274199721e-02
   145    5.866383460799e-12
   146   -7.308123237602e-13
   147   -1.652556193575e-12
   148   -1.296505308248e-01
   149    3.731193394981e-15
   150   -2.429833657577e-02
   151   -3.350405144016e-03
   152    5.016589197440e-15
   153    8.154879997542e-16
   154   -7.646866168120e-15
   155   -1.100861904978e-14
   156   -3.500507128984e-15
   157    2.097663990143e-15
   158    1.054460589322e-02
   159    7.653010508646e-15
   160   -2.706682080428e-14
   161    1.100140994072e-14
   162    1.755339323608e-02
   163    4.141392261425e-13
   164    1.814659907286e-13
   165   -2.089119841671e-14
   166    1.944347058727e-02
   167   -3.849005080098e-12
   168   -1.589133791610e-12
   169    9.751464978502e-13
   170    8.856374601316e-02
   171   -3.894475867263e-15
   172   -1.006207927756e-02
   173    2.457515601470e-02
   174    1.737152225576e-16
   175   -1.371392530198e-15
   176    1.245032690640e-14
   177    2.434105111629e-14
   178   -1.966554372184e-14
   179    7.585344697607e-15
   180    1.359340938912e-01
   181   -1.206738528485e-13
   182   -7.190200390264e-14
   183    1.868618466424e-14
   184    2.186463041905e-01
   185    7.287026766257e-13
   186   -5.913191222208e-13
   187    5.653476019563e-14
   188    4.815565270853e-01
   189   -4.717946550717e-11
   190    1.237836649442e-11
   191   -3.292842984261e-12
   192    8.643433015639e-01
   193   -1.489386380482e-14
   194    2.231115734944e-02
   195    3.269166495632e-03
   196   -1.474800755122e-14
   197    7.482867974527e-15
   198   -4.525182160589e-15
   199    8.135920601513e-14
   200    1.301833735609e-13
   201   -5.071809934088e-12
   202    2.254640337369e-15
   203   -8.020588611384e-16
   204    1.997697232882e-02
Sym=X
Ene= 0.486842
Spin=Alpha
Occup=0
     1   -6.506043098574e-15
     2   -1.400237664411e-14
     3    9.438559189386e-15
     4    5.005349886719e-15
     5   -1.146113627426e-02
     6    3.901138790885e-14
     7   -1.548702839579e-15
     8    4.132749405887e-15
     9   -1.302334588330e-02
    10    5.355858546327e-13
    11    2.375605136237e-13
    12    4.398732808607e-13
    13   -2.794886970475e-02
    14    2.330182462442e-12
    15    3.174006206772e-13
    16    2.239313119770e-12
    17    7.137656862939e-01
    18    9.125561777458e-15
    19   -6.215596192190e-03
    20   -7.733096105515e-03
    21   -8.149808455844e-15
    22   -8.544336066303e-15
    23    8.436808811462e-15
    24   -6.644576859096e-14
    25    4.338390896916e-13
    26    2.393710950298e-12
    27   -2.328332048130e-15
    28    4.326920831307e-15
    29    1.006868371547e-03
    30    5.736529228236e-15
    31   -5.683170329228e-14
    32    9.787855467139e-13
    33    8.698934283512e-13
    34   -2.333746772173e-15
    35    3.711776554299e-15
    36    3.330396437104e-03
    37    1.089677239772e-14
    38   -1.205494007148e-13
    39    1.611889531060e-12
    40   -2.003919855096e-12
    41    2.680167409800e-15
    42    8.876116783695e-15
    43    3.159260628897e-03
    44    7.553946893537e-15
    45    6.718194209735e-15
    46    1.591299880199e-14
    47    2.792911806994e-14
    48   -3.993436889801e-02
    49   -8.996969257348e-15
    50    8.628855653556e-15
    51    1.604762037201e-14
    52   -7.597792328964e-02
    53   -4.624043730845e-13
    54    7.951689165920e-13
    55    4.824469616059e-13
    56   -7.795878421322e-02
    57   -4.494989332966e-12
    58    1.010258422567e-12
    59    3.597050174441e-12
    60    6.221320833535e-01
    61    1.495266701038e-15
    62   -7.065410153687e-03
    63    2.832708466462e-03
    64    3.498008615186e-15
    65    2.490114352390e-16
    66    4.897238995090e-16
    67   -8.366248853994e-16
    68    3.817379586967e-15
    69    5.111841076548e-15
    70    5.712428883511e-03
    71    9.943990644681e-16
    72    6.460669454201e-16
    73    5.160983372797e-16
    74    3.924399750792e-03
    75    7.252834889502e-14
    76    6.576357378528e-14
    77   -1.896964703420e-14
    78    3.465439010637e-02
    79    9.303836243773e-13
    80    3.700306847800e-14
    81   -7.406908794312e-13
    82   -7.242712981022e-02
    83    1.917127830027e-16
    84   -2.422430391124e-03
    85    1.722205638296e-03
    86    3.694624222293e-16
    87    2.251315900295e-15
    88    2.920230951404e-15
    89    8.088283110184e-15
    90    1.451942089261e-14
    91    1.238953229202e-14
    92   -3.453734094774e-02
    93   -4.323302336290e-14
    94    2.936765520979e-14
    95   -2.240897130021e-14
    96   -5.005990548640e-02
    97    5.315101411172e-13
    98   -2.960542972195e-13
    99    1.708589231584e-13
   100   -9.604021510402e-02
   101    1.685385111744e-11
   102   -3.805797953896e-12
   103   -8.066368330232e-13
   104    1.572220116081e+00
   105   -1.576179364886e-14
   106   -4.517632144054e-04
   107    5.224846174271e-03
   108   -1.024810318565e-15
   109   -1.393511749255e-14
   110    5.076350428091e-17
   111    3.096894523153e-16
   112   -7.691852519107e-15
   113    5.160529531528e-15
   114   -4.042830680977e-02
   115   -5.727729878732e-15
   116   -1.411589213713e-15
   117    2.523664716757e-15
   118   -5.947216085628e-02
   119    6.558281011999e-14
   120   -7.232342352660e-14
   121    2.015726845715e-15
   122   -3.385911018753e-02
   123    1.890978858094e-13
   124    1.737748567189e-13
   125   -2.965691056037e-14
   126   -8.830684266096e-02
   127   -7.968495310930e-16
   128    3.525283613007e-03
   129    2.862440425993e-03
   130    1.110620293062e-15
   131    3.117991022840e-15
   132   -5.380102023249e-15
   133   -1.360371987697e-14
   134    2.638379030607e-14
   135   -1.252987743960e-14
   136   -1.969427134723e-02
   137    2.700283329244e-14
   138    1.956523052911e-14
   139   -2.627456633446e-14
   140   -4.697138432815e-02
   141    1.133410534828e-13
   142    2.838706476386e-13
   143    1.648167211031e-13
   144    2.586621911723e-02
   145   -1.063775336530e-11
   146   -7.196654624469e-13
   147    4.702227626046e-13
   148   -5.702366119001e-01
   149   -8.615433150632e-15
   150    3.518329397827e-03
   151    4.988553607901e-03
   152   -3.346146882482e-15
   153   -1.523616805814e-15
   154    5.088786785809e-15
   155    1.055862518364e-14
   156   -7.863408481552e-15
   157    1.469631900898e-14
   158   -1.006599948458e-02
   159    2.507897145242e-15
   160   -2.678294458999e-15
   161    1.708178550922e-14
   162   -2.917641688987e-02
   163   -5.368400473381e-13
   164   -2.655419940755e-13
   165    1.757393843252e-13
   166    3.986837659868e-02
   167    5.239637056741e-12
   168    1.297942686148e-12
   169    1.677694530721e-12
   170   -4.865217037089e-01
   171    1.081719828383e-14
   172   -5.829261372408e-04
   173   -4.590569211661e-03
   174    8.613123723341e-15
   175    9.121998551791e-16
   176   -5.717316887667e-15
   177   -5.057953654583e-15
   178    3.409110594406e-14
   179    1.214758660717e-14
   180   -5.852199018608e-02
   181    3.183334277550e-14
   182    2.756240075707e-14
   183    9.108028800177e-15
   184   -8.212101727680e-02
   185   -1.087112782483e-13
   186    8.573162161969e-13
   187    1.247543486004e-13
   188   -2.003663882773e-01
   189   -1.318302031816e-11
   190    3.054161023298e-12
   191   -3.926420123321e-12
   192   -6.881518165322e-01
   193    7.867558429846e-16
   194    4.294994295744e-03
   195   -4.981100113365e-03
   196    1.653086516708e-14
   197    7.222410968105e-15
   198    3.005307602694e-15
   199   -6.389701774289e-14
   200   -7.069046028556e-13
   201   -7.043612941393e-13
   202    2.643590536388e-15
   203    2.280308374961e-15
   204   -3.448190111053e-04
[5D]
