[Molden Format]
[Atoms] (Angs)
  C      1    6     -0.00754183     -1.75895763      0.00000000
  H      2    1     -2.09769850     -1.41880678     -0.00000000
  H      3    1     -0.13527422     -2.83956838     -0.00000000
  H      4    1      0.04053511      2.02026369      0.00000000
  C      5    6     -1.22066484      0.39918184     -0.00000000
  O      6    8     -2.25210141      1.05663720     -0.00000000
  C      7    6      1.24009552      0.27789184      0.00000000
  O      8    8      2.33767996      1.06122493      0.00000000
  N      9    7      0.03634586      1.00852936      0.00000000
  N     10    7     -1.18738304     -0.97903470     -0.00000000
  C     11    6      1.22288875     -1.12258096      0.00000000
  H     12    1      2.15640383     -1.68445878      0.00000000
[GTO]
1    0
S    6    1.000000
   4.56324000E+03    1.96665000E-03 
   6.82024000E+02    1.52306000E-02 
   1.54973000E+02    7.61269000E-02 
   4.44553000E+01    2.60801000E-01 
   1.30290000E+01    6.16462000E-01 
   1.82773000E+00    2.21006000E-01 
SP   3    1.000000
   2.09642000E+01    1.14660000E-01   4.02487000E-02 
   4.80331000E+00    9.19999000E-01   2.37594000E-01 
   1.45933000E+00   -3.03068000E-03   8.15854000E-01 
SP   1    1.000000
   4.83456000E-01    1.00000000E+00   1.00000000E+00 
SP   1    1.000000
   1.45585000E-01    1.00000000E+00   1.00000000E+00 
SP   1    1.000000
   4.38000000E-02    1.00000000E+00   1.00000000E+00 
D    1    1.000000
   6.26000000E-01    1.00000000E+00 

2    0
S    3    1.000000
   3.38650000E+01    2.54938000E-02 
   5.09479000E+00    1.90373000E-01 
   1.15879000E+00    8.52161000E-01 
S    1    1.000000
   3.25840000E-01    1.00000000E+00 
S    1    1.000000
   1.02741000E-01    1.00000000E+00 
S    1    1.000000
   3.60000000E-02    1.00000000E+00 
P    1    1.000000
   7.50000000E-01    1.00000000E+00 

3    0
S    3    1.000000
   3.38650000E+01    2.54938000E-02 
   5.09479000E+00    1.90373000E-01 
   1.15879000E+00    8.52161000E-01 
S    1    1.000000
   3.25840000E-01    1.00000000E+00 
S    1    1.000000
   1.02741000E-01    1.00000000E+00 
S    1    1.000000
   3.60000000E-02    1.00000000E+00 
P    1    1.000000
   7.50000000E-01    1.00000000E+00 

4    0
S    3    1.000000
   3.38650000E+01    2.54938000E-02 
   5.09479000E+00    1.90373000E-01 
   1.15879000E+00    8.52161000E-01 
S    1    1.000000
   3.25840000E-01    1.00000000E+00 
S    1    1.000000
   1.02741000E-01    1.00000000E+00 
S    1    1.000000
   3.60000000E-02    1.00000000E+00 
P    1    1.000000
   7.50000000E-01    1.00000000E+00 

5    0
S    6    1.000000
   4.56324000E+03    1.96665000E-03 
   6.82024000E+02    1.52306000E-02 
   1.54973000E+02    7.61269000E-02 
   4.44553000E+01    2.60801000E-01 
   1.30290000E+01    6.16462000E-01 
   1.82773000E+00    2.21006000E-01 
SP   3    1.000000
   2.09642000E+01    1.14660000E-01   4.02487000E-02 
   4.80331000E+00    9.19999000E-01   2.37594000E-01 
   1.45933000E+00   -3.03068000E-03   8.15854000E-01 
SP   1    1.000000
   4.83456000E-01    1.00000000E+00   1.00000000E+00 
SP   1    1.000000
   1.45585000E-01    1.00000000E+00   1.00000000E+00 
SP   1    1.000000
   4.38000000E-02    1.00000000E+00   1.00000000E+00 
D    1    1.000000
   6.26000000E-01    1.00000000E+00 

6    0
S    6    1.000000
   8.58850000E+03    1.89515000E-03 
   1.29723000E+03    1.43859000E-02 
   2.99296000E+02    7.07320000E-02 
   8.73771000E+01    2.40001000E-01 
   2.56789000E+01    5.94797000E-01 
   3.74004000E+00    2.80802000E-01 
SP   3    1.000000
   4.21175000E+01    1.13889000E-01   3.65114000E-02 
   9.62837000E+00    9.20811000E-01   2.37153000E-01 
   2.85332000E+00   -3.27447000E-03   8.19702000E-01 
SP   1    1.000000
   9.05661000E-01    1.00000000E+00   1.00000000E+00 
SP   1    1.000000
   2.55611000E-01    1.00000000E+00   1.00000000E+00 
SP   1    1.000000
   8.45000000E-02    1.00000000E+00   1.00000000E+00 
D    1    1.000000
   1.29200000E+00    1.00000000E+00 

7    0
S    6    1.000000
   4.56324000E+03    1.96665000E-03 
   6.82024000E+02    1.52306000E-02 
   1.54973000E+02    7.61269000E-02 
   4.44553000E+01    2.60801000E-01 
   1.30290000E+01    6.16462000E-01 
   1.82773000E+00    2.21006000E-01 
SP   3    1.000000
   2.09642000E+01    1.14660000E-01   4.02487000E-02 
   4.80331000E+00    9.19999000E-01   2.37594000E-01 
   1.45933000E+00   -3.03068000E-03   8.15854000E-01 
SP   1    1.000000
   4.83456000E-01    1.00000000E+00   1.00000000E+00 
SP   1    1.000000
   1.45585000E-01    1.00000000E+00   1.00000000E+00 
SP   1    1.000000
   4.38000000E-02    1.00000000E+00   1.00000000E+00 
D    1    1.000000
   6.26000000E-01    1.00000000E+00 

8    0
S    6    1.000000
   8.58850000E+03    1.89515000E-03 
   1.29723000E+03    1.43859000E-02 
   2.99296000E+02    7.07320000E-02 
   8.73771000E+01    2.40001000E-01 
   2.56789000E+01    5.94797000E-01 
   3.74004000E+00    2.80802000E-01 
SP   3    1.000000
   4.21175000E+01    1.13889000E-01   3.65114000E-02 
   9.62837000E+00    9.20811000E-01   2.37153000E-01 
   2.85332000E+00   -3.27447000E-03   8.19702000E-01 
SP   1    1.000000
   9.05661000E-01    1.00000000E+00   1.00000000E+00 
SP   1    1.000000
   2.55611000E-01    1.00000000E+00   1.00000000E+00 
SP   1    1.000000
   8.45000000E-02    1.00000000E+00   1.00000000E+00 
D    1    1.000000
   1.29200000E+00    1.00000000E+00 

9    0
S    6    1.000000
   6.29348000E+03    1.96979000E-03 
   9.49044000E+02    1.49613000E-02 
   2.18776000E+02    7.35006000E-02 
   6.36916000E+01    2.48937000E-01 
   1.88282000E+01    6.02460000E-01 
   2.72023000E+00    2.56202000E-01 
SP   3    1.000000
   3.06331000E+01    1.11906000E-01   3.83119000E-02 
   7.02614000E+00    9.21666000E-01   2.37403000E-01 
   2.11205000E+00   -2.56919000E-03   8.17592000E-01 
SP   1    1.000000
   6.84009000E-01    1.00000000E+00   1.00000000E+00 
SP   1    1.000000
   2.00878000E-01    1.00000000E+00   1.00000000E+00 
SP   1    1.000000
   6.39000000E-02    1.00000000E+00   1.00000000E+00 
D    1    1.000000
   9.13000000E-01    1.00000000E+00 

10    0
S    6    1.000000
   6.29348000E+03    1.96979000E-03 
   9.49044000E+02    1.49613000E-02 
   2.18776000E+02    7.35006000E-02 
   6.36916000E+01    2.48937000E-01 
   1.88282000E+01    6.02460000E-01 
   2.72023000E+00    2.56202000E-01 
SP   3    1.000000
   3.06331000E+01    1.11906000E-01   3.83119000E-02 
   7.02614000E+00    9.21666000E-01   2.37403000E-01 
   2.11205000E+00   -2.56919000E-03   8.17592000E-01 
SP   1    1.000000
   6.84009000E-01    1.00000000E+00   1.00000000E+00 
SP   1    1.000000
   2.00878000E-01    1.00000000E+00   1.00000000E+00 
SP   1    1.000000
   6.39000000E-02    1.00000000E+00   1.00000000E+00 
D    1    1.000000
   9.13000000E-01    1.00000000E+00 

11    0
S    6    1.000000
   4.56324000E+03    1.96665000E-03 
   6.82024000E+02    1.52306000E-02 
   1.54973000E+02    7.61269000E-02 
   4.44553000E+01    2.60801000E-01 
   1.30290000E+01    6.16462000E-01 
   1.82773000E+00    2.21006000E-01 
SP   3    1.000000
   2.09642000E+01    1.14660000E-01   4.02487000E-02 
   4.80331000E+00    9.19999000E-01   2.37594000E-01 
   1.45933000E+00   -3.03068000E-03   8.15854000E-01 
SP   1    1.000000
   4.83456000E-01    1.00000000E+00   1.00000000E+00 
SP   1    1.000000
   1.45585000E-01    1.00000000E+00   1.00000000E+00 
SP   1    1.000000
   4.38000000E-02    1.00000000E+00   1.00000000E+00 
D    1    1.000000
   6.26000000E-01    1.00000000E+00 

12    0
S    3    1.000000
   3.38650000E+01    2.54938000E-02 
   5.09479000E+00    1.90373000E-01 
   1.15879000E+00    8.52161000E-01 
S    1    1.000000
   3.25840000E-01    1.00000000E+00 
S    1    1.000000
   1.02741000E-01    1.00000000E+00 
S    1    1.000000
   3.60000000E-02    1.00000000E+00 
P    1    1.000000
   7.50000000E-01    1.00000000E+00 

[MO]
Sym=X
Ene= -0.488979
Spin=Alpha
Occup=1
     1    1.112267363285e-15
     2    1.076770718685e-15
     3    2.196928533996e-15
     4   -1.368115832801e-15
     5   -1.579678439583e-01
     6    5.711021695617e-15
     7   -2.750577370663e-14
     8    3.119289380160e-15
     9   -2.580947846868e-01
    10   -1.472058147302e-13
    11   -4.985008276201e-14
    12   -2.570535109481e-14
    13   -4.740551060211e-01
    14   -3.189930774299e-12
    15    6.200360203478e-13
    16   -1.755684086291e-12
    17   -4.890109153819e-01
    18   -1.307264347135e-15
    19    7.314064373856e-03
    20    1.100089987574e-02
    21    1.124797459847e-15
    22   -5.747055399874e-15
    23   -1.433945677998e-16
    24    4.352914139650e-14
    25   -1.094579986119e-13
    26   -3.471869658418e-13
    27   -2.882529032290e-15
    28   -1.142045338912e-15
    29    1.428515825095e-02
    30    1.720363617667e-15
    31    5.201546366721e-14
    32   -2.059117682434e-13
    33   -4.166695045251e-13
    34    3.325336485819e-15
    35    3.710481384850e-15
    36   -1.906820503227e-02
    37    6.888191624120e-15
    38   -1.128406424005e-13
    39    5.396245362944e-13
    40    8.433390691153e-14
    41    2.688813007051e-15
    42    4.133481828243e-15
    43   -1.036956483030e-02
    44    4.985290013492e-16
    45    3.013643851101e-15
    46    4.980780665570e-15
    47    2.653453158757e-15
    48   -3.696558217340e-02
    49   -3.140267137591e-14
    50    3.623016700374e-15
    51    1.854566431557e-14
    52   -6.749667051453e-02
    53    1.588407663329e-13
    54    2.221818616512e-13
    55   -1.761635227695e-13
    56   -9.351260928755e-02
    57    2.903612017320e-12
    58    7.145357929204e-13
    59   -9.905928983433e-13
    60   -1.557754519233e-02
    61   -2.636006863092e-16
    62   -1.531901116283e-02
    63   -3.573466116547e-02
    64   -1.402118262989e-16
    65   -2.459064501462e-15
    66   -4.199852287786e-16
    67   -5.513720102066e-16
    68   -1.821725776539e-15
    69   -8.363762556334e-17
    70    2.428573084734e-02
    71   -1.959700236729e-15
    72   -9.658153751745e-15
    73   -2.252522314321e-15
    74    3.273927558051e-02
    75    5.632488425537e-14
    76    3.007739134109e-14
    77   -3.405269321174e-15
    78    4.050899563777e-02
    79    4.284535169585e-13
    80   -7.462677200570e-15
    81   -1.644684757811e-13
    82   -9.633857948387e-03
    83    1.050551503556e-15
    84   -3.580115414019e-03
    85   -1.004083935429e-03
    86    1.272602167530e-15
    87    4.855363826528e-16
    88   -1.432472963260e-15
    89   -3.317802198499e-15
    90    6.543458218707e-15
    91   -6.433621547920e-15
    92    1.361321136866e-01
    93    8.279030393809e-15
    94    9.544511044501e-15
    95    3.832134253912e-16
    96    2.212577037524e-01
    97    2.317697102858e-13
    98   -3.053249683608e-14
    99   -9.983813891859e-14
   100    3.538001502937e-01
   101   -6.149532636065e-12
   102   -9.355193681645e-13
   103    1.690287877616e-12
   104    8.180733999284e-02
   105    2.910352064978e-15
   106   -2.550758729895e-02
   107   -3.201486030335e-02
   108    6.728962311545e-15
   109   -2.483575938953e-15
   110   -6.235731928824e-16
   111   -3.326420720929e-15
   112    2.561958296941e-15
   113    2.240830777724e-15
   114   -1.231414641451e-01
   115    1.848505076883e-14
   116    8.521874987604e-15
   117   -1.573998853019e-15
   118   -1.845426235787e-01
   119   -7.217994366469e-14
   120   -1.408542385751e-14
   121    3.034615671205e-14
   122   -2.385851735925e-01
   123    7.450077782772e-13
   124    5.000882968179e-14
   125   -1.765240243930e-13
   126   -1.721402475241e-01
   127    3.149153288633e-16
   128    2.483954752105e-05
   129   -2.054455633558e-03
   130    6.123537240763e-16
   131    7.587099105793e-16
   132    3.837695987038e-15
   133    1.831943462159e-15
   134    8.122577203359e-15
   135    1.686565108780e-15
   136   -5.238562338262e-02
   137   -2.040820145085e-16
   138    8.538026512289e-15
   139    9.701528066803e-15
   140   -8.044543360403e-02
   141   -1.350323601697e-13
   142    5.396112180685e-14
   143    1.081593858518e-13
   144   -1.241922201569e-01
   145   -1.110926810072e-12
   146   -3.245636294469e-13
   147   -5.460778517644e-13
   148   -1.513907398190e-01
   149    4.449296542349e-15
   150    1.847140467245e-02
   151   -9.360646785535e-03
   152   -2.744176908434e-15
   153   -3.108829894217e-16
   154    4.573480505634e-17
   155    6.681814691116e-16
   156    6.633462411383e-15
   157    5.152929284231e-15
   158    9.303105977139e-02
   159    1.285915588997e-15
   160    2.065692542964e-14
   161    3.307112507027e-15
   162    1.437974529776e-01
   163   -6.586204719663e-14
   164   -3.082624395454e-14
   165    7.401290652010e-15
   166    2.348995865517e-01
   167   -7.504901214538e-13
   168   -7.613125554954e-14
   169   -1.235199102961e-12
   170    3.272047935841e-01
   171    1.697530968164e-15
   172   -1.671919584764e-02
   173    1.172441972274e-02
   174    3.517047858642e-15
   175    2.496410583195e-15
   176   -2.003082306002e-15
   177   -4.776841971516e-15
   178    1.373358947465e-15
   179   -7.397263831024e-15
   180    7.411494383771e-02
   181    1.133790785511e-16
   182    1.395673918579e-14
   183    1.923932584543e-14
   184    1.172669354597e-01
   185    1.089984503659e-13
   186   -1.221962843821e-13
   187   -2.899386991942e-13
   188    2.236547341068e-01
   189    5.526409865881e-12
   190   -8.699568732918e-13
   191    2.788758750353e-12
   192    2.396950744869e-01
   193   -1.439599008924e-14
   194    1.513314278101e-02
   195    3.401048974513e-02
   196   -5.594685201565e-16
   197   -1.609127345825e-15
   198    7.586712228716e-15
   199   -2.705223335506e-14
   200    1.900455657613e-13
   201    1.797945141285e-12
   202    7.707806359797e-15
   203   -6.588028005480e-15
   204    5.911325987174e-03
Sym=X
Ene= 0.488979
Spin=Alpha
Occup=0
     1   -7.143745713176e-15
     2   -1.448472764840e-14
     3   -2.464383877677e-14
     4    3.762250033925e-14
     5   -3.150046098311e-02
     6    3.249420537499e-14
     7   -1.847604110063e-14
     8    9.940562511943e-14
     9   -4.955097076089e-02
    10    5.590062629417e-13
    11   -4.761089887536e-13
    12    5.274064003299e-13
    13   -8.968744091866e-02
    14    1.485577530102e-12
    15    4.337008859416e-12
    16   -2.832458197860e-12
    17    4.540241169866e-01
    18   -8.118266829766e-15
    19    2.389439680895e-03
    20   -4.984196853139e-03
    21   -5.403873886781e-15
    22    1.312655543682e-14
    23   -6.722679281248e-15
    24    9.497836691014e-14
    25   -2.713683555229e-12
    26    2.494537582351e-13
    27    4.027332247242e-15
    28    1.186653961455e-14
    29    4.809857779159e-03
    30    1.656847346580e-14
    31    1.418309486125e-13
    32    4.971883767694e-13
    33   -1.361255045464e-12
    34   -8.031295688915e-15
    35    4.749867240624e-15
    36   -2.752598419679e-04
    37   -2.098983601137e-14
    38   -1.685092721709e-13
    39    2.150337603531e-13
    40   -1.167608282656e-12
    41    6.893547371867e-15
    42    7.414208162931e-15
    43    1.412403926234e-03
    44    4.029656555805e-15
    45    4.988021855920e-15
    46   -1.213680965365e-14
    47    1.083767738381e-14
    48   -5.357955848667e-02
    49   -6.077258468825e-14
    50   -5.473883430128e-15
    51    6.571762201328e-15
    52   -9.779000666946e-02
    53    8.440472333146e-13
    54    1.427657723362e-13
    55    2.392385965989e-13
    56   -1.092541258849e-01
    57    4.031472320237e-12
    58    1.647720669609e-12
    59   -3.104010662483e-13
    60    1.735386362738e+00
    61   -5.931711756077e-15
    62    5.323740187074e-04
    63   -3.147348799979e-03
    64    7.230350020606e-15
    65    7.105972285166e-15
    66    8.170046635986e-16
    67   -1.153121738349e-15
    68   -3.409687743714e-15
    69    1.786104896624e-15
    70   -3.870234067062e-02
    71    2.640105064846e-15
    72    1.230679476587e-14
    73    2.557365403787e-14
    74   -6.073623486079e-02
    75   -1.459450570909e-14
    76   -1.248291017616e-13
    77   -1.008812366217e-13
    78   -1.543538156343e-02
    79   -7.683054044134e-13
    80    2.124950673175e-13
    81    1.267606250549e-12
    82   -1.041142549886e-01
    83   -1.153719682464e-15
    84   -7.395271621615e-03
    85    4.147891072178e-03
    86   -5.326877795823e-15
    87   -4.604279657337e-15
    88    1.751730938785e-14
    89    2.880885792168e-14
    90    1.290268734067e-14
    91   -2.192387617841e-14
    92   -2.381524431041e-03
    93   -6.837309856605e-14
    94    7.790555763131e-14
    95   -3.794401946946e-14
    96   -8.961761291531e-03
    97   -5.718916129802e-13
    98   -4.101760897019e-13
    99   -1.027923176321e-12
   100    1.707173754491e-02
   101   -2.335701608766e-11
   102   -1.433651023926e-13
   103    6.530681015426e-12
   104    3.182939254440e-01
   105   -1.032175620606e-14
   106    1.909956786175e-03
   107   -2.528781348319e-03
   108   -6.671906963871e-15
   109   -5.789454657535e-15
   110   -1.575166207660e-15
   111   -2.971760695705e-15
   112   -3.019408611641e-15
   113   -1.678566170608e-14
   114   -1.074364724760e-02
   115    2.336703932677e-15
   116   -2.280137355429e-15
   117   -3.280220735522e-14
   118   -1.531309529077e-02
   119    1.756037199449e-13
   120   -1.258380846008e-13
   121   -2.094906543682e-14
   122   -2.201880413985e-02
   123    1.314570945853e-12
   124   -4.973420755446e-13
   125   -8.518542359640e-13
   126    9.720676603195e-04
   127    4.879924196722e-15
   128    6.039907699492e-04
   129    4.151452912427e-04
   130   -1.887887325495e-15
   131   -3.665988387520e-15
   132   -9.571243613514e-15
   133   -1.691113502073e-14
   134    6.931748988927e-15
   135   -1.208630376110e-14
   136   -2.413560299720e-02
   137    3.055959590813e-14
   138    6.769630442342e-15
   139   -2.366789178399e-14
   140   -5.436856714150e-02
   141    2.880251661635e-13
   142    3.037595641139e-13
   143    1.536932984222e-13
   144    1.774320285024e-02
   145   -1.967324123292e-12
   146    1.664169968299e-12
   147   -4.357177062710e-13
   148   -6.339072760331e-01
   149    6.320282833452e-15
   150    2.511119087625e-03
   151    3.114342675283e-03
   152   -1.744638669201e-15
   153    2.004998439127e-15
   154    7.599723151911e-15
   155    1.593626625401e-14
   156   -2.911065753106e-14
   157    1.593339271059e-14
   158   -2.253997144110e-02
   159   -2.726436020749e-14
   160   -3.500783901743e-14
   161    2.378219463323e-14
   162   -5.070984152863e-02
   163   -3.704975759492e-13
   164   -2.899738475289e-13
   165    1.296462652719e-13
   166    1.666947783173e-02
   167    3.870370335597e-12
   168   -3.656537909372e-12
   169   -2.408634739316e-13
   170   -5.159225279932e-01
   171    8.383405188805e-16
   172   -5.403130921512e-03
   173   -2.661549000727e-03
   174    4.374252414064e-15
   175   -9.686426664896e-15
   176   -5.208566981795e-15
   177   -6.254308001866e-15
   178   -2.385891164685e-14
   179    1.570539816096e-14
   180   -9.444959877446e-03
   181    7.043923414412e-14
   182   -5.032974487956e-15
   183    3.700037602302e-14
   184   -1.419452357065e-02
   185   -8.552615700499e-13
   186   -1.483613398909e-13
   187   -5.443368538332e-13
   188   -1.278635270841e-02
   189    1.312910373082e-11
   190   -2.790710469765e-12
   191    1.035193884791e-11
   192   -4.085213752845e-01
   193   -8.148972159786e-15
   194    2.724958209382e-03
   195    1.891178917279e-03
   196    2.122676985399e-14
   197   -1.834077891984e-14
   198    3.845410866616e-14
   199   -1.472503903092e-14
   200    1.393423060377e-12
   201    5.075607400466e-12
   202    7.321523972796e-15
   203   -1.561411819897e-15
   204    1.108839998405e-04
[5D]
