[Molden Format]
[Atoms] (Angs)
  C      1    6     -0.00754183     -1.75895763      0.00000000
  H      2    1     -2.09769850     -1.41880678     -0.00000000
  H      3    1     -0.13527422     -2.83956838     -0.00000000
  H      4    1      0.04053511      2.02026369      0.00000000
  C      5    6     -1.22066484      0.39918184     -0.00000000
  O      6    8     -2.25210141      1.05663720     -0.00000000
  C      7    6      1.24009552      0.27789184      0.00000000
  O      8    8      2.33767996      1.06122493      0.00000000
  N      9    7      0.03634586      1.00852936      0.00000000
  N     10    7     -1.18738304     -0.97903470     -0.00000000
  C     11    6      1.22288875     -1.12258096      0.00000000
  H     12    1      2.15640383     -1.68445878      0.00000000
[GTO]
1    0
S    6    1.000000
   4.56324000E+03    1.96665000E-03 
   6.82024000E+02    1.52306000E-02 
   1.54973000E+02    7.61269000E-02 
   4.44553000E+01    2.60801000E-01 
   1.30290000E+01    6.16462000E-01 
   1.82773000E+00    2.21006000E-01 
SP   3    1.000000
   2.09642000E+01    1.14660000E-01   4.02487000E-02 
   4.80331000E+00    9.19999000E-01   2.37594000E-01 
   1.45933000E+00   -3.03068000E-03   8.15854000E-01 
SP   1    1.000000
   4.83456000E-01    1.00000000E+00   1.00000000E+00 
SP   1    1.000000
   1.45585000E-01    1.00000000E+00   1.00000000E+00 
SP   1    1.000000
   4.38000000E-02    1.00000000E+00   1.00000000E+00 
D    1    1.000000
   6.26000000E-01    1.00000000E+00 

2    0
S    3    1.000000
   3.38650000E+01    2.54938000E-02 
   5.09479000E+00    1.90373000E-01 
   1.15879000E+00    8.52161000E-01 
S    1    1.000000
   3.25840000E-01    1.00000000E+00 
S    1    1.000000
   1.02741000E-01    1.00000000E+00 
S    1    1.000000
   3.60000000E-02    1.00000000E+00 
P    1    1.000000
   7.50000000E-01    1.00000000E+00 

3    0
S    3    1.000000
   3.38650000E+01    2.54938000E-02 
   5.09479000E+00    1.90373000E-01 
   1.15879000E+00    8.52161000E-01 
S    1    1.000000
   3.25840000E-01    1.00000000E+00 
S    1    1.000000
   1.02741000E-01    1.00000000E+00 
S    1    1.000000
   3.60000000E-02    1.00000000E+00 
P    1    1.000000
   7.50000000E-01    1.00000000E+00 

4    0
S    3    1.000000
   3.38650000E+01    2.54938000E-02 
   5.09479000E+00    1.90373000E-01 
   1.15879000E+00    8.52161000E-01 
S    1    1.000000
   3.25840000E-01    1.00000000E+00 
S    1    1.000000
   1.02741000E-01    1.00000000E+00 
S    1    1.000000
   3.60000000E-02    1.00000000E+00 
P    1    1.000000
   7.50000000E-01    1.00000000E+00 

5    0
S    6    1.000000
   4.56324000E+03    1.96665000E-03 
   6.82024000E+02    1.52306000E-02 
   1.54973000E+02    7.61269000E-02 
   4.44553000E+01    2.60801000E-01 
   1.30290000E+01    6.16462000E-01 
   1.82773000E+00    2.21006000E-01 
SP   3    1.000000
   2.09642000E+01    1.14660000E-01   4.02487000E-02 
   4.80331000E+00    9.19999000E-01   2.37594000E-01 
   1.45933000E+00   -3.03068000E-03   8.15854000E-01 
SP   1    1.000000
   4.83456000E-01    1.00000000E+00   1.00000000E+00 
SP   1    1.000000
   1.45585000E-01    1.00000000E+00   1.00000000E+00 
SP   1    1.000000
   4.38000000E-02    1.00000000E+00   1.00000000E+00 
D    1    1.000000
   6.26000000E-01    1.00000000E+00 

6    0
S    6    1.000000
   8.58850000E+03    1.89515000E-03 
   1.29723000E+03    1.43859000E-02 
   2.99296000E+02    7.07320000E-02 
   8.73771000E+01    2.40001000E-01 
   2.56789000E+01    5.94797000E-01 
   3.74004000E+00    2.80802000E-01 
SP   3    1.000000
   4.21175000E+01    1.13889000E-01   3.65114000E-02 
   9.62837000E+00    9.20811000E-01   2.37153000E-01 
   2.85332000E+00   -3.27447000E-03   8.19702000E-01 
SP   1    1.000000
   9.05661000E-01    1.00000000E+00   1.00000000E+00 
SP   1    1.000000
   2.55611000E-01    1.00000000E+00   1.00000000E+00 
SP   1    1.000000
   8.45000000E-02    1.00000000E+00   1.00000000E+00 
D    1    1.000000
   1.29200000E+00    1.00000000E+00 

7    0
S    6    1.000000
   4.56324000E+03    1.96665000E-03 
   6.82024000E+02    1.52306000E-02 
   1.54973000E+02    7.61269000E-02 
   4.44553000E+01    2.60801000E-01 
   1.30290000E+01    6.16462000E-01 
   1.82773000E+00    2.21006000E-01 
SP   3    1.000000
   2.09642000E+01    1.14660000E-01   4.02487000E-02 
   4.80331000E+00    9.19999000E-01   2.37594000E-01 
   1.45933000E+00   -3.03068000E-03   8.15854000E-01 
SP   1    1.000000
   4.83456000E-01    1.00000000E+00   1.00000000E+00 
SP   1    1.000000
   1.45585000E-01    1.00000000E+00   1.00000000E+00 
SP   1    1.000000
   4.38000000E-02    1.00000000E+00   1.00000000E+00 
D    1    1.000000
   6.26000000E-01    1.00000000E+00 

8    0
S    6    1.000000
   8.58850000E+03    1.89515000E-03 
   1.29723000E+03    1.43859000E-02 
   2.99296000E+02    7.07320000E-02 
   8.73771000E+01    2.40001000E-01 
   2.56789000E+01    5.94797000E-01 
   3.74004000E+00    2.80802000E-01 
SP   3    1.000000
   4.21175000E+01    1.13889000E-01   3.65114000E-02 
   9.62837000E+00    9.20811000E-01   2.37153000E-01 
   2.85332000E+00   -3.27447000E-03   8.19702000E-01 
SP   1    1.000000
   9.05661000E-01    1.00000000E+00   1.00000000E+00 
SP   1    1.000000
   2.55611000E-01    1.00000000E+00   1.00000000E+00 
SP   1    1.000000
   8.45000000E-02    1.00000000E+00   1.00000000E+00 
D    1    1.000000
   1.29200000E+00    1.00000000E+00 

9    0
S    6    1.000000
   6.29348000E+03    1.96979000E-03 
   9.49044000E+02    1.49613000E-02 
   2.18776000E+02    7.35006000E-02 
   6.36916000E+01    2.48937000E-01 
   1.88282000E+01    6.02460000E-01 
   2.72023000E+00    2.56202000E-01 
SP   3    1.000000
   3.06331000E+01    1.11906000E-01   3.83119000E-02 
   7.02614000E+00    9.21666000E-01   2.37403000E-01 
   2.11205000E+00   -2.56919000E-03   8.17592000E-01 
SP   1    1.000000
   6.84009000E-01    1.00000000E+00   1.00000000E+00 
SP   1    1.000000
   2.00878000E-01    1.00000000E+00   1.00000000E+00 
SP   1    1.000000
   6.39000000E-02    1.00000000E+00   1.00000000E+00 
D    1    1.000000
   9.13000000E-01    1.00000000E+00 

10    0
S    6    1.000000
   6.29348000E+03    1.96979000E-03 
   9.49044000E+02    1.49613000E-02 
   2.18776000E+02    7.35006000E-02 
   6.36916000E+01    2.48937000E-01 
   1.88282000E+01    6.02460000E-01 
   2.72023000E+00    2.56202000E-01 
SP   3    1.000000
   3.06331000E+01    1.11906000E-01   3.83119000E-02 
   7.02614000E+00    9.21666000E-01   2.37403000E-01 
   2.11205000E+00   -2.56919000E-03   8.17592000E-01 
SP   1    1.000000
   6.84009000E-01    1.00000000E+00   1.00000000E+00 
SP   1    1.000000
   2.00878000E-01    1.00000000E+00   1.00000000E+00 
SP   1    1.000000
   6.39000000E-02    1.00000000E+00   1.00000000E+00 
D    1    1.000000
   9.13000000E-01    1.00000000E+00 

11    0
S    6    1.000000
   4.56324000E+03    1.96665000E-03 
   6.82024000E+02    1.52306000E-02 
   1.54973000E+02    7.61269000E-02 
   4.44553000E+01    2.60801000E-01 
   1.30290000E+01    6.16462000E-01 
   1.82773000E+00    2.21006000E-01 
SP   3    1.000000
   2.09642000E+01    1.14660000E-01   4.02487000E-02 
   4.80331000E+00    9.19999000E-01   2.37594000E-01 
   1.45933000E+00   -3.03068000E-03   8.15854000E-01 
SP   1    1.000000
   4.83456000E-01    1.00000000E+00   1.00000000E+00 
SP   1    1.000000
   1.45585000E-01    1.00000000E+00   1.00000000E+00 
SP   1    1.000000
   4.38000000E-02    1.00000000E+00   1.00000000E+00 
D    1    1.000000
   6.26000000E-01    1.00000000E+00 

12    0
S    3    1.000000
   3.38650000E+01    2.54938000E-02 
   5.09479000E+00    1.90373000E-01 
   1.15879000E+00    8.52161000E-01 
S    1    1.000000
   3.25840000E-01    1.00000000E+00 
S    1    1.000000
   1.02741000E-01    1.00000000E+00 
S    1    1.000000
   3.60000000E-02    1.00000000E+00 
P    1    1.000000
   7.50000000E-01    1.00000000E+00 

[MO]
Sym=X
Ene= -0.495022
Spin=Alpha
Occup=1
     1   -1.456708585314e-03
     2   -2.474369178920e-03
     3    1.411994047951e-02
     4   -1.932657548900e-02
     5    1.316315305565e-14
     6    8.050999623765e-03
     7    1.782383512274e-02
     8   -3.024235881612e-02
     9    2.551301070467e-14
    10    7.219722289924e-02
    11    4.774121612131e-02
    12   -7.366645163335e-02
    13    8.195856642781e-14
    14   -2.352599748619e+00
    15   -3.984047871348e-01
    16   -1.008434393263e+00
    17   -7.245489229570e-13
    18   -6.173564186729e-03
    19   -8.961180112526e-15
    20    1.085857986730e-15
    21    5.250569646830e-03
    22   -7.700146951786e-04
    23   -2.970890787759e-03
    24   -2.604885758051e-02
    25   -3.949913487644e-01
    26   -9.854165052592e-01
    27    1.524266118754e-02
    28    4.871332992972e-03
    29    5.125539696834e-15
    30    5.819264345748e-03
    31    5.991144218625e-03
    32   -9.166023063158e-02
    33   -5.623927141657e-01
    34    3.539812161664e-03
    35    1.863928182196e-03
    36    2.345442792786e-15
    37   -1.663136221869e-03
    38   -9.071064733963e-03
    39   -1.716636338614e-01
    40   -3.054172379020e-01
    41    1.843142045134e-03
    42   -7.346849572616e-03
    43    2.011965379835e-15
    44    4.510491864385e-03
    45    6.976549448850e-03
    46    5.472779601786e-03
    47    3.750028014692e-04
    48   -2.327358041985e-14
    49    1.471118236543e-02
    50    1.427854134580e-02
    51   -4.176950570874e-03
    52   -3.890046031218e-14
    53   -2.530736717355e-01
    54    1.127253402814e-01
    55   -4.477855949674e-02
    56   -1.141050074656e-13
    57   -2.612217278519e-01
    58    6.447408214500e-01
    59   -4.133572367758e-01
    60    6.400846483843e-13
    61   -2.418533417482e-02
    62    1.050039705366e-15
    63    5.686254211329e-15
    64   -4.447283404948e-05
    65    6.732313420882e-03
    66   -2.304613704428e-02
    67   -3.996172160634e-02
    68   -1.395230257834e-02
    69   -1.241237711860e-02
    70    2.147139548707e-14
    71    1.384601809858e-01
    72   -1.608518171262e-02
    73   -1.850476837771e-02
    74    2.344889500504e-14
    75    2.697085089195e-01
    76    2.766359617155e-02
    77   -4.656154245978e-02
    78    9.837406345931e-14
    79    4.008381681209e-01
    80   -7.802973429298e-02
    81    7.576922218079e-02
    82   -2.878728619063e-13
    83   -3.863721403676e-03
    84   -4.753770230296e-16
    85    3.977549886658e-16
    86    6.951555415392e-04
    87   -3.534696254337e-03
    88   -8.503120582355e-04
    89   -1.556349190248e-03
    90    6.697438282343e-03
    91   -1.220776509969e-02
    92    1.569231141249e-14
    93    8.030692605614e-03
    94    9.803129798765e-03
    95   -1.538770238327e-02
    96    2.554397457450e-14
    97    7.054551670260e-03
    98    2.605687307993e-03
    99   -2.403233693367e-03
   100    2.174589784350e-14
   101   -2.309674715804e+00
   102    2.617104783350e-01
   103    4.740716214581e-01
   104   -1.348832248309e-12
   105   -4.640569012608e-03
   106   -4.458791709574e-15
   107    6.129794882221e-15
   108   -2.175011005342e-03
   109   -8.285672922790e-04
   110   -1.592704739142e-03
   111   -2.770457663379e-03
   112   -5.404887621624e-03
   113    7.933420181524e-03
   114   -1.163170849637e-14
   115    9.900049294751e-03
   116   -7.276140125907e-03
   117    1.199120741527e-02
   118   -7.931308580554e-15
   119    5.261153972163e-04
   120   -1.231131902890e-02
   121    1.455075152290e-02
   122   -1.011027707105e-13
   123    8.064486258324e-02
   124   -1.312584504376e-02
   125   -1.433096081147e-02
   126    4.066955004276e-13
   127   -2.887951511699e-04
   128    7.336411113374e-16
   129    9.023857160284e-17
   130   -7.906845377889e-05
   131    2.439838849329e-04
   132   -1.488382829803e-02
   133   -2.579961867482e-02
   134   -1.944170987363e-02
   135    6.253843453558e-03
   136    6.995894972176e-15
   137    8.247835358577e-02
   138   -3.145220896316e-02
   139    7.800245181965e-03
   140    1.247066489289e-14
   141    1.793852982942e-01
   142   -6.793622872117e-02
   143    1.921238174709e-02
   144    2.141946373833e-14
   145    5.383598057475e-01
   146   -5.804836948180e-02
   147    1.842751573009e-01
   148    1.594370913184e-13
   149   -3.829435446810e-03
   150    4.804481952600e-15
   151    8.266237272288e-16
   152    1.062794557428e-03
   153    8.931510539096e-04
   154   -2.329184779665e-02
   155   -4.026887294759e-02
   156   -3.434728145903e-02
   157   -3.954883987610e-03
   158    6.206218178571e-15
   159    1.252629156749e-01
   160   -5.389189542244e-02
   161   -2.606740287394e-03
   162    7.650794462731e-15
   163    3.446166788718e-01
   164   -9.336562552086e-02
   165    3.957708244525e-03
   166    2.019731226513e-14
   167    9.244312561557e-01
   168   -3.775215914447e-01
   169   -6.591041555211e-02
   170   -6.771383443099e-15
   171   -4.113036528148e-03
   172    2.111843151496e-16
   173   -5.752318859213e-15
   174   -3.471690903214e-03
   175   -1.181708146929e-03
   176   -5.219017235478e-03
   177   -8.878817054918e-03
   178   -3.578708649315e-03
   179    3.119495660800e-03
   180   -2.262128272338e-14
   181    2.474347762856e-02
   182   -1.771423985959e-03
   183    4.925697274042e-03
   184   -3.253025309080e-14
   185    7.912671474657e-02
   186   -4.578877644349e-02
   187    4.342070955351e-02
   188   -1.517587993921e-13
   189    4.201326473015e+00
   190   -8.428639019860e-01
   191    4.990320778354e-01
   192    1.348091869327e-12
   193   -2.730483309714e-03
   194    4.448527070938e-16
   195    1.867304841744e-15
   196   -4.953809756631e-03
   197    4.874090018531e-03
   198   -7.248579365185e-03
   199   -7.695427353809e-03
   200   -1.781873531458e-03
   201    1.722723536892e-01
   202   -1.706548804150e-03
   203    4.676663791959e-04
   204    4.153351954471e-15
Sym=X
Ene= 0.495022
Spin=Alpha
Occup=0
     1   -6.712920103163e-15
     2   -1.155028268463e-14
     3   -1.150216114553e-14
     4    3.043441359532e-14
     5    6.953536483815e-02
     6    4.852338217288e-14
     7   -5.652648513468e-14
     8    5.447818920496e-14
     9    7.011770852479e-02
    10    7.018809076591e-14
    11   -1.861839517570e-13
    12    7.408710184450e-14
    13    3.557797859325e-01
    14   -6.342718452706e-12
    15    4.898589275950e-12
    16   -4.579664990182e-12
    17   -1.706322387904e+00
    18    1.896051378773e-15
    19    3.348167962944e-03
    20    1.657686932228e-02
    21   -1.344035163172e-14
    22    7.400131455289e-15
    23   -1.255389171580e-15
    24    5.325822142129e-14
    25   -2.268499928828e-12
    26    6.474417438212e-14
    27    4.547753141796e-15
    28    1.067588458360e-14
    29   -4.631881571419e-03
    30    1.617735825390e-14
    31    2.267444828638e-15
    32    3.027987062175e-13
    33   -6.099946816133e-13
    34   -1.222931452219e-14
    35   -6.370829341534e-15
    36   -8.694041820315e-03
    37   -2.676849879277e-14
    38   -3.986005225963e-14
    39    2.068073466952e-13
    40   -4.568756289228e-13
    41    8.136284209027e-15
    42    3.029749759021e-15
    43    7.905059337681e-03
    44   -1.031653782025e-15
    45    2.177884557225e-15
    46   -2.676845774425e-15
    47   -1.984136355467e-15
    48   -2.723398262988e-02
    49   -3.453234313452e-14
    50   -4.410454354835e-14
    51    3.635907577456e-15
    52   -3.448066716640e-02
    53    4.449780227225e-13
    54   -4.492183376129e-14
    55    1.618089982628e-13
    56   -1.230599017648e-01
    57    8.261345686392e-12
    58    2.210748949721e-12
    59   -1.738940882006e-12
    60    9.165810442926e-01
    61    3.086502251820e-15
    62    7.091951728255e-03
    63    3.159426192304e-04
    64    4.066925057797e-15
    65    1.796037976686e-15
    66   -1.081288000558e-15
    67   -1.275682266519e-15
    68   -2.151913904040e-15
    69    3.946146178500e-15
    70   -2.899391976224e-02
    71    9.183016372949e-15
    72    5.158138667637e-15
    73    3.913443546952e-14
    74   -4.043670360092e-02
    75   -5.292860018707e-14
    76   -1.022523427255e-13
    77   -8.033418405983e-14
    78   -3.558441427030e-02
    79   -3.442113461217e-13
    80    3.255954928792e-13
    81    1.057992851119e-12
    82    7.488886650740e-02
    83    7.987159891016e-16
    84   -4.021663975456e-03
    85    4.639135549211e-03
    86   -4.382921267063e-15
    87   -2.085245609689e-15
    88    1.675517104417e-14
    89    2.731882272437e-14
    90    1.544197831630e-14
    91   -1.269952205167e-14
    92   -3.272078049685e-02
    93   -3.504009188606e-14
    94    5.437177151536e-14
    95   -9.700369251310e-15
    96   -5.133791718015e-02
    97   -1.377239119616e-12
    98   -6.557325391220e-14
    99   -1.717845965662e-13
   100   -1.268346293473e-01
   101   -3.408394084304e-11
   102    5.322148502564e-13
   103    8.844931291120e-12
   104   -3.206372187662e-01
   105    4.934994314606e-15
   106    5.219194277308e-03
   107   -1.484436241625e-03
   108    1.441048717927e-15
   109   -5.954498811970e-15
   110   -1.762181358150e-15
   111   -2.727150393984e-15
   112    5.213168931436e-15
   113   -2.106503531188e-14
   114    1.902782237116e-02
   115    8.814920788214e-15
   116   -9.899110149384e-15
   117   -1.550208290291e-14
   118    2.780309495198e-02
   119    4.399196255518e-14
   120   -2.360682367078e-14
   121   -7.336203078699e-14
   122    4.051628840938e-02
   123    9.958584161410e-13
   124   -3.911085176324e-13
   125   -6.264722966204e-13
   126    6.281205542193e-02
   127    1.353666243237e-15
   128    6.665000968903e-04
   129    1.087602194723e-03
   130   -5.649189558662e-15
   131   -1.772811707452e-15
   132   -1.353090575545e-14
   133   -1.436405202120e-14
   134    9.729344436210e-15
   135   -7.847268720820e-15
   136   -2.445651625538e-03
   137    1.483232058212e-14
   138    1.568267226316e-14
   139   -7.101167418449e-15
   140   -2.446116930310e-03
   141    4.704722952202e-13
   142    1.380621817542e-13
   143   -7.580045987713e-14
   144   -8.592435011710e-03
   145   -1.130225974235e-12
   146    1.747183661637e-12
   147   -1.153266251011e-12
   148    1.865143500716e-01
   149    2.434192485116e-15
   150   -3.529906885140e-03
   151    6.948732394523e-03
   152    3.277771754951e-15
   153    6.880755076679e-15
   154    8.287264652198e-15
   155    1.400358046028e-14
   156   -1.867759840434e-14
   157    1.014087476053e-14
   158    1.980360501818e-02
   159   -4.395498878764e-14
   160   -3.927792562045e-14
   161    8.480172626565e-15
   162    3.211495803955e-02
   163   -6.722104859766e-14
   164   -7.706919319870e-14
   165    1.303789810753e-13
   166    4.126753539702e-02
   167    3.863431899823e-12
   168   -2.601363468523e-12
   169   -1.750077786535e-12
   170   -1.459979845311e-01
   171   -2.940078655555e-15
   172    6.583905525436e-03
   173   -7.176878118618e-04
   174   -2.056641702044e-15
   175   -6.483552197467e-15
   176   -9.248592012039e-15
   177   -1.139609978458e-14
   178    1.659220210563e-16
   179    1.009211328525e-14
   180    4.258165245644e-02
   181    2.478717004939e-14
   182   -4.464752719771e-14
   183    2.056546582524e-14
   184    4.976760855453e-02
   185    2.962769848863e-13
   186   -1.920371678124e-13
   187    1.790861410502e-13
   188    1.612788253893e-01
   189    2.671939841481e-11
   190   -3.254686869525e-12
   191    1.278769656583e-11
   192    4.944395946244e-01
   193   -2.653230383554e-14
   194   -9.608756040568e-03
   195   -2.646760286350e-03
   196    1.150473601191e-14
   197    2.220318101436e-15
   198    1.549195365009e-14
   199    3.181696688843e-14
   200    7.870703140169e-13
   201    4.155735085323e-12
   202   -2.831782343904e-15
   203   -3.180503122338e-15
   204   -1.270423057830e-03
[5D]
