[Molden Format]
[Atoms] (Angs)
  C      1    6     -0.00754183     -1.75895763      0.00000000
  H      2    1     -2.09769850     -1.41880678     -0.00000000
  H      3    1     -0.13527422     -2.83956838     -0.00000000
  H      4    1      0.04053511      2.02026369      0.00000000
  C      5    6     -1.22066484      0.39918184     -0.00000000
  O      6    8     -2.25210141      1.05663720     -0.00000000
  C      7    6      1.24009552      0.27789184      0.00000000
  O      8    8      2.33767996      1.06122493      0.00000000
  N      9    7      0.03634586      1.00852936      0.00000000
  N     10    7     -1.18738304     -0.97903470     -0.00000000
  C     11    6      1.22288875     -1.12258096      0.00000000
  H     12    1      2.15640383     -1.68445878      0.00000000
[GTO]
1    0
S    6    1.000000
   4.56324000E+03    1.96665000E-03 
   6.82024000E+02    1.52306000E-02 
   1.54973000E+02    7.61269000E-02 
   4.44553000E+01    2.60801000E-01 
   1.30290000E+01    6.16462000E-01 
   1.82773000E+00    2.21006000E-01 
SP   3    1.000000
   2.09642000E+01    1.14660000E-01   4.02487000E-02 
   4.80331000E+00    9.19999000E-01   2.37594000E-01 
   1.45933000E+00   -3.03068000E-03   8.15854000E-01 
SP   1    1.000000
   4.83456000E-01    1.00000000E+00   1.00000000E+00 
SP   1    1.000000
   1.45585000E-01    1.00000000E+00   1.00000000E+00 
SP   1    1.000000
   4.38000000E-02    1.00000000E+00   1.00000000E+00 
D    1    1.000000
   6.26000000E-01    1.00000000E+00 

2    0
S    3    1.000000
   3.38650000E+01    2.54938000E-02 
   5.09479000E+00    1.90373000E-01 
   1.15879000E+00    8.52161000E-01 
S    1    1.000000
   3.25840000E-01    1.00000000E+00 
S    1    1.000000
   1.02741000E-01    1.00000000E+00 
S    1    1.000000
   3.60000000E-02    1.00000000E+00 
P    1    1.000000
   7.50000000E-01    1.00000000E+00 

3    0
S    3    1.000000
   3.38650000E+01    2.54938000E-02 
   5.09479000E+00    1.90373000E-01 
   1.15879000E+00    8.52161000E-01 
S    1    1.000000
   3.25840000E-01    1.00000000E+00 
S    1    1.000000
   1.02741000E-01    1.00000000E+00 
S    1    1.000000
   3.60000000E-02    1.00000000E+00 
P    1    1.000000
   7.50000000E-01    1.00000000E+00 

4    0
S    3    1.000000
   3.38650000E+01    2.54938000E-02 
   5.09479000E+00    1.90373000E-01 
   1.15879000E+00    8.52161000E-01 
S    1    1.000000
   3.25840000E-01    1.00000000E+00 
S    1    1.000000
   1.02741000E-01    1.00000000E+00 
S    1    1.000000
   3.60000000E-02    1.00000000E+00 
P    1    1.000000
   7.50000000E-01    1.00000000E+00 

5    0
S    6    1.000000
   4.56324000E+03    1.96665000E-03 
   6.82024000E+02    1.52306000E-02 
   1.54973000E+02    7.61269000E-02 
   4.44553000E+01    2.60801000E-01 
   1.30290000E+01    6.16462000E-01 
   1.82773000E+00    2.21006000E-01 
SP   3    1.000000
   2.09642000E+01    1.14660000E-01   4.02487000E-02 
   4.80331000E+00    9.19999000E-01   2.37594000E-01 
   1.45933000E+00   -3.03068000E-03   8.15854000E-01 
SP   1    1.000000
   4.83456000E-01    1.00000000E+00   1.00000000E+00 
SP   1    1.000000
   1.45585000E-01    1.00000000E+00   1.00000000E+00 
SP   1    1.000000
   4.38000000E-02    1.00000000E+00   1.00000000E+00 
D    1    1.000000
   6.26000000E-01    1.00000000E+00 

6    0
S    6    1.000000
   8.58850000E+03    1.89515000E-03 
   1.29723000E+03    1.43859000E-02 
   2.99296000E+02    7.07320000E-02 
   8.73771000E+01    2.40001000E-01 
   2.56789000E+01    5.94797000E-01 
   3.74004000E+00    2.80802000E-01 
SP   3    1.000000
   4.21175000E+01    1.13889000E-01   3.65114000E-02 
   9.62837000E+00    9.20811000E-01   2.37153000E-01 
   2.85332000E+00   -3.27447000E-03   8.19702000E-01 
SP   1    1.000000
   9.05661000E-01    1.00000000E+00   1.00000000E+00 
SP   1    1.000000
   2.55611000E-01    1.00000000E+00   1.00000000E+00 
SP   1    1.000000
   8.45000000E-02    1.00000000E+00   1.00000000E+00 
D    1    1.000000
   1.29200000E+00    1.00000000E+00 

7    0
S    6    1.000000
   4.56324000E+03    1.96665000E-03 
   6.82024000E+02    1.52306000E-02 
   1.54973000E+02    7.61269000E-02 
   4.44553000E+01    2.60801000E-01 
   1.30290000E+01    6.16462000E-01 
   1.82773000E+00    2.21006000E-01 
SP   3    1.000000
   2.09642000E+01    1.14660000E-01   4.02487000E-02 
   4.80331000E+00    9.19999000E-01   2.37594000E-01 
   1.45933000E+00   -3.03068000E-03   8.15854000E-01 
SP   1    1.000000
   4.83456000E-01    1.00000000E+00   1.00000000E+00 
SP   1    1.000000
   1.45585000E-01    1.00000000E+00   1.00000000E+00 
SP   1    1.000000
   4.38000000E-02    1.00000000E+00   1.00000000E+00 
D    1    1.000000
   6.26000000E-01    1.00000000E+00 

8    0
S    6    1.000000
   8.58850000E+03    1.89515000E-03 
   1.29723000E+03    1.43859000E-02 
   2.99296000E+02    7.07320000E-02 
   8.73771000E+01    2.40001000E-01 
   2.56789000E+01    5.94797000E-01 
   3.74004000E+00    2.80802000E-01 
SP   3    1.000000
   4.21175000E+01    1.13889000E-01   3.65114000E-02 
   9.62837000E+00    9.20811000E-01   2.37153000E-01 
   2.85332000E+00   -3.27447000E-03   8.19702000E-01 
SP   1    1.000000
   9.05661000E-01    1.00000000E+00   1.00000000E+00 
SP   1    1.000000
   2.55611000E-01    1.00000000E+00   1.00000000E+00 
SP   1    1.000000
   8.45000000E-02    1.00000000E+00   1.00000000E+00 
D    1    1.000000
   1.29200000E+00    1.00000000E+00 

9    0
S    6    1.000000
   6.29348000E+03    1.96979000E-03 
   9.49044000E+02    1.49613000E-02 
   2.18776000E+02    7.35006000E-02 
   6.36916000E+01    2.48937000E-01 
   1.88282000E+01    6.02460000E-01 
   2.72023000E+00    2.56202000E-01 
SP   3    1.000000
   3.06331000E+01    1.11906000E-01   3.83119000E-02 
   7.02614000E+00    9.21666000E-01   2.37403000E-01 
   2.11205000E+00   -2.56919000E-03   8.17592000E-01 
SP   1    1.000000
   6.84009000E-01    1.00000000E+00   1.00000000E+00 
SP   1    1.000000
   2.00878000E-01    1.00000000E+00   1.00000000E+00 
SP   1    1.000000
   6.39000000E-02    1.00000000E+00   1.00000000E+00 
D    1    1.000000
   9.13000000E-01    1.00000000E+00 

10    0
S    6    1.000000
   6.29348000E+03    1.96979000E-03 
   9.49044000E+02    1.49613000E-02 
   2.18776000E+02    7.35006000E-02 
   6.36916000E+01    2.48937000E-01 
   1.88282000E+01    6.02460000E-01 
   2.72023000E+00    2.56202000E-01 
SP   3    1.000000
   3.06331000E+01    1.11906000E-01   3.83119000E-02 
   7.02614000E+00    9.21666000E-01   2.37403000E-01 
   2.11205000E+00   -2.56919000E-03   8.17592000E-01 
SP   1    1.000000
   6.84009000E-01    1.00000000E+00   1.00000000E+00 
SP   1    1.000000
   2.00878000E-01    1.00000000E+00   1.00000000E+00 
SP   1    1.000000
   6.39000000E-02    1.00000000E+00   1.00000000E+00 
D    1    1.000000
   9.13000000E-01    1.00000000E+00 

11    0
S    6    1.000000
   4.56324000E+03    1.96665000E-03 
   6.82024000E+02    1.52306000E-02 
   1.54973000E+02    7.61269000E-02 
   4.44553000E+01    2.60801000E-01 
   1.30290000E+01    6.16462000E-01 
   1.82773000E+00    2.21006000E-01 
SP   3    1.000000
   2.09642000E+01    1.14660000E-01   4.02487000E-02 
   4.80331000E+00    9.19999000E-01   2.37594000E-01 
   1.45933000E+00   -3.03068000E-03   8.15854000E-01 
SP   1    1.000000
   4.83456000E-01    1.00000000E+00   1.00000000E+00 
SP   1    1.000000
   1.45585000E-01    1.00000000E+00   1.00000000E+00 
SP   1    1.000000
   4.38000000E-02    1.00000000E+00   1.00000000E+00 
D    1    1.000000
   6.26000000E-01    1.00000000E+00 

12    0
S    3    1.000000
   3.38650000E+01    2.54938000E-02 
   5.09479000E+00    1.90373000E-01 
   1.15879000E+00    8.52161000E-01 
S    1    1.000000
   3.25840000E-01    1.00000000E+00 
S    1    1.000000
   1.02741000E-01    1.00000000E+00 
S    1    1.000000
   3.60000000E-02    1.00000000E+00 
P    1    1.000000
   7.50000000E-01    1.00000000E+00 

[MO]
Sym=X
Ene= -0.494645
Spin=Alpha
Occup=1
     1    1.430602592001e-03
     2    2.428890894819e-03
     3   -1.406800150700e-02
     4    1.913772728112e-02
     5   -1.320027702834e-14
     6   -7.905432116468e-03
     7   -1.771738702271e-02
     8    2.994706107257e-02
     9   -2.556111503459e-14
    10   -7.201111478778e-02
    11   -4.755017909302e-02
    12    7.346166969178e-02
    13   -8.206554996504e-14
    14    2.353767909732e+00
    15    3.984521341787e-01
    16    1.008375845366e+00
    17    7.258424640117e-13
    18    6.146252611234e-03
    19    8.983354724455e-15
    20   -1.087844165677e-15
    21   -5.273355756420e-03
    22    7.552447545879e-04
    23    2.700198004803e-03
    24    2.566081486763e-02
    25    3.947048382025e-01
    26    9.847759488579e-01
    27   -1.529859458136e-02
    28   -4.883306266088e-03
    29   -5.147310155789e-15
    30   -5.680321608640e-03
    31   -5.729875593237e-03
    32    9.163549753143e-02
    33    5.620599244612e-01
    34   -3.525716748857e-03
    35   -1.831971433677e-03
    36   -2.352722470329e-15
    37    1.463621999542e-03
    38    8.871653414802e-03
    39    1.719400168430e-01
    40    3.054827602044e-01
    41   -1.842238181126e-03
    42    7.417588834868e-03
    43   -2.016325778813e-15
    44   -4.518139373322e-03
    45   -6.989338744665e-03
    46   -5.430722867579e-03
    47   -4.840246477171e-04
    48    2.332949144815e-14
    49   -1.476943725532e-02
    50   -1.423462680249e-02
    51    4.021514690553e-03
    52    3.894094976617e-14
    53    2.537981607483e-01
    54   -1.127111055247e-01
    55    4.468330862647e-02
    56    1.143420654227e-13
    57    2.604579740394e-01
    58   -6.450516651141e-01
    59    4.135816570073e-01
    60   -6.412270970072e-13
    61    2.429534865162e-02
    62   -1.083042224511e-15
    63   -5.685252533087e-15
    64    2.844471403989e-05
    65   -6.798340639531e-03
    66    2.308613210681e-02
    67    4.002631048313e-02
    68    1.389679581147e-02
    69    1.263844139433e-02
    70   -2.158086353637e-14
    71   -1.386622270901e-01
    72    1.600711083821e-02
    73    1.879839960660e-02
    74   -2.345765292608e-14
    75   -2.700554785984e-01
    76   -2.769724760944e-02
    77    4.673579446618e-02
    78   -9.875279434233e-14
    79   -4.007845785032e-01
    80    7.806168636388e-02
    81   -7.579280251230e-02
    82    2.887352728594e-13
    83    3.886842418745e-03
    84    4.631570867294e-16
    85   -4.159896558867e-16
    86   -6.890585373834e-04
    87    3.563857560083e-03
    88    8.344985573765e-04
    89    1.529180978111e-03
    90   -6.754780665567e-03
    91    1.227489098283e-02
    92   -1.571286488267e-14
    93   -7.980203434845e-03
    94   -9.883661370324e-03
    95    1.551415568765e-02
    96   -2.559695905993e-14
    97   -6.839453459772e-03
    98   -2.707361214578e-03
    99    2.311535997912e-03
   100   -2.178772052551e-14
   101    2.310666820894e+00
   102   -2.619386058064e-01
   103   -4.741606510301e-01
   104    1.349509923254e-12
   105    4.639677829891e-03
   106    4.463466808389e-15
   107   -6.132557557190e-15
   108    2.213238782611e-03
   109    8.142493820112e-04
   110    1.596257193414e-03
   111    2.776366337145e-03
   112    5.443939929382e-03
   113   -8.009605544117e-03
   114    1.163116050114e-14
   115   -9.914226875757e-03
   116    7.335923698290e-03
   117   -1.210606339938e-02
   118    7.929107740077e-15
   119   -5.573648226922e-04
   120    1.238611926380e-02
   121   -1.466474375298e-02
   122    1.010421058776e-13
   123   -8.052317127976e-02
   124    1.308661718212e-02
   125    1.431760396189e-02
   126   -4.065669718895e-13
   127    2.921545592566e-04
   128   -7.322233411031e-16
   129   -8.559253767475e-17
   130    8.038449875350e-05
   131   -2.403745298409e-04
   132    1.500424946815e-02
   133    2.599771505498e-02
   134    1.960495828537e-02
   135   -6.487821251774e-03
   136   -7.027781696318e-15
   137   -8.308520745816e-02
   138    3.172919731767e-02
   139   -8.174400913675e-03
   140   -1.252560412194e-14
   141   -1.801384389406e-01
   142    6.819108630525e-02
   143   -1.946471926187e-02
   144   -2.156335092728e-14
   145   -5.379107481071e-01
   146    5.753004389176e-02
   147   -1.844898757625e-01
   148   -1.590374766224e-13
   149    3.856793464550e-03
   150   -4.827110219878e-15
   151   -8.303928797455e-16
   152   -1.055859658454e-03
   153   -8.884765591580e-04
   154    2.338879549710e-02
   155    4.042752798880e-02
   156    3.451640106242e-02
   157    4.104050378167e-03
   158   -6.221566856143e-15
   159   -1.257007358773e-01
   160    5.416672088361e-02
   161    2.757785284791e-03
   162   -7.661694443960e-15
   163   -3.447786127552e-01
   164    9.360264557200e-02
   165   -4.078641189106e-03
   166   -2.027426821758e-14
   167   -9.243905796427e-01
   168    3.771196308579e-01
   169    6.625209771961e-02
   170    6.657149176697e-15
   171    4.140884489034e-03
   172   -2.079852722989e-16
   173    5.754244731356e-15
   174    3.433001891433e-03
   175    1.204923027767e-03
   176    5.235613060116e-03
   177    8.907992794272e-03
   178    3.598505630502e-03
   179   -3.160392151762e-03
   180    2.267102430059e-14
   181   -2.480225119448e-02
   182    1.801720284986e-03
   183   -4.997714902299e-03
   184    3.258091475321e-14
   185   -7.938843605358e-02
   186    4.590735221873e-02
   187   -4.352950523574e-02
   188    1.519784820561e-13
   189   -4.202370506835e+00
   190    8.431172845793e-01
   191   -4.990547739338e-01
   192   -1.349660221147e-12
   193    2.727786235668e-03
   194   -4.434837205228e-16
   195   -1.863151955904e-15
   196    4.935399554559e-03
   197   -4.861118740135e-03
   198    7.247801378266e-03
   199    7.678637161669e-03
   200    1.725436154922e-03
   201   -1.723164611462e-01
   202    1.707640727658e-03
   203   -4.601076090399e-04
   204   -4.156025351800e-15
Sym=X
Ene= 0.494645
Spin=Alpha
Occup=0
     1    1.585038031482e-04
     2   -1.583868998463e-04
     3    9.004054534685e-03
     4    2.778645011069e-03
     5    1.142295879078e-14
     6    1.621296202170e-02
     7    1.284762793163e-02
     8   -6.104307355205e-03
     9    8.189652332111e-16
    10   -3.555836185726e-01
    11   -2.733593887741e-02
    12   -2.037701231376e-01
    13    8.057464823467e-14
    14    8.430934931770e-01
    15    1.885820631667e-01
    16   -1.139198976629e-01
    17   -3.905995244145e-13
    18   -1.497269872622e-02
    19   -4.219182491073e-15
    20   -5.271833155930e-16
    21   -8.360725917031e-03
    22   -5.847038445336e-04
    23    2.049300397984e-02
    24    1.385499137661e-01
    25    3.812623551772e-01
    26    1.527437351296e+00
    27    4.195401966805e-03
    28   -1.791158491535e-03
    29   -6.877620619299e-16
    30    1.568677158058e-02
    31   -7.516994450995e-05
    32    9.443170593559e-02
    33   -4.392491739034e-01
    34    1.807618962032e-05
    35   -4.796170560597e-03
    36    9.083331832492e-16
    37    2.066702675745e-02
    38    1.395201762250e-01
    39    4.960188491408e-01
    40    1.833113210844e+00
    41   -2.123722522985e-03
    42    3.551271763370e-03
    43    5.884237646149e-15
    44    4.349401039246e-03
    45    6.376417650385e-03
    46    2.198203000669e-02
    47   -1.397546850825e-02
    48   -4.387883766658e-14
    49    3.567919338241e-02
    50    4.397238570516e-02
    51   -3.422224285170e-02
    52   -7.430915545161e-14
    53   -8.097917347376e-01
    54   -1.511044540729e-01
    55    1.343645999511e-01
    56   -1.513726580144e-13
    57   -6.532036935847e+00
    58   -1.362598894238e+00
    59    1.466085030860e+00
    60    3.159667387612e-13
    61   -3.101752492171e-02
    62   -3.512549391646e-15
    63   -4.204017426093e-15
    64    1.095602257144e-02
    65   -2.004032371162e-02
    66   -6.447090821216e-03
    67   -1.107552357713e-02
    68    3.623088482285e-02
    69   -4.250957799926e-02
    70    1.854413695679e-14
    71    3.587882085084e-02
    72    4.733919556894e-02
    73   -5.828405860953e-02
    74    2.301862874445e-14
    75    9.040729381327e-02
    76    7.112882540691e-02
    77   -6.953113567824e-02
    78    4.056534584435e-14
    79    1.841699615693e-01
    80    3.505837357605e-02
    81   -4.447761054173e-02
    82    6.735894429750e-14
    83   -4.792562961562e-03
    84   -2.461221379751e-15
    85    3.130922976177e-15
    86   -1.791156798890e-03
    87    8.316731247792e-04
    88   -2.183394808167e-03
    89   -4.182062966805e-03
    90   -5.674319860086e-03
    91   -6.654357673736e-03
    92    2.116341915826e-14
    93    3.058763261000e-02
    94   -1.089794689711e-02
    95   -1.070749150716e-02
    96    5.275124762925e-14
    97   -3.198235095866e-01
    98    1.650893632148e-01
    99    7.632690708828e-02
   100    5.968324884001e-14
   101    4.427722281121e+00
   102   -3.633607216768e-01
   103   -1.978448576721e+00
   104   -8.155885935796e-13
   105   -1.077073428955e-02
   106   -9.641029390971e-16
   107   -2.396022321499e-15
   108    8.961778577327e-03
   109    8.075173818213e-03
   110   -2.888105696947e-03
   111   -4.991170959074e-03
   112   -9.112176513807e-03
   113   -1.264680864601e-02
   114   -1.627604231374e-14
   115    1.816995904042e-02
   116   -8.572378232167e-03
   117   -1.516646799216e-02
   118   -2.304241886643e-14
   119   -1.719075843971e-02
   120   -3.081184411432e-02
   121   -3.207555441584e-02
   122   -3.463116505410e-14
   123    1.582246829349e-01
   124    2.705196342507e-02
   125    1.193172163675e-01
   126    9.921183744602e-14
   127   -1.075681369275e-03
   128    7.113313945330e-16
   129   -8.152791554122e-16
   130   -7.017468375071e-04
   131    2.888151862418e-04
   132    1.610000956811e-03
   133    2.960429913687e-03
   134   -8.621264404995e-03
   135   -4.376901911469e-02
   136    8.209123376582e-15
   137   -1.161448493310e-02
   138   -1.108302281703e-02
   139   -6.451641710215e-02
   140    3.738267863550e-15
   141    7.506887653930e-02
   142   -6.700387189834e-02
   143   -3.147737937535e-01
   144    1.256527506182e-14
   145    1.653585952160e+00
   146   -2.340064454272e-01
   147   -7.187490842636e-01
   148    1.926091445897e-13
   149   -1.139227185305e-02
   150    6.274055792126e-15
   151    5.035361476001e-15
   152   -7.261151627099e-03
   153    1.735264630889e-03
   154   -5.307155021310e-03
   155   -9.149809759638e-03
   156    2.502585969321e-02
   157    1.936000830340e-02
   158    2.612708048559e-14
   159    3.045539341969e-02
   160    3.502121677345e-02
   161    2.794333739127e-02
   162    3.222449324041e-14
   163    1.626282262933e-01
   164    2.350706526854e-01
   165    1.945083618882e-01
   166    1.165774003152e-13
   167    2.513801193865e+00
   168    3.704998923059e-01
   169    5.655993496400e-01
   170   -3.069422483673e-13
   171   -1.238063682044e-02
   172    3.067304304997e-15
   173   -7.244717826068e-15
   174    6.086098256685e-05
   175    7.549072847852e-03
   176   -3.794587772190e-03
   177   -6.367427087439e-03
   178    8.326840442719e-04
   179   -6.644485982107e-03
   180   -2.351621661007e-14
   181    1.098729777715e-02
   182   -3.012295275033e-04
   183   -5.336532742261e-03
   184   -1.598326183415e-14
   185    3.803409006818e-01
   186   -1.973816750808e-01
   187    6.163635464177e-02
   188   -1.870394216709e-13
   189   -4.910387648987e+00
   190    5.804670454896e-01
   191   -1.141648805229e+00
   192    9.999978001390e-13
   193   -1.462787217786e-02
   194    3.769134234744e-15
   195    7.173730890899e-15
   196   -3.947093772096e-04
   197   -1.431826505741e-03
   198    9.491556406319e-03
   199    3.819659697274e-02
   200    1.385194075507e-01
   201   -6.730869503890e-01
   202   -1.428885048049e-03
   203    4.559248783753e-04
   204   -1.818271294522e-15
[5D]
