[Molden Format]
[Atoms] (Angs)
  C      1    6     -0.00754183     -1.75895763      0.00000000
  H      2    1     -2.09769850     -1.41880678     -0.00000000
  H      3    1     -0.13527422     -2.83956838     -0.00000000
  H      4    1      0.04053511      2.02026369      0.00000000
  C      5    6     -1.22066484      0.39918184     -0.00000000
  O      6    8     -2.25210141      1.05663720     -0.00000000
  C      7    6      1.24009552      0.27789184      0.00000000
  O      8    8      2.33767996      1.06122493      0.00000000
  N      9    7      0.03634586      1.00852936      0.00000000
  N     10    7     -1.18738304     -0.97903470     -0.00000000
  C     11    6      1.22288875     -1.12258096      0.00000000
  H     12    1      2.15640383     -1.68445878      0.00000000
[GTO]
1    0
S    6    1.000000
   4.56324000E+03    1.96665000E-03 
   6.82024000E+02    1.52306000E-02 
   1.54973000E+02    7.61269000E-02 
   4.44553000E+01    2.60801000E-01 
   1.30290000E+01    6.16462000E-01 
   1.82773000E+00    2.21006000E-01 
SP   3    1.000000
   2.09642000E+01    1.14660000E-01   4.02487000E-02 
   4.80331000E+00    9.19999000E-01   2.37594000E-01 
   1.45933000E+00   -3.03068000E-03   8.15854000E-01 
SP   1    1.000000
   4.83456000E-01    1.00000000E+00   1.00000000E+00 
SP   1    1.000000
   1.45585000E-01    1.00000000E+00   1.00000000E+00 
SP   1    1.000000
   4.38000000E-02    1.00000000E+00   1.00000000E+00 
D    1    1.000000
   6.26000000E-01    1.00000000E+00 

2    0
S    3    1.000000
   3.38650000E+01    2.54938000E-02 
   5.09479000E+00    1.90373000E-01 
   1.15879000E+00    8.52161000E-01 
S    1    1.000000
   3.25840000E-01    1.00000000E+00 
S    1    1.000000
   1.02741000E-01    1.00000000E+00 
S    1    1.000000
   3.60000000E-02    1.00000000E+00 
P    1    1.000000
   7.50000000E-01    1.00000000E+00 

3    0
S    3    1.000000
   3.38650000E+01    2.54938000E-02 
   5.09479000E+00    1.90373000E-01 
   1.15879000E+00    8.52161000E-01 
S    1    1.000000
   3.25840000E-01    1.00000000E+00 
S    1    1.000000
   1.02741000E-01    1.00000000E+00 
S    1    1.000000
   3.60000000E-02    1.00000000E+00 
P    1    1.000000
   7.50000000E-01    1.00000000E+00 

4    0
S    3    1.000000
   3.38650000E+01    2.54938000E-02 
   5.09479000E+00    1.90373000E-01 
   1.15879000E+00    8.52161000E-01 
S    1    1.000000
   3.25840000E-01    1.00000000E+00 
S    1    1.000000
   1.02741000E-01    1.00000000E+00 
S    1    1.000000
   3.60000000E-02    1.00000000E+00 
P    1    1.000000
   7.50000000E-01    1.00000000E+00 

5    0
S    6    1.000000
   4.56324000E+03    1.96665000E-03 
   6.82024000E+02    1.52306000E-02 
   1.54973000E+02    7.61269000E-02 
   4.44553000E+01    2.60801000E-01 
   1.30290000E+01    6.16462000E-01 
   1.82773000E+00    2.21006000E-01 
SP   3    1.000000
   2.09642000E+01    1.14660000E-01   4.02487000E-02 
   4.80331000E+00    9.19999000E-01   2.37594000E-01 
   1.45933000E+00   -3.03068000E-03   8.15854000E-01 
SP   1    1.000000
   4.83456000E-01    1.00000000E+00   1.00000000E+00 
SP   1    1.000000
   1.45585000E-01    1.00000000E+00   1.00000000E+00 
SP   1    1.000000
   4.38000000E-02    1.00000000E+00   1.00000000E+00 
D    1    1.000000
   6.26000000E-01    1.00000000E+00 

6    0
S    6    1.000000
   8.58850000E+03    1.89515000E-03 
   1.29723000E+03    1.43859000E-02 
   2.99296000E+02    7.07320000E-02 
   8.73771000E+01    2.40001000E-01 
   2.56789000E+01    5.94797000E-01 
   3.74004000E+00    2.80802000E-01 
SP   3    1.000000
   4.21175000E+01    1.13889000E-01   3.65114000E-02 
   9.62837000E+00    9.20811000E-01   2.37153000E-01 
   2.85332000E+00   -3.27447000E-03   8.19702000E-01 
SP   1    1.000000
   9.05661000E-01    1.00000000E+00   1.00000000E+00 
SP   1    1.000000
   2.55611000E-01    1.00000000E+00   1.00000000E+00 
SP   1    1.000000
   8.45000000E-02    1.00000000E+00   1.00000000E+00 
D    1    1.000000
   1.29200000E+00    1.00000000E+00 

7    0
S    6    1.000000
   4.56324000E+03    1.96665000E-03 
   6.82024000E+02    1.52306000E-02 
   1.54973000E+02    7.61269000E-02 
   4.44553000E+01    2.60801000E-01 
   1.30290000E+01    6.16462000E-01 
   1.82773000E+00    2.21006000E-01 
SP   3    1.000000
   2.09642000E+01    1.14660000E-01   4.02487000E-02 
   4.80331000E+00    9.19999000E-01   2.37594000E-01 
   1.45933000E+00   -3.03068000E-03   8.15854000E-01 
SP   1    1.000000
   4.83456000E-01    1.00000000E+00   1.00000000E+00 
SP   1    1.000000
   1.45585000E-01    1.00000000E+00   1.00000000E+00 
SP   1    1.000000
   4.38000000E-02    1.00000000E+00   1.00000000E+00 
D    1    1.000000
   6.26000000E-01    1.00000000E+00 

8    0
S    6    1.000000
   8.58850000E+03    1.89515000E-03 
   1.29723000E+03    1.43859000E-02 
   2.99296000E+02    7.07320000E-02 
   8.73771000E+01    2.40001000E-01 
   2.56789000E+01    5.94797000E-01 
   3.74004000E+00    2.80802000E-01 
SP   3    1.000000
   4.21175000E+01    1.13889000E-01   3.65114000E-02 
   9.62837000E+00    9.20811000E-01   2.37153000E-01 
   2.85332000E+00   -3.27447000E-03   8.19702000E-01 
SP   1    1.000000
   9.05661000E-01    1.00000000E+00   1.00000000E+00 
SP   1    1.000000
   2.55611000E-01    1.00000000E+00   1.00000000E+00 
SP   1    1.000000
   8.45000000E-02    1.00000000E+00   1.00000000E+00 
D    1    1.000000
   1.29200000E+00    1.00000000E+00 

9    0
S    6    1.000000
   6.29348000E+03    1.96979000E-03 
   9.49044000E+02    1.49613000E-02 
   2.18776000E+02    7.35006000E-02 
   6.36916000E+01    2.48937000E-01 
   1.88282000E+01    6.02460000E-01 
   2.72023000E+00    2.56202000E-01 
SP   3    1.000000
   3.06331000E+01    1.11906000E-01   3.83119000E-02 
   7.02614000E+00    9.21666000E-01   2.37403000E-01 
   2.11205000E+00   -2.56919000E-03   8.17592000E-01 
SP   1    1.000000
   6.84009000E-01    1.00000000E+00   1.00000000E+00 
SP   1    1.000000
   2.00878000E-01    1.00000000E+00   1.00000000E+00 
SP   1    1.000000
   6.39000000E-02    1.00000000E+00   1.00000000E+00 
D    1    1.000000
   9.13000000E-01    1.00000000E+00 

10    0
S    6    1.000000
   6.29348000E+03    1.96979000E-03 
   9.49044000E+02    1.49613000E-02 
   2.18776000E+02    7.35006000E-02 
   6.36916000E+01    2.48937000E-01 
   1.88282000E+01    6.02460000E-01 
   2.72023000E+00    2.56202000E-01 
SP   3    1.000000
   3.06331000E+01    1.11906000E-01   3.83119000E-02 
   7.02614000E+00    9.21666000E-01   2.37403000E-01 
   2.11205000E+00   -2.56919000E-03   8.17592000E-01 
SP   1    1.000000
   6.84009000E-01    1.00000000E+00   1.00000000E+00 
SP   1    1.000000
   2.00878000E-01    1.00000000E+00   1.00000000E+00 
SP   1    1.000000
   6.39000000E-02    1.00000000E+00   1.00000000E+00 
D    1    1.000000
   9.13000000E-01    1.00000000E+00 

11    0
S    6    1.000000
   4.56324000E+03    1.96665000E-03 
   6.82024000E+02    1.52306000E-02 
   1.54973000E+02    7.61269000E-02 
   4.44553000E+01    2.60801000E-01 
   1.30290000E+01    6.16462000E-01 
   1.82773000E+00    2.21006000E-01 
SP   3    1.000000
   2.09642000E+01    1.14660000E-01   4.02487000E-02 
   4.80331000E+00    9.19999000E-01   2.37594000E-01 
   1.45933000E+00   -3.03068000E-03   8.15854000E-01 
SP   1    1.000000
   4.83456000E-01    1.00000000E+00   1.00000000E+00 
SP   1    1.000000
   1.45585000E-01    1.00000000E+00   1.00000000E+00 
SP   1    1.000000
   4.38000000E-02    1.00000000E+00   1.00000000E+00 
D    1    1.000000
   6.26000000E-01    1.00000000E+00 

12    0
S    3    1.000000
   3.38650000E+01    2.54938000E-02 
   5.09479000E+00    1.90373000E-01 
   1.15879000E+00    8.52161000E-01 
S    1    1.000000
   3.25840000E-01    1.00000000E+00 
S    1    1.000000
   1.02741000E-01    1.00000000E+00 
S    1    1.000000
   3.60000000E-02    1.00000000E+00 
P    1    1.000000
   7.50000000E-01    1.00000000E+00 

[MO]
Sym=X
Ene= -0.072514
Spin=Alpha
Occup=1
     1    3.328856791804e-06
     2    4.841047719750e-06
     3   -5.981817270666e-07
     4   -1.414221451545e-05
     5    4.675615317046e-16
     6   -2.274676436983e-05
     7   -2.862601385104e-05
     8    8.505897928147e-06
     9   -8.485893685135e-16
    10    3.465529911048e-04
    11   -6.530359550465e-05
    12    6.095380111210e-05
    13    2.282906950608e-16
    14    3.324694270787e-03
    15   -1.993962714254e-04
    16    8.312332737318e-04
    17   -7.030387953126e-15
    18    2.420916697841e-06
    19   -1.329723860528e-16
    20    5.476199206981e-16
    21    7.899023174142e-07
    22   -8.402708249015e-06
    23   -7.763440373127e-06
    24   -9.059789449458e-05
    25   -3.190022102872e-04
    26   -1.068533047609e-03
    27   -8.103569435762e-06
    28    9.200250387166e-06
    29   -7.180546586517e-16
    30    1.046653209349e-06
    31   -2.480903491743e-05
    32   -3.882222734161e-05
    33    7.705049589280e-05
    34    4.462525858850e-06
    35   -1.455114050723e-06
    36    1.173801381475e-15
    37   -1.645125211586e-06
    38   -8.078551186019e-05
    39   -1.187596682234e-04
    40   -2.812389683802e-04
    41   -1.326060569740e-05
    42    8.882252010356e-06
    43   -4.851694569855e-16
    44    1.269832334477e-06
    45    7.694723917545e-05
    46    5.404002250590e-05
    47   -3.558236126097e-05
    48   -1.824749973233e-15
    49   -3.358716759466e-04
    50    2.979456996514e-04
    51   -1.907252017082e-04
    52    2.836346349053e-15
    53    2.633121722767e-04
    54    5.668053513610e-04
    55   -3.538812508609e-04
    56   -4.528582497840e-15
    57   -1.063105509207e-03
    58   -1.104636030938e-03
    59    3.777966024808e-04
    60   -1.397304242761e-15
    61    5.438200700903e-05
    62   -8.365560711576e-16
    63    7.356193500526e-17
    64   -7.851317819067e-05
    65    1.594954795534e-04
    66   -5.514686185098e-01
    67   -4.716806436438e-01
    68   -1.494805364956e-03
    69    9.333749798418e-04
    70   -8.513588079586e-16
    71   -5.571038195444e-03
    72    5.522086836957e-04
    73   -3.404750816359e-04
    74    7.039381970089e-16
    75    1.339429074845e-03
    76   -1.346500391176e-04
    77    8.273514162999e-05
    78   -7.665222174053e-16
    79   -1.534145753232e-03
    80   -3.193301085458e-05
    81    1.601955235410e-05
    82    1.033851113676e-15
    83    9.545935989590e-05
    84   -1.291033632022e-16
    85    1.100134141696e-15
    86   -7.228362591734e-06
    87   -5.886286723939e-05
    88    1.266973684081e-06
    89    7.220220189344e-07
    90   -6.925065527403e-06
    91   -7.812148724067e-06
    92    7.479416754115e-16
    93   -8.855499639471e-06
    94   -3.925433214849e-05
    95    7.450221279433e-06
    96    1.818508296132e-16
    97    3.582423704238e-04
    98   -2.397516710730e-04
    99   -3.677222460000e-05
   100   -7.721743979371e-16
   101    6.262498303671e-03
   102   -1.785740288653e-03
   103   -1.024869473554e-03
   104   -3.216927532661e-15
   105    5.581471171953e-06
   106    3.202655308488e-16
   107    3.033375050406e-16
   108    1.027340029031e-05
   109    2.008824656147e-06
   110   -2.458923457497e-07
   111   -6.846206271370e-06
   112    9.889617522491e-06
   113    7.406598889967e-07
   114   -9.017554007694e-16
   115    5.454710886728e-05
   116    1.084284074405e-05
   117   -1.123312438971e-06
   118    2.175975947957e-15
   119    2.017559702527e-05
   120    8.658815106059e-06
   121   -6.513603099292e-06
   122   -1.742802951536e-15
   123    4.493380703557e-04
   124   -7.631515260517e-05
   125   -3.006726991412e-05
   126    1.018844213826e-15
   127    1.514180616282e-06
   128    2.661684220240e-16
   129   -1.590999463481e-16
   130   -8.706234354042e-07
   131   -9.287105064312e-07
   132    3.273540410177e-06
   133    3.515948088293e-06
   134   -1.490618928805e-05
   135    1.740623440048e-06
   136    3.895297142591e-16
   137    1.188546861065e-05
   138    1.325217412595e-05
   139   -2.672568486660e-06
   140   -1.816961429588e-15
   141   -3.708694228162e-04
   142   -5.906109197232e-05
   143    3.313457699771e-04
   144    3.513845758387e-15
   145   -1.096714957459e-03
   146   -7.246603439338e-04
   147    3.729778561689e-04
   148    1.220396485196e-15
   149    1.016098343323e-05
   150    2.298401335554e-16
   151    1.128039126249e-15
   152   -1.825747770749e-05
   153   -1.004579264356e-05
   154   -3.065716572905e-06
   155   -7.005759424945e-06
   156   -1.555536085775e-05
   157   -1.269659194327e-06
   158   -8.966607316426e-16
   159    4.410076431965e-05
   160   -1.113469478941e-06
   161   -3.423295676455e-05
   162    2.034541893005e-16
   163   -2.670498805570e-04
   164   -3.143404347620e-04
   165   -1.288874377881e-04
   166    8.946381090233e-16
   167   -4.654419087226e-04
   168   -6.677243578414e-04
   169    2.483630631124e-04
   170    5.339284162996e-15
   171    1.086758697896e-05
   172   -1.976210279339e-16
   173   -3.172879881610e-16
   174    1.703214227036e-05
   175    8.308776328030e-06
   176    3.752016529778e-06
   177    6.880900705833e-06
   178   -1.210303847280e-06
   179   -1.317021266858e-06
   180    9.408226713318e-17
   181   -2.564128917081e-05
   182    8.624976376049e-06
   183   -2.055239018461e-06
   184    1.304110099344e-15
   185   -1.661699453546e-04
   186    6.207374010083e-05
   187   -8.180023054351e-05
   188   -2.815177652350e-15
   189   -5.123385733528e-03
   190    1.041930077990e-03
   191   -1.178127597708e-03
   192    7.436424682007e-15
   193    3.328111887460e-06
   194    4.880966502382e-16
   195    5.096435690025e-17
   196   -7.028806331604e-06
   197    5.142333493838e-07
   198   -2.177903277581e-06
   199    3.503644853411e-06
   200   -1.498539896961e-04
   201   -2.570962121040e-04
   202   -1.089902054331e-06
   203   -2.319055957181e-06
   204    9.774324302663e-16
Sym=X
Ene= 0.072514
Spin=Alpha
Occup=0
     1   -4.337250978687e-07
     2    2.702165030210e-06
     3    7.397357345550e-07
     4    2.196702329720e-06
     5    6.254402483269e-16
     6   -1.973576717480e-05
     7   -1.112375999285e-05
     8   -1.392459271077e-05
     9   -1.120647561441e-15
    10    3.505883664453e-04
    11    8.101076323757e-05
    12    2.105667607349e-04
    13    6.675713205492e-15
    14    1.543797941909e-04
    15   -2.435162559166e-04
    16    6.273359734898e-04
    17   -1.044982331688e-14
    18   -1.131174441624e-06
    19    6.745285638713e-16
    20    9.999382313715e-16
    21    2.882096352624e-06
    22   -1.263352162429e-05
    23   -2.603586337952e-07
    24   -1.175698097192e-05
    25    6.823351582366e-05
    26   -4.069945824457e-05
    27    2.123239150689e-06
    28   -1.374484682039e-06
    29    1.225139539837e-15
    30    3.028070907927e-07
    31    4.872236923296e-06
    32    1.431119073203e-04
    33    3.085141368059e-04
    34   -4.911223634828e-06
    35    4.792936588556e-08
    36   -1.603030664898e-15
    37   -5.417919781978e-06
    38   -4.236297072140e-05
    39   -5.117666597543e-05
    40   -6.462413860020e-05
    41    3.165287925466e-06
    42    1.034865152089e-05
    43   -7.835255020946e-16
    44    7.046644682328e-08
    45    1.115538293847e-07
    46   -8.179401850351e-07
    47    1.501266760461e-07
    48   -1.100837924337e-15
    49   -1.036367463761e-06
    50    2.014502838232e-06
    51   -1.043159021615e-06
    52    1.333458543529e-15
    53    1.310187470667e-04
    54    1.490335963024e-04
    55   -1.254558896029e-05
    56    9.768319487095e-16
    57    1.210778038234e-04
    58   -2.825710719637e-05
    59    1.925511343615e-04
    60   -6.956961272224e-15
    61   -2.964371069640e-06
    62   -4.521482965475e-16
    63    6.038656874770e-16
    64   -1.255045856452e-06
    65   -3.149015884921e-06
    66   -6.564679044126e-06
    67   -6.492047732153e-06
    68    3.691025865051e-07
    69   -2.863594173990e-07
    70   -2.609173499359e-16
    71    1.554063983817e-06
    72   -6.704681070005e-07
    73    1.616033474595e-06
    74    1.489110541772e-15
    75   -1.124070764822e-06
    76   -4.954233884422e-06
    77   -1.133900002161e-05
    78   -3.123516241855e-15
    79    2.781952535695e-04
    80    1.462322473809e-04
    81   -4.334881852461e-05
    82    3.974179720617e-15
    83   -1.587785967544e-07
    84    5.246982772273e-16
    85    2.759158156987e-16
    86   -1.208414752467e-06
    87    4.875315853906e-07
    88   -4.784575395235e-07
    89    4.954942685451e-05
    90   -1.826363265452e-06
    91   -5.766008663579e-06
    92    1.972923809018e-16
    93   -1.586629516469e-04
    94   -3.117525035597e-04
    95   -2.256010337472e-04
    96   -4.507396584059e-16
    97    3.620229153540e-04
    98   -3.050030811769e-06
    99   -1.501517265978e-04
   100    3.848169187853e-15
   101    1.982257907432e-03
   102    7.933933800896e-04
   103   -3.274187606934e-04
   104   -1.036336826394e-14
   105    4.595324015449e-05
   106    3.289643681993e-16
   107    1.065228595875e-15
   108   -8.956011986119e-05
   109   -1.971585579766e-04
   110   -5.515435412253e-01
   111   -4.717352725627e-01
   112    1.438529647621e-03
   113    1.026777738839e-03
   114    7.508572657625e-16
   115   -5.176066628310e-03
   116   -6.546282469446e-04
   117   -4.847876558231e-04
   118    2.569334494332e-16
   119    8.115545293982e-04
   120    2.604594634351e-04
   121    2.144170117531e-04
   122   -2.505866652315e-15
   123   -1.551603145817e-03
   124    9.336699730071e-05
   125    2.335267557934e-05
   126    2.406813700051e-15
   127    5.641655032710e-05
   128    3.363226640935e-16
   129    4.151332577283e-17
   130    3.944117775727e-05
   131    1.630836119674e-04
   132   -4.000012265412e-07
   133    5.391833064050e-07
   134    1.292452643514e-05
   135   -5.345692908430e-06
   136   -9.335279474656e-16
   137    1.153612841162e-05
   138   -4.342299129334e-05
   139    2.520566654061e-05
   140    1.450722767849e-15
   141   -1.451780735983e-04
   142    6.866845695049e-05
   143    1.246889619844e-04
   144   -3.110974027647e-15
   145    3.433470909748e-04
   146    5.702043480997e-04
   147    1.259968887182e-05
   148    5.110104517195e-15
   149    7.588658672336e-06
   150   -8.819105169929e-16
   151    1.599567082820e-17
   152   -1.918959005359e-05
   153    2.444773526159e-05
   154   -2.233082450354e-08
   155    2.269140153893e-07
   156    9.339867154340e-07
   157    2.315493948933e-08
   158   -1.320669876799e-16
   159    5.044634617017e-06
   160   -3.742602204498e-06
   161   -5.415021778578e-07
   162    2.760457893534e-16
   163   -1.176404626480e-04
   164   -6.606387738583e-05
   165   -5.324973142630e-06
   166   -3.383785711713e-15
   167   -1.856011542278e-04
   168    7.046595984661e-05
   169    3.095286484105e-05
   170    5.137886271687e-15
   171    1.959947769235e-07
   172    4.415971860854e-16
   173   -1.798255045994e-16
   174    2.657994930518e-07
   175    2.270199347517e-06
   176   -1.602917063864e-06
   177    2.168071403622e-06
   178    6.349621421506e-06
   179    1.897748710330e-05
   180   -1.082653834616e-15
   181    1.302763553899e-06
   182   -1.901110824033e-05
   183   -1.090598301789e-04
   184    2.795733555197e-15
   185   -4.168913009086e-04
   186    3.339972010206e-04
   187   -6.644075202440e-05
   188   -8.598792056536e-15
   189   -1.719342379941e-03
   190   -4.364921255762e-05
   191   -1.068278521550e-03
   192    1.613428250848e-14
   193    5.264274412714e-06
   194    3.880992193208e-16
   195   -3.229298953102e-16
   196    5.135135900700e-05
   197   -3.291188589373e-05
   198   -1.978281570462e-06
   199   -9.511627164441e-05
   200   -8.462843181792e-05
   201   -3.531219262250e-04
   202    2.244073664946e-05
   203   -1.351563120874e-05
   204    3.062619993234e-16
[5D]
