[Molden Format]
[Atoms] (Angs)
  C      1    6     -0.00754183     -1.75895763      0.00000000
  H      2    1     -2.09769850     -1.41880678     -0.00000000
  H      3    1     -0.13527422     -2.83956838     -0.00000000
  H      4    1      0.04053511      2.02026369      0.00000000
  C      5    6     -1.22066484      0.39918184     -0.00000000
  O      6    8     -2.25210141      1.05663720     -0.00000000
  C      7    6      1.24009552      0.27789184      0.00000000
  O      8    8      2.33767996      1.06122493      0.00000000
  N      9    7      0.03634586      1.00852936      0.00000000
  N     10    7     -1.18738304     -0.97903470     -0.00000000
  C     11    6      1.22288875     -1.12258096      0.00000000
  H     12    1      2.15640383     -1.68445878      0.00000000
[GTO]
1    0
S    6    1.000000
   4.56324000E+03    1.96665000E-03 
   6.82024000E+02    1.52306000E-02 
   1.54973000E+02    7.61269000E-02 
   4.44553000E+01    2.60801000E-01 
   1.30290000E+01    6.16462000E-01 
   1.82773000E+00    2.21006000E-01 
SP   3    1.000000
   2.09642000E+01    1.14660000E-01   4.02487000E-02 
   4.80331000E+00    9.19999000E-01   2.37594000E-01 
   1.45933000E+00   -3.03068000E-03   8.15854000E-01 
SP   1    1.000000
   4.83456000E-01    1.00000000E+00   1.00000000E+00 
SP   1    1.000000
   1.45585000E-01    1.00000000E+00   1.00000000E+00 
SP   1    1.000000
   4.38000000E-02    1.00000000E+00   1.00000000E+00 
D    1    1.000000
   6.26000000E-01    1.00000000E+00 

2    0
S    3    1.000000
   3.38650000E+01    2.54938000E-02 
   5.09479000E+00    1.90373000E-01 
   1.15879000E+00    8.52161000E-01 
S    1    1.000000
   3.25840000E-01    1.00000000E+00 
S    1    1.000000
   1.02741000E-01    1.00000000E+00 
S    1    1.000000
   3.60000000E-02    1.00000000E+00 
P    1    1.000000
   7.50000000E-01    1.00000000E+00 

3    0
S    3    1.000000
   3.38650000E+01    2.54938000E-02 
   5.09479000E+00    1.90373000E-01 
   1.15879000E+00    8.52161000E-01 
S    1    1.000000
   3.25840000E-01    1.00000000E+00 
S    1    1.000000
   1.02741000E-01    1.00000000E+00 
S    1    1.000000
   3.60000000E-02    1.00000000E+00 
P    1    1.000000
   7.50000000E-01    1.00000000E+00 

4    0
S    3    1.000000
   3.38650000E+01    2.54938000E-02 
   5.09479000E+00    1.90373000E-01 
   1.15879000E+00    8.52161000E-01 
S    1    1.000000
   3.25840000E-01    1.00000000E+00 
S    1    1.000000
   1.02741000E-01    1.00000000E+00 
S    1    1.000000
   3.60000000E-02    1.00000000E+00 
P    1    1.000000
   7.50000000E-01    1.00000000E+00 

5    0
S    6    1.000000
   4.56324000E+03    1.96665000E-03 
   6.82024000E+02    1.52306000E-02 
   1.54973000E+02    7.61269000E-02 
   4.44553000E+01    2.60801000E-01 
   1.30290000E+01    6.16462000E-01 
   1.82773000E+00    2.21006000E-01 
SP   3    1.000000
   2.09642000E+01    1.14660000E-01   4.02487000E-02 
   4.80331000E+00    9.19999000E-01   2.37594000E-01 
   1.45933000E+00   -3.03068000E-03   8.15854000E-01 
SP   1    1.000000
   4.83456000E-01    1.00000000E+00   1.00000000E+00 
SP   1    1.000000
   1.45585000E-01    1.00000000E+00   1.00000000E+00 
SP   1    1.000000
   4.38000000E-02    1.00000000E+00   1.00000000E+00 
D    1    1.000000
   6.26000000E-01    1.00000000E+00 

6    0
S    6    1.000000
   8.58850000E+03    1.89515000E-03 
   1.29723000E+03    1.43859000E-02 
   2.99296000E+02    7.07320000E-02 
   8.73771000E+01    2.40001000E-01 
   2.56789000E+01    5.94797000E-01 
   3.74004000E+00    2.80802000E-01 
SP   3    1.000000
   4.21175000E+01    1.13889000E-01   3.65114000E-02 
   9.62837000E+00    9.20811000E-01   2.37153000E-01 
   2.85332000E+00   -3.27447000E-03   8.19702000E-01 
SP   1    1.000000
   9.05661000E-01    1.00000000E+00   1.00000000E+00 
SP   1    1.000000
   2.55611000E-01    1.00000000E+00   1.00000000E+00 
SP   1    1.000000
   8.45000000E-02    1.00000000E+00   1.00000000E+00 
D    1    1.000000
   1.29200000E+00    1.00000000E+00 

7    0
S    6    1.000000
   4.56324000E+03    1.96665000E-03 
   6.82024000E+02    1.52306000E-02 
   1.54973000E+02    7.61269000E-02 
   4.44553000E+01    2.60801000E-01 
   1.30290000E+01    6.16462000E-01 
   1.82773000E+00    2.21006000E-01 
SP   3    1.000000
   2.09642000E+01    1.14660000E-01   4.02487000E-02 
   4.80331000E+00    9.19999000E-01   2.37594000E-01 
   1.45933000E+00   -3.03068000E-03   8.15854000E-01 
SP   1    1.000000
   4.83456000E-01    1.00000000E+00   1.00000000E+00 
SP   1    1.000000
   1.45585000E-01    1.00000000E+00   1.00000000E+00 
SP   1    1.000000
   4.38000000E-02    1.00000000E+00   1.00000000E+00 
D    1    1.000000
   6.26000000E-01    1.00000000E+00 

8    0
S    6    1.000000
   8.58850000E+03    1.89515000E-03 
   1.29723000E+03    1.43859000E-02 
   2.99296000E+02    7.07320000E-02 
   8.73771000E+01    2.40001000E-01 
   2.56789000E+01    5.94797000E-01 
   3.74004000E+00    2.80802000E-01 
SP   3    1.000000
   4.21175000E+01    1.13889000E-01   3.65114000E-02 
   9.62837000E+00    9.20811000E-01   2.37153000E-01 
   2.85332000E+00   -3.27447000E-03   8.19702000E-01 
SP   1    1.000000
   9.05661000E-01    1.00000000E+00   1.00000000E+00 
SP   1    1.000000
   2.55611000E-01    1.00000000E+00   1.00000000E+00 
SP   1    1.000000
   8.45000000E-02    1.00000000E+00   1.00000000E+00 
D    1    1.000000
   1.29200000E+00    1.00000000E+00 

9    0
S    6    1.000000
   6.29348000E+03    1.96979000E-03 
   9.49044000E+02    1.49613000E-02 
   2.18776000E+02    7.35006000E-02 
   6.36916000E+01    2.48937000E-01 
   1.88282000E+01    6.02460000E-01 
   2.72023000E+00    2.56202000E-01 
SP   3    1.000000
   3.06331000E+01    1.11906000E-01   3.83119000E-02 
   7.02614000E+00    9.21666000E-01   2.37403000E-01 
   2.11205000E+00   -2.56919000E-03   8.17592000E-01 
SP   1    1.000000
   6.84009000E-01    1.00000000E+00   1.00000000E+00 
SP   1    1.000000
   2.00878000E-01    1.00000000E+00   1.00000000E+00 
SP   1    1.000000
   6.39000000E-02    1.00000000E+00   1.00000000E+00 
D    1    1.000000
   9.13000000E-01    1.00000000E+00 

10    0
S    6    1.000000
   6.29348000E+03    1.96979000E-03 
   9.49044000E+02    1.49613000E-02 
   2.18776000E+02    7.35006000E-02 
   6.36916000E+01    2.48937000E-01 
   1.88282000E+01    6.02460000E-01 
   2.72023000E+00    2.56202000E-01 
SP   3    1.000000
   3.06331000E+01    1.11906000E-01   3.83119000E-02 
   7.02614000E+00    9.21666000E-01   2.37403000E-01 
   2.11205000E+00   -2.56919000E-03   8.17592000E-01 
SP   1    1.000000
   6.84009000E-01    1.00000000E+00   1.00000000E+00 
SP   1    1.000000
   2.00878000E-01    1.00000000E+00   1.00000000E+00 
SP   1    1.000000
   6.39000000E-02    1.00000000E+00   1.00000000E+00 
D    1    1.000000
   9.13000000E-01    1.00000000E+00 

11    0
S    6    1.000000
   4.56324000E+03    1.96665000E-03 
   6.82024000E+02    1.52306000E-02 
   1.54973000E+02    7.61269000E-02 
   4.44553000E+01    2.60801000E-01 
   1.30290000E+01    6.16462000E-01 
   1.82773000E+00    2.21006000E-01 
SP   3    1.000000
   2.09642000E+01    1.14660000E-01   4.02487000E-02 
   4.80331000E+00    9.19999000E-01   2.37594000E-01 
   1.45933000E+00   -3.03068000E-03   8.15854000E-01 
SP   1    1.000000
   4.83456000E-01    1.00000000E+00   1.00000000E+00 
SP   1    1.000000
   1.45585000E-01    1.00000000E+00   1.00000000E+00 
SP   1    1.000000
   4.38000000E-02    1.00000000E+00   1.00000000E+00 
D    1    1.000000
   6.26000000E-01    1.00000000E+00 

12    0
S    3    1.000000
   3.38650000E+01    2.54938000E-02 
   5.09479000E+00    1.90373000E-01 
   1.15879000E+00    8.52161000E-01 
S    1    1.000000
   3.25840000E-01    1.00000000E+00 
S    1    1.000000
   1.02741000E-01    1.00000000E+00 
S    1    1.000000
   3.60000000E-02    1.00000000E+00 
P    1    1.000000
   7.50000000E-01    1.00000000E+00 

[MO]
Sym=X
Ene= -0.493595
Spin=Alpha
Occup=1
     1   -1.780707527927e-02
     2   -3.082079042166e-02
     3    9.916814005072e-03
     4   -3.865876024397e-02
     5   -1.516768401058e-15
     6    9.375379895272e-02
     7    1.388194499951e-02
     8   -5.914906735130e-02
     9    1.739493660478e-14
    10    3.019342224577e-01
    11    5.975454788219e-03
    12   -1.498263269858e-01
    13   -1.122985569709e-13
    14    9.668771549890e-01
    15   -3.391671434452e-01
    16   -1.564185092357e+00
    17    1.385642420840e-13
    18    1.266550445212e-03
    19   -6.539551566592e-15
    20    3.687213554053e-18
    21    1.653310684605e-02
    22   -6.643411510513e-03
    23   -5.038946683303e-03
    24   -4.203286415529e-02
    25   -9.013967624616e-02
    26   -6.040993069802e-01
    27    3.867480207135e-03
    28    3.277017064199e-03
    29    6.274317038886e-15
    30   -5.906752637645e-03
    31   -1.850497461404e-02
    32   -4.460427795629e-01
    33   -2.571444736564e+00
    34    2.883644580124e-03
    35    1.268967886791e-02
    36   -4.784528783860e-17
    37   -1.675558430627e-02
    38   -4.814759830786e-02
    39    2.233251171916e-01
    40    6.889048221290e-01
    41    3.334882580394e-03
    42    4.352687446855e-03
    43    1.539044516243e-15
    44   -5.448792584082e-03
    45   -1.002365094833e-02
    46    1.077195349491e-02
    47    2.390228574793e-03
    48   -4.358558579378e-15
    49    4.335435147494e-02
    50    2.381494399058e-02
    51    3.591919628338e-04
    52    2.047765112601e-14
    53   -4.955798051262e-02
    54   -4.725496677351e-02
    55    1.147699735201e-02
    56   -6.055451040865e-14
    57    7.213698091634e-01
    58   -5.223667891479e-02
    59   -5.961317498662e-01
    60   -2.318360203572e-13
    61    4.656391403354e-03
    62    5.084757093065e-15
    63   -4.539646514338e-15
    64    5.460996263665e-04
    65    6.662618725039e-03
    66    5.343963521407e-04
    67    8.915414474692e-04
    68   -1.018670123850e-02
    69   -1.634005807316e-03
    70   -3.213508376342e-15
    71   -3.131123188419e-03
    72   -1.353644148299e-02
    73   -2.657000050264e-03
    74   -4.943558038771e-15
    75    2.164091038700e-03
    76   -1.348059645579e-02
    77   -9.423513916348e-03
    78   -2.748899806958e-14
    79   -1.150286131539e-01
    80   -4.291820649275e-02
    81    9.121699840768e-02
    82    1.095954567001e-13
    83   -1.325957847976e-04
    84   -6.908960442241e-16
    85    3.683649066003e-16
    86    3.216124740540e-04
    87   -7.592901220279e-04
    88   -1.247094477078e-02
    89   -2.179768893285e-02
    90    4.805657620792e-02
    91    2.099530123481e-02
    92    8.782556017704e-15
    93    6.220641179677e-02
    94    8.083816183353e-02
    95    3.406260609715e-02
    96    1.256407194702e-14
    97    2.324804903563e-01
    98    3.638029670340e-01
    99    2.273270595230e-01
   100    1.943598688232e-14
   101    2.678533674359e-01
   102    2.551459368777e-01
   103    5.018752367011e-01
   104   -1.734101370142e-13
   105    1.649473054897e-02
   106   -6.048398640126e-16
   107    3.158822543680e-15
   108   -9.130717379702e-04
   109   -2.596231946234e-02
   110    2.053405809792e-02
   111    3.538221234914e-02
   112    5.099967231625e-02
   113    2.669976018225e-02
   114   -1.641069189898e-15
   115   -1.173328676597e-01
   116    6.822967221831e-02
   117    3.544385458832e-02
   118   -8.343409661446e-15
   119   -2.826116084911e-01
   120    1.269106357165e-01
   121    7.945902513340e-02
   122    7.282640840706e-15
   123   -6.747834269175e-01
   124    1.035839430217e-01
   125    1.318846707316e-01
   126   -2.223834772955e-14
   127   -1.534987998751e-04
   128    2.991856779457e-17
   129   -1.928512338218e-16
   130   -1.638233693276e-03
   131    2.701924636939e-03
   132    2.085282813344e-03
   133    3.674943653560e-03
   134   -2.140720734247e-03
   135   -1.642292474664e-02
   136   -1.028458154462e-14
   137   -1.268840868988e-02
   138   -6.108953850484e-03
   139   -2.379810864639e-02
   140   -1.051539488717e-14
   141    9.506437832933e-03
   142   -1.512620851157e-02
   143   -7.047061267526e-02
   144   -5.571800463665e-14
   145    5.463146359082e-02
   146   -1.309340743727e-01
   147   -5.804549815964e-01
   148    2.659014372437e-13
   149    3.245359406162e-03
   150    3.422452076639e-15
   151   -8.672448014729e-16
   152    7.870597101633e-03
   153    5.206041763454e-03
   154   -7.037263778234e-03
   155   -1.218431672037e-02
   156   -1.435290600345e-02
   157   -1.490658674602e-02
   158   -6.936923452024e-15
   159    3.786908186840e-02
   160   -2.136161492189e-02
   161   -2.092131535318e-02
   162   -9.350564214365e-15
   163    1.229176622575e-01
   164   -5.392203433868e-02
   165   -3.864440613503e-02
   166   -5.133920283284e-15
   167   -2.170712615044e-01
   168   -7.775120094362e-02
   169    4.865542913037e-02
   170    1.361881566144e-13
   171   -7.080169081273e-04
   172   -3.427360698136e-15
   173   -1.721775245638e-15
   174   -4.643948061962e-03
   175   -3.429959037662e-03
   176   -4.063155784384e-03
   177   -6.908549797373e-03
   178    2.699938807040e-02
   179   -2.971088684030e-02
   180   -5.361951620268e-16
   181    2.060501889781e-02
   182    4.142013089704e-02
   183   -4.630589921282e-02
   184   -1.777367551608e-14
   185    1.989261843343e-01
   186    3.599161545288e-02
   187   -1.352805749484e-02
   188    5.452854372242e-14
   189    2.281070512378e+00
   190    2.820821942120e-01
   191    8.310169882170e-02
   192   -3.708781389616e-14
   193    1.351152315185e-03
   194   -2.458449321427e-16
   195    3.432906044852e-15
   196   -5.669069381179e-03
   197    2.260918861587e-02
   198   -1.526313244429e-02
   199   -3.506946422093e-02
   200   -2.637366402355e-01
   201   -1.274688039129e+00
   202   -7.687874863630e-03
   203    7.165395545112e-03
   204   -2.487448708769e-15
Sym=X
Ene= 0.493595
Spin=Alpha
Occup=0
     1    2.330847397655e-16
     2   -2.658469272515e-15
     3    5.834607245930e-15
     4    2.542713629042e-14
     5   -1.256665037345e-01
     6    1.090128573292e-14
     7   -4.791156532806e-14
     8    4.699252858692e-14
     9   -2.059600934701e-01
    10    3.125583383809e-13
    11    5.467170521660e-13
    12    2.770148294656e-13
    13   -2.819159318533e-01
    14   -2.441915011075e-11
    15   -4.458280667682e-12
    16   -4.693465291682e-12
    17   -1.184907169246e-01
    18    4.865181686424e-15
    19   -1.118448670680e-02
    20    3.232746994880e-03
    21   -7.750510730011e-15
    22   -3.047270248501e-15
    23   -7.737909214541e-15
    24    9.998332782751e-14
    25   -5.797554478797e-13
    26    1.303348417173e-12
    27    9.279301648393e-15
    28    4.334949463528e-15
    29    8.437754351683e-03
    30    1.372732050167e-14
    31   -3.742818213736e-14
    32    7.259672056255e-13
    33   -1.223732012748e-12
    34    3.945585501592e-15
    35   -7.709918274428e-15
    36   -1.212334244744e-02
    37    3.012680218690e-14
    38   -6.118915935081e-14
    39    1.767890559172e-12
    40   -1.355124988117e-12
    41    2.972166770698e-15
    42    1.655340733081e-14
    43   -1.201628737984e-02
    44    1.808329790723e-15
    45    3.080529526005e-15
    46    1.635404427662e-14
    47    1.208508211648e-14
    48   -1.053960204093e-02
    49    1.087390850877e-14
    50    8.563825301344e-15
    51   -2.067060784380e-14
    52   -1.849932310104e-02
    53   -5.579979995743e-13
    54    5.765643434436e-13
    55    3.283070258372e-13
    56   -1.273777080243e-02
    57    2.837830233224e-12
    58    2.255953330672e-12
    59    1.574502364895e-12
    60    1.097730885815e-02
    61    7.415413506807e-15
    62   -1.721520408323e-02
    63   -1.961231750171e-02
    64    1.306437402567e-14
    65    3.101773889924e-15
    66    1.062692383141e-15
    67    2.000964667801e-15
    68    1.669089096198e-15
    69    1.153653643262e-14
    70    1.163769664242e-02
    71   -1.170323550566e-14
    72   -6.115164065533e-15
    73    1.431374677583e-14
    74    1.742523793968e-02
    75    6.499271599430e-14
    76    1.064479553456e-13
    77    9.971871607813e-15
    78    2.106841027933e-02
    79    7.328447999270e-13
    80    6.054563166904e-14
    81   -6.100120252150e-13
    82    7.680243053705e-03
    83    9.777274446491e-16
    84   -6.901820126554e-04
    85   -1.044860491870e-03
    86    8.381520018358e-16
    87    2.033954060262e-15
    88    9.265425637350e-15
    89    1.603583395697e-14
    90    1.183286560565e-14
    91    3.265190374312e-14
    92    2.307206435260e-01
    93   -6.888817260110e-14
    94    3.812131750212e-14
    95    4.549825106579e-14
    96    3.900553105280e-01
    97    1.350968195414e-13
    98   -3.330846807367e-13
    99    6.327920418521e-13
   100    5.131050614663e-01
   101    5.658324798520e-12
   102   -1.703335062067e-12
   103   -5.829670075263e-14
   104    1.478022335764e-01
   105   -1.908752794762e-14
   106    9.088931928056e-03
   107   -9.308125133565e-03
   108    7.135894900267e-15
   109   -1.612232730634e-14
   110   -1.969450654575e-16
   111   -2.394197823611e-15
   112   -5.595983941660e-15
   113   -2.020287042337e-15
   114   -1.438173024366e-01
   115    1.037942246011e-14
   116   -2.688927781767e-16
   117   -1.140450734265e-14
   118   -1.915323681109e-01
   119   -2.277227524861e-14
   120   -3.140209865648e-15
   121   -4.105191896626e-14
   122   -2.042409830172e-01
   123    4.304312785690e-13
   124    6.213531024309e-14
   125    1.849080123799e-13
   126   -6.015226574128e-02
   127   -3.686185033604e-17
   128   -7.549789760253e-03
   129   -6.846036566477e-03
   130   -1.986861936874e-16
   131    3.470217682065e-15
   132   -7.411997630145e-15
   133   -1.855477861926e-14
   134    2.667778696087e-14
   135   -2.543851735851e-14
   136   -9.219952254807e-02
   137    5.197102684060e-14
   138    2.720872870472e-14
   139   -3.112648149512e-14
   140   -1.395408381295e-01
   141    2.303517085477e-13
   142    9.565015129557e-14
   143    1.729129002609e-14
   144   -2.343468447269e-01
   145   -1.089101033173e-11
   146   -1.403958607887e-13
   147    9.356508828559e-13
   148   -1.652767484483e-01
   149   -1.377163299841e-14
   150    1.852971654917e-02
   151   -9.352899258595e-03
   152   -6.894379991338e-15
   153    3.803147109564e-15
   154    9.979791201211e-15
   155    1.701544079083e-14
   156   -9.406670352645e-15
   157   -1.720174022232e-15
   158    6.810182110786e-02
   159   -1.618739279173e-14
   160    1.844222830366e-14
   161   -1.036818506819e-14
   162    1.033629346327e-01
   163   -5.867013350044e-13
   164   -2.072109362004e-13
   165    1.082078207591e-13
   166    1.634395073774e-01
   167    7.694631055757e-12
   168    1.959281648610e-12
   169    8.995925220478e-13
   170    1.204217623083e-01
   171    1.499887700414e-14
   172   -9.576377532686e-03
   173    6.670326504725e-03
   174    1.291979920051e-14
   175   -5.697573725329e-15
   176   -9.476827525454e-15
   177   -1.760919770767e-14
   178    4.058981090143e-14
   179    1.465224352041e-14
   180   -6.981559736672e-03
   181    3.556152523393e-14
   182    5.323379143070e-14
   183    1.290483560503e-14
   184   -1.201322796881e-02
   185    3.486946167995e-13
   186    8.938904270240e-13
   187    5.867301091467e-13
   188   -6.718445343085e-02
   189    1.859434245404e-11
   190   -3.929066437707e-12
   191   -3.315437222843e-12
   192   -3.291194672660e-02
   193    5.980792646397e-15
   194    1.791064271457e-02
   195    3.825027872913e-02
   196    1.514918383768e-14
   197    1.203271481869e-14
   198   -1.428089055295e-14
   199   -7.411262091367e-14
   200   -1.390304189061e-12
   201    1.457833212055e-13
   202    9.737587680793e-16
   203    1.994365143364e-15
   204   -1.778024030315e-03
[5D]
