[Molden Format]
[Atoms] (Angs)
  C      1    6     -0.00754183     -1.75895763      0.00000000
  H      2    1     -2.09769850     -1.41880678     -0.00000000
  H      3    1     -0.13527422     -2.83956838     -0.00000000
  H      4    1      0.04053511      2.02026369      0.00000000
  C      5    6     -1.22066484      0.39918184     -0.00000000
  O      6    8     -2.25210141      1.05663720     -0.00000000
  C      7    6      1.24009552      0.27789184      0.00000000
  O      8    8      2.33767996      1.06122493      0.00000000
  N      9    7      0.03634586      1.00852936      0.00000000
  N     10    7     -1.18738304     -0.97903470     -0.00000000
  C     11    6      1.22288875     -1.12258096      0.00000000
  H     12    1      2.15640383     -1.68445878      0.00000000
[GTO]
1    0
S    6    1.000000
   4.56324000E+03    1.96665000E-03 
   6.82024000E+02    1.52306000E-02 
   1.54973000E+02    7.61269000E-02 
   4.44553000E+01    2.60801000E-01 
   1.30290000E+01    6.16462000E-01 
   1.82773000E+00    2.21006000E-01 
SP   3    1.000000
   2.09642000E+01    1.14660000E-01   4.02487000E-02 
   4.80331000E+00    9.19999000E-01   2.37594000E-01 
   1.45933000E+00   -3.03068000E-03   8.15854000E-01 
SP   1    1.000000
   4.83456000E-01    1.00000000E+00   1.00000000E+00 
SP   1    1.000000
   1.45585000E-01    1.00000000E+00   1.00000000E+00 
SP   1    1.000000
   4.38000000E-02    1.00000000E+00   1.00000000E+00 
D    1    1.000000
   6.26000000E-01    1.00000000E+00 

2    0
S    3    1.000000
   3.38650000E+01    2.54938000E-02 
   5.09479000E+00    1.90373000E-01 
   1.15879000E+00    8.52161000E-01 
S    1    1.000000
   3.25840000E-01    1.00000000E+00 
S    1    1.000000
   1.02741000E-01    1.00000000E+00 
S    1    1.000000
   3.60000000E-02    1.00000000E+00 
P    1    1.000000
   7.50000000E-01    1.00000000E+00 

3    0
S    3    1.000000
   3.38650000E+01    2.54938000E-02 
   5.09479000E+00    1.90373000E-01 
   1.15879000E+00    8.52161000E-01 
S    1    1.000000
   3.25840000E-01    1.00000000E+00 
S    1    1.000000
   1.02741000E-01    1.00000000E+00 
S    1    1.000000
   3.60000000E-02    1.00000000E+00 
P    1    1.000000
   7.50000000E-01    1.00000000E+00 

4    0
S    3    1.000000
   3.38650000E+01    2.54938000E-02 
   5.09479000E+00    1.90373000E-01 
   1.15879000E+00    8.52161000E-01 
S    1    1.000000
   3.25840000E-01    1.00000000E+00 
S    1    1.000000
   1.02741000E-01    1.00000000E+00 
S    1    1.000000
   3.60000000E-02    1.00000000E+00 
P    1    1.000000
   7.50000000E-01    1.00000000E+00 

5    0
S    6    1.000000
   4.56324000E+03    1.96665000E-03 
   6.82024000E+02    1.52306000E-02 
   1.54973000E+02    7.61269000E-02 
   4.44553000E+01    2.60801000E-01 
   1.30290000E+01    6.16462000E-01 
   1.82773000E+00    2.21006000E-01 
SP   3    1.000000
   2.09642000E+01    1.14660000E-01   4.02487000E-02 
   4.80331000E+00    9.19999000E-01   2.37594000E-01 
   1.45933000E+00   -3.03068000E-03   8.15854000E-01 
SP   1    1.000000
   4.83456000E-01    1.00000000E+00   1.00000000E+00 
SP   1    1.000000
   1.45585000E-01    1.00000000E+00   1.00000000E+00 
SP   1    1.000000
   4.38000000E-02    1.00000000E+00   1.00000000E+00 
D    1    1.000000
   6.26000000E-01    1.00000000E+00 

6    0
S    6    1.000000
   8.58850000E+03    1.89515000E-03 
   1.29723000E+03    1.43859000E-02 
   2.99296000E+02    7.07320000E-02 
   8.73771000E+01    2.40001000E-01 
   2.56789000E+01    5.94797000E-01 
   3.74004000E+00    2.80802000E-01 
SP   3    1.000000
   4.21175000E+01    1.13889000E-01   3.65114000E-02 
   9.62837000E+00    9.20811000E-01   2.37153000E-01 
   2.85332000E+00   -3.27447000E-03   8.19702000E-01 
SP   1    1.000000
   9.05661000E-01    1.00000000E+00   1.00000000E+00 
SP   1    1.000000
   2.55611000E-01    1.00000000E+00   1.00000000E+00 
SP   1    1.000000
   8.45000000E-02    1.00000000E+00   1.00000000E+00 
D    1    1.000000
   1.29200000E+00    1.00000000E+00 

7    0
S    6    1.000000
   4.56324000E+03    1.96665000E-03 
   6.82024000E+02    1.52306000E-02 
   1.54973000E+02    7.61269000E-02 
   4.44553000E+01    2.60801000E-01 
   1.30290000E+01    6.16462000E-01 
   1.82773000E+00    2.21006000E-01 
SP   3    1.000000
   2.09642000E+01    1.14660000E-01   4.02487000E-02 
   4.80331000E+00    9.19999000E-01   2.37594000E-01 
   1.45933000E+00   -3.03068000E-03   8.15854000E-01 
SP   1    1.000000
   4.83456000E-01    1.00000000E+00   1.00000000E+00 
SP   1    1.000000
   1.45585000E-01    1.00000000E+00   1.00000000E+00 
SP   1    1.000000
   4.38000000E-02    1.00000000E+00   1.00000000E+00 
D    1    1.000000
   6.26000000E-01    1.00000000E+00 

8    0
S    6    1.000000
   8.58850000E+03    1.89515000E-03 
   1.29723000E+03    1.43859000E-02 
   2.99296000E+02    7.07320000E-02 
   8.73771000E+01    2.40001000E-01 
   2.56789000E+01    5.94797000E-01 
   3.74004000E+00    2.80802000E-01 
SP   3    1.000000
   4.21175000E+01    1.13889000E-01   3.65114000E-02 
   9.62837000E+00    9.20811000E-01   2.37153000E-01 
   2.85332000E+00   -3.27447000E-03   8.19702000E-01 
SP   1    1.000000
   9.05661000E-01    1.00000000E+00   1.00000000E+00 
SP   1    1.000000
   2.55611000E-01    1.00000000E+00   1.00000000E+00 
SP   1    1.000000
   8.45000000E-02    1.00000000E+00   1.00000000E+00 
D    1    1.000000
   1.29200000E+00    1.00000000E+00 

9    0
S    6    1.000000
   6.29348000E+03    1.96979000E-03 
   9.49044000E+02    1.49613000E-02 
   2.18776000E+02    7.35006000E-02 
   6.36916000E+01    2.48937000E-01 
   1.88282000E+01    6.02460000E-01 
   2.72023000E+00    2.56202000E-01 
SP   3    1.000000
   3.06331000E+01    1.11906000E-01   3.83119000E-02 
   7.02614000E+00    9.21666000E-01   2.37403000E-01 
   2.11205000E+00   -2.56919000E-03   8.17592000E-01 
SP   1    1.000000
   6.84009000E-01    1.00000000E+00   1.00000000E+00 
SP   1    1.000000
   2.00878000E-01    1.00000000E+00   1.00000000E+00 
SP   1    1.000000
   6.39000000E-02    1.00000000E+00   1.00000000E+00 
D    1    1.000000
   9.13000000E-01    1.00000000E+00 

10    0
S    6    1.000000
   6.29348000E+03    1.96979000E-03 
   9.49044000E+02    1.49613000E-02 
   2.18776000E+02    7.35006000E-02 
   6.36916000E+01    2.48937000E-01 
   1.88282000E+01    6.02460000E-01 
   2.72023000E+00    2.56202000E-01 
SP   3    1.000000
   3.06331000E+01    1.11906000E-01   3.83119000E-02 
   7.02614000E+00    9.21666000E-01   2.37403000E-01 
   2.11205000E+00   -2.56919000E-03   8.17592000E-01 
SP   1    1.000000
   6.84009000E-01    1.00000000E+00   1.00000000E+00 
SP   1    1.000000
   2.00878000E-01    1.00000000E+00   1.00000000E+00 
SP   1    1.000000
   6.39000000E-02    1.00000000E+00   1.00000000E+00 
D    1    1.000000
   9.13000000E-01    1.00000000E+00 

11    0
S    6    1.000000
   4.56324000E+03    1.96665000E-03 
   6.82024000E+02    1.52306000E-02 
   1.54973000E+02    7.61269000E-02 
   4.44553000E+01    2.60801000E-01 
   1.30290000E+01    6.16462000E-01 
   1.82773000E+00    2.21006000E-01 
SP   3    1.000000
   2.09642000E+01    1.14660000E-01   4.02487000E-02 
   4.80331000E+00    9.19999000E-01   2.37594000E-01 
   1.45933000E+00   -3.03068000E-03   8.15854000E-01 
SP   1    1.000000
   4.83456000E-01    1.00000000E+00   1.00000000E+00 
SP   1    1.000000
   1.45585000E-01    1.00000000E+00   1.00000000E+00 
SP   1    1.000000
   4.38000000E-02    1.00000000E+00   1.00000000E+00 
D    1    1.000000
   6.26000000E-01    1.00000000E+00 

12    0
S    3    1.000000
   3.38650000E+01    2.54938000E-02 
   5.09479000E+00    1.90373000E-01 
   1.15879000E+00    8.52161000E-01 
S    1    1.000000
   3.25840000E-01    1.00000000E+00 
S    1    1.000000
   1.02741000E-01    1.00000000E+00 
S    1    1.000000
   3.60000000E-02    1.00000000E+00 
P    1    1.000000
   7.50000000E-01    1.00000000E+00 

[MO]
Sym=X
Ene= -0.486975
Spin=Alpha
Occup=1
     1   -9.263439902993e-16
     2   -2.373904930398e-16
     3    2.320331208193e-15
     4   -9.617428730464e-15
     5   -1.266759439764e-01
     6    1.098762913320e-14
     7    1.530815855687e-14
     8   -4.738933904759e-14
     9   -2.054459793504e-01
    10   -4.701059158049e-13
    11   -3.779877663789e-13
    12   -3.045730718473e-13
    13   -4.219836401731e-01
    14    4.351733944401e-11
    15    5.729165441095e-12
    16    1.047242351769e-11
    17   -6.861662897081e-01
    18    1.157482705884e-14
    19    2.658140803582e-02
    20    8.799933881603e-03
    21   -7.793380149605e-15
    22   -2.343814187196e-15
    23   -9.072892922858e-16
    24   -2.551606258176e-14
    25    4.401650827140e-13
    26   -1.097262695509e-14
    27    1.839530776607e-15
    28    1.455911528761e-15
    29   -1.417752202549e-03
    30   -9.941718291722e-15
    31   -3.296611766556e-14
    32   -4.977356915774e-13
    33    2.497950689564e-12
    34    6.678611782700e-15
    35   -4.252579067848e-15
    36   -1.565929324240e-02
    37   -1.557598757589e-14
    38    6.169618553325e-14
    39   -3.312961105771e-13
    40    5.935668090710e-13
    41   -4.456132063555e-15
    42   -1.315874575703e-14
    43   -4.516828538775e-03
    44   -2.802476245692e-15
    45   -2.920129837394e-15
    46   -8.299365888674e-15
    47   -3.641446132811e-15
    48    1.207661355513e-01
    49    2.842009165846e-14
    50   -2.550544698855e-14
    51    2.204058755629e-14
    52    2.003421836207e-01
    53   -1.822093696530e-13
    54   -3.804242575394e-13
    55   -3.297735212070e-14
    56    3.715825837373e-01
    57   -1.241295540283e-11
    58   -3.585711491148e-12
    59    2.658202816856e-12
    60    1.451866161173e-01
    61   -1.184262643125e-14
    62    2.604511898534e-02
    63   -2.046626528193e-02
    64   -9.089619789121e-15
    65    4.832476293525e-15
    66   -8.976918267939e-16
    67   -1.863397879693e-15
    68    3.550586588474e-15
    69   -8.626240445010e-15
    70   -9.346381130325e-02
    71    7.453737032869e-15
    72    7.676520636822e-15
    73   -9.667734909831e-15
    74   -1.388543934975e-01
    75   -2.828175476474e-14
    76   -4.673822237900e-14
    77    6.651841002514e-15
    78   -2.059691633331e-01
    79   -5.035954607904e-13
    80    1.735415788598e-14
    81    8.785132469484e-14
    82   -1.705969866660e-01
    83   -1.611767835947e-15
    84    2.679645076153e-03
    85   -2.211095269936e-03
    86    1.169665905153e-15
    87   -6.591017857827e-16
    88   -5.626198019279e-15
    89   -1.010552448124e-14
    90   -1.414166587213e-15
    91   -1.263352040055e-14
    92   -1.035579256259e-01
    93    4.756597034084e-14
    94   -2.478119943637e-14
    95   -1.008955926734e-14
    96   -1.790023463825e-01
    97   -3.876412005573e-13
    98    5.985045716748e-13
    99    2.181804793463e-13
   100   -3.163401448195e-01
   101    1.835573570629e-11
   102   -9.533009064667e-13
   103   -3.364520111511e-12
   104   -1.341485967856e-01
   105    1.890349711910e-14
   106    1.068038958969e-02
   107   -4.349930584398e-02
   108    5.250296604740e-15
   109    1.129264329777e-14
   110    5.605390438988e-15
   111    9.412430273476e-15
   112   -2.109868204343e-15
   113    7.349207457092e-15
   114    3.859326641529e-02
   115   -3.717162404645e-14
   116   -2.090991135659e-14
   117    2.252813922133e-14
   118    5.055624674531e-02
   119   -5.554778585132e-14
   120    8.149600896548e-14
   121    3.288431501798e-14
   122    6.492770628171e-02
   123   -1.599371815830e-12
   124    4.844522943531e-14
   125    3.637060391856e-13
   126    4.722835713968e-02
   127   -3.363080049154e-15
   128    8.578416056141e-03
   129    1.705386938412e-03
   130   -1.914459143865e-15
   131   -1.272599522008e-15
   132   -6.315093276667e-16
   133    1.838551526129e-15
   134   -1.936115211830e-14
   135    1.699318497631e-14
   136   -2.560287037682e-02
   137   -3.014920996057e-15
   138   -3.370735200168e-14
   139    3.439016969639e-14
   140   -4.005216897971e-02
   141   -6.260138351661e-15
   142   -5.227108462544e-14
   143   -1.921335075924e-13
   144   -5.125820242041e-02
   145    5.858038216483e-12
   146   -7.306639348797e-13
   147   -1.649315905996e-12
   148   -1.294759759508e-01
   149    3.714264727699e-15
   150   -2.420221710227e-02
   151   -3.362978318110e-03
   152    5.017485479043e-15
   153    8.197724074988e-16
   154   -7.647837287370e-15
   155   -1.099874249653e-14
   156   -3.468540764078e-15
   157    2.103939383251e-15
   158    1.004313056459e-02
   159    7.568042171521e-15
   160   -2.700791666786e-14
   161    1.089756624673e-14
   162    1.674553534105e-02
   163    4.144150233306e-13
   164    1.817803405396e-13
   165   -2.018054886033e-14
   166    1.862987650885e-02
   167   -3.842174196322e-12
   168   -1.584118023473e-12
   169    9.738561923393e-13
   170    8.828056885086e-02
   171   -3.896195743263e-15
   172   -1.006336941744e-02
   173    2.460110569673e-02
   174    1.810206083580e-16
   175   -1.386499727113e-15
   176    1.242711248508e-14
   177    2.429532743478e-14
   178   -1.961920799353e-14
   179    7.593851984503e-15
   180    1.362928013889e-01
   181   -1.205538388376e-13
   182   -7.187382688164e-14
   183    1.868052993492e-14
   184    2.192885907474e-01
   185    7.303519316429e-13
   186   -5.923794028324e-13
   187    5.764319577426e-14
   188    4.826395816118e-01
   189   -4.711600953684e-11
   190    1.235983714210e-11
   191   -3.288199244454e-12
   192    8.647821767103e-01
   193   -1.490333245150e-14
   194    2.212683910211e-02
   195    3.111379962412e-03
   196   -1.474692253140e-14
   197    7.489781128863e-15
   198   -4.548780366100e-15
   199    8.168856098507e-14
   200    1.312345965293e-13
   201   -5.063296835722e-12
   202    2.218260974129e-15
   203   -7.918297085842e-16
   204    2.003242415680e-02
Sym=X
Ene= 0.486975
Spin=Alpha
Occup=0
     1   -6.097151641476e-15
     2   -1.104478985204e-14
     3    1.662972896480e-14
     4    2.399404597753e-15
     5    6.384598027300e-02
     6    5.616272213507e-14
     7   -4.732973482226e-14
     8   -3.653662640251e-14
     9    7.692446147896e-02
    10   -8.935198000849e-14
    11    2.668391170411e-13
    12    5.126324644153e-14
    13    2.760850480720e-01
    14    1.893464034567e-11
    15    2.385249188483e-12
    16    7.366059303524e-12
    17   -1.176227967310e+00
    18    2.721457286284e-14
    19   -2.537732074131e-03
    20    1.582015028270e-02
    21   -2.120341574943e-14
    22   -2.611702726866e-14
    23    1.310083267863e-14
    24   -6.608029674488e-14
    25    8.775763238524e-13
    26    2.696457751419e-12
    27   -1.641426226897e-15
    28    7.271464389562e-15
    29   -1.968766170508e-03
    30    5.308456682440e-15
    31   -1.322055835207e-13
    32    7.168132248562e-13
    33    2.832208330469e-12
    34   -4.806176294308e-16
    35   -1.963117829363e-15
    36   -6.833875401328e-03
    37    9.014857869489e-15
    38   -7.948911565954e-14
    39    2.107416912839e-12
    40   -1.429354565317e-12
    41    4.916809706040e-15
    42    3.129784984884e-15
    43    7.691948020514e-03
    44    3.996039844224e-15
    45    4.855558669019e-15
    46    2.492607064012e-14
    47    2.658249613526e-14
    48   -3.349259459209e-02
    49    1.724396195058e-14
    50   -3.021457114652e-14
    51    3.770843949218e-14
    52   -4.927731718171e-02
    53   -9.566542628613e-13
    54    6.680975403480e-13
    55    3.903619469531e-13
    56   -1.386460944202e-01
    57   -9.972975880248e-12
    58   -2.519446870899e-13
    59    5.053032338856e-12
    60   -5.492830549234e-01
    61    1.710033330698e-15
    62   -6.965699390227e-03
    63    1.998270147055e-03
    64    1.736654879276e-15
    65    6.810775348570e-17
    66   -1.750283458299e-15
    67   -1.566678351428e-15
    68    4.321804127057e-15
    69    1.938189366159e-15
    70    2.477320247968e-02
    71    7.343150898213e-15
    72   -8.996493563485e-15
    73   -1.915006929274e-15
    74    3.989688100411e-02
    75    6.221946234790e-14
    76    8.718146658815e-14
    77    9.606859135865e-15
    78    3.902173038249e-02
    79    1.372715300696e-12
    80    1.445506611256e-13
    81   -1.095269956144e-12
    82    1.748837849870e-01
    83    4.943562552649e-16
    84   -6.104622454960e-04
    85    1.188415907611e-03
    86    1.396116994435e-15
    87    3.715790760628e-15
    88    2.157296792426e-16
    89    4.312691940913e-15
    90    2.463127502309e-14
    91    1.561226191576e-14
    92   -4.424195300182e-02
    93   -1.187426595236e-14
    94    8.686361146072e-15
    95   -1.089184588908e-14
    96   -5.497560495124e-02
    97    8.785147783637e-14
    98    1.838850955924e-13
    99    8.851201453910e-13
   100   -2.222632600182e-01
   101    2.881936674969e-11
   102   -4.523588059848e-12
   103   -2.946065315281e-12
   104    1.743315688642e+00
   105   -1.123523162782e-15
   106   -6.190128909877e-03
   107   -2.419647848225e-03
   108    5.693693302948e-15
   109   -1.487120224814e-14
   110    2.436515927771e-15
   111    5.728676333585e-15
   112   -5.609090332859e-15
   113    6.573674699631e-15
   114   -2.979460397600e-02
   115   -1.833200383467e-14
   116   -1.550230269930e-14
   117    2.238075743667e-14
   118   -4.703313303897e-02
   119   -6.124444170932e-14
   120    2.392782364941e-14
   121   -1.542400189189e-14
   122   -8.493422694247e-03
   123   -8.845622786324e-13
   124    3.094424315812e-13
   125    4.083907287516e-13
   126   -9.379918794285e-02
   127   -3.558571489277e-15
   128    4.187031492854e-03
   129    4.629368432931e-03
   130   -1.089560371314e-15
   131    4.690371640063e-15
   132   -8.760048434977e-15
   133   -1.362303885340e-14
   134    2.484823892889e-14
   135   -1.169265404925e-14
   136    1.101328409777e-03
   137    2.491631296849e-14
   138    1.744374321907e-14
   139   -1.206747442175e-14
   140   -8.545169880281e-04
   141    2.284521454134e-13
   142    1.699523338913e-13
   143   -4.826570390013e-14
   144    2.374702052075e-02
   145   -9.648463361908e-12
   146   -1.293852515604e-12
   147   -7.178988854584e-13
   148    3.650457842826e-02
   149   -1.172146432857e-14
   150    3.044922916673e-03
   151    7.097154947179e-03
   152    6.091855584699e-16
   153    7.886519678398e-16
   154    2.981280574075e-15
   155    5.058743753341e-15
   156   -6.792969930901e-15
   157    1.381571675867e-14
   158    2.707766785625e-02
   159    1.236698608311e-15
   160   -2.017595048061e-14
   161    1.526279811439e-14
   162    4.986739574203e-02
   163   -2.984943370987e-13
   164   -9.044081845949e-14
   165    1.767282727649e-13
   166    2.481814193409e-02
   167    4.405892551934e-12
   168    1.577276051281e-12
   169    1.705248508319e-12
   170    3.930896510222e-01
   171    7.532989369433e-15
   172    6.697793160047e-03
   173   -4.551098328378e-03
   174    4.951063274500e-15
   175    2.614290563056e-15
   176   -2.531919797027e-15
   177    2.692494609150e-15
   178    4.818662725134e-14
   179    1.366718672461e-14
   180    2.151918333314e-02
   181   -6.537450940596e-14
   182   -2.831045885169e-14
   183    2.278255516859e-14
   184    2.799851607874e-02
   185    1.139708637924e-12
   186    6.736352661708e-13
   187    5.212183023085e-13
   188    8.647096879085e-02
   189   -3.392205339748e-11
   190    9.954569840115e-12
   191   -7.648665957318e-12
   192   -7.617565335166e-01
   193   -2.274635743863e-14
   194   -9.181582480236e-03
   195    1.698948580069e-04
   196    1.327395949654e-14
   197    2.342976206283e-14
   198   -2.194367513770e-14
   199   -1.658308114787e-14
   200   -1.534426475757e-12
   201   -5.172195952542e-12
   202    3.478068167563e-15
   203   -7.006506123364e-15
   204   -3.470853158994e-03
[5D]
