[Molden Format]
[Atoms] (Angs)
  C      1    6     -0.00754183     -1.75895763      0.00000000
  H      2    1     -2.09769850     -1.41880678     -0.00000000
  H      3    1     -0.13527422     -2.83956838     -0.00000000
  H      4    1      0.04053511      2.02026369      0.00000000
  C      5    6     -1.22066484      0.39918184     -0.00000000
  O      6    8     -2.25210141      1.05663720     -0.00000000
  C      7    6      1.24009552      0.27789184      0.00000000
  O      8    8      2.33767996      1.06122493      0.00000000
  N      9    7      0.03634586      1.00852936      0.00000000
  N     10    7     -1.18738304     -0.97903470     -0.00000000
  C     11    6      1.22288875     -1.12258096      0.00000000
  H     12    1      2.15640383     -1.68445878      0.00000000
[GTO]
1    0
S    6    1.000000
   4.56324000E+03    1.96665000E-03 
   6.82024000E+02    1.52306000E-02 
   1.54973000E+02    7.61269000E-02 
   4.44553000E+01    2.60801000E-01 
   1.30290000E+01    6.16462000E-01 
   1.82773000E+00    2.21006000E-01 
SP   3    1.000000
   2.09642000E+01    1.14660000E-01   4.02487000E-02 
   4.80331000E+00    9.19999000E-01   2.37594000E-01 
   1.45933000E+00   -3.03068000E-03   8.15854000E-01 
SP   1    1.000000
   4.83456000E-01    1.00000000E+00   1.00000000E+00 
SP   1    1.000000
   1.45585000E-01    1.00000000E+00   1.00000000E+00 
SP   1    1.000000
   4.38000000E-02    1.00000000E+00   1.00000000E+00 
D    1    1.000000
   6.26000000E-01    1.00000000E+00 

2    0
S    3    1.000000
   3.38650000E+01    2.54938000E-02 
   5.09479000E+00    1.90373000E-01 
   1.15879000E+00    8.52161000E-01 
S    1    1.000000
   3.25840000E-01    1.00000000E+00 
S    1    1.000000
   1.02741000E-01    1.00000000E+00 
S    1    1.000000
   3.60000000E-02    1.00000000E+00 
P    1    1.000000
   7.50000000E-01    1.00000000E+00 

3    0
S    3    1.000000
   3.38650000E+01    2.54938000E-02 
   5.09479000E+00    1.90373000E-01 
   1.15879000E+00    8.52161000E-01 
S    1    1.000000
   3.25840000E-01    1.00000000E+00 
S    1    1.000000
   1.02741000E-01    1.00000000E+00 
S    1    1.000000
   3.60000000E-02    1.00000000E+00 
P    1    1.000000
   7.50000000E-01    1.00000000E+00 

4    0
S    3    1.000000
   3.38650000E+01    2.54938000E-02 
   5.09479000E+00    1.90373000E-01 
   1.15879000E+00    8.52161000E-01 
S    1    1.000000
   3.25840000E-01    1.00000000E+00 
S    1    1.000000
   1.02741000E-01    1.00000000E+00 
S    1    1.000000
   3.60000000E-02    1.00000000E+00 
P    1    1.000000
   7.50000000E-01    1.00000000E+00 

5    0
S    6    1.000000
   4.56324000E+03    1.96665000E-03 
   6.82024000E+02    1.52306000E-02 
   1.54973000E+02    7.61269000E-02 
   4.44553000E+01    2.60801000E-01 
   1.30290000E+01    6.16462000E-01 
   1.82773000E+00    2.21006000E-01 
SP   3    1.000000
   2.09642000E+01    1.14660000E-01   4.02487000E-02 
   4.80331000E+00    9.19999000E-01   2.37594000E-01 
   1.45933000E+00   -3.03068000E-03   8.15854000E-01 
SP   1    1.000000
   4.83456000E-01    1.00000000E+00   1.00000000E+00 
SP   1    1.000000
   1.45585000E-01    1.00000000E+00   1.00000000E+00 
SP   1    1.000000
   4.38000000E-02    1.00000000E+00   1.00000000E+00 
D    1    1.000000
   6.26000000E-01    1.00000000E+00 

6    0
S    6    1.000000
   8.58850000E+03    1.89515000E-03 
   1.29723000E+03    1.43859000E-02 
   2.99296000E+02    7.07320000E-02 
   8.73771000E+01    2.40001000E-01 
   2.56789000E+01    5.94797000E-01 
   3.74004000E+00    2.80802000E-01 
SP   3    1.000000
   4.21175000E+01    1.13889000E-01   3.65114000E-02 
   9.62837000E+00    9.20811000E-01   2.37153000E-01 
   2.85332000E+00   -3.27447000E-03   8.19702000E-01 
SP   1    1.000000
   9.05661000E-01    1.00000000E+00   1.00000000E+00 
SP   1    1.000000
   2.55611000E-01    1.00000000E+00   1.00000000E+00 
SP   1    1.000000
   8.45000000E-02    1.00000000E+00   1.00000000E+00 
D    1    1.000000
   1.29200000E+00    1.00000000E+00 

7    0
S    6    1.000000
   4.56324000E+03    1.96665000E-03 
   6.82024000E+02    1.52306000E-02 
   1.54973000E+02    7.61269000E-02 
   4.44553000E+01    2.60801000E-01 
   1.30290000E+01    6.16462000E-01 
   1.82773000E+00    2.21006000E-01 
SP   3    1.000000
   2.09642000E+01    1.14660000E-01   4.02487000E-02 
   4.80331000E+00    9.19999000E-01   2.37594000E-01 
   1.45933000E+00   -3.03068000E-03   8.15854000E-01 
SP   1    1.000000
   4.83456000E-01    1.00000000E+00   1.00000000E+00 
SP   1    1.000000
   1.45585000E-01    1.00000000E+00   1.00000000E+00 
SP   1    1.000000
   4.38000000E-02    1.00000000E+00   1.00000000E+00 
D    1    1.000000
   6.26000000E-01    1.00000000E+00 

8    0
S    6    1.000000
   8.58850000E+03    1.89515000E-03 
   1.29723000E+03    1.43859000E-02 
   2.99296000E+02    7.07320000E-02 
   8.73771000E+01    2.40001000E-01 
   2.56789000E+01    5.94797000E-01 
   3.74004000E+00    2.80802000E-01 
SP   3    1.000000
   4.21175000E+01    1.13889000E-01   3.65114000E-02 
   9.62837000E+00    9.20811000E-01   2.37153000E-01 
   2.85332000E+00   -3.27447000E-03   8.19702000E-01 
SP   1    1.000000
   9.05661000E-01    1.00000000E+00   1.00000000E+00 
SP   1    1.000000
   2.55611000E-01    1.00000000E+00   1.00000000E+00 
SP   1    1.000000
   8.45000000E-02    1.00000000E+00   1.00000000E+00 
D    1    1.000000
   1.29200000E+00    1.00000000E+00 

9    0
S    6    1.000000
   6.29348000E+03    1.96979000E-03 
   9.49044000E+02    1.49613000E-02 
   2.18776000E+02    7.35006000E-02 
   6.36916000E+01    2.48937000E-01 
   1.88282000E+01    6.02460000E-01 
   2.72023000E+00    2.56202000E-01 
SP   3    1.000000
   3.06331000E+01    1.11906000E-01   3.83119000E-02 
   7.02614000E+00    9.21666000E-01   2.37403000E-01 
   2.11205000E+00   -2.56919000E-03   8.17592000E-01 
SP   1    1.000000
   6.84009000E-01    1.00000000E+00   1.00000000E+00 
SP   1    1.000000
   2.00878000E-01    1.00000000E+00   1.00000000E+00 
SP   1    1.000000
   6.39000000E-02    1.00000000E+00   1.00000000E+00 
D    1    1.000000
   9.13000000E-01    1.00000000E+00 

10    0
S    6    1.000000
   6.29348000E+03    1.96979000E-03 
   9.49044000E+02    1.49613000E-02 
   2.18776000E+02    7.35006000E-02 
   6.36916000E+01    2.48937000E-01 
   1.88282000E+01    6.02460000E-01 
   2.72023000E+00    2.56202000E-01 
SP   3    1.000000
   3.06331000E+01    1.11906000E-01   3.83119000E-02 
   7.02614000E+00    9.21666000E-01   2.37403000E-01 
   2.11205000E+00   -2.56919000E-03   8.17592000E-01 
SP   1    1.000000
   6.84009000E-01    1.00000000E+00   1.00000000E+00 
SP   1    1.000000
   2.00878000E-01    1.00000000E+00   1.00000000E+00 
SP   1    1.000000
   6.39000000E-02    1.00000000E+00   1.00000000E+00 
D    1    1.000000
   9.13000000E-01    1.00000000E+00 

11    0
S    6    1.000000
   4.56324000E+03    1.96665000E-03 
   6.82024000E+02    1.52306000E-02 
   1.54973000E+02    7.61269000E-02 
   4.44553000E+01    2.60801000E-01 
   1.30290000E+01    6.16462000E-01 
   1.82773000E+00    2.21006000E-01 
SP   3    1.000000
   2.09642000E+01    1.14660000E-01   4.02487000E-02 
   4.80331000E+00    9.19999000E-01   2.37594000E-01 
   1.45933000E+00   -3.03068000E-03   8.15854000E-01 
SP   1    1.000000
   4.83456000E-01    1.00000000E+00   1.00000000E+00 
SP   1    1.000000
   1.45585000E-01    1.00000000E+00   1.00000000E+00 
SP   1    1.000000
   4.38000000E-02    1.00000000E+00   1.00000000E+00 
D    1    1.000000
   6.26000000E-01    1.00000000E+00 

12    0
S    3    1.000000
   3.38650000E+01    2.54938000E-02 
   5.09479000E+00    1.90373000E-01 
   1.15879000E+00    8.52161000E-01 
S    1    1.000000
   3.25840000E-01    1.00000000E+00 
S    1    1.000000
   1.02741000E-01    1.00000000E+00 
S    1    1.000000
   3.60000000E-02    1.00000000E+00 
P    1    1.000000
   7.50000000E-01    1.00000000E+00 

[MO]
Sym=X
Ene= -0.017876
Spin=Alpha
Occup=1
     1   -4.238506830219e-06
     2   -8.958066594854e-06
     3    1.957878900304e-05
     4    1.426136677073e-06
     5    5.398155480030e-16
     6    2.707949790143e-05
     7   -1.131519433047e-06
     8    4.205817073723e-05
     9   -8.428394826165e-16
    10    4.611593304079e-04
    11   -1.461310734165e-04
    12    1.366601005448e-04
    13    2.908852816198e-17
    14    1.187900480836e-02
    15   -3.608559009314e-04
    16    4.936697009365e-03
    17   -7.700364230407e-15
    18    2.497857370125e-05
    19   -1.578325230933e-16
    20    5.366164106365e-16
    21    6.256840609308e-06
    22   -2.285462771999e-05
    23   -1.242063594275e-05
    24   -1.589162196320e-04
    25    4.695297298380e-04
    26    1.607042724960e-03
    27   -2.712487891919e-05
    28   -1.144685501827e-06
    29   -7.053666514598e-16
    30   -2.307835356856e-05
    31   -1.158905557370e-04
    32    9.330533641434e-05
    33    2.395527042058e-03
    34   -3.317751931396e-06
    35    1.634892522943e-06
    36    1.182970318129e-15
    37   -5.312607656895e-05
    38   -3.453513632703e-04
    39   -8.945676465135e-04
    40   -3.769069951577e-03
    41   -7.566682688472e-06
    42   -1.465966244319e-06
    43   -4.863307094747e-16
    44   -1.334918510545e-05
    45    5.752391311079e-05
    46    7.746095670797e-05
    47   -2.255121265263e-05
    48   -1.902627563338e-15
    49   -2.746327577522e-04
    50    3.493381326831e-04
    51   -2.038981963437e-04
    52    3.006493475543e-15
    53    3.901754273034e-04
    54    9.392347607542e-04
    55   -5.258499537563e-04
    56   -4.984732747180e-15
    57   -2.397283233212e-03
    58   -7.335999562716e-04
    59    2.473089256272e-03
    60   -2.870721474425e-15
    61    8.084140025361e-05
    62   -7.980004368226e-16
    63    3.403496815422e-17
    64   -8.222091065078e-05
    65    1.659703736038e-04
    66   -5.514574436186e-01
    67   -4.716529338990e-01
    68   -1.525168082712e-03
    69    9.064509036104e-04
    70   -9.008496570913e-16
    71   -5.714429482652e-03
    72    5.988827910118e-04
    73   -2.088370711784e-04
    74    6.821061581817e-16
    75    1.583440035385e-03
    76   -1.072672635421e-04
    77    7.400755664799e-05
    78   -9.897791989061e-16
    79   -1.437424697365e-03
    80    6.968037161508e-05
    81   -1.545101254015e-04
    82    2.151190141720e-15
    83    1.248120249069e-04
    84   -1.277576978620e-16
    85    1.093011855443e-15
    86    9.725813093598e-05
    87   -7.775791755286e-05
    88   -1.602083263202e-05
    89   -2.958621999540e-05
    90    1.242093257718e-04
    91    7.687036575367e-05
    92    7.627793990804e-16
    93    3.221555851827e-05
    94    1.831779312154e-04
    95    1.543281080527e-04
    96    2.165522332338e-16
    97    1.473224463600e-03
    98    3.832400070532e-04
    99    6.304336301240e-04
   100   -6.911731185220e-16
   101    1.857380773700e-02
   102   -2.367758708917e-03
   103   -2.101466008595e-03
   104   -2.288603340238e-15
   105    4.047979237286e-05
   106    3.276079182606e-16
   107    3.066663077279e-16
   108   -2.281264058792e-05
   109   -6.756076764004e-05
   110    3.222705131924e-05
   111    5.408125716215e-05
   112    1.668046666914e-04
   113    1.562069837573e-04
   114   -8.858982052947e-16
   115   -1.697222588968e-04
   116    2.061262442792e-04
   117    1.978640934505e-04
   118    2.147125228810e-15
   119   -5.348089116884e-04
   120    3.629912258928e-04
   121    2.622666061525e-04
   122   -1.536043869310e-15
   123   -1.391654572136e-03
   124    3.356593206320e-04
   125    3.034559009486e-04
   126    2.371781430434e-16
   127    1.115818790130e-06
   128    2.715172591991e-16
   129   -1.722218719863e-16
   130    3.122127408846e-06
   131    6.405717764320e-06
   132   -6.392814952304e-06
   133   -1.310557319899e-05
   134    1.820993398413e-05
   135    7.545014463146e-05
   136    3.828194967499e-16
   137    6.390075650957e-05
   138    7.091834411944e-05
   139    1.149882025335e-04
   140   -1.818080384163e-15
   141   -2.611328571591e-04
   142   -7.107361056192e-05
   143    7.325099538885e-04
   144    3.540391091365e-15
   145   -3.186762973443e-03
   146   -6.130759334609e-04
   147    1.276945764118e-03
   148    1.251410222490e-15
   149    2.340976749513e-05
   150    2.625066222390e-16
   151    1.133401086072e-15
   152    1.259114852019e-05
   153    4.092604961779e-06
   154    1.489251591764e-05
   155    2.210300668695e-05
   156    3.140393561219e-05
   157    3.114460304718e-05
   158   -9.357332346436e-16
   159   -2.895135471673e-05
   160    8.604015033574e-05
   161    2.973056951116e-05
   162    1.606027629941e-16
   163   -7.003344293916e-04
   164   -3.452484254249e-04
   165   -1.500107622415e-04
   166    7.950742142940e-16
   167   -2.279960222000e-03
   168    4.337227439437e-05
   169    1.226141795184e-03
   170    6.611945832024e-15
   171    2.159618631904e-05
   172   -2.039609737179e-16
   173   -3.365407254955e-16
   174    1.259038686323e-05
   175    1.556217889828e-05
   176   -5.435713102271e-06
   177   -8.522532009487e-06
   178    6.057157258464e-05
   179   -4.035865625567e-05
   180    3.639181443297e-17
   181    6.968879645629e-06
   182    8.424856234948e-05
   183   -7.977121514439e-05
   184    1.289331823868e-15
   185    2.872329304905e-04
   186    3.493651445380e-04
   187   -1.684719257652e-04
   188   -2.797244959738e-15
   189   -1.578200766331e-02
   190    5.606182204854e-03
   191   -4.652658395634e-03
   192    7.616704480496e-15
   193    2.388884651832e-05
   194    4.718155767467e-16
   195    4.468425792665e-17
   196    4.120968369470e-06
   197    5.176482661237e-05
   198   -4.180268000752e-05
   199   -1.068067527225e-04
   200   -1.196561567248e-03
   201   -5.855850424658e-03
   202   -1.371885419994e-05
   203    1.366898673172e-05
   204    9.571516097960e-16
Sym=X
Ene= 0.017876
Spin=Alpha
Occup=0
     1    1.057767365617e-06
     2   -2.358647217586e-07
     3    1.805619539576e-06
     4   -2.114782153345e-07
     5   -5.957207506900e-16
     6    7.016832899558e-06
     7   -1.572075198026e-07
     8    4.527269943376e-06
     9    1.085136550531e-15
    10   -4.286440619484e-04
    11   -8.993022400612e-05
    12   -2.263952093319e-04
    13   -6.640085389256e-15
    14    1.470776111221e-04
    15    3.216118707043e-04
    16   -7.173780217530e-04
    17    1.040924846249e-14
    18    4.890863769993e-07
    19   -6.527718203584e-16
    20   -9.916322872690e-16
    21   -4.005535687627e-06
    22    8.544669017731e-06
    23   -1.631069048326e-06
    24    2.122447411414e-05
    25   -7.240160122422e-05
    26    8.918372074514e-05
    27   -1.236288113615e-06
    28    2.917189620402e-06
    29   -1.231611016459e-15
    30   -1.122863217665e-06
    31    1.076521627114e-06
    32   -1.557690535223e-04
    33   -4.611921655739e-04
    34    4.968858468751e-06
    35   -3.918730585328e-07
    36    1.617463829994e-15
    37    5.415629237932e-06
    38    6.200064835102e-05
    39    4.574248851388e-05
    40    2.278517332482e-05
    41   -6.410437712442e-07
    42   -1.173736005292e-05
    43    7.470671763058e-16
    44    3.682264876138e-08
    45    1.115320280804e-06
    46    2.499406835498e-06
    47    2.721256836329e-07
    48    1.032748547492e-15
    49   -7.406323394609e-06
    50   -1.219634287184e-05
    51   -7.307234780693e-07
    52   -1.270609906831e-15
    53   -1.865767603317e-04
    54   -1.354523794142e-04
    55   -3.883798253413e-05
    56   -9.871793186415e-16
    57   -3.472686592255e-04
    58   -8.564902515129e-05
    59   -1.786297065831e-04
    60    6.977730459070e-15
    61    2.235524718142e-06
    62    4.461245239925e-16
    63   -6.318461153104e-16
    64    2.959679525760e-08
    65    2.418493697613e-06
    66    2.395991233245e-06
    67    3.172006533323e-06
    68    5.120845051214e-07
    69    1.972989083728e-07
    70    2.510618738470e-16
    71   -8.591282160057e-06
    72    3.560827061914e-07
    73   -6.353778221279e-07
    74   -1.487479813820e-15
    75    3.377182664130e-05
    76    1.699377080766e-05
    77    7.895170425212e-06
    78    3.109269025565e-15
    79   -2.924803660587e-04
    80   -1.439627537632e-04
    81    4.252249915507e-05
    82   -3.952107620508e-15
    83    2.677898075957e-07
    84   -5.123420106637e-16
    85   -2.854526856565e-16
    86    9.565782023625e-07
    87   -8.818136276134e-07
    88   -1.243997584572e-06
    89   -4.525219060075e-05
    90    1.530760493749e-05
    91    1.735855560412e-05
    92   -1.865457457826e-16
    93    1.476823355736e-04
    94    2.591319297317e-04
    95    1.858874836945e-04
    96    4.465718014826e-16
    97   -3.027099149447e-04
    98    1.404155092258e-04
    99    3.344501532851e-04
   100   -3.867042965342e-15
   101   -1.853462648152e-03
   102   -9.973821719256e-04
   103    3.429237127229e-04
   104    1.022619427213e-14
   105   -2.899279676133e-05
   106   -3.160321905815e-16
   107   -1.065233510334e-15
   108    6.784291519438e-05
   109    1.781188647287e-04
   110    5.514765389650e-01
   111    4.717660774517e-01
   112   -1.395124471821e-03
   113   -9.476994092414e-04
   114   -7.532778924626e-16
   115    5.353801739059e-03
   116    6.256592584960e-04
   117    4.176413071688e-04
   118   -2.756112469694e-16
   119   -1.086723494575e-03
   120   -2.532440938753e-04
   121   -2.021766902811e-04
   122    2.480497495492e-15
   123    1.558527109807e-03
   124   -5.324943470214e-05
   125   -2.178883325200e-05
   126   -2.283295812873e-15
   127   -1.093141774708e-04
   128   -3.233096701247e-16
   129   -4.439479041695e-17
   130   -7.900966894492e-05
   131   -6.683395844487e-05
   132    1.111916578451e-06
   133    2.302344798996e-06
   134   -9.580382896839e-06
   135    5.168873426990e-06
   136    9.234217253014e-16
   137   -2.516615967474e-05
   138    3.177130032038e-05
   139   -2.252380529833e-05
   140   -1.449454037823e-15
   141    1.458827792121e-04
   142   -1.159927044419e-04
   143   -1.525207679115e-04
   144    3.140352698497e-15
   145   -2.984204722108e-04
   146   -6.531269038572e-04
   147   -2.372303795068e-05
   148   -5.105370663112e-15
   149   -6.465638209785e-06
   150    8.830769950178e-16
   151   -4.376196719384e-18
   152    1.047695944158e-05
   153   -2.327281179296e-05
   154   -1.954045897178e-07
   155   -6.416985877705e-08
   156   -1.654612394277e-07
   157   -3.508858257355e-07
   158    1.348332772703e-16
   159   -5.164663150018e-06
   160    1.604598922860e-06
   161    1.279913011952e-06
   162   -2.807112900221e-16
   163    9.774010643717e-05
   164    8.028408994757e-05
   165   -4.167488983356e-06
   166    3.369874625129e-15
   167    2.429063204173e-04
   168   -5.035568911380e-05
   169   -3.228156305043e-05
   170   -5.129162796135e-15
   171    2.582383670601e-07
   172   -4.273414414781e-16
   173    1.537013221998e-16
   174   -4.313695877706e-07
   175   -1.650346203780e-06
   176    1.862113756469e-06
   177    1.813624959470e-06
   178   -5.846706153144e-06
   179   -1.507440718666e-05
   180    1.062550571546e-15
   181   -2.235672227302e-05
   182    1.045402968790e-05
   183    8.079215290580e-05
   184   -2.770734608653e-15
   185    5.653608677531e-04
   186   -4.090670773275e-04
   187    1.183570419192e-04
   188    8.570101256830e-15
   189    1.596984489833e-03
   190    1.584526060972e-04
   191    1.176173566811e-03
   192   -1.604733266115e-14
   193   -4.844849917580e-06
   194   -3.806300651967e-16
   195    3.378876558781e-16
   196   -3.733323582952e-05
   197    2.396610874348e-05
   198    2.518039119379e-07
   199    9.913445006159e-05
   200    1.202342517814e-04
   201    3.335734525257e-04
   202   -1.799646620477e-05
   203    9.921602987234e-06
   204   -3.127380912899e-16
[5D]
