[Molden Format]
[Atoms] (Angs)
  C      1    6     -0.00754183     -1.75895763      0.00000000
  H      2    1     -2.09769850     -1.41880678     -0.00000000
  H      3    1     -0.13527422     -2.83956838     -0.00000000
  H      4    1      0.04053511      2.02026369      0.00000000
  C      5    6     -1.22066484      0.39918184     -0.00000000
  O      6    8     -2.25210141      1.05663720     -0.00000000
  C      7    6      1.24009552      0.27789184      0.00000000
  O      8    8      2.33767996      1.06122493      0.00000000
  N      9    7      0.03634586      1.00852936      0.00000000
  N     10    7     -1.18738304     -0.97903470     -0.00000000
  C     11    6      1.22288875     -1.12258096      0.00000000
  H     12    1      2.15640383     -1.68445878      0.00000000
[GTO]
1    0
S    6    1.000000
   4.56324000E+03    1.96665000E-03 
   6.82024000E+02    1.52306000E-02 
   1.54973000E+02    7.61269000E-02 
   4.44553000E+01    2.60801000E-01 
   1.30290000E+01    6.16462000E-01 
   1.82773000E+00    2.21006000E-01 
SP   3    1.000000
   2.09642000E+01    1.14660000E-01   4.02487000E-02 
   4.80331000E+00    9.19999000E-01   2.37594000E-01 
   1.45933000E+00   -3.03068000E-03   8.15854000E-01 
SP   1    1.000000
   4.83456000E-01    1.00000000E+00   1.00000000E+00 
SP   1    1.000000
   1.45585000E-01    1.00000000E+00   1.00000000E+00 
SP   1    1.000000
   4.38000000E-02    1.00000000E+00   1.00000000E+00 
D    1    1.000000
   6.26000000E-01    1.00000000E+00 

2    0
S    3    1.000000
   3.38650000E+01    2.54938000E-02 
   5.09479000E+00    1.90373000E-01 
   1.15879000E+00    8.52161000E-01 
S    1    1.000000
   3.25840000E-01    1.00000000E+00 
S    1    1.000000
   1.02741000E-01    1.00000000E+00 
S    1    1.000000
   3.60000000E-02    1.00000000E+00 
P    1    1.000000
   7.50000000E-01    1.00000000E+00 

3    0
S    3    1.000000
   3.38650000E+01    2.54938000E-02 
   5.09479000E+00    1.90373000E-01 
   1.15879000E+00    8.52161000E-01 
S    1    1.000000
   3.25840000E-01    1.00000000E+00 
S    1    1.000000
   1.02741000E-01    1.00000000E+00 
S    1    1.000000
   3.60000000E-02    1.00000000E+00 
P    1    1.000000
   7.50000000E-01    1.00000000E+00 

4    0
S    3    1.000000
   3.38650000E+01    2.54938000E-02 
   5.09479000E+00    1.90373000E-01 
   1.15879000E+00    8.52161000E-01 
S    1    1.000000
   3.25840000E-01    1.00000000E+00 
S    1    1.000000
   1.02741000E-01    1.00000000E+00 
S    1    1.000000
   3.60000000E-02    1.00000000E+00 
P    1    1.000000
   7.50000000E-01    1.00000000E+00 

5    0
S    6    1.000000
   4.56324000E+03    1.96665000E-03 
   6.82024000E+02    1.52306000E-02 
   1.54973000E+02    7.61269000E-02 
   4.44553000E+01    2.60801000E-01 
   1.30290000E+01    6.16462000E-01 
   1.82773000E+00    2.21006000E-01 
SP   3    1.000000
   2.09642000E+01    1.14660000E-01   4.02487000E-02 
   4.80331000E+00    9.19999000E-01   2.37594000E-01 
   1.45933000E+00   -3.03068000E-03   8.15854000E-01 
SP   1    1.000000
   4.83456000E-01    1.00000000E+00   1.00000000E+00 
SP   1    1.000000
   1.45585000E-01    1.00000000E+00   1.00000000E+00 
SP   1    1.000000
   4.38000000E-02    1.00000000E+00   1.00000000E+00 
D    1    1.000000
   6.26000000E-01    1.00000000E+00 

6    0
S    6    1.000000
   8.58850000E+03    1.89515000E-03 
   1.29723000E+03    1.43859000E-02 
   2.99296000E+02    7.07320000E-02 
   8.73771000E+01    2.40001000E-01 
   2.56789000E+01    5.94797000E-01 
   3.74004000E+00    2.80802000E-01 
SP   3    1.000000
   4.21175000E+01    1.13889000E-01   3.65114000E-02 
   9.62837000E+00    9.20811000E-01   2.37153000E-01 
   2.85332000E+00   -3.27447000E-03   8.19702000E-01 
SP   1    1.000000
   9.05661000E-01    1.00000000E+00   1.00000000E+00 
SP   1    1.000000
   2.55611000E-01    1.00000000E+00   1.00000000E+00 
SP   1    1.000000
   8.45000000E-02    1.00000000E+00   1.00000000E+00 
D    1    1.000000
   1.29200000E+00    1.00000000E+00 

7    0
S    6    1.000000
   4.56324000E+03    1.96665000E-03 
   6.82024000E+02    1.52306000E-02 
   1.54973000E+02    7.61269000E-02 
   4.44553000E+01    2.60801000E-01 
   1.30290000E+01    6.16462000E-01 
   1.82773000E+00    2.21006000E-01 
SP   3    1.000000
   2.09642000E+01    1.14660000E-01   4.02487000E-02 
   4.80331000E+00    9.19999000E-01   2.37594000E-01 
   1.45933000E+00   -3.03068000E-03   8.15854000E-01 
SP   1    1.000000
   4.83456000E-01    1.00000000E+00   1.00000000E+00 
SP   1    1.000000
   1.45585000E-01    1.00000000E+00   1.00000000E+00 
SP   1    1.000000
   4.38000000E-02    1.00000000E+00   1.00000000E+00 
D    1    1.000000
   6.26000000E-01    1.00000000E+00 

8    0
S    6    1.000000
   8.58850000E+03    1.89515000E-03 
   1.29723000E+03    1.43859000E-02 
   2.99296000E+02    7.07320000E-02 
   8.73771000E+01    2.40001000E-01 
   2.56789000E+01    5.94797000E-01 
   3.74004000E+00    2.80802000E-01 
SP   3    1.000000
   4.21175000E+01    1.13889000E-01   3.65114000E-02 
   9.62837000E+00    9.20811000E-01   2.37153000E-01 
   2.85332000E+00   -3.27447000E-03   8.19702000E-01 
SP   1    1.000000
   9.05661000E-01    1.00000000E+00   1.00000000E+00 
SP   1    1.000000
   2.55611000E-01    1.00000000E+00   1.00000000E+00 
SP   1    1.000000
   8.45000000E-02    1.00000000E+00   1.00000000E+00 
D    1    1.000000
   1.29200000E+00    1.00000000E+00 

9    0
S    6    1.000000
   6.29348000E+03    1.96979000E-03 
   9.49044000E+02    1.49613000E-02 
   2.18776000E+02    7.35006000E-02 
   6.36916000E+01    2.48937000E-01 
   1.88282000E+01    6.02460000E-01 
   2.72023000E+00    2.56202000E-01 
SP   3    1.000000
   3.06331000E+01    1.11906000E-01   3.83119000E-02 
   7.02614000E+00    9.21666000E-01   2.37403000E-01 
   2.11205000E+00   -2.56919000E-03   8.17592000E-01 
SP   1    1.000000
   6.84009000E-01    1.00000000E+00   1.00000000E+00 
SP   1    1.000000
   2.00878000E-01    1.00000000E+00   1.00000000E+00 
SP   1    1.000000
   6.39000000E-02    1.00000000E+00   1.00000000E+00 
D    1    1.000000
   9.13000000E-01    1.00000000E+00 

10    0
S    6    1.000000
   6.29348000E+03    1.96979000E-03 
   9.49044000E+02    1.49613000E-02 
   2.18776000E+02    7.35006000E-02 
   6.36916000E+01    2.48937000E-01 
   1.88282000E+01    6.02460000E-01 
   2.72023000E+00    2.56202000E-01 
SP   3    1.000000
   3.06331000E+01    1.11906000E-01   3.83119000E-02 
   7.02614000E+00    9.21666000E-01   2.37403000E-01 
   2.11205000E+00   -2.56919000E-03   8.17592000E-01 
SP   1    1.000000
   6.84009000E-01    1.00000000E+00   1.00000000E+00 
SP   1    1.000000
   2.00878000E-01    1.00000000E+00   1.00000000E+00 
SP   1    1.000000
   6.39000000E-02    1.00000000E+00   1.00000000E+00 
D    1    1.000000
   9.13000000E-01    1.00000000E+00 

11    0
S    6    1.000000
   4.56324000E+03    1.96665000E-03 
   6.82024000E+02    1.52306000E-02 
   1.54973000E+02    7.61269000E-02 
   4.44553000E+01    2.60801000E-01 
   1.30290000E+01    6.16462000E-01 
   1.82773000E+00    2.21006000E-01 
SP   3    1.000000
   2.09642000E+01    1.14660000E-01   4.02487000E-02 
   4.80331000E+00    9.19999000E-01   2.37594000E-01 
   1.45933000E+00   -3.03068000E-03   8.15854000E-01 
SP   1    1.000000
   4.83456000E-01    1.00000000E+00   1.00000000E+00 
SP   1    1.000000
   1.45585000E-01    1.00000000E+00   1.00000000E+00 
SP   1    1.000000
   4.38000000E-02    1.00000000E+00   1.00000000E+00 
D    1    1.000000
   6.26000000E-01    1.00000000E+00 

12    0
S    3    1.000000
   3.38650000E+01    2.54938000E-02 
   5.09479000E+00    1.90373000E-01 
   1.15879000E+00    8.52161000E-01 
S    1    1.000000
   3.25840000E-01    1.00000000E+00 
S    1    1.000000
   1.02741000E-01    1.00000000E+00 
S    1    1.000000
   3.60000000E-02    1.00000000E+00 
P    1    1.000000
   7.50000000E-01    1.00000000E+00 

[MO]
Sym=X
Ene= -0.146780
Spin=Alpha
Occup=1
     1    4.193767565455e-07
     2   -1.340366901557e-08
     3    4.235883594119e-06
     4   -5.031369640837e-06
     5    4.696787829732e-16
     6   -5.743322178750e-07
     7   -1.926820350885e-05
     8    1.899902576928e-05
     9   -8.586547032705e-16
    10    2.151895618835e-04
    11   -6.790949800214e-05
    12   -1.491942639871e-05
    13    2.208352037315e-16
    14   -4.964295501072e-04
    15   -5.705607835509e-04
    16   -1.174671660818e-04
    17   -7.009385598743e-15
    18   -2.214173573198e-06
    19   -1.428026299835e-16
    20    5.540494439780e-16
    21   -3.706558164150e-06
    22   -4.966099268993e-06
    23   -3.851321780822e-06
    24   -4.588328217649e-05
    25   -1.118368021301e-04
    26   -2.674871275586e-04
    27   -9.539139564928e-06
    28    8.987591644667e-06
    29   -7.088721519879e-16
    30    4.404673985211e-06
    31   -3.020290378358e-05
    32   -1.539330946150e-06
    33   -6.710618667832e-05
    34    1.862247020528e-06
    35   -3.683259538857e-06
    36    1.175213353270e-15
    37   -3.264041767186e-06
    38   -5.917579984865e-05
    39   -6.676601501383e-05
    40   -3.197679120721e-04
    41   -1.126516278800e-05
    42    7.165951981461e-06
    43   -4.735377187515e-16
    44   -4.402138142967e-06
    45    7.683605182241e-05
    46    5.642925403930e-05
    47   -3.436958444608e-05
    48   -1.842909540485e-15
    49   -2.992623121269e-04
    50    3.560263516249e-04
    51   -2.254612326664e-04
    52    2.822683014219e-15
    53    6.716337168363e-05
    54    4.419426657081e-04
    55   -2.972539951874e-04
    56   -4.603084086554e-15
    57   -3.334030515132e-04
    58   -5.827350515630e-04
    59    4.463075767297e-04
    60   -1.639017435480e-15
    61    4.984133549439e-05
    62   -8.335963610693e-16
    63    7.529035454951e-17
    64   -8.885887791106e-05
    65    1.812530697165e-04
    66   -5.514866799324e-01
    67   -4.716760934318e-01
    68   -1.518897264073e-03
    69    9.800375502938e-04
    70   -8.416115986154e-16
    71   -5.517589300865e-03
    72    6.163638559461e-04
    73   -3.934155890677e-04
    74    7.216306316338e-16
    75    1.304715852497e-03
    76   -1.310992985022e-04
    77    1.035991300702e-04
    78   -7.511607690500e-16
    79   -1.435018293713e-03
    80   -5.566560268872e-05
    81    8.690549068366e-06
    82    1.145366423399e-15
    83    1.017411054862e-04
    84   -1.289746633266e-16
    85    1.099391076225e-15
    86    2.969359294189e-05
    87   -7.625120508639e-05
    88    4.100624123788e-07
    89   -7.019325199710e-07
    90    4.065472446298e-06
    91   -2.590520568045e-06
    92    7.631504359872e-16
    93    6.598493928259e-06
    94   -1.819975292785e-05
    95    1.413607921679e-05
    96    1.696235749121e-16
    97    1.726579792997e-04
    98   -4.456365999157e-05
    99    5.204843112122e-05
   100   -6.942890443658e-16
   101   -1.020447349467e-03
   102   -8.676362327880e-05
   103    7.625769527304e-04
   104   -2.797461832668e-15
   105   -2.196322396167e-06
   106    3.154662953307e-16
   107    3.107432741894e-16
   108    6.843954816655e-06
   109    3.825430981800e-08
   110    1.314761523766e-06
   111    3.973179767764e-07
   112   -4.511275044552e-07
   113    4.960659318757e-07
   114   -8.901343283879e-16
   115    9.357725734479e-06
   116   -1.414371360326e-06
   117   -2.404406804612e-06
   118    2.176664783851e-15
   119   -4.906132399130e-05
   120    1.673745431025e-05
   121    1.368245460673e-05
   122   -1.671679489014e-15
   123    1.414858382022e-04
   124   -8.179999727323e-05
   125   -6.014347868562e-05
   126    6.769103955873e-16
   127   -3.390023959558e-07
   128    2.682185310420e-16
   129   -1.652019504076e-16
   130   -8.150362673389e-07
   131   -7.307040342179e-07
   132   -2.721670274362e-07
   133   -1.176216431663e-06
   134   -1.108087341290e-05
   135   -7.336409913729e-07
   136    3.929476099933e-16
   137    2.520348418035e-05
   138    3.024172839256e-05
   139    1.884946285178e-07
   140   -1.809567822488e-15
   141   -2.465649381653e-04
   142   -3.470711304935e-05
   143    2.358700263514e-04
   144    3.518215511501e-15
   145    1.717047875072e-05
   146   -5.093611489313e-04
   147    2.302952428580e-05
   148    1.190749440719e-15
   149    7.250808440264e-06
   150    2.366348274655e-16
   151    1.132097434558e-15
   152   -2.062906132602e-05
   153   -1.027273516142e-05
   154   -7.152316150089e-07
   155   -1.667523102102e-06
   156   -5.651982422432e-06
   157    1.067395431411e-05
   158   -8.900281427201e-16
   159    2.720466996830e-05
   160    1.808179833919e-05
   161   -2.787024144281e-05
   162    2.137316608149e-16
   163   -2.715935848457e-04
   164   -2.212015474990e-04
   165   -7.793683725457e-05
   166    9.158777841250e-16
   167    2.583817266350e-05
   168   -3.001059742323e-04
   169    3.346875458981e-04
   170    5.390977965478e-15
   171    8.682508628785e-06
   172   -2.009702189090e-16
   173   -3.198322572497e-16
   174    2.034074845232e-05
   175    1.272479088830e-05
   176   -7.629516172728e-08
   177    5.066165882941e-07
   178   -1.580613856181e-06
   179    3.967254713448e-07
   180    7.944038562708e-17
   181   -8.572756913310e-06
   182    8.187033610932e-06
   183   -2.363560567731e-06
   184    1.315015555179e-15
   185    4.660879492252e-05
   186   -4.670415618885e-05
   187    2.282498954907e-05
   188   -2.875893230229e-15
   189    2.980032638219e-03
   190   -4.351621700509e-04
   191    3.037382201510e-04
   192    7.340125897234e-15
   193   -3.819885070385e-06
   194    4.833684211479e-16
   195    5.068734462388e-17
   196   -2.221088025775e-06
   197    2.964124627357e-06
   198   -1.146162745688e-06
   199    1.071830272362e-05
   200    1.429751660398e-05
   201    1.516345168574e-04
   202   -2.387544614950e-07
   203   -1.465584137622e-08
   204    9.799176578537e-16
Sym=X
Ene= 0.146780
Spin=Alpha
Occup=0
     1   -3.089794142469e-07
     2    2.818928524377e-06
     3    2.662469816628e-07
     4    1.940181729872e-06
     5    6.355700851238e-16
     6   -1.950419093097e-05
     7   -1.013743104231e-05
     8   -1.409810172385e-05
     9   -1.137540368637e-15
    10    3.425115766809e-04
    11    7.767840286786e-05
    12    2.000453847726e-04
    13    6.690386609680e-15
    14    1.940047847618e-04
    15   -2.375710144760e-04
    16    6.246014327986e-04
    17   -1.044218121200e-14
    18   -1.166057269364e-06
    19    6.734655254405e-16
    20    9.979371754446e-16
    21    2.536629938715e-06
    22   -1.215293163330e-05
    23   -4.872487823017e-07
    24   -9.909185597702e-06
    25    6.509647272190e-05
    26   -5.838144167591e-05
    27    2.054847971238e-06
    28   -1.364736890597e-06
    29    1.226147754489e-15
    30    4.666130100700e-07
    31    3.712724624208e-06
    32    1.354783317897e-04
    33    3.028076357954e-04
    34   -4.833043992662e-06
    35   -1.478431183633e-07
    36   -1.603937385742e-15
    37   -5.093577868896e-06
    38   -3.628867719425e-05
    39   -5.562658230042e-05
    40   -8.247653215423e-05
    41    4.411260328331e-06
    42    9.523740870586e-06
    43   -7.824697439577e-16
    44    1.570142023535e-07
    45    2.751267966078e-07
    46   -1.032528718163e-06
    47    6.642876070213e-08
    48   -1.101087899899e-15
    49   -1.033065871142e-06
    50    1.314691043054e-06
    51   -6.727847208075e-07
    52    1.333023948358e-15
    53    1.259967687185e-04
    54    1.372815157860e-04
    55   -1.766706240010e-05
    56    9.862997611560e-16
    57    1.994348597196e-04
    58   -1.500163195792e-05
    59    1.749182222763e-04
    60   -6.951033117446e-15
    61   -3.419137520636e-06
    62   -4.566404328839e-16
    63    6.051824720880e-16
    64   -7.369850916052e-07
    65   -3.936902374032e-06
    66   -1.425650148111e-06
    67   -1.505211394960e-06
    68    5.676565843534e-07
    69   -2.777533025845e-07
    70   -2.584138619714e-16
    71    1.762839630875e-06
    72   -7.202969228671e-07
    73    1.628321907219e-06
    74    1.486066772017e-15
    75   -2.648336793984e-06
    76   -4.537468932401e-06
    77   -9.076329377512e-06
    78   -3.125353361007e-15
    79    2.636516024487e-04
    80    1.414245988635e-04
    81   -4.291557398039e-05
    82    3.969979990984e-15
    83   -1.819404104147e-07
    84    5.291523843458e-16
    85    2.806757140778e-16
    86   -1.090150104347e-06
    87    5.900220472182e-07
    88    4.216864283964e-09
    89    5.140998916169e-05
    90   -4.170806340878e-06
    91   -6.638116354492e-06
    92    2.042894155651e-16
    93   -1.641444390034e-04
    94   -3.199499776328e-04
    95   -2.312349511758e-04
    96   -4.630374879126e-16
    97    3.375981027229e-04
    98   -2.818747203763e-05
    99   -1.429991488781e-04
   100    3.866624821270e-15
   101    2.154508864308e-03
   102    7.710087090872e-04
   103   -3.722948173304e-04
   104   -1.036456427226e-14
   105    4.578870856152e-05
   106    3.287764343638e-16
   107    1.072990900041e-15
   108   -8.750173523841e-05
   109   -1.984564560604e-04
   110   -5.515576166162e-01
   111   -4.717196872280e-01
   112    1.415512680755e-03
   113    9.852835495810e-04
   114    7.492839477084e-16
   115   -5.184056880255e-03
   116   -6.404619152470e-04
   117   -4.489403673492e-04
   118    2.639327263838e-16
   119    8.282826717117e-04
   120    2.492900941360e-04
   121    1.946234539372e-04
   122   -2.515720924095e-15
   123   -1.521501005573e-03
   124    8.915126773175e-05
   125    3.025507968610e-05
   126    2.406750979383e-15
   127    3.459158447133e-05
   128    3.466996407354e-16
   129    2.743847289161e-17
   130    4.700312923215e-05
   131    1.743291906006e-04
   132   -3.984656045120e-07
   133    6.169232602187e-07
   134    1.284251675131e-05
   135   -6.045995015535e-06
   136   -9.355078597796e-16
   137    1.222630218023e-05
   138   -4.227729375209e-05
   139    2.321644556170e-05
   140    1.455457805309e-15
   141   -1.492280040021e-04
   142    5.499407495918e-05
   143    1.243315950956e-04
   144   -3.121878484158e-15
   145    2.917999580240e-04
   146    5.545416165275e-04
   147    2.960463828054e-05
   148    5.111430370157e-15
   149    7.284592234372e-06
   150   -8.848002556902e-16
   151    1.559976495931e-17
   152   -1.928534306718e-05
   153    2.427221686628e-05
   154   -3.416297674139e-08
   155    3.449507378871e-07
   156    8.671938127346e-07
   157    2.175279614733e-08
   158   -1.281068596896e-16
   159    3.486704221952e-06
   160   -3.928591226443e-06
   161   -4.665769876705e-07
   162    2.732160117571e-16
   163   -1.072186986393e-04
   164   -5.957894248335e-05
   165   -4.845523330912e-06
   166   -3.383349579871e-15
   167   -2.361822781168e-04
   168    6.133515307441e-05
   169    1.863813270989e-05
   170    5.122769015616e-15
   171   -1.849486946016e-07
   172    4.460621143767e-16
   173   -1.824932019236e-16
   174    3.336598707609e-07
   175    2.199977221636e-06
   176   -1.739173611073e-06
   177    1.853393995101e-06
   178    6.364836988842e-06
   179    1.908589295196e-05
   180   -1.102451024216e-15
   181    2.582164647798e-06
   182   -1.809625765996e-05
   183   -1.065245974605e-04
   184    2.825086585971e-15
   185   -3.966308732721e-04
   186    3.312534658501e-04
   187   -6.181336709048e-05
   188   -8.620884020482e-15
   189   -1.891963028967e-03
   190   -3.543694794088e-05
   191   -1.088860207348e-03
   192    1.613064576372e-14
   193    5.074321262983e-06
   194    3.859663765539e-16
   195   -3.219122963157e-16
   196    5.095461475191e-05
   197   -3.284249249137e-05
   198   -2.161170259569e-06
   199   -9.357420713622e-05
   200   -8.401846952229e-05
   201   -3.414814579565e-04
   202    2.233837486392e-05
   203   -1.284126530773e-05
   204    3.073474796585e-16
[5D]
