[Molden Format]
[Atoms] (Angs)
  C      1    6     -0.00754183     -1.75895763      0.00000000
  H      2    1     -2.09769850     -1.41880678     -0.00000000
  H      3    1     -0.13527422     -2.83956838     -0.00000000
  H      4    1      0.04053511      2.02026369      0.00000000
  C      5    6     -1.22066484      0.39918184     -0.00000000
  O      6    8     -2.25210141      1.05663720     -0.00000000
  C      7    6      1.24009552      0.27789184      0.00000000
  O      8    8      2.33767996      1.06122493      0.00000000
  N      9    7      0.03634586      1.00852936      0.00000000
  N     10    7     -1.18738304     -0.97903470     -0.00000000
  C     11    6      1.22288875     -1.12258096      0.00000000
  H     12    1      2.15640383     -1.68445878      0.00000000
[GTO]
1    0
S    6    1.000000
   4.56324000E+03    1.96665000E-03 
   6.82024000E+02    1.52306000E-02 
   1.54973000E+02    7.61269000E-02 
   4.44553000E+01    2.60801000E-01 
   1.30290000E+01    6.16462000E-01 
   1.82773000E+00    2.21006000E-01 
SP   3    1.000000
   2.09642000E+01    1.14660000E-01   4.02487000E-02 
   4.80331000E+00    9.19999000E-01   2.37594000E-01 
   1.45933000E+00   -3.03068000E-03   8.15854000E-01 
SP   1    1.000000
   4.83456000E-01    1.00000000E+00   1.00000000E+00 
SP   1    1.000000
   1.45585000E-01    1.00000000E+00   1.00000000E+00 
SP   1    1.000000
   4.38000000E-02    1.00000000E+00   1.00000000E+00 
D    1    1.000000
   6.26000000E-01    1.00000000E+00 

2    0
S    3    1.000000
   3.38650000E+01    2.54938000E-02 
   5.09479000E+00    1.90373000E-01 
   1.15879000E+00    8.52161000E-01 
S    1    1.000000
   3.25840000E-01    1.00000000E+00 
S    1    1.000000
   1.02741000E-01    1.00000000E+00 
S    1    1.000000
   3.60000000E-02    1.00000000E+00 
P    1    1.000000
   7.50000000E-01    1.00000000E+00 

3    0
S    3    1.000000
   3.38650000E+01    2.54938000E-02 
   5.09479000E+00    1.90373000E-01 
   1.15879000E+00    8.52161000E-01 
S    1    1.000000
   3.25840000E-01    1.00000000E+00 
S    1    1.000000
   1.02741000E-01    1.00000000E+00 
S    1    1.000000
   3.60000000E-02    1.00000000E+00 
P    1    1.000000
   7.50000000E-01    1.00000000E+00 

4    0
S    3    1.000000
   3.38650000E+01    2.54938000E-02 
   5.09479000E+00    1.90373000E-01 
   1.15879000E+00    8.52161000E-01 
S    1    1.000000
   3.25840000E-01    1.00000000E+00 
S    1    1.000000
   1.02741000E-01    1.00000000E+00 
S    1    1.000000
   3.60000000E-02    1.00000000E+00 
P    1    1.000000
   7.50000000E-01    1.00000000E+00 

5    0
S    6    1.000000
   4.56324000E+03    1.96665000E-03 
   6.82024000E+02    1.52306000E-02 
   1.54973000E+02    7.61269000E-02 
   4.44553000E+01    2.60801000E-01 
   1.30290000E+01    6.16462000E-01 
   1.82773000E+00    2.21006000E-01 
SP   3    1.000000
   2.09642000E+01    1.14660000E-01   4.02487000E-02 
   4.80331000E+00    9.19999000E-01   2.37594000E-01 
   1.45933000E+00   -3.03068000E-03   8.15854000E-01 
SP   1    1.000000
   4.83456000E-01    1.00000000E+00   1.00000000E+00 
SP   1    1.000000
   1.45585000E-01    1.00000000E+00   1.00000000E+00 
SP   1    1.000000
   4.38000000E-02    1.00000000E+00   1.00000000E+00 
D    1    1.000000
   6.26000000E-01    1.00000000E+00 

6    0
S    6    1.000000
   8.58850000E+03    1.89515000E-03 
   1.29723000E+03    1.43859000E-02 
   2.99296000E+02    7.07320000E-02 
   8.73771000E+01    2.40001000E-01 
   2.56789000E+01    5.94797000E-01 
   3.74004000E+00    2.80802000E-01 
SP   3    1.000000
   4.21175000E+01    1.13889000E-01   3.65114000E-02 
   9.62837000E+00    9.20811000E-01   2.37153000E-01 
   2.85332000E+00   -3.27447000E-03   8.19702000E-01 
SP   1    1.000000
   9.05661000E-01    1.00000000E+00   1.00000000E+00 
SP   1    1.000000
   2.55611000E-01    1.00000000E+00   1.00000000E+00 
SP   1    1.000000
   8.45000000E-02    1.00000000E+00   1.00000000E+00 
D    1    1.000000
   1.29200000E+00    1.00000000E+00 

7    0
S    6    1.000000
   4.56324000E+03    1.96665000E-03 
   6.82024000E+02    1.52306000E-02 
   1.54973000E+02    7.61269000E-02 
   4.44553000E+01    2.60801000E-01 
   1.30290000E+01    6.16462000E-01 
   1.82773000E+00    2.21006000E-01 
SP   3    1.000000
   2.09642000E+01    1.14660000E-01   4.02487000E-02 
   4.80331000E+00    9.19999000E-01   2.37594000E-01 
   1.45933000E+00   -3.03068000E-03   8.15854000E-01 
SP   1    1.000000
   4.83456000E-01    1.00000000E+00   1.00000000E+00 
SP   1    1.000000
   1.45585000E-01    1.00000000E+00   1.00000000E+00 
SP   1    1.000000
   4.38000000E-02    1.00000000E+00   1.00000000E+00 
D    1    1.000000
   6.26000000E-01    1.00000000E+00 

8    0
S    6    1.000000
   8.58850000E+03    1.89515000E-03 
   1.29723000E+03    1.43859000E-02 
   2.99296000E+02    7.07320000E-02 
   8.73771000E+01    2.40001000E-01 
   2.56789000E+01    5.94797000E-01 
   3.74004000E+00    2.80802000E-01 
SP   3    1.000000
   4.21175000E+01    1.13889000E-01   3.65114000E-02 
   9.62837000E+00    9.20811000E-01   2.37153000E-01 
   2.85332000E+00   -3.27447000E-03   8.19702000E-01 
SP   1    1.000000
   9.05661000E-01    1.00000000E+00   1.00000000E+00 
SP   1    1.000000
   2.55611000E-01    1.00000000E+00   1.00000000E+00 
SP   1    1.000000
   8.45000000E-02    1.00000000E+00   1.00000000E+00 
D    1    1.000000
   1.29200000E+00    1.00000000E+00 

9    0
S    6    1.000000
   6.29348000E+03    1.96979000E-03 
   9.49044000E+02    1.49613000E-02 
   2.18776000E+02    7.35006000E-02 
   6.36916000E+01    2.48937000E-01 
   1.88282000E+01    6.02460000E-01 
   2.72023000E+00    2.56202000E-01 
SP   3    1.000000
   3.06331000E+01    1.11906000E-01   3.83119000E-02 
   7.02614000E+00    9.21666000E-01   2.37403000E-01 
   2.11205000E+00   -2.56919000E-03   8.17592000E-01 
SP   1    1.000000
   6.84009000E-01    1.00000000E+00   1.00000000E+00 
SP   1    1.000000
   2.00878000E-01    1.00000000E+00   1.00000000E+00 
SP   1    1.000000
   6.39000000E-02    1.00000000E+00   1.00000000E+00 
D    1    1.000000
   9.13000000E-01    1.00000000E+00 

10    0
S    6    1.000000
   6.29348000E+03    1.96979000E-03 
   9.49044000E+02    1.49613000E-02 
   2.18776000E+02    7.35006000E-02 
   6.36916000E+01    2.48937000E-01 
   1.88282000E+01    6.02460000E-01 
   2.72023000E+00    2.56202000E-01 
SP   3    1.000000
   3.06331000E+01    1.11906000E-01   3.83119000E-02 
   7.02614000E+00    9.21666000E-01   2.37403000E-01 
   2.11205000E+00   -2.56919000E-03   8.17592000E-01 
SP   1    1.000000
   6.84009000E-01    1.00000000E+00   1.00000000E+00 
SP   1    1.000000
   2.00878000E-01    1.00000000E+00   1.00000000E+00 
SP   1    1.000000
   6.39000000E-02    1.00000000E+00   1.00000000E+00 
D    1    1.000000
   9.13000000E-01    1.00000000E+00 

11    0
S    6    1.000000
   4.56324000E+03    1.96665000E-03 
   6.82024000E+02    1.52306000E-02 
   1.54973000E+02    7.61269000E-02 
   4.44553000E+01    2.60801000E-01 
   1.30290000E+01    6.16462000E-01 
   1.82773000E+00    2.21006000E-01 
SP   3    1.000000
   2.09642000E+01    1.14660000E-01   4.02487000E-02 
   4.80331000E+00    9.19999000E-01   2.37594000E-01 
   1.45933000E+00   -3.03068000E-03   8.15854000E-01 
SP   1    1.000000
   4.83456000E-01    1.00000000E+00   1.00000000E+00 
SP   1    1.000000
   1.45585000E-01    1.00000000E+00   1.00000000E+00 
SP   1    1.000000
   4.38000000E-02    1.00000000E+00   1.00000000E+00 
D    1    1.000000
   6.26000000E-01    1.00000000E+00 

12    0
S    3    1.000000
   3.38650000E+01    2.54938000E-02 
   5.09479000E+00    1.90373000E-01 
   1.15879000E+00    8.52161000E-01 
S    1    1.000000
   3.25840000E-01    1.00000000E+00 
S    1    1.000000
   1.02741000E-01    1.00000000E+00 
S    1    1.000000
   3.60000000E-02    1.00000000E+00 
P    1    1.000000
   7.50000000E-01    1.00000000E+00 

[MO]
Sym=X
Ene= -0.488190
Spin=Alpha
Occup=1
     1    2.039283111000e-02
     2    3.591116027486e-02
     3    1.985850471950e-02
     4    2.717927377522e-02
     5    9.198192621938e-15
     6   -1.223478413669e-01
     7    3.677217431952e-02
     8    3.566918407362e-02
     9    4.653853589286e-15
    10   -1.686550637828e-01
    11    1.010227817476e-01
    12    1.670198066331e-01
    13    5.020349285966e-14
    14   -2.807713506550e+00
    15   -4.817526948173e-01
    16    2.115731409677e+00
    17   -2.490732219027e-13
    18   -2.794819899279e-04
    19   -2.598799182136e-15
    20   -2.646625741603e-15
    21   -7.029795537677e-03
    22    1.697121621268e-03
    23    1.029849341705e-02
    24    3.184076339796e-02
    25   -3.662627934189e-01
    26   -6.247645038499e-01
    27    4.596951533109e-03
    28   -7.600633652000e-03
    29    2.368223514928e-15
    30   -1.701914049195e-03
    31   -9.748565589295e-03
    32    4.600765423808e-01
    33    3.421555044072e+00
    34   -6.370293574537e-04
    35   -1.337553505016e-02
    36    2.100904436633e-15
    37    1.416502440225e-02
    38    3.590051727844e-02
    39    2.982455815388e-01
    40    9.023102764110e-01
    41   -2.008401194861e-03
    42    9.389345554177e-03
    43    1.949874488736e-15
    44    6.911030552635e-03
    45    1.252842415628e-02
    46    1.959691751231e-02
    47   -1.234107307069e-03
    48    7.471967125332e-17
    49   -4.195848878734e-02
    50    3.347113611578e-02
    51   -6.913171369448e-03
    52    2.214328126312e-14
    53   -1.352680009207e-01
    54    3.419153331633e-01
    55   -1.566572815822e-01
    56   -7.890127947607e-14
    57   -3.491617338399e-02
    58    1.523922693935e+00
    59    3.744049465630e-01
    60    3.887636710786e-13
    61   -6.578089034358e-03
    62    7.948884177501e-15
    63    3.008242166524e-15
    64    1.054303291900e-02
    65   -1.318986036595e-02
    66   -1.447972279782e-02
    67   -2.504040019073e-02
    68   -1.620082546591e-02
    69   -4.763557918251e-02
    70   -3.176099603882e-15
    71    8.443346923858e-02
    72   -2.521402895164e-02
    73   -6.649035267876e-02
    74   -6.208589243811e-15
    75    2.224213283593e-01
    76    4.359832209729e-02
    77   -8.862567994622e-02
    78    2.174574306069e-14
    79    8.026148775437e-01
    80    5.999664104841e-02
    81   -1.068435134077e-01
    82   -1.182496248969e-13
    83   -1.234007301022e-05
    84    3.860423942555e-16
    85    8.834083021403e-16
    86   -2.811041906500e-03
    87   -2.857940375935e-04
    88    1.477256008362e-03
    89    2.581260136375e-03
    90   -2.188159885164e-03
    91    3.138226832025e-03
    92    5.508565497308e-16
    93   -1.357895191084e-02
    94   -1.973911594249e-03
    95    9.684571663360e-03
    96    7.216922336483e-15
    97    6.994878544515e-02
    98   -1.117544599368e-01
    99   -6.209700155442e-02
   100   -5.493376776588e-14
   101   -1.093980805459e+00
   102    1.198333470324e+00
   103   -3.103135785230e-01
   104   -8.279239423486e-13
   105    2.613089400481e-03
   106   -1.823706914622e-15
   107    1.736891599944e-15
   108    8.169222392781e-03
   109    9.351750205042e-03
   110    1.834228188561e-03
   111    3.185163294174e-03
   112   -4.576525642683e-03
   113   -1.353952619577e-02
   114   -3.915427855282e-15
   115   -1.062349847987e-02
   116   -8.258887165856e-03
   117   -2.027709742824e-02
   118    4.015806539369e-15
   119   -4.078382473503e-03
   120    1.464763573895e-03
   121   -2.231919483457e-02
   122   -5.331058854247e-14
   123    1.575203697634e-01
   124   -1.611621606568e-01
   125   -8.159102078249e-02
   126    2.769037754966e-13
   127    6.255962218451e-04
   128    5.147026275537e-16
   129   -4.669387441659e-16
   130   -4.800738596128e-04
   131   -4.348407590934e-04
   132    1.062889023744e-02
   133    1.813682022001e-02
   134   -9.636466334948e-03
   135   -2.076945048926e-02
   136   -4.893104104785e-15
   137   -5.032653726967e-02
   138   -1.350565369006e-02
   139   -3.390599697019e-02
   140   -5.330951850222e-16
   141   -2.764803827093e-01
   142   -1.876619165596e-02
   143    1.291697321029e-02
   144   -3.346885844833e-14
   145   -4.720983250059e-01
   146    2.092630123122e-02
   147   -3.321823076859e-01
   148    2.735999197604e-13
   149   -6.259924942251e-05
   150    1.491309705301e-17
   151    3.758330659726e-16
   152   -6.674003044517e-03
   153    7.823682339809e-04
   154   -4.423389726978e-03
   155   -7.592781079307e-03
   156   -2.096824844480e-03
   157   -3.299503213235e-03
   158    3.375557192952e-15
   159    1.919236124568e-02
   160   -3.184704737023e-03
   161    1.175531485950e-03
   162   -1.407607653421e-15
   163    7.245304535718e-02
   164   -3.110202414698e-02
   165   -5.869838379532e-02
   166    3.052204377806e-14
   167   -4.457575022695e-01
   168   -9.026725206466e-01
   169   -5.018421380815e-01
   170   -1.824853546388e-13
   171    1.947079943980e-03
   172    2.142239251732e-15
   173   -2.663699737985e-15
   174    1.481852242414e-03
   175    1.153647111280e-02
   176    7.291287230965e-03
   177    1.261568252535e-02
   178   -1.950612290393e-02
   179   -4.384068561359e-03
   180   -8.563857921575e-15
   181   -3.785466953253e-02
   182   -2.356780558886e-02
   183   -5.214944153758e-03
   184    1.388345965196e-15
   185   -2.494423059130e-01
   186    1.264246379184e-03
   187   -5.260732654504e-02
   188   -6.142039829507e-14
   189    8.614103401156e-02
   190   -1.097426630537e+00
   191   -9.780263736113e-01
   192    6.710292287940e-13
   193    4.193336269615e-03
   194    6.163244761830e-16
   195   -8.519237851347e-16
   196    2.699199751402e-04
   197   -5.983413526081e-03
   198   -1.527387501773e-03
   199   -6.009648850837e-03
   200    7.854108971561e-02
   201    5.154931900050e-01
   202    2.498568740612e-03
   203   -5.127210323802e-03
   204    3.907286919642e-15
Sym=X
Ene= 0.488190
Spin=Alpha
Occup=0
     1    1.056500949502e-15
     2    5.798817917210e-16
     3    1.264203667821e-15
     4   -3.177116262867e-16
     5   -1.710183792256e-01
     6    9.941320857838e-15
     7   -3.353074723254e-14
     8    7.333816495206e-15
     9   -2.803158255080e-01
    10   -1.976672883863e-13
    11   -1.486641016191e-14
    12   -4.814786496552e-14
    13   -4.736037192999e-01
    14   -2.807306228692e-12
    15    6.813323338339e-13
    16   -1.660703700165e-12
    17   -4.984900584911e-01
    18   -5.808276293707e-16
    19    7.669388994376e-03
    20    1.088117225696e-02
    21   -2.812682487949e-16
    22   -4.907760356947e-15
    23    7.589669913144e-16
    24    5.469562872779e-14
    25   -1.159641486933e-13
    26   -2.651160851588e-13
    27   -2.432540028234e-15
    28   -3.830697554456e-16
    29    1.349330585832e-02
    30    2.570784482598e-15
    31    5.478639114532e-14
    32   -2.155778512159e-13
    33   -3.991339074732e-13
    34    3.792002870869e-15
    35    3.586759164645e-15
    36   -2.008349126263e-02
    37    6.402460651623e-15
    38   -1.194415690207e-13
    39    6.202390121959e-13
    40    3.430521693741e-14
    41    3.105821300486e-15
    42    5.331511614413e-15
    43   -9.750036913043e-03
    44    5.511163562424e-16
    45    3.317407754171e-15
    46    4.870179379341e-15
    47    3.479806326392e-15
    48   -3.750628015371e-02
    49   -3.100336046067e-14
    50    2.197628802119e-15
    51    2.112911218405e-14
    52   -6.778897827238e-02
    53    1.310813452862e-13
    54    2.301651167843e-13
    55   -1.839496105472e-13
    56   -8.984423601842e-02
    57    2.620059923038e-12
    58    6.949873252405e-13
    59   -8.541963055062e-13
    60   -4.211714574641e-03
    61   -2.768126352534e-16
    62   -1.451353236124e-02
    63   -3.446491441395e-02
    64   -1.541227946906e-16
    65   -1.614216285699e-15
    66   -4.347960317560e-16
    67   -6.102173746817e-16
    68   -1.518069760386e-15
    69    3.718570915980e-16
    70    1.940881246580e-02
    71   -1.615082848840e-15
    72   -9.937713303355e-15
    73   -1.120987685661e-15
    74    2.623416324953e-02
    75    5.719692731151e-14
    76    3.613283230802e-14
    77   -4.752301432995e-16
    78    3.552226356628e-02
    79    4.609485748541e-13
    80   -5.158576668936e-15
    81   -1.946545537172e-13
    82   -1.177577028869e-02
    83    1.288229846316e-15
    84   -3.533119342990e-03
    85   -8.061221084825e-04
    86    1.632998471554e-15
    87    5.171867078856e-16
    88   -9.839093930525e-16
    89   -2.441747794431e-15
    90    8.575050340852e-15
    91   -4.640830674222e-15
    92    1.465260497615e-01
    93    3.155976822576e-15
    94    1.441666786229e-14
    95    2.925064317254e-15
    96    2.390770561864e-01
    97    2.428388464781e-13
    98   -1.633517842936e-14
    99   -6.080301216798e-14
   100    3.546734460576e-01
   101   -5.088197895245e-12
   102   -1.108271610586e-12
   103    1.564309835067e-12
   104    8.920272920656e-02
   105    1.659556238987e-15
   106   -2.353510788905e-02
   107   -2.977030104781e-02
   108    6.485437007152e-15
   109   -2.806783140926e-15
   110   -2.637796375479e-16
   111   -2.580912851716e-15
   112    2.525657466251e-15
   113    2.160553186563e-15
   114   -1.075652410732e-01
   115    1.616550005309e-14
   116    8.056579775974e-15
   117   -1.963693078556e-15
   118   -1.589068928621e-01
   119   -8.317132473371e-14
   120   -8.573315852298e-15
   121    3.385457201890e-14
   122   -2.016070459277e-01
   123    7.220000800719e-13
   124    5.063861266196e-14
   125   -1.593742371870e-13
   126   -1.607939511190e-01
   127   -5.401330893458e-16
   128   -1.472223830847e-03
   129   -2.917212431037e-03
   130    4.911159689544e-16
   131    5.105558243633e-16
   132    2.886625608106e-15
   133    3.179860550378e-16
   134    9.111128078176e-15
   135    1.038943756273e-15
   136   -4.915734257013e-02
   137    4.283877532969e-15
   138    8.380065958962e-15
   139    8.756553885314e-15
   140   -7.521493412682e-02
   141   -1.041713107674e-13
   142    5.650460216741e-14
   143    1.088901620509e-13
   144   -1.123899058891e-01
   145   -1.527797927804e-12
   146   -3.982301740066e-13
   147   -5.355918083999e-13
   148   -1.592106511751e-01
   149    3.726992984937e-15
   150    1.920818788782e-02
   151   -9.543022022554e-03
   152   -3.090227875658e-15
   153    4.388516562152e-16
   154    5.615560102147e-16
   155    1.530816987596e-15
   156    6.201069753091e-15
   157    6.027341553068e-15
   158    8.888511568137e-02
   159   -1.882578698001e-16
   160    1.937645075382e-14
   161    4.857623924290e-15
   162    1.364659534862e-01
   163   -8.448085173573e-14
   164   -1.491005405402e-14
   165    4.620826878407e-15
   166    2.159827352626e-01
   167   -4.393642880244e-13
   168    1.282500282160e-14
   169   -1.193086173902e-12
   170    3.261703167923e-01
   171    2.196183018341e-15
   172   -1.743012402765e-02
   173    1.203121022730e-02
   174    4.860308791881e-15
   175    1.681179649575e-15
   176   -2.369766048803e-15
   177   -5.422543961734e-15
   178    2.476058088483e-15
   179   -5.385146248180e-15
   180    7.188695827823e-02
   181    1.038711276768e-15
   182    1.528529074490e-14
   183    2.111072241711e-14
   184    1.147200833631e-01
   185    1.431387877489e-13
   186   -1.300410862820e-13
   187   -2.542618764356e-13
   188    2.073094015564e-01
   189    4.539958424442e-12
   190   -5.954131877440e-13
   191    2.565506723212e-12
   192    2.456837593701e-01
   193   -1.355049448083e-14
   194    1.682632374735e-02
   195    3.609322551736e-02
   196   -1.173542863356e-16
   197   -4.298408574318e-16
   198    7.122267038718e-15
   199   -1.931031032130e-14
   200    1.602162318332e-13
   201    1.653721542120e-12
   202    6.182505175957e-15
   203   -5.780523320442e-15
   204    5.602369137665e-03
[5D]
