[Molden Format]
[Atoms] (Angs)
  C      1    6     -0.00754183     -1.75895763      0.00000000
  H      2    1     -2.09769850     -1.41880678     -0.00000000
  H      3    1     -0.13527422     -2.83956838     -0.00000000
  H      4    1      0.04053511      2.02026369      0.00000000
  C      5    6     -1.22066484      0.39918184     -0.00000000
  O      6    8     -2.25210141      1.05663720     -0.00000000
  C      7    6      1.24009552      0.27789184      0.00000000
  O      8    8      2.33767996      1.06122493      0.00000000
  N      9    7      0.03634586      1.00852936      0.00000000
  N     10    7     -1.18738304     -0.97903470     -0.00000000
  C     11    6      1.22288875     -1.12258096      0.00000000
  H     12    1      2.15640383     -1.68445878      0.00000000
[GTO]
1    0
S    6    1.000000
   4.56324000E+03    1.96665000E-03 
   6.82024000E+02    1.52306000E-02 
   1.54973000E+02    7.61269000E-02 
   4.44553000E+01    2.60801000E-01 
   1.30290000E+01    6.16462000E-01 
   1.82773000E+00    2.21006000E-01 
SP   3    1.000000
   2.09642000E+01    1.14660000E-01   4.02487000E-02 
   4.80331000E+00    9.19999000E-01   2.37594000E-01 
   1.45933000E+00   -3.03068000E-03   8.15854000E-01 
SP   1    1.000000
   4.83456000E-01    1.00000000E+00   1.00000000E+00 
SP   1    1.000000
   1.45585000E-01    1.00000000E+00   1.00000000E+00 
SP   1    1.000000
   4.38000000E-02    1.00000000E+00   1.00000000E+00 
D    1    1.000000
   6.26000000E-01    1.00000000E+00 

2    0
S    3    1.000000
   3.38650000E+01    2.54938000E-02 
   5.09479000E+00    1.90373000E-01 
   1.15879000E+00    8.52161000E-01 
S    1    1.000000
   3.25840000E-01    1.00000000E+00 
S    1    1.000000
   1.02741000E-01    1.00000000E+00 
S    1    1.000000
   3.60000000E-02    1.00000000E+00 
P    1    1.000000
   7.50000000E-01    1.00000000E+00 

3    0
S    3    1.000000
   3.38650000E+01    2.54938000E-02 
   5.09479000E+00    1.90373000E-01 
   1.15879000E+00    8.52161000E-01 
S    1    1.000000
   3.25840000E-01    1.00000000E+00 
S    1    1.000000
   1.02741000E-01    1.00000000E+00 
S    1    1.000000
   3.60000000E-02    1.00000000E+00 
P    1    1.000000
   7.50000000E-01    1.00000000E+00 

4    0
S    3    1.000000
   3.38650000E+01    2.54938000E-02 
   5.09479000E+00    1.90373000E-01 
   1.15879000E+00    8.52161000E-01 
S    1    1.000000
   3.25840000E-01    1.00000000E+00 
S    1    1.000000
   1.02741000E-01    1.00000000E+00 
S    1    1.000000
   3.60000000E-02    1.00000000E+00 
P    1    1.000000
   7.50000000E-01    1.00000000E+00 

5    0
S    6    1.000000
   4.56324000E+03    1.96665000E-03 
   6.82024000E+02    1.52306000E-02 
   1.54973000E+02    7.61269000E-02 
   4.44553000E+01    2.60801000E-01 
   1.30290000E+01    6.16462000E-01 
   1.82773000E+00    2.21006000E-01 
SP   3    1.000000
   2.09642000E+01    1.14660000E-01   4.02487000E-02 
   4.80331000E+00    9.19999000E-01   2.37594000E-01 
   1.45933000E+00   -3.03068000E-03   8.15854000E-01 
SP   1    1.000000
   4.83456000E-01    1.00000000E+00   1.00000000E+00 
SP   1    1.000000
   1.45585000E-01    1.00000000E+00   1.00000000E+00 
SP   1    1.000000
   4.38000000E-02    1.00000000E+00   1.00000000E+00 
D    1    1.000000
   6.26000000E-01    1.00000000E+00 

6    0
S    6    1.000000
   8.58850000E+03    1.89515000E-03 
   1.29723000E+03    1.43859000E-02 
   2.99296000E+02    7.07320000E-02 
   8.73771000E+01    2.40001000E-01 
   2.56789000E+01    5.94797000E-01 
   3.74004000E+00    2.80802000E-01 
SP   3    1.000000
   4.21175000E+01    1.13889000E-01   3.65114000E-02 
   9.62837000E+00    9.20811000E-01   2.37153000E-01 
   2.85332000E+00   -3.27447000E-03   8.19702000E-01 
SP   1    1.000000
   9.05661000E-01    1.00000000E+00   1.00000000E+00 
SP   1    1.000000
   2.55611000E-01    1.00000000E+00   1.00000000E+00 
SP   1    1.000000
   8.45000000E-02    1.00000000E+00   1.00000000E+00 
D    1    1.000000
   1.29200000E+00    1.00000000E+00 

7    0
S    6    1.000000
   4.56324000E+03    1.96665000E-03 
   6.82024000E+02    1.52306000E-02 
   1.54973000E+02    7.61269000E-02 
   4.44553000E+01    2.60801000E-01 
   1.30290000E+01    6.16462000E-01 
   1.82773000E+00    2.21006000E-01 
SP   3    1.000000
   2.09642000E+01    1.14660000E-01   4.02487000E-02 
   4.80331000E+00    9.19999000E-01   2.37594000E-01 
   1.45933000E+00   -3.03068000E-03   8.15854000E-01 
SP   1    1.000000
   4.83456000E-01    1.00000000E+00   1.00000000E+00 
SP   1    1.000000
   1.45585000E-01    1.00000000E+00   1.00000000E+00 
SP   1    1.000000
   4.38000000E-02    1.00000000E+00   1.00000000E+00 
D    1    1.000000
   6.26000000E-01    1.00000000E+00 

8    0
S    6    1.000000
   8.58850000E+03    1.89515000E-03 
   1.29723000E+03    1.43859000E-02 
   2.99296000E+02    7.07320000E-02 
   8.73771000E+01    2.40001000E-01 
   2.56789000E+01    5.94797000E-01 
   3.74004000E+00    2.80802000E-01 
SP   3    1.000000
   4.21175000E+01    1.13889000E-01   3.65114000E-02 
   9.62837000E+00    9.20811000E-01   2.37153000E-01 
   2.85332000E+00   -3.27447000E-03   8.19702000E-01 
SP   1    1.000000
   9.05661000E-01    1.00000000E+00   1.00000000E+00 
SP   1    1.000000
   2.55611000E-01    1.00000000E+00   1.00000000E+00 
SP   1    1.000000
   8.45000000E-02    1.00000000E+00   1.00000000E+00 
D    1    1.000000
   1.29200000E+00    1.00000000E+00 

9    0
S    6    1.000000
   6.29348000E+03    1.96979000E-03 
   9.49044000E+02    1.49613000E-02 
   2.18776000E+02    7.35006000E-02 
   6.36916000E+01    2.48937000E-01 
   1.88282000E+01    6.02460000E-01 
   2.72023000E+00    2.56202000E-01 
SP   3    1.000000
   3.06331000E+01    1.11906000E-01   3.83119000E-02 
   7.02614000E+00    9.21666000E-01   2.37403000E-01 
   2.11205000E+00   -2.56919000E-03   8.17592000E-01 
SP   1    1.000000
   6.84009000E-01    1.00000000E+00   1.00000000E+00 
SP   1    1.000000
   2.00878000E-01    1.00000000E+00   1.00000000E+00 
SP   1    1.000000
   6.39000000E-02    1.00000000E+00   1.00000000E+00 
D    1    1.000000
   9.13000000E-01    1.00000000E+00 

10    0
S    6    1.000000
   6.29348000E+03    1.96979000E-03 
   9.49044000E+02    1.49613000E-02 
   2.18776000E+02    7.35006000E-02 
   6.36916000E+01    2.48937000E-01 
   1.88282000E+01    6.02460000E-01 
   2.72023000E+00    2.56202000E-01 
SP   3    1.000000
   3.06331000E+01    1.11906000E-01   3.83119000E-02 
   7.02614000E+00    9.21666000E-01   2.37403000E-01 
   2.11205000E+00   -2.56919000E-03   8.17592000E-01 
SP   1    1.000000
   6.84009000E-01    1.00000000E+00   1.00000000E+00 
SP   1    1.000000
   2.00878000E-01    1.00000000E+00   1.00000000E+00 
SP   1    1.000000
   6.39000000E-02    1.00000000E+00   1.00000000E+00 
D    1    1.000000
   9.13000000E-01    1.00000000E+00 

11    0
S    6    1.000000
   4.56324000E+03    1.96665000E-03 
   6.82024000E+02    1.52306000E-02 
   1.54973000E+02    7.61269000E-02 
   4.44553000E+01    2.60801000E-01 
   1.30290000E+01    6.16462000E-01 
   1.82773000E+00    2.21006000E-01 
SP   3    1.000000
   2.09642000E+01    1.14660000E-01   4.02487000E-02 
   4.80331000E+00    9.19999000E-01   2.37594000E-01 
   1.45933000E+00   -3.03068000E-03   8.15854000E-01 
SP   1    1.000000
   4.83456000E-01    1.00000000E+00   1.00000000E+00 
SP   1    1.000000
   1.45585000E-01    1.00000000E+00   1.00000000E+00 
SP   1    1.000000
   4.38000000E-02    1.00000000E+00   1.00000000E+00 
D    1    1.000000
   6.26000000E-01    1.00000000E+00 

12    0
S    3    1.000000
   3.38650000E+01    2.54938000E-02 
   5.09479000E+00    1.90373000E-01 
   1.15879000E+00    8.52161000E-01 
S    1    1.000000
   3.25840000E-01    1.00000000E+00 
S    1    1.000000
   1.02741000E-01    1.00000000E+00 
S    1    1.000000
   3.60000000E-02    1.00000000E+00 
P    1    1.000000
   7.50000000E-01    1.00000000E+00 

[MO]
Sym=X
Ene= -0.493396
Spin=Alpha
Occup=1
     1   -2.647222128921e-03
     2   -4.516841172915e-03
     3    8.071613934595e-03
     4    4.442084243830e-03
     5    1.814372039181e-14
     6    1.211270064480e-02
     7    1.549295663604e-02
     8    1.014211718531e-02
     9    3.083497342180e-14
    10    1.310538819299e-01
    11   -3.637692375031e-02
    12    1.029926251812e-01
    13   -1.007812547332e-13
    14    6.295602429648e+00
    15    1.384125582881e-01
    16    2.604357630811e+00
    17   -3.633541080855e-13
    18    1.310067741867e-02
    19   -3.223207489079e-15
    20   -8.524888691340e-15
    21    5.448731853177e-03
    22   -6.806168746892e-03
    23   -5.635382473890e-03
    24   -5.086014296831e-02
    25    2.829789142608e-01
    26    9.506030683790e-01
    27   -9.247708974531e-03
    28   -5.537144197892e-03
    29    2.196969125990e-15
    30   -1.536023496011e-02
    31   -3.846881952554e-02
    32    5.768897315313e-02
    33    1.282453062430e+00
    34   -2.273917228685e-03
    35    2.787430432682e-03
    36    3.384834621008e-15
    37   -2.746628264824e-02
    38   -1.394627389948e-01
    39   -4.403035646668e-01
    40   -1.794203833598e+00
    41    1.584496183132e-03
    42   -4.893206827678e-03
    43   -5.128218272999e-15
    44   -4.221218197131e-03
    45   -7.121639915924e-03
    46    9.997327666897e-03
    47    5.390395689614e-03
    48   -6.198640677708e-15
    49    9.588732954585e-03
    50    1.603134794656e-02
    51    5.764895607133e-03
    52    6.386369077948e-14
    53    2.724657381000e-01
    54    1.762567552669e-01
    55   -4.746459822847e-02
    56   -1.574877461306e-13
    57   -8.507212952703e-01
    58   -1.849487328716e-02
    59    1.071725025566e+00
    60   -5.688910961746e-13
    61    1.177529786081e-02
    62    1.276228096284e-14
    63   -1.284868430081e-14
    64   -1.003694937680e-02
    65    1.119220292805e-03
    66    3.314930667318e-03
    67    5.735360616895e-03
    68   -2.925078394799e-03
    69    1.604194232989e-02
    70   -2.480871385710e-14
    71   -1.999252481767e-02
    72   -1.212144909136e-03
    73    2.113060784918e-02
    74   -2.366907542524e-14
    75    9.692361705471e-03
    76   -1.366016390239e-02
    77    3.252028690734e-02
    78   -1.144180309003e-13
    79   -5.280827239545e-02
    80    4.632843444358e-02
    81   -1.019311620495e-01
    82    4.597151252889e-13
    83    1.263966471552e-03
    84   -1.910919683196e-15
    85    4.633756138223e-16
    86    1.443890505042e-03
    87    6.972327210204e-04
    88   -8.620831326680e-03
    89   -1.467813446138e-02
    90    6.303640778805e-02
    91    4.202327895844e-02
    92    1.176928503901e-15
    93    1.336235990384e-02
    94    1.121479857247e-01
    95    7.125763242942e-02
    96    2.732704389556e-14
    97    6.223700782674e-01
    98    2.248885220743e-01
    99    2.495816611866e-01
   100    5.169261383868e-15
   101    9.668523644407e+00
   102   -1.103719027108e+00
   103   -1.392605624409e+00
   104    1.745869545352e-13
   105    2.241991966639e-02
   106    1.696987000913e-15
   107   -7.296126975568e-16
   108   -1.670872971066e-02
   109   -3.287705511448e-02
   110    1.484080820879e-02
   111    2.556205717839e-02
   112    7.094474551051e-02
   113    6.603092395891e-02
   114   -3.575956052619e-15
   115   -8.289185086364e-02
   116    9.293416501275e-02
   117    8.941124061675e-02
   118   -8.446310877070e-15
   119   -2.381623842990e-01
   120    1.684283437344e-01
   121    1.239191839697e-01
   122    4.264267700704e-14
   123   -7.824984118203e-01
   124    2.081141003484e-01
   125    1.797023342545e-01
   126   -1.610785820405e-13
   127    7.320827287656e-04
   128    2.967098783860e-16
   129   -1.354293252209e-15
   130    1.729313315219e-03
   131    3.536521283067e-03
   132   -3.313396399920e-03
   133   -5.677658514423e-03
   134    1.230549003011e-02
   135    3.997656377355e-02
   136   -4.703209906647e-15
   137    1.557299205358e-02
   138    1.862251640874e-02
   139    6.235412621008e-02
   140   -5.096599130079e-15
   141    1.941544320839e-02
   142    1.517497185981e-02
   143    2.309946801587e-01
   144    2.228888128337e-15
   145   -1.579324542944e+00
   146    1.046424669176e-02
   147    6.032192853107e-01
   148    2.931700857904e-14
   149    8.254645607001e-03
   150    3.143831822734e-15
   151   -3.586241914487e-15
   152    1.384823171525e-02
   153    6.963337520677e-03
   154    7.384266247878e-03
   155    1.244723967702e-02
   156    1.774083821328e-02
   157    1.171208039837e-02
   158   -2.219613968715e-14
   159   -3.282509089381e-02
   160    3.327953939699e-02
   161    2.094683584807e-02
   162   -2.515356263141e-14
   163   -1.945953849259e-01
   164   -5.542167115012e-02
   165   -2.930125233950e-02
   166   -6.860516340890e-14
   167   -1.214085927356e+00
   168    1.722213533162e-01
   169    3.943136917425e-01
   170    6.119105704171e-13
   171    6.057096167191e-03
   172    1.652231438838e-15
   173   -6.058592013387e-15
   174    9.759022928758e-04
   175    1.653959366570e-03
   176   -2.474893317650e-03
   177   -4.011695877507e-03
   178    2.980093790435e-02
   179   -2.146300074993e-02
   180   -1.487516737051e-14
   181    7.848443575988e-03
   182    3.879867094353e-02
   183   -4.029658508334e-02
   184   -2.312955483683e-14
   185    7.291884039769e-02
   186    2.073195331836e-01
   187   -1.166102351147e-01
   188    3.431069806565e-14
   189   -9.397852087669e+00
   190    3.075756439110e+00
   191   -2.484044944065e+00
   192    1.802158538150e-13
   193    1.456710229377e-02
   194   -3.523232507075e-15
   195    1.047640505116e-15
   196    3.206188281643e-03
   197    2.365017978376e-02
   198   -2.196299939360e-02
   199   -6.061572102421e-02
   200   -6.236846464271e-01
   201   -3.065790503277e+00
   202   -6.256233302691e-03
   203    6.876944387354e-03
   204   -5.492355921022e-15
Sym=X
Ene= 0.493396
Spin=Alpha
Occup=0
     1   -5.807882063788e-15
     2   -1.060284785228e-14
     3    1.687896015300e-14
     4    3.658116600245e-15
     5    6.321384479872e-02
     6    5.510348347696e-14
     7   -4.716554683700e-14
     8   -3.465735426594e-14
     9    7.574107089203e-02
    10   -8.862080318007e-14
    11    2.699682644609e-13
    12    5.300752778957e-14
    13    2.766326187050e-01
    14    1.901404548127e-11
    15    2.393448814109e-12
    16    7.391320389459e-12
    17   -1.176038045084e+00
    18    2.729174494032e-14
    19   -2.438069884676e-03
    20    1.554422484586e-02
    21   -2.106037550657e-14
    22   -2.607108735836e-14
    23    1.300406931631e-14
    24   -6.504573412495e-14
    25    8.755622682372e-13
    26    2.703249508618e-12
    27   -1.431898634940e-15
    28    7.279170966873e-15
    29   -2.016339793277e-03
    30    4.197142809111e-15
    31   -1.339675566568e-13
    32    7.185121961732e-13
    33    2.838456831711e-12
    34   -3.923157445885e-16
    35   -2.189556079547e-15
    36   -6.814666704730e-03
    37    9.149802359267e-15
    38   -7.970884348887e-14
    39    2.110902975997e-12
    40   -1.432983332543e-12
    41    4.904529086401e-15
    42    3.241792946698e-15
    43    7.716086786544e-03
    44    4.083280609579e-15
    45    4.980411248532e-15
    46    2.466408892539e-14
    47    2.662626883348e-14
    48   -3.335192458001e-02
    49    1.716182302196e-14
    50   -3.061700118579e-14
    51    3.780719400917e-14
    52   -4.898701728116e-02
    53   -9.599467765037e-13
    54    6.688331297813e-13
    55    3.894982188624e-13
    56   -1.388211012538e-01
    57   -1.001266188509e-11
    58   -2.550513642276e-13
    59    5.070216739020e-12
    60   -5.499989339273e-01
    61    1.668162951920e-15
    62   -7.086289674429e-03
    63    2.069103991735e-03
    64    1.759991864095e-15
    65    1.734242425585e-17
    66   -1.754200846198e-15
    67   -1.574783425195e-15
    68    4.622993781080e-15
    69    1.938191065314e-15
    70    2.517046661419e-02
    71    7.330706495581e-15
    72   -8.618604283927e-15
    73   -1.922681481366e-15
    74    4.052842243254e-02
    75    6.262214759952e-14
    76    8.824923728310e-14
    77    9.846722166508e-15
    78    3.968772352086e-02
    79    1.375544389541e-12
    80    1.447468703601e-13
    81   -1.097898850733e-12
    82    1.752879325143e-01
    83    4.700753307584e-16
    84   -5.839515680455e-04
    85    1.176614622839e-03
    86    1.437687608445e-15
    87    3.729713173506e-15
    88    1.725888775090e-16
    89    4.261635934583e-15
    90    2.444457494560e-14
    91    1.600929821632e-14
    92   -4.411828756490e-02
    93   -1.196119442786e-14
    94    8.380502897842e-15
    95   -1.020360017499e-14
    96   -5.460120311858e-02
    97    8.877015519951e-14
    98    1.826540713770e-13
    99    8.893279611382e-13
   100   -2.228572233362e-01
   101    2.894058931582e-11
   102   -4.537215700151e-12
   103   -2.966053688361e-12
   104    1.743871398305e+00
   105   -1.225414141595e-15
   106   -6.135445034512e-03
   107   -2.541080377317e-03
   108    5.739615275490e-15
   109   -1.486810341845e-14
   110    2.451326736075e-15
   111    5.761592981420e-15
   112   -5.660825980894e-15
   113    6.481615426826e-15
   114   -2.988020305771e-02
   115   -1.846142040051e-14
   116   -1.557112007106e-14
   117    2.226416040341e-14
   118   -4.702251318109e-02
   119   -6.129207469776e-14
   120    2.433896593923e-14
   121   -1.565792703808e-14
   122   -8.341085613581e-03
   123   -8.884245293349e-13
   124    3.096597686457e-13
   125    4.108368790521e-13
   126   -9.320202076135e-02
   127   -3.583387652650e-15
   128    4.174864569915e-03
   129    4.603623658548e-03
   130   -1.093646517253e-15
   131    4.722773334228e-15
   132   -8.709002762655e-15
   133   -1.361320411546e-14
   134    2.515181753178e-14
   135   -1.164049055671e-14
   136    6.907123579925e-04
   137    2.511536101703e-14
   138    1.787939827007e-14
   139   -1.199492193305e-14
   140   -1.494386235622e-03
   141    2.289903882690e-13
   142    1.692338997755e-13
   143   -4.751649796555e-14
   144    2.303866946673e-02
   145   -9.674314857649e-12
   146   -1.298978595509e-12
   147   -7.174999683090e-13
   148    3.706344918558e-02
   149   -1.178865303893e-14
   150    3.044435337120e-03
   151    7.111701203350e-03
   152    5.526809099914e-16
   153    7.937530620186e-16
   154    2.976077915679e-15
   155    5.034764725671e-15
   156   -6.613083266040e-15
   157    1.353883874633e-14
   158    2.637669179120e-02
   159    1.401227143080e-15
   160   -1.978280656428e-14
   161    1.489828387035e-14
   162    4.874788420818e-02
   163   -3.003224641713e-13
   164   -8.992048813238e-14
   165    1.761514665585e-13
   166    2.366316649196e-02
   167    4.424874780967e-12
   168    1.578374026600e-12
   169    1.711101251838e-12
   170    3.928987587753e-01
   171    7.681425301751e-15
   172    6.613183377526e-03
   173   -4.536603983633e-03
   174    5.166453423760e-15
   175    2.527444846424e-15
   176   -2.626641514714e-15
   177    2.544873521198e-15
   178    4.803416995708e-14
   179    1.368682459022e-14
   180    2.163957800110e-02
   181   -6.525082272453e-14
   182   -2.852689069131e-14
   183    2.249299006944e-14
   184    2.822270494105e-02
   185    1.142290433219e-12
   186    6.766825417879e-13
   187    5.254716839058e-13
   188    8.722680318776e-02
   189   -3.406919394506e-11
   190    9.989065668632e-12
   191   -7.678760718258e-12
   192   -7.620581535836e-01
   193   -2.265847566848e-14
   194   -9.050072088659e-03
   195    2.331376449230e-04
   196    1.336538993038e-14
   197    2.341632712844e-14
   198   -2.186642250121e-14
   199   -1.692590205322e-14
   200   -1.537113595129e-12
   201   -5.189359559711e-12
   202    3.471458136629e-15
   203   -6.964460851937e-15
   204   -3.434852669539e-03
[5D]
