[Molden Format]
[Atoms] (Angs)
  C      1    6     -0.00754183     -1.75895763      0.00000000
  H      2    1     -2.09769850     -1.41880678     -0.00000000
  H      3    1     -0.13527422     -2.83956838     -0.00000000
  H      4    1      0.04053511      2.02026369      0.00000000
  C      5    6     -1.22066484      0.39918184     -0.00000000
  O      6    8     -2.25210141      1.05663720     -0.00000000
  C      7    6      1.24009552      0.27789184      0.00000000
  O      8    8      2.33767996      1.06122493      0.00000000
  N      9    7      0.03634586      1.00852936      0.00000000
  N     10    7     -1.18738304     -0.97903470     -0.00000000
  C     11    6      1.22288875     -1.12258096      0.00000000
  H     12    1      2.15640383     -1.68445878      0.00000000
[GTO]
1    0
S    6    1.000000
   4.56324000E+03    1.96665000E-03 
   6.82024000E+02    1.52306000E-02 
   1.54973000E+02    7.61269000E-02 
   4.44553000E+01    2.60801000E-01 
   1.30290000E+01    6.16462000E-01 
   1.82773000E+00    2.21006000E-01 
SP   3    1.000000
   2.09642000E+01    1.14660000E-01   4.02487000E-02 
   4.80331000E+00    9.19999000E-01   2.37594000E-01 
   1.45933000E+00   -3.03068000E-03   8.15854000E-01 
SP   1    1.000000
   4.83456000E-01    1.00000000E+00   1.00000000E+00 
SP   1    1.000000
   1.45585000E-01    1.00000000E+00   1.00000000E+00 
SP   1    1.000000
   4.38000000E-02    1.00000000E+00   1.00000000E+00 
D    1    1.000000
   6.26000000E-01    1.00000000E+00 

2    0
S    3    1.000000
   3.38650000E+01    2.54938000E-02 
   5.09479000E+00    1.90373000E-01 
   1.15879000E+00    8.52161000E-01 
S    1    1.000000
   3.25840000E-01    1.00000000E+00 
S    1    1.000000
   1.02741000E-01    1.00000000E+00 
S    1    1.000000
   3.60000000E-02    1.00000000E+00 
P    1    1.000000
   7.50000000E-01    1.00000000E+00 

3    0
S    3    1.000000
   3.38650000E+01    2.54938000E-02 
   5.09479000E+00    1.90373000E-01 
   1.15879000E+00    8.52161000E-01 
S    1    1.000000
   3.25840000E-01    1.00000000E+00 
S    1    1.000000
   1.02741000E-01    1.00000000E+00 
S    1    1.000000
   3.60000000E-02    1.00000000E+00 
P    1    1.000000
   7.50000000E-01    1.00000000E+00 

4    0
S    3    1.000000
   3.38650000E+01    2.54938000E-02 
   5.09479000E+00    1.90373000E-01 
   1.15879000E+00    8.52161000E-01 
S    1    1.000000
   3.25840000E-01    1.00000000E+00 
S    1    1.000000
   1.02741000E-01    1.00000000E+00 
S    1    1.000000
   3.60000000E-02    1.00000000E+00 
P    1    1.000000
   7.50000000E-01    1.00000000E+00 

5    0
S    6    1.000000
   4.56324000E+03    1.96665000E-03 
   6.82024000E+02    1.52306000E-02 
   1.54973000E+02    7.61269000E-02 
   4.44553000E+01    2.60801000E-01 
   1.30290000E+01    6.16462000E-01 
   1.82773000E+00    2.21006000E-01 
SP   3    1.000000
   2.09642000E+01    1.14660000E-01   4.02487000E-02 
   4.80331000E+00    9.19999000E-01   2.37594000E-01 
   1.45933000E+00   -3.03068000E-03   8.15854000E-01 
SP   1    1.000000
   4.83456000E-01    1.00000000E+00   1.00000000E+00 
SP   1    1.000000
   1.45585000E-01    1.00000000E+00   1.00000000E+00 
SP   1    1.000000
   4.38000000E-02    1.00000000E+00   1.00000000E+00 
D    1    1.000000
   6.26000000E-01    1.00000000E+00 

6    0
S    6    1.000000
   8.58850000E+03    1.89515000E-03 
   1.29723000E+03    1.43859000E-02 
   2.99296000E+02    7.07320000E-02 
   8.73771000E+01    2.40001000E-01 
   2.56789000E+01    5.94797000E-01 
   3.74004000E+00    2.80802000E-01 
SP   3    1.000000
   4.21175000E+01    1.13889000E-01   3.65114000E-02 
   9.62837000E+00    9.20811000E-01   2.37153000E-01 
   2.85332000E+00   -3.27447000E-03   8.19702000E-01 
SP   1    1.000000
   9.05661000E-01    1.00000000E+00   1.00000000E+00 
SP   1    1.000000
   2.55611000E-01    1.00000000E+00   1.00000000E+00 
SP   1    1.000000
   8.45000000E-02    1.00000000E+00   1.00000000E+00 
D    1    1.000000
   1.29200000E+00    1.00000000E+00 

7    0
S    6    1.000000
   4.56324000E+03    1.96665000E-03 
   6.82024000E+02    1.52306000E-02 
   1.54973000E+02    7.61269000E-02 
   4.44553000E+01    2.60801000E-01 
   1.30290000E+01    6.16462000E-01 
   1.82773000E+00    2.21006000E-01 
SP   3    1.000000
   2.09642000E+01    1.14660000E-01   4.02487000E-02 
   4.80331000E+00    9.19999000E-01   2.37594000E-01 
   1.45933000E+00   -3.03068000E-03   8.15854000E-01 
SP   1    1.000000
   4.83456000E-01    1.00000000E+00   1.00000000E+00 
SP   1    1.000000
   1.45585000E-01    1.00000000E+00   1.00000000E+00 
SP   1    1.000000
   4.38000000E-02    1.00000000E+00   1.00000000E+00 
D    1    1.000000
   6.26000000E-01    1.00000000E+00 

8    0
S    6    1.000000
   8.58850000E+03    1.89515000E-03 
   1.29723000E+03    1.43859000E-02 
   2.99296000E+02    7.07320000E-02 
   8.73771000E+01    2.40001000E-01 
   2.56789000E+01    5.94797000E-01 
   3.74004000E+00    2.80802000E-01 
SP   3    1.000000
   4.21175000E+01    1.13889000E-01   3.65114000E-02 
   9.62837000E+00    9.20811000E-01   2.37153000E-01 
   2.85332000E+00   -3.27447000E-03   8.19702000E-01 
SP   1    1.000000
   9.05661000E-01    1.00000000E+00   1.00000000E+00 
SP   1    1.000000
   2.55611000E-01    1.00000000E+00   1.00000000E+00 
SP   1    1.000000
   8.45000000E-02    1.00000000E+00   1.00000000E+00 
D    1    1.000000
   1.29200000E+00    1.00000000E+00 

9    0
S    6    1.000000
   6.29348000E+03    1.96979000E-03 
   9.49044000E+02    1.49613000E-02 
   2.18776000E+02    7.35006000E-02 
   6.36916000E+01    2.48937000E-01 
   1.88282000E+01    6.02460000E-01 
   2.72023000E+00    2.56202000E-01 
SP   3    1.000000
   3.06331000E+01    1.11906000E-01   3.83119000E-02 
   7.02614000E+00    9.21666000E-01   2.37403000E-01 
   2.11205000E+00   -2.56919000E-03   8.17592000E-01 
SP   1    1.000000
   6.84009000E-01    1.00000000E+00   1.00000000E+00 
SP   1    1.000000
   2.00878000E-01    1.00000000E+00   1.00000000E+00 
SP   1    1.000000
   6.39000000E-02    1.00000000E+00   1.00000000E+00 
D    1    1.000000
   9.13000000E-01    1.00000000E+00 

10    0
S    6    1.000000
   6.29348000E+03    1.96979000E-03 
   9.49044000E+02    1.49613000E-02 
   2.18776000E+02    7.35006000E-02 
   6.36916000E+01    2.48937000E-01 
   1.88282000E+01    6.02460000E-01 
   2.72023000E+00    2.56202000E-01 
SP   3    1.000000
   3.06331000E+01    1.11906000E-01   3.83119000E-02 
   7.02614000E+00    9.21666000E-01   2.37403000E-01 
   2.11205000E+00   -2.56919000E-03   8.17592000E-01 
SP   1    1.000000
   6.84009000E-01    1.00000000E+00   1.00000000E+00 
SP   1    1.000000
   2.00878000E-01    1.00000000E+00   1.00000000E+00 
SP   1    1.000000
   6.39000000E-02    1.00000000E+00   1.00000000E+00 
D    1    1.000000
   9.13000000E-01    1.00000000E+00 

11    0
S    6    1.000000
   4.56324000E+03    1.96665000E-03 
   6.82024000E+02    1.52306000E-02 
   1.54973000E+02    7.61269000E-02 
   4.44553000E+01    2.60801000E-01 
   1.30290000E+01    6.16462000E-01 
   1.82773000E+00    2.21006000E-01 
SP   3    1.000000
   2.09642000E+01    1.14660000E-01   4.02487000E-02 
   4.80331000E+00    9.19999000E-01   2.37594000E-01 
   1.45933000E+00   -3.03068000E-03   8.15854000E-01 
SP   1    1.000000
   4.83456000E-01    1.00000000E+00   1.00000000E+00 
SP   1    1.000000
   1.45585000E-01    1.00000000E+00   1.00000000E+00 
SP   1    1.000000
   4.38000000E-02    1.00000000E+00   1.00000000E+00 
D    1    1.000000
   6.26000000E-01    1.00000000E+00 

12    0
S    3    1.000000
   3.38650000E+01    2.54938000E-02 
   5.09479000E+00    1.90373000E-01 
   1.15879000E+00    8.52161000E-01 
S    1    1.000000
   3.25840000E-01    1.00000000E+00 
S    1    1.000000
   1.02741000E-01    1.00000000E+00 
S    1    1.000000
   3.60000000E-02    1.00000000E+00 
P    1    1.000000
   7.50000000E-01    1.00000000E+00 

[MO]
Sym=X
Ene= -0.495068
Spin=Alpha
Occup=1
     1    6.535937814096e-03
     2    1.112442860960e-02
     3    3.978204546586e-03
     4    2.286108173970e-02
     5   -1.134991139112e-15
     6   -2.786554266282e-02
     7    4.960442055778e-03
     8    3.601706480169e-02
     9    2.142800892465e-14
    10   -2.243460091176e-01
    11   -4.191135166054e-02
    12   -1.274203104543e-02
    13    3.267282356628e-14
    14   -2.917539454047e+00
    15    1.210522026300e-01
    16   -2.771116816440e-01
    17    4.828004754504e-14
    18   -1.493056412253e-03
    19   -2.200806336702e-15
    20    6.108718138213e-15
    21   -1.277905177431e-02
    22   -5.510612149166e-04
    23    1.343770458938e-02
    24    7.394067607853e-02
    25    4.643356755176e-01
    26    1.596673652581e+00
    27   -8.677943406010e-03
    28   -5.631290969653e-03
    29    2.738340246865e-15
    30    4.906010799094e-03
    31   -3.766661397170e-03
    32    1.793220823442e-01
    33    7.197160481644e-01
    34   -3.223158525837e-03
    35   -7.642117595675e-03
    36    1.617641632873e-16
    37    5.423030075321e-03
    38    1.310000328165e-02
    39   -4.288814837031e-01
    40   -1.238392184649e+00
    41    5.781096421420e-03
    42   -1.218479398779e-02
    43    5.069317003092e-15
    44    3.599392585391e-03
    45    5.902797807466e-03
    46    1.501193357407e-02
    47   -8.577388481901e-03
    48    6.995783779848e-15
    49    3.079145464450e-03
    50    3.167665827529e-02
    51   -1.177715309632e-02
    52   -3.957322318265e-14
    53   -3.021116392792e-01
    54    1.603141564135e-01
    55   -9.486096302607e-02
    56    1.251556261190e-13
    57   -1.008900963569e+00
    58    4.783682868538e-01
    59   -4.123130763065e-01
    60   -4.227601541209e-13
    61   -1.626052558536e-02
    62   -4.257907837174e-15
    63   -1.504142331505e-15
    64   -6.407552599850e-03
    65   -1.484564696532e-02
    66   -1.601707425977e-02
    67   -2.773641249298e-02
    68    3.500197742166e-02
    69    3.166460131997e-02
    70   -4.992530001980e-15
    71    9.536672495586e-02
    72    4.686433240825e-02
    73    4.376314498615e-02
    74    8.433096972713e-15
    75    2.085570401222e-01
    76    9.345849435618e-02
    77    4.411859997217e-03
    78   -6.136410837070e-14
    79    6.354569173528e-01
    80   -2.117917519401e-02
    81   -8.384205818634e-02
    82    2.192417823187e-13
    83   -2.222683994024e-03
    84   -8.982221103443e-16
    85   -1.719711529732e-16
    86    3.606773233676e-03
    87    1.294930397704e-03
    88    5.224788776155e-03
    89    9.282772477643e-03
    90    1.185704609130e-02
    91   -3.920802476616e-03
    92    1.370171966536e-14
    93   -3.224736451475e-02
    94    2.339481435287e-02
    95   -5.234512724332e-03
    96    1.525476388181e-15
    97   -3.243370711554e-02
    98    2.860937351049e-02
    99    3.533405788578e-02
   100    1.220943095351e-13
   101   -3.846254455136e+00
   102    5.706714532378e-02
   103    1.455239834713e+00
   104    8.926852376326e-13
   105   -7.038445654341e-03
   106   -8.244277040113e-16
   107    1.895725868627e-16
   108   -5.424227308443e-03
   109    2.504806816221e-04
   110   -2.269492051505e-03
   111   -3.948069736358e-03
   112   -6.296581722463e-03
   113    5.027043117744e-03
   114    5.686704743153e-15
   115    1.422656613351e-02
   116   -8.687077514442e-03
   117    6.444075382133e-03
   118   -7.473857176389e-15
   119    6.074795672433e-04
   120   -8.144051983203e-03
   121    1.671441698608e-02
   122    6.206766817700e-14
   123    2.494128076718e-02
   124    4.585754349547e-03
   125   -7.640088913358e-02
   126   -3.974935707579e-13
   127   -3.104743870201e-04
   128   -1.137619958266e-15
   129   -1.545026470330e-15
   130   -5.874633309967e-06
   131   -1.715555606229e-04
   132   -1.300075298132e-02
   133   -2.249877683066e-02
   134    6.908082318773e-04
   135    3.235562002037e-02
   136    1.413069761245e-15
   137    6.956902806857e-02
   138   -3.241848650995e-03
   139    4.986350057247e-02
   140   -9.383381494452e-16
   141    2.029545116900e-01
   142   -1.194205033906e-02
   143    7.428385721014e-02
   144    1.190345239285e-14
   145    4.724839020554e-01
   146   -7.861001566199e-02
   147    6.730711985458e-01
   148   -3.409040084294e-13
   149   -3.939137189932e-03
   150    3.042507181747e-16
   151    2.856684012459e-16
   152   -3.375811560732e-04
   153    4.827417086058e-03
   154    6.854522792151e-03
   155    1.169216042546e-02
   156    3.557936609089e-02
   157    3.642753217482e-02
   158   -3.842408972008e-15
   159   -3.136651380671e-02
   160    5.705640800868e-02
   161    5.463465932725e-02
   162    2.953111897298e-15
   163   -1.608778841653e-01
   164    1.212767522978e-01
   165    1.230435468360e-01
   166   -5.287629123139e-14
   167    2.971902296787e-01
   168    4.932305971591e-01
   169    2.230287749944e-01
   170    1.226955432203e-13
   171   -2.606687597821e-03
   172   -1.251978409587e-15
   173    1.379230181503e-15
   174    3.600813252758e-03
   175    7.373533126783e-03
   176   -2.144704844216e-03
   177   -3.572210391647e-03
   178   -6.540676792066e-05
   179    1.114160481018e-02
   180   -7.885670139286e-15
   181    5.775603092041e-03
   182   -1.675511733010e-03
   183    1.087394389594e-02
   184   -8.041386493585e-15
   185    1.463184045618e-01
   186   -8.389345464384e-02
   187    6.372937601788e-02
   188   -9.790722380406e-14
   189    5.192488562820e+00
   190   -5.125691594685e-01
   191    1.172785474110e+00
   192   -3.416000552199e-13
   193   -2.032188258335e-03
   194   -2.425957617225e-15
   195    3.894260981607e-15
   196    4.751708750542e-03
   197    3.595743423852e-04
   198    1.141152896698e-03
   199    1.465270440849e-02
   200    5.244017232402e-02
   201    1.964266020066e-01
   202    5.202651657836e-04
   203    7.685785961445e-04
   204   -1.649669124219e-15
Sym=X
Ene= 0.495068
Spin=Alpha
Occup=0
     1    6.677813129284e-15
     2    1.148847719256e-14
     3    1.140622573021e-14
     4   -3.038733508220e-14
     5   -6.933625819884e-02
     6   -4.834074947891e-14
     7    5.624403810127e-14
     8   -5.446989277912e-14
     9   -6.975997507712e-02
    10   -7.076210478371e-14
    11    1.842367468381e-13
    12   -7.474284762302e-14
    13   -3.555046384200e-01
    14    6.291391760410e-12
    15   -4.901716656049e-12
    16    4.564641613457e-12
    17    1.706427501927e+00
    18   -2.054818668158e-15
    19   -3.343045778905e-03
    20   -1.652898127331e-02
    21    1.352724705372e-14
    22   -7.379311630073e-15
    23    1.403130091299e-15
    24   -5.113773216157e-14
    25    2.268604864374e-12
    26   -6.448741084937e-14
    27   -4.288973706884e-15
    28   -1.057255720484e-14
    29    4.631956009982e-03
    30   -1.615784739938e-14
    31   -2.348760163619e-15
    32   -3.028370053741e-13
    33    6.061391865677e-13
    34    1.222320972050e-14
    35    6.391767734128e-15
    36    8.715685957467e-03
    37    2.684005231106e-14
    38    4.194157225938e-14
    39   -2.059171854510e-13
    40    4.558443548057e-13
    41   -8.181351785411e-15
    42   -3.332317965685e-15
    43   -7.921379495385e-03
    44    1.065423003159e-15
    45   -2.148098962025e-15
    46    2.767348164545e-15
    47    1.992458828482e-15
    48    2.719565192675e-02
    49    3.516644494506e-14
    50    4.473874423165e-14
    51   -3.667716643517e-15
    52    3.436185039284e-02
    53   -4.483815411894e-13
    54    4.384595624389e-14
    55   -1.619832458232e-13
    56    1.232619518294e-01
    57   -8.233768109038e-12
    58   -2.204341573137e-12
    59    1.734773554939e-12
    60   -9.164424400374e-01
    61   -3.651801144433e-15
    62   -7.033685941701e-03
    63   -3.343336081189e-04
    64   -4.160072185707e-15
    65   -1.578905408707e-15
    66    1.032852302497e-15
    67    1.212260157129e-15
    68    2.281447341131e-15
    69   -4.009381740891e-15
    70    2.885637752026e-02
    71   -8.984541691976e-15
    72   -5.108626600060e-15
    73   -3.919432562706e-14
    74    4.029395255141e-02
    75    5.357257183689e-14
    76    1.029682212954e-13
    77    7.997938812346e-14
    78    3.548363887978e-02
    79    3.474416292429e-13
    80   -3.243320253772e-13
    81   -1.057862706060e-12
    82   -7.478075571384e-02
    83   -7.942861586350e-16
    84    3.959214102355e-03
    85   -4.673522018477e-03
    86    4.398109950711e-15
    87    2.059169983843e-15
    88   -1.675347981226e-14
    89   -2.731026425916e-14
    90   -1.547957037319e-14
    91    1.266567996464e-14
    92    3.280772562952e-02
    93    3.491764965594e-14
    94   -5.430042890266e-14
    95    9.734997012086e-15
    96    5.145057676096e-02
    97    1.376062494269e-12
    98    6.519096108014e-14
    99    1.723587592465e-13
   100    1.270656301089e-01
   101    3.402732257608e-11
   102   -5.277038195281e-13
   103   -8.832970552667e-12
   104    3.207867617368e-01
   105   -5.034352977793e-15
   106   -5.252026705395e-03
   107    1.475206521236e-03
   108   -1.467287565704e-15
   109    5.888948743714e-15
   110    1.762136660381e-15
   111    2.728318561307e-15
   112   -5.220961524041e-15
   113    2.104675492305e-14
   114   -1.912876745202e-02
   115   -8.842605583387e-15
   116    9.974006230833e-15
   117    1.547272299956e-14
   118   -2.795083048965e-02
   119   -4.434204624128e-14
   120    2.338155365173e-14
   121    7.334365907871e-14
   122   -4.068673756155e-02
   123   -9.931791445080e-13
   124    3.905940906021e-13
   125    6.251390800568e-13
   126   -6.291190962334e-02
   127   -1.370043270289e-15
   128   -6.658620532684e-04
   129   -1.090233305647e-03
   130    5.639644471333e-15
   131    1.757577766709e-15
   132    1.347239288812e-14
   133    1.420507276418e-14
   134   -9.785342542049e-15
   135    7.911836271467e-15
   136    2.570434024175e-03
   137   -1.367368275720e-14
   138   -1.573203219686e-14
   139    7.146232228421e-15
   140    2.663695749593e-03
   141   -4.699406260056e-13
   142   -1.384282327494e-13
   143    7.374184662280e-14
   144    8.750715879240e-03
   145    1.122191144980e-12
   146   -1.742705532886e-12
   147    1.153524485470e-12
   148   -1.869107042262e-01
   149   -2.713806373400e-15
   150    3.528382290227e-03
   151   -6.959167290427e-03
   152   -3.203163299716e-15
   153   -6.871371942252e-15
   154   -8.398501923443e-15
   155   -1.419320095351e-14
   156    1.857360920390e-14
   157   -1.014571131280e-14
   158   -1.972425400719e-02
   159    4.490326479690e-14
   160    3.915331621768e-14
   161   -8.620805458175e-15
   162   -3.196139505451e-02
   163    6.756337484274e-14
   164    7.853104318622e-14
   165   -1.283434225534e-13
   166   -4.131738893940e-02
   167   -3.868859190656e-12
   168    2.601385924429e-12
   169    1.745929183563e-12
   170    1.457139241842e-01
   171    2.638698824156e-15
   172   -6.564575020615e-03
   173    7.115469834926e-04
   174    2.029474475392e-15
   175    6.432930887383e-15
   176    9.243100153905e-15
   177    1.140625570808e-14
   178   -2.330663653408e-16
   179   -1.007041942374e-14
   180   -4.241421773721e-02
   181   -2.508971602650e-14
   182    4.478548402251e-14
   183   -2.054564233018e-14
   184   -4.949498221127e-02
   185   -2.931080060166e-13
   186    1.898085471108e-13
   187   -1.790605264011e-13
   188   -1.611152768295e-01
   189   -2.663776822918e-11
   190    3.238122494860e-12
   191   -1.277377419162e-11
   192   -4.943635687598e-01
   193    2.650779720844e-14
   194    9.577142470425e-03
   195    2.649830694804e-03
   196   -1.149289255732e-14
   197   -2.187859916602e-15
   198   -1.549484109799e-14
   199   -3.166408840598e-14
   200   -7.862248363437e-13
   201   -4.149107153645e-12
   202    2.829769498260e-15
   203    3.175104362339e-15
   204    1.284648069750e-03
[5D]
