[Molden Format]
[Atoms] (Angs)
  C      1    6     -0.00754183     -1.75895763      0.00000000
  H      2    1     -2.09769850     -1.41880678     -0.00000000
  H      3    1     -0.13527422     -2.83956838     -0.00000000
  H      4    1      0.04053511      2.02026369      0.00000000
  C      5    6     -1.22066484      0.39918184     -0.00000000
  O      6    8     -2.25210141      1.05663720     -0.00000000
  C      7    6      1.24009552      0.27789184      0.00000000
  O      8    8      2.33767996      1.06122493      0.00000000
  N      9    7      0.03634586      1.00852936      0.00000000
  N     10    7     -1.18738304     -0.97903470     -0.00000000
  C     11    6      1.22288875     -1.12258096      0.00000000
  H     12    1      2.15640383     -1.68445878      0.00000000
[GTO]
1    0
S    6    1.000000
   4.56324000E+03    1.96665000E-03 
   6.82024000E+02    1.52306000E-02 
   1.54973000E+02    7.61269000E-02 
   4.44553000E+01    2.60801000E-01 
   1.30290000E+01    6.16462000E-01 
   1.82773000E+00    2.21006000E-01 
SP   3    1.000000
   2.09642000E+01    1.14660000E-01   4.02487000E-02 
   4.80331000E+00    9.19999000E-01   2.37594000E-01 
   1.45933000E+00   -3.03068000E-03   8.15854000E-01 
SP   1    1.000000
   4.83456000E-01    1.00000000E+00   1.00000000E+00 
SP   1    1.000000
   1.45585000E-01    1.00000000E+00   1.00000000E+00 
SP   1    1.000000
   4.38000000E-02    1.00000000E+00   1.00000000E+00 
D    1    1.000000
   6.26000000E-01    1.00000000E+00 

2    0
S    3    1.000000
   3.38650000E+01    2.54938000E-02 
   5.09479000E+00    1.90373000E-01 
   1.15879000E+00    8.52161000E-01 
S    1    1.000000
   3.25840000E-01    1.00000000E+00 
S    1    1.000000
   1.02741000E-01    1.00000000E+00 
S    1    1.000000
   3.60000000E-02    1.00000000E+00 
P    1    1.000000
   7.50000000E-01    1.00000000E+00 

3    0
S    3    1.000000
   3.38650000E+01    2.54938000E-02 
   5.09479000E+00    1.90373000E-01 
   1.15879000E+00    8.52161000E-01 
S    1    1.000000
   3.25840000E-01    1.00000000E+00 
S    1    1.000000
   1.02741000E-01    1.00000000E+00 
S    1    1.000000
   3.60000000E-02    1.00000000E+00 
P    1    1.000000
   7.50000000E-01    1.00000000E+00 

4    0
S    3    1.000000
   3.38650000E+01    2.54938000E-02 
   5.09479000E+00    1.90373000E-01 
   1.15879000E+00    8.52161000E-01 
S    1    1.000000
   3.25840000E-01    1.00000000E+00 
S    1    1.000000
   1.02741000E-01    1.00000000E+00 
S    1    1.000000
   3.60000000E-02    1.00000000E+00 
P    1    1.000000
   7.50000000E-01    1.00000000E+00 

5    0
S    6    1.000000
   4.56324000E+03    1.96665000E-03 
   6.82024000E+02    1.52306000E-02 
   1.54973000E+02    7.61269000E-02 
   4.44553000E+01    2.60801000E-01 
   1.30290000E+01    6.16462000E-01 
   1.82773000E+00    2.21006000E-01 
SP   3    1.000000
   2.09642000E+01    1.14660000E-01   4.02487000E-02 
   4.80331000E+00    9.19999000E-01   2.37594000E-01 
   1.45933000E+00   -3.03068000E-03   8.15854000E-01 
SP   1    1.000000
   4.83456000E-01    1.00000000E+00   1.00000000E+00 
SP   1    1.000000
   1.45585000E-01    1.00000000E+00   1.00000000E+00 
SP   1    1.000000
   4.38000000E-02    1.00000000E+00   1.00000000E+00 
D    1    1.000000
   6.26000000E-01    1.00000000E+00 

6    0
S    6    1.000000
   8.58850000E+03    1.89515000E-03 
   1.29723000E+03    1.43859000E-02 
   2.99296000E+02    7.07320000E-02 
   8.73771000E+01    2.40001000E-01 
   2.56789000E+01    5.94797000E-01 
   3.74004000E+00    2.80802000E-01 
SP   3    1.000000
   4.21175000E+01    1.13889000E-01   3.65114000E-02 
   9.62837000E+00    9.20811000E-01   2.37153000E-01 
   2.85332000E+00   -3.27447000E-03   8.19702000E-01 
SP   1    1.000000
   9.05661000E-01    1.00000000E+00   1.00000000E+00 
SP   1    1.000000
   2.55611000E-01    1.00000000E+00   1.00000000E+00 
SP   1    1.000000
   8.45000000E-02    1.00000000E+00   1.00000000E+00 
D    1    1.000000
   1.29200000E+00    1.00000000E+00 

7    0
S    6    1.000000
   4.56324000E+03    1.96665000E-03 
   6.82024000E+02    1.52306000E-02 
   1.54973000E+02    7.61269000E-02 
   4.44553000E+01    2.60801000E-01 
   1.30290000E+01    6.16462000E-01 
   1.82773000E+00    2.21006000E-01 
SP   3    1.000000
   2.09642000E+01    1.14660000E-01   4.02487000E-02 
   4.80331000E+00    9.19999000E-01   2.37594000E-01 
   1.45933000E+00   -3.03068000E-03   8.15854000E-01 
SP   1    1.000000
   4.83456000E-01    1.00000000E+00   1.00000000E+00 
SP   1    1.000000
   1.45585000E-01    1.00000000E+00   1.00000000E+00 
SP   1    1.000000
   4.38000000E-02    1.00000000E+00   1.00000000E+00 
D    1    1.000000
   6.26000000E-01    1.00000000E+00 

8    0
S    6    1.000000
   8.58850000E+03    1.89515000E-03 
   1.29723000E+03    1.43859000E-02 
   2.99296000E+02    7.07320000E-02 
   8.73771000E+01    2.40001000E-01 
   2.56789000E+01    5.94797000E-01 
   3.74004000E+00    2.80802000E-01 
SP   3    1.000000
   4.21175000E+01    1.13889000E-01   3.65114000E-02 
   9.62837000E+00    9.20811000E-01   2.37153000E-01 
   2.85332000E+00   -3.27447000E-03   8.19702000E-01 
SP   1    1.000000
   9.05661000E-01    1.00000000E+00   1.00000000E+00 
SP   1    1.000000
   2.55611000E-01    1.00000000E+00   1.00000000E+00 
SP   1    1.000000
   8.45000000E-02    1.00000000E+00   1.00000000E+00 
D    1    1.000000
   1.29200000E+00    1.00000000E+00 

9    0
S    6    1.000000
   6.29348000E+03    1.96979000E-03 
   9.49044000E+02    1.49613000E-02 
   2.18776000E+02    7.35006000E-02 
   6.36916000E+01    2.48937000E-01 
   1.88282000E+01    6.02460000E-01 
   2.72023000E+00    2.56202000E-01 
SP   3    1.000000
   3.06331000E+01    1.11906000E-01   3.83119000E-02 
   7.02614000E+00    9.21666000E-01   2.37403000E-01 
   2.11205000E+00   -2.56919000E-03   8.17592000E-01 
SP   1    1.000000
   6.84009000E-01    1.00000000E+00   1.00000000E+00 
SP   1    1.000000
   2.00878000E-01    1.00000000E+00   1.00000000E+00 
SP   1    1.000000
   6.39000000E-02    1.00000000E+00   1.00000000E+00 
D    1    1.000000
   9.13000000E-01    1.00000000E+00 

10    0
S    6    1.000000
   6.29348000E+03    1.96979000E-03 
   9.49044000E+02    1.49613000E-02 
   2.18776000E+02    7.35006000E-02 
   6.36916000E+01    2.48937000E-01 
   1.88282000E+01    6.02460000E-01 
   2.72023000E+00    2.56202000E-01 
SP   3    1.000000
   3.06331000E+01    1.11906000E-01   3.83119000E-02 
   7.02614000E+00    9.21666000E-01   2.37403000E-01 
   2.11205000E+00   -2.56919000E-03   8.17592000E-01 
SP   1    1.000000
   6.84009000E-01    1.00000000E+00   1.00000000E+00 
SP   1    1.000000
   2.00878000E-01    1.00000000E+00   1.00000000E+00 
SP   1    1.000000
   6.39000000E-02    1.00000000E+00   1.00000000E+00 
D    1    1.000000
   9.13000000E-01    1.00000000E+00 

11    0
S    6    1.000000
   4.56324000E+03    1.96665000E-03 
   6.82024000E+02    1.52306000E-02 
   1.54973000E+02    7.61269000E-02 
   4.44553000E+01    2.60801000E-01 
   1.30290000E+01    6.16462000E-01 
   1.82773000E+00    2.21006000E-01 
SP   3    1.000000
   2.09642000E+01    1.14660000E-01   4.02487000E-02 
   4.80331000E+00    9.19999000E-01   2.37594000E-01 
   1.45933000E+00   -3.03068000E-03   8.15854000E-01 
SP   1    1.000000
   4.83456000E-01    1.00000000E+00   1.00000000E+00 
SP   1    1.000000
   1.45585000E-01    1.00000000E+00   1.00000000E+00 
SP   1    1.000000
   4.38000000E-02    1.00000000E+00   1.00000000E+00 
D    1    1.000000
   6.26000000E-01    1.00000000E+00 

12    0
S    3    1.000000
   3.38650000E+01    2.54938000E-02 
   5.09479000E+00    1.90373000E-01 
   1.15879000E+00    8.52161000E-01 
S    1    1.000000
   3.25840000E-01    1.00000000E+00 
S    1    1.000000
   1.02741000E-01    1.00000000E+00 
S    1    1.000000
   3.60000000E-02    1.00000000E+00 
P    1    1.000000
   7.50000000E-01    1.00000000E+00 

[MO]
Sym=X
Ene= -0.494594
Spin=Alpha
Occup=1
     1    2.752307353788e-04
     2    3.570577082761e-05
     3    8.645312818791e-03
     4    2.823618166655e-03
     5    1.229884354557e-14
     6    1.578402189124e-02
     7    1.233452491606e-02
     8   -5.868255333311e-03
     9    1.043587300645e-15
    10   -3.582444620163e-01
    11   -2.747537021110e-02
    12   -2.006628835207e-01
    13    8.090330408381e-14
    14    9.834784212583e-01
    15    2.296521355711e-01
    16   -3.382329749636e-02
    17   -3.969333463857e-13
    18   -1.457034345061e-02
    19   -4.624118340185e-15
    20   -7.310960265365e-16
    21   -8.213742171101e-03
    22   -5.539116888745e-04
    23    2.031538558520e-02
    24    1.387573261075e-01
    25    3.730084327140e-01
    26    1.515530145493e+00
    27    4.265206988825e-03
    28   -1.932294755580e-03
    29   -3.775955722104e-16
    30    1.583354180729e-02
    31   -5.653089763660e-05
    32    1.038078419386e-01
    33   -3.654392668223e-01
    34   -1.321285653626e-05
    35   -4.809703158663e-03
    36    8.337569815593e-16
    37    2.034442607744e-02
    38    1.389667327956e-01
    39    5.058107527936e-01
    40    1.855136464177e+00
    41   -1.963897312386e-03
    42    3.731973722991e-03
    43    5.556604011777e-15
    44    3.395433674032e-03
    45    4.763003495284e-03
    46    1.928192348653e-02
    47   -1.265551748002e-02
    48   -4.500779987416e-14
    49    4.100249075684e-02
    50    4.055331960515e-02
    51   -3.279261385114e-02
    52   -7.376757273105e-14
    53   -8.129917584486e-01
    54   -1.432818371686e-01
    55    1.252365146148e-01
    56   -1.510341102771e-13
    57   -6.533260053025e+00
    58   -1.345806233608e+00
    59    1.471130604815e+00
    60    3.255899589651e-13
    61   -3.037736772136e-02
    62   -2.948675578057e-15
    63   -4.466590167101e-15
    64    1.163299228504e-02
    65   -1.905511045291e-02
    66   -6.331201038960e-03
    67   -1.095428072966e-02
    68    3.855163867726e-02
    69   -4.906357398335e-02
    70    1.896922733675e-14
    71    3.632026963377e-02
    72    5.121653129768e-02
    73   -6.726740962962e-02
    74    2.351446316183e-14
    75    9.093932707990e-02
    76    7.602215099175e-02
    77   -7.570247606881e-02
    78    4.280087694991e-14
    79    2.129742808498e-01
    80    4.200525632729e-02
    81   -4.996780855061e-02
    82    5.975128256245e-14
    83   -5.104434352025e-03
    84   -2.340367622791e-15
    85    3.248224653803e-15
    86   -1.963009094420e-03
    87    4.070471033770e-04
    88   -2.339470849810e-03
    89   -4.476126597886e-03
    90   -5.443601611491e-03
    91   -6.003371000498e-03
    92    2.139894375419e-14
    93    3.120980505405e-02
    94   -1.082724228615e-02
    95   -9.384847167465e-03
    96    5.347979492994e-14
    97   -3.147302584435e-01
    98    1.632574834105e-01
    99    7.757387652179e-02
   100    5.857526551396e-14
   101    4.441691097454e+00
   102   -3.540465551998e-01
   103   -1.994377242259e+00
   104   -8.302406903801e-13
   105   -1.041683191837e-02
   106   -1.145557493214e-15
   107   -2.192623205559e-15
   108    9.190894637807e-03
   109    7.900437353546e-03
   110   -2.652008571741e-03
   111   -4.593635699000e-03
   112   -8.406701295898e-03
   113   -1.323061674360e-02
   114   -1.653369682987e-14
   115    1.687966564638e-02
   116   -7.617779658230e-03
   117   -1.631100316162e-02
   118   -2.324144511517e-14
   119   -1.931637216483e-02
   120   -2.952397126410e-02
   121   -3.386231931905e-02
   122   -3.585956094615e-14
   123    1.574560251734e-01
   124    2.683007123396e-02
   125    1.196372708371e-01
   126    1.047387843935e-13
   127   -1.075702641980e-03
   128    9.338242739768e-16
   129   -1.075981394949e-15
   130   -7.140696585111e-04
   131    3.602934674262e-04
   132    1.719321619028e-03
   133    3.129758936641e-03
   134   -8.382240792493e-03
   135   -4.287793467665e-02
   136    8.135989537119e-15
   137   -1.146086763092e-02
   138   -1.081354273557e-02
   139   -6.357899218235e-02
   140    3.767903380966e-15
   141    7.013941610824e-02
   142   -6.973904130150e-02
   143   -3.132630178117e-01
   144    1.227832607596e-14
   145    1.644539830757e+00
   146   -2.217540022001e-01
   147   -7.343518712552e-01
   148    1.959208343110e-13
   149   -1.115399760116e-02
   150    6.568057701314e-15
   151    4.949812240340e-15
   152   -6.927370105104e-03
   153    1.630792088087e-03
   154   -4.959170265332e-03
   155   -8.581043349754e-03
   156    2.425877480606e-02
   157    1.810200994564e-02
   158    2.623943808859e-14
   159    2.853436768288e-02
   160    3.409889967455e-02
   161    2.645221234710e-02
   162    3.273258446650e-14
   163    1.595934047010e-01
   164    2.334847767033e-01
   165    1.927275092250e-01
   166    1.161105264835e-13
   167    2.486489432738e+00
   168    3.527973675207e-01
   169    5.413512654140e-01
   170   -3.083157853690e-13
   171   -1.209644598499e-02
   172    3.205064600056e-15
   173   -7.844161614031e-15
   174   -9.992409247761e-05
   175    7.269915454897e-03
   176   -3.604464846983e-03
   177   -6.057788030080e-03
   178    9.858148941733e-04
   179   -6.856632448772e-03
   180   -2.425474112533e-14
   181    9.769350616645e-03
   182   -2.176622840377e-04
   183   -5.669772103228e-03
   184   -1.567410786148e-14
   185    3.792943284733e-01
   186   -1.966322495490e-01
   187    6.049783492484e-02
   188   -1.881534983567e-13
   189   -5.120760387010e+00
   190    6.291128781171e-01
   191   -1.150138982369e+00
   192    1.012839452757e-12
   193   -1.427686036417e-02
   194    3.673075553716e-15
   195    7.429816169515e-15
   196   -4.395587198279e-04
   197   -1.401852147243e-03
   198    9.631142359040e-03
   199    3.882474915410e-02
   200    1.394027393133e-01
   201   -6.916836190845e-01
   202   -1.480798090382e-03
   203    4.905936238188e-04
   204   -1.882073113692e-15
Sym=X
Ene= 0.494594
Spin=Alpha
Occup=0
     1    6.893718735043e-15
     2    1.194512818965e-14
     3    1.133526556452e-14
     4   -3.041752457422e-14
     5   -6.988422089221e-02
     6   -5.236318538298e-14
     7    5.498847968905e-14
     8   -5.537245377447e-14
     9   -7.068097911172e-02
    10   -6.455917412428e-14
    11    1.841398410094e-13
    12   -7.271531722269e-14
    13   -3.561408325487e-01
    14    6.190304970217e-12
    15   -4.909036739792e-12
    16    4.540351439800e-12
    17    1.705875336961e+00
    18   -8.605791448265e-16
    19   -3.396784553285e-03
    20   -1.664332032062e-02
    21    1.345792808482e-14
    22   -7.360527215297e-15
    23    1.334973837650e-15
    24   -5.391584162010e-14
    25    2.268717948364e-12
    26   -6.086989444898e-14
    27   -4.448155239450e-15
    28   -1.084944202089e-14
    29    4.586527556921e-03
    30   -1.623806510884e-14
    31   -5.006568167904e-15
    32   -3.014021215553e-13
    33    6.011119998567e-13
    34    1.223313316427e-14
    35    5.982606924174e-15
    36    8.649605845542e-03
    37    2.674282336149e-14
    38    4.023716981515e-14
    39   -2.078079462477e-13
    40    4.569882339546e-13
    41   -8.121377053724e-15
    42   -3.043701905739e-15
    43   -7.949737722485e-03
    44    1.008180317048e-15
    45   -2.246048160789e-15
    46    2.624468722966e-15
    47    2.016109901240e-15
    48    2.694833975177e-02
    49    3.533820737120e-14
    50    4.412696450321e-14
    51   -3.930258882013e-15
    52    3.391638528503e-02
    53   -4.506880235651e-13
    54    4.228691271708e-14
    55   -1.565351141304e-13
    56    1.230567267389e-01
    57   -8.219054250117e-12
    58   -2.202881445911e-12
    59    1.732162654395e-12
    60   -9.164045077736e-01
    61   -2.981048528238e-15
    62   -7.046250584568e-03
    63   -3.215134164812e-04
    64   -4.101151238432e-15
    65   -1.946615910655e-15
    66    1.090490182738e-15
    67    1.286190872820e-15
    68    2.150481750618e-15
    69   -3.921349091147e-15
    70    2.858147881708e-02
    71   -9.053249161385e-15
    72   -5.042353733880e-15
    73   -3.916032638761e-14
    74    4.001562850202e-02
    75    5.148806343176e-14
    76    1.014172028163e-13
    77    8.016924180004e-14
    78    3.542561862130e-02
    79    3.434628608402e-13
    80   -3.243422574695e-13
    81   -1.056967436027e-12
    82   -7.477540091203e-02
    83   -7.938824969857e-16
    84    3.963839681995e-03
    85   -4.608773067446e-03
    86    4.363884091935e-15
    87    2.066391259215e-15
    88   -1.668646746742e-14
    89   -2.722997727650e-14
    90   -1.539424596789e-14
    91    1.278269940083e-14
    92    3.261626173923e-02
    93    3.549122043086e-14
    94   -5.423393699589e-14
    95    1.014103534828e-14
    96    5.112314808221e-02
    97    1.365451893329e-12
    98    7.168537307852e-14
    99    1.791688384793e-13
   100    1.269995840032e-01
   101    3.398193690968e-11
   102   -5.194237686282e-13
   103   -8.829209113168e-12
   104    3.206779251170e-01
   105   -4.584647825057e-15
   106   -5.201114578269e-03
   107    1.541726013825e-03
   108   -1.371165457036e-15
   109    5.912823112628e-15
   110    1.754716124962e-15
   111    2.706751254929e-15
   112   -5.159152620970e-15
   113    2.102603482366e-14
   114   -1.902399302596e-02
   115   -8.532645049262e-15
   116    9.764355279224e-15
   117    1.534896631682e-14
   118   -2.780671014467e-02
   119   -4.570453247834e-14
   120    2.465370894634e-14
   121    7.381314672468e-14
   122   -4.050060631066e-02
   123   -1.002149931914e-12
   124    3.936512310771e-13
   125    6.265102612999e-13
   126   -6.288966935422e-02
   127   -1.388526791565e-15
   128   -6.594243341142e-04
   129   -1.084995297293e-03
   130    5.624726713228e-15
   131    1.775119726061e-15
   132    1.370529261405e-14
   133    1.448938103923e-14
   134   -9.716167314652e-15
   135    7.840465988684e-15
   136    2.229097465259e-03
   137   -1.470801310813e-14
   138   -1.552029561984e-14
   139    6.899408280126e-15
   140    2.129388555027e-03
   141   -4.679582950075e-13
   142   -1.383891942569e-13
   143    7.341275433764e-14
   144    8.218415349266e-03
   145    1.134138508811e-12
   146   -1.734846857725e-12
   147    1.153926742267e-12
   148   -1.869716139759e-01
   149   -2.433997819822e-15
   150    3.551455626452e-03
   151   -6.939265974495e-03
   152   -3.263208681124e-15
   153   -6.865598404133e-15
   154   -8.230727548999e-15
   155   -1.394317572892e-14
   156    1.845523218071e-14
   157   -9.988901315832e-15
   158   -2.004608754240e-02
   159    4.430230838795e-14
   160    3.917801771189e-14
   161   -8.520956234122e-15
   162   -3.247116567518e-02
   163    6.375139330868e-14
   164    7.345103117955e-14
   165   -1.263348929454e-13
   166   -4.168788413201e-02
   167   -3.838151788124e-12
   168    2.611279780612e-12
   169    1.746864284322e-12
   170    1.457942960327e-01
   171    3.151892442535e-15
   172   -6.612038319808e-03
   173    6.862707521071e-04
   174    2.007460239455e-15
   175    6.501154319119e-15
   176    9.411238278028e-15
   177    1.176411986651e-14
   178    5.392163158699e-18
   179   -9.966679253408e-15
   180   -4.297076854863e-02
   181   -2.847348615878e-14
   182    4.600154185741e-14
   183   -2.020613336749e-14
   184   -5.049256115111e-02
   185   -2.847710021810e-13
   186    1.881229104956e-13
   187   -1.741254365012e-13
   188   -1.617784219096e-01
   189   -2.653114320462e-11
   190    3.210365788366e-12
   191   -1.276506881141e-11
   192   -4.938481170220e-01
   193    2.738649702465e-14
   194    9.680450651271e-03
   195    2.623644003764e-03
   196   -1.153444933898e-14
   197   -2.209251796813e-15
   198   -1.547116157918e-14
   199   -3.322299437377e-14
   200   -7.847023419950e-13
   201   -4.143336606788e-12
   202    3.020846691750e-15
   203    2.990992807509e-15
   204    1.241386767273e-03
[5D]
