[Molden Format]
[Atoms] (Angs)
  C      1    6     -0.00754183     -1.75895763      0.00000000
  H      2    1     -2.09769850     -1.41880678     -0.00000000
  H      3    1     -0.13527422     -2.83956838     -0.00000000
  H      4    1      0.04053511      2.02026369      0.00000000
  C      5    6     -1.22066484      0.39918184     -0.00000000
  O      6    8     -2.25210141      1.05663720     -0.00000000
  C      7    6      1.24009552      0.27789184      0.00000000
  O      8    8      2.33767996      1.06122493      0.00000000
  N      9    7      0.03634586      1.00852936      0.00000000
  N     10    7     -1.18738304     -0.97903470     -0.00000000
  C     11    6      1.22288875     -1.12258096      0.00000000
  H     12    1      2.15640383     -1.68445878      0.00000000
[GTO]
1    0
S    6    1.000000
   4.56324000E+03    1.96665000E-03 
   6.82024000E+02    1.52306000E-02 
   1.54973000E+02    7.61269000E-02 
   4.44553000E+01    2.60801000E-01 
   1.30290000E+01    6.16462000E-01 
   1.82773000E+00    2.21006000E-01 
SP   3    1.000000
   2.09642000E+01    1.14660000E-01   4.02487000E-02 
   4.80331000E+00    9.19999000E-01   2.37594000E-01 
   1.45933000E+00   -3.03068000E-03   8.15854000E-01 
SP   1    1.000000
   4.83456000E-01    1.00000000E+00   1.00000000E+00 
SP   1    1.000000
   1.45585000E-01    1.00000000E+00   1.00000000E+00 
SP   1    1.000000
   4.38000000E-02    1.00000000E+00   1.00000000E+00 
D    1    1.000000
   6.26000000E-01    1.00000000E+00 

2    0
S    3    1.000000
   3.38650000E+01    2.54938000E-02 
   5.09479000E+00    1.90373000E-01 
   1.15879000E+00    8.52161000E-01 
S    1    1.000000
   3.25840000E-01    1.00000000E+00 
S    1    1.000000
   1.02741000E-01    1.00000000E+00 
S    1    1.000000
   3.60000000E-02    1.00000000E+00 
P    1    1.000000
   7.50000000E-01    1.00000000E+00 

3    0
S    3    1.000000
   3.38650000E+01    2.54938000E-02 
   5.09479000E+00    1.90373000E-01 
   1.15879000E+00    8.52161000E-01 
S    1    1.000000
   3.25840000E-01    1.00000000E+00 
S    1    1.000000
   1.02741000E-01    1.00000000E+00 
S    1    1.000000
   3.60000000E-02    1.00000000E+00 
P    1    1.000000
   7.50000000E-01    1.00000000E+00 

4    0
S    3    1.000000
   3.38650000E+01    2.54938000E-02 
   5.09479000E+00    1.90373000E-01 
   1.15879000E+00    8.52161000E-01 
S    1    1.000000
   3.25840000E-01    1.00000000E+00 
S    1    1.000000
   1.02741000E-01    1.00000000E+00 
S    1    1.000000
   3.60000000E-02    1.00000000E+00 
P    1    1.000000
   7.50000000E-01    1.00000000E+00 

5    0
S    6    1.000000
   4.56324000E+03    1.96665000E-03 
   6.82024000E+02    1.52306000E-02 
   1.54973000E+02    7.61269000E-02 
   4.44553000E+01    2.60801000E-01 
   1.30290000E+01    6.16462000E-01 
   1.82773000E+00    2.21006000E-01 
SP   3    1.000000
   2.09642000E+01    1.14660000E-01   4.02487000E-02 
   4.80331000E+00    9.19999000E-01   2.37594000E-01 
   1.45933000E+00   -3.03068000E-03   8.15854000E-01 
SP   1    1.000000
   4.83456000E-01    1.00000000E+00   1.00000000E+00 
SP   1    1.000000
   1.45585000E-01    1.00000000E+00   1.00000000E+00 
SP   1    1.000000
   4.38000000E-02    1.00000000E+00   1.00000000E+00 
D    1    1.000000
   6.26000000E-01    1.00000000E+00 

6    0
S    6    1.000000
   8.58850000E+03    1.89515000E-03 
   1.29723000E+03    1.43859000E-02 
   2.99296000E+02    7.07320000E-02 
   8.73771000E+01    2.40001000E-01 
   2.56789000E+01    5.94797000E-01 
   3.74004000E+00    2.80802000E-01 
SP   3    1.000000
   4.21175000E+01    1.13889000E-01   3.65114000E-02 
   9.62837000E+00    9.20811000E-01   2.37153000E-01 
   2.85332000E+00   -3.27447000E-03   8.19702000E-01 
SP   1    1.000000
   9.05661000E-01    1.00000000E+00   1.00000000E+00 
SP   1    1.000000
   2.55611000E-01    1.00000000E+00   1.00000000E+00 
SP   1    1.000000
   8.45000000E-02    1.00000000E+00   1.00000000E+00 
D    1    1.000000
   1.29200000E+00    1.00000000E+00 

7    0
S    6    1.000000
   4.56324000E+03    1.96665000E-03 
   6.82024000E+02    1.52306000E-02 
   1.54973000E+02    7.61269000E-02 
   4.44553000E+01    2.60801000E-01 
   1.30290000E+01    6.16462000E-01 
   1.82773000E+00    2.21006000E-01 
SP   3    1.000000
   2.09642000E+01    1.14660000E-01   4.02487000E-02 
   4.80331000E+00    9.19999000E-01   2.37594000E-01 
   1.45933000E+00   -3.03068000E-03   8.15854000E-01 
SP   1    1.000000
   4.83456000E-01    1.00000000E+00   1.00000000E+00 
SP   1    1.000000
   1.45585000E-01    1.00000000E+00   1.00000000E+00 
SP   1    1.000000
   4.38000000E-02    1.00000000E+00   1.00000000E+00 
D    1    1.000000
   6.26000000E-01    1.00000000E+00 

8    0
S    6    1.000000
   8.58850000E+03    1.89515000E-03 
   1.29723000E+03    1.43859000E-02 
   2.99296000E+02    7.07320000E-02 
   8.73771000E+01    2.40001000E-01 
   2.56789000E+01    5.94797000E-01 
   3.74004000E+00    2.80802000E-01 
SP   3    1.000000
   4.21175000E+01    1.13889000E-01   3.65114000E-02 
   9.62837000E+00    9.20811000E-01   2.37153000E-01 
   2.85332000E+00   -3.27447000E-03   8.19702000E-01 
SP   1    1.000000
   9.05661000E-01    1.00000000E+00   1.00000000E+00 
SP   1    1.000000
   2.55611000E-01    1.00000000E+00   1.00000000E+00 
SP   1    1.000000
   8.45000000E-02    1.00000000E+00   1.00000000E+00 
D    1    1.000000
   1.29200000E+00    1.00000000E+00 

9    0
S    6    1.000000
   6.29348000E+03    1.96979000E-03 
   9.49044000E+02    1.49613000E-02 
   2.18776000E+02    7.35006000E-02 
   6.36916000E+01    2.48937000E-01 
   1.88282000E+01    6.02460000E-01 
   2.72023000E+00    2.56202000E-01 
SP   3    1.000000
   3.06331000E+01    1.11906000E-01   3.83119000E-02 
   7.02614000E+00    9.21666000E-01   2.37403000E-01 
   2.11205000E+00   -2.56919000E-03   8.17592000E-01 
SP   1    1.000000
   6.84009000E-01    1.00000000E+00   1.00000000E+00 
SP   1    1.000000
   2.00878000E-01    1.00000000E+00   1.00000000E+00 
SP   1    1.000000
   6.39000000E-02    1.00000000E+00   1.00000000E+00 
D    1    1.000000
   9.13000000E-01    1.00000000E+00 

10    0
S    6    1.000000
   6.29348000E+03    1.96979000E-03 
   9.49044000E+02    1.49613000E-02 
   2.18776000E+02    7.35006000E-02 
   6.36916000E+01    2.48937000E-01 
   1.88282000E+01    6.02460000E-01 
   2.72023000E+00    2.56202000E-01 
SP   3    1.000000
   3.06331000E+01    1.11906000E-01   3.83119000E-02 
   7.02614000E+00    9.21666000E-01   2.37403000E-01 
   2.11205000E+00   -2.56919000E-03   8.17592000E-01 
SP   1    1.000000
   6.84009000E-01    1.00000000E+00   1.00000000E+00 
SP   1    1.000000
   2.00878000E-01    1.00000000E+00   1.00000000E+00 
SP   1    1.000000
   6.39000000E-02    1.00000000E+00   1.00000000E+00 
D    1    1.000000
   9.13000000E-01    1.00000000E+00 

11    0
S    6    1.000000
   4.56324000E+03    1.96665000E-03 
   6.82024000E+02    1.52306000E-02 
   1.54973000E+02    7.61269000E-02 
   4.44553000E+01    2.60801000E-01 
   1.30290000E+01    6.16462000E-01 
   1.82773000E+00    2.21006000E-01 
SP   3    1.000000
   2.09642000E+01    1.14660000E-01   4.02487000E-02 
   4.80331000E+00    9.19999000E-01   2.37594000E-01 
   1.45933000E+00   -3.03068000E-03   8.15854000E-01 
SP   1    1.000000
   4.83456000E-01    1.00000000E+00   1.00000000E+00 
SP   1    1.000000
   1.45585000E-01    1.00000000E+00   1.00000000E+00 
SP   1    1.000000
   4.38000000E-02    1.00000000E+00   1.00000000E+00 
D    1    1.000000
   6.26000000E-01    1.00000000E+00 

12    0
S    3    1.000000
   3.38650000E+01    2.54938000E-02 
   5.09479000E+00    1.90373000E-01 
   1.15879000E+00    8.52161000E-01 
S    1    1.000000
   3.25840000E-01    1.00000000E+00 
S    1    1.000000
   1.02741000E-01    1.00000000E+00 
S    1    1.000000
   3.60000000E-02    1.00000000E+00 
P    1    1.000000
   7.50000000E-01    1.00000000E+00 

[MO]
Sym=X
Ene= -0.486107
Spin=Alpha
Occup=1
     1    2.076584473012e-15
     2    4.419493482009e-15
     3    1.154724154735e-14
     4   -3.442078341669e-14
     5    3.354383440395e-02
     6   -1.386048145957e-14
     7   -2.005514636311e-14
     8   -8.483419843202e-15
     9    5.784660683691e-02
    10   -1.986991123747e-13
    11    4.403271233841e-14
    12    5.526685610584e-14
    13    5.809837060066e-02
    14   -1.691256203472e-11
    15    1.923351450135e-12
    16   -8.228593886155e-12
    17    3.494708147276e-02
    18   -1.875505152996e-14
    19   -2.534467420915e-02
    20    1.947701949192e-03
    21    9.185663023938e-15
    22   -1.779752165620e-14
    23    4.804007566423e-14
    24   -1.438621080190e-13
    25    2.247760830175e-12
    26   -1.225561951615e-12
    27   -4.099021462429e-14
    28   -1.111603222984e-14
    29    1.179796213382e-02
    30   -9.113002253800e-16
    31    2.218670177517e-13
    32   -8.195790472271e-13
    33   -1.652025213153e-12
    34   -1.794085185608e-14
    35    2.669370552484e-14
    36    3.549136523145e-03
    37   -4.747520655349e-15
    38   -2.526996678651e-13
    39    9.990050610312e-13
    40    3.686450019556e-13
    41    1.749313127908e-14
    42    3.097731958442e-15
    43    1.234618957988e-02
    44    6.515785313509e-15
    45    1.327367881791e-14
    46    2.452569200449e-14
    47    2.802140888986e-14
    48   -2.467904598724e-01
    49   -1.228292945395e-13
    50    5.130219518895e-14
    51    8.492694126936e-14
    52   -4.262740074412e-01
    53    5.921937283541e-13
    54    6.848063291746e-13
    55   -3.880342393201e-13
    56   -6.335125822437e-01
    57    1.320612826007e-11
    58    2.201671952399e-12
    59   -6.185902399687e-12
    60   -1.965602101219e-01
    61    1.596409728181e-14
    62    5.516388479019e-03
    63    2.510968429822e-03
    64   -1.579871960967e-14
    65   -2.329792777450e-14
    66   -1.031094254729e-15
    67   -1.306663984733e-15
    68   -8.978635128570e-15
    69   -1.092722882019e-16
    70    2.016069478990e-01
    71    1.596083432384e-15
    72   -2.792955813652e-14
    73   -2.744097436221e-15
    74    2.725213321474e-01
    75    7.490424063798e-14
    76    7.646726337074e-14
    77   -3.410309604426e-14
    78    2.924622432795e-01
    79    1.788868080765e-12
    80   -1.761038916776e-13
    81   -8.848308725828e-13
    82    1.104990504761e-01
    83    5.540252637350e-15
    84   -1.078994114165e-02
    85    6.963856796171e-03
    86    4.175470405535e-15
    87    4.530471556547e-15
    88   -1.497128280797e-14
    89   -2.391090742812e-14
    90    1.958350576342e-14
    91   -3.369434939388e-14
    92    1.962244466382e-02
    93    4.613993792673e-14
    94    4.471881159107e-14
    95   -7.977256426017e-14
    96    3.542901758803e-02
    97    1.690044808922e-12
    98   -1.924527504862e-13
    99   -8.207230699561e-13
   100    2.502715234030e-02
   101   -2.393928360306e-11
   102   -4.257153154578e-12
   103    6.788995556340e-12
   104    2.068105922883e-02
   105    2.137463117448e-15
   106   -1.696539039731e-02
   107    1.787107850486e-02
   108   -8.136153364343e-15
   109   -2.864374658164e-15
   110   -7.244146914514e-15
   111   -1.362563453655e-14
   112    6.796074421721e-15
   113    1.299364417329e-14
   114   -1.862015963101e-02
   115    7.325490854207e-14
   116    3.909723375891e-14
   117   -4.748525633234e-15
   118   -2.826935097463e-02
   119   -1.915954148588e-13
   120   -1.106201720226e-13
   121    1.577625907059e-13
   122   -3.498966952619e-02
   123    3.049175467581e-12
   124    4.623559727711e-13
   125   -8.821955172935e-13
   126   -1.995802748897e-02
   127    1.130286676019e-15
   128   -8.590560247116e-04
   129    9.574750640670e-04
   130    6.680024552012e-15
   131    2.815626997203e-15
   132    1.778636395071e-14
   133    2.798623528088e-14
   134    4.274083679573e-14
   135    1.827938925560e-14
   136    9.455565241323e-02
   137   -7.882771097606e-14
   138    4.867135071029e-14
   139    4.315256255340e-14
   140    1.448470161973e-01
   141   -5.921610120506e-13
   142    3.353502124042e-13
   143    3.192602631611e-13
   144    2.672796082437e-01
   145   -3.326018261288e-12
   146   -1.950727307464e-12
   147   -6.299778953340e-13
   148    1.652087254004e-01
   149    1.993077941019e-14
   150    2.106280020208e-02
   151    7.349977862991e-03
   152    2.931710226712e-15
   153   -3.857038402724e-15
   154    6.698559870134e-16
   155   -1.500363633336e-15
   156    5.588954264421e-14
   157    3.920783966452e-14
   158    7.889121976709e-02
   159    4.766821402476e-15
   160    8.655341991623e-14
   161    4.607084053985e-14
   162    1.203374386858e-01
   163   -2.472738617812e-14
   164   -3.230558954796e-14
   165    5.278380673831e-14
   166    2.358466365544e-01
   167   -6.492968715934e-12
   168    2.340351636016e-12
   169   -4.856748119591e-12
   170    1.720101829981e-01
   171   -1.367554697331e-14
   172    4.104385591670e-03
   173   -2.606673963444e-02
   174   -1.216324111605e-15
   175    2.750100163129e-14
   176   -1.367483825272e-14
   177   -2.751499141231e-14
   178    1.563564430900e-14
   179   -4.793673117604e-14
   180   -6.318198501356e-02
   181    1.289977321548e-13
   182    8.248675401868e-14
   183    2.256666088728e-14
   184   -1.011115739808e-01
   185   -7.857408133282e-13
   186   -1.561643526240e-13
   187   -1.505024672746e-12
   188   -1.749884238081e-01
   189    2.287358801055e-11
   190   -4.875834096490e-12
   191    1.183197678807e-11
   192   -9.428327850518e-02
   193   -2.578700157552e-14
   194   -2.453308273418e-03
   195   -3.862710643750e-04
   196   -3.641001686961e-15
   197   -1.599709207383e-14
   198    3.437856098982e-14
   199   -1.043374874182e-13
   200    1.413201106019e-12
   201    8.416242357527e-12
   202    1.055007165760e-15
   203   -9.965031459584e-15
   204   -6.337456644484e-03
Sym=X
Ene= 0.486107
Spin=Alpha
Occup=0
     1   -7.149106107871e-15
     2   -1.452484040834e-14
     3   -2.539957418389e-14
     4    3.878707013936e-14
     5   -3.134697619068e-02
     6    3.377113821996e-14
     7   -1.950895043605e-14
     8    1.015757372349e-13
     9   -4.926132335318e-02
    10    5.503161748926e-13
    11   -4.919498248149e-13
    12    5.339422711579e-13
    13   -9.015689327989e-02
    14    1.444251822415e-12
    15    4.383194169091e-12
    16   -2.884008953907e-12
    17    4.516509592062e-01
    18   -8.005864728698e-15
    19    2.257609306265e-03
    20   -4.949513666134e-03
    21   -5.915169089102e-15
    22    1.203293807030e-14
    23   -5.663143999134e-15
    24    9.097045114490e-14
    25   -2.737866898757e-12
    26    2.440082550852e-13
    27    2.278606023402e-15
    28    1.164807073205e-14
    29    4.894625607317e-03
    30    1.566186283181e-14
    31    1.436731426107e-13
    32    4.959819508076e-13
    33   -1.374013090201e-12
    34   -8.858182690512e-15
    35    5.187315546045e-15
    36   -3.045924357751e-04
    37   -2.186031792462e-14
    38   -1.732272244006e-13
    39    2.392371527882e-13
    40   -1.174194188983e-12
    41    7.402173345669e-15
    42    6.805322168616e-15
    43    1.515662071311e-03
    44    4.378222506378e-15
    45    5.608982441898e-15
    46   -1.174763685887e-14
    47    1.219516637214e-14
    48   -5.500256676147e-02
    49   -6.397658883392e-14
    50   -5.100622877631e-15
    51    8.277533934345e-15
    52   -9.967988527464e-02
    53    8.547366461906e-13
    54    1.494218269457e-13
    55    2.449207528495e-13
    56   -1.069286007647e-01
    57    4.129580749225e-12
    58    1.670838524469e-12
    59   -3.317675251109e-13
    60    1.732919609971e+00
    61   -5.686672602792e-15
    62    1.079036709143e-03
    63   -3.546044558641e-03
    64    7.284646953780e-15
    65    7.020197856871e-15
    66    8.516282343983e-16
    67   -1.102236352382e-15
    68   -4.195546644368e-15
    69    1.911038203162e-15
    70   -3.854613892797e-02
    71    2.440220692810e-15
    72    1.156139623902e-14
    73    2.603981902074e-14
    74   -6.133664444520e-02
    75   -1.407877905320e-14
    76   -1.273264896686e-13
    77   -1.033810369578e-13
    78   -1.620602095765e-02
    79   -7.711349737195e-13
    80    2.171162410638e-13
    81    1.280427118633e-12
    82   -1.014807325965e-01
    83   -1.011153717772e-15
    84   -7.583986106110e-03
    85    4.257794102674e-03
    86   -5.563386047267e-15
    87   -4.732428133406e-15
    88    1.770612103642e-14
    89    2.913019282618e-14
    90    1.377581876571e-14
    91   -2.282349261447e-14
    92   -2.424596325247e-03
    93   -6.849106400288e-14
    94    7.985437216401e-14
    95   -3.991552338863e-14
    96   -8.991100770571e-03
    97   -5.730317439445e-13
    98   -4.062174685049e-13
    99   -1.049989058967e-12
   100    1.682761676268e-02
   101   -2.376377643195e-11
   102   -1.503512178353e-13
   103    6.644391431738e-12
   104    3.158610411198e-01
   105   -1.036931998840e-14
   106    1.792826322936e-03
   107   -2.318265142314e-03
   108   -7.075543952276e-15
   109   -6.141490362990e-15
   110   -1.616123160843e-15
   111   -3.058775045296e-15
   112   -3.196160961278e-15
   113   -1.687361003499e-14
   114   -1.060087005173e-02
   115    2.915205019251e-15
   116   -2.416141210666e-15
   117   -3.333290758814e-14
   118   -1.508968306572e-02
   119    1.748485283228e-13
   120   -1.278299075691e-13
   121   -1.886824107986e-14
   122   -2.190215531030e-02
   123    1.338404512393e-12
   124   -5.017915402359e-13
   125   -8.664382540608e-13
   126    1.516319691874e-03
   127    5.055238677358e-15
   128    5.979928331720e-04
   129    4.205478353102e-04
   130   -1.762969399036e-15
   131   -3.786253012325e-15
   132   -9.735367718326e-15
   133   -1.713570162362e-14
   134    7.466073205327e-15
   135   -1.234898748182e-14
   136   -2.312060318500e-02
   137    3.069951392563e-14
   138    7.217080148229e-15
   139   -2.407837557051e-14
   140   -5.259235124652e-02
   141    2.912489416120e-13
   142    3.134601817083e-13
   143    1.539664459861e-13
   144    1.904896446643e-02
   145   -1.993769122574e-12
   146    1.684040113687e-12
   147   -4.651788657463e-13
   148   -6.328039890147e-01
   149    6.572164770433e-15
   150    2.528883211819e-03
   151    3.085799557841e-03
   152   -1.386802971587e-15
   153    1.862880622182e-15
   154    7.408157129285e-15
   155    1.562422861529e-14
   156   -2.904339456188e-14
   157    1.659270345644e-14
   158   -2.162759133974e-02
   159   -2.637810624191e-14
   160   -3.556419952144e-14
   161    2.408368953226e-14
   162   -4.916043829498e-02
   163   -3.686052385997e-13
   164   -2.966056540695e-13
   165    1.334296007085e-13
   166    1.748771190950e-02
   167    3.876594025050e-12
   168   -3.692979311479e-12
   169   -2.618542262858e-13
   170   -5.145485902604e-01
   171   -1.231297453150e-16
   172   -5.402317007111e-03
   173   -2.646363091527e-03
   174    3.952616946979e-15
   175   -9.198686095894e-15
   176   -5.283285600498e-15
   177   -6.434831461682e-15
   178   -2.430098073909e-14
   179    1.531002344910e-14
   180   -1.010339352079e-02
   181    7.215889723902e-14
   182   -6.293004035711e-15
   183    3.895351248069e-14
   184   -1.522768479221e-02
   185   -8.655463041372e-13
   186   -1.602145535935e-13
   187   -5.716149891711e-13
   188   -1.390587916409e-02
   189    1.344596861248e-11
   190   -2.824319351044e-12
   191    1.050490209675e-11
   192   -4.066922940979e-01
   193   -8.707175466178e-15
   194    2.746447780607e-03
   195    1.856670308845e-03
   196    2.203141116287e-14
   197   -1.860345552911e-14
   198    3.814436887204e-14
   199   -1.175873676566e-14
   200    1.399417103110e-12
   201    5.131371894865e-12
   202    7.312346531698e-15
   203   -1.942496629614e-15
   204    6.281332995319e-05
[5D]
