[Molden Format]
[Atoms] (Angs)
  C      1    6     -0.00754183     -1.75895763      0.00000000
  H      2    1     -2.09769850     -1.41880678     -0.00000000
  H      3    1     -0.13527422     -2.83956838     -0.00000000
  H      4    1      0.04053511      2.02026369      0.00000000
  C      5    6     -1.22066484      0.39918184     -0.00000000
  O      6    8     -2.25210141      1.05663720     -0.00000000
  C      7    6      1.24009552      0.27789184      0.00000000
  O      8    8      2.33767996      1.06122493      0.00000000
  N      9    7      0.03634586      1.00852936      0.00000000
  N     10    7     -1.18738304     -0.97903470     -0.00000000
  C     11    6      1.22288875     -1.12258096      0.00000000
  H     12    1      2.15640383     -1.68445878      0.00000000
[GTO]
1    0
S    6    1.000000
   4.56324000E+03    1.96665000E-03 
   6.82024000E+02    1.52306000E-02 
   1.54973000E+02    7.61269000E-02 
   4.44553000E+01    2.60801000E-01 
   1.30290000E+01    6.16462000E-01 
   1.82773000E+00    2.21006000E-01 
SP   3    1.000000
   2.09642000E+01    1.14660000E-01   4.02487000E-02 
   4.80331000E+00    9.19999000E-01   2.37594000E-01 
   1.45933000E+00   -3.03068000E-03   8.15854000E-01 
SP   1    1.000000
   4.83456000E-01    1.00000000E+00   1.00000000E+00 
SP   1    1.000000
   1.45585000E-01    1.00000000E+00   1.00000000E+00 
SP   1    1.000000
   4.38000000E-02    1.00000000E+00   1.00000000E+00 
D    1    1.000000
   6.26000000E-01    1.00000000E+00 

2    0
S    3    1.000000
   3.38650000E+01    2.54938000E-02 
   5.09479000E+00    1.90373000E-01 
   1.15879000E+00    8.52161000E-01 
S    1    1.000000
   3.25840000E-01    1.00000000E+00 
S    1    1.000000
   1.02741000E-01    1.00000000E+00 
S    1    1.000000
   3.60000000E-02    1.00000000E+00 
P    1    1.000000
   7.50000000E-01    1.00000000E+00 

3    0
S    3    1.000000
   3.38650000E+01    2.54938000E-02 
   5.09479000E+00    1.90373000E-01 
   1.15879000E+00    8.52161000E-01 
S    1    1.000000
   3.25840000E-01    1.00000000E+00 
S    1    1.000000
   1.02741000E-01    1.00000000E+00 
S    1    1.000000
   3.60000000E-02    1.00000000E+00 
P    1    1.000000
   7.50000000E-01    1.00000000E+00 

4    0
S    3    1.000000
   3.38650000E+01    2.54938000E-02 
   5.09479000E+00    1.90373000E-01 
   1.15879000E+00    8.52161000E-01 
S    1    1.000000
   3.25840000E-01    1.00000000E+00 
S    1    1.000000
   1.02741000E-01    1.00000000E+00 
S    1    1.000000
   3.60000000E-02    1.00000000E+00 
P    1    1.000000
   7.50000000E-01    1.00000000E+00 

5    0
S    6    1.000000
   4.56324000E+03    1.96665000E-03 
   6.82024000E+02    1.52306000E-02 
   1.54973000E+02    7.61269000E-02 
   4.44553000E+01    2.60801000E-01 
   1.30290000E+01    6.16462000E-01 
   1.82773000E+00    2.21006000E-01 
SP   3    1.000000
   2.09642000E+01    1.14660000E-01   4.02487000E-02 
   4.80331000E+00    9.19999000E-01   2.37594000E-01 
   1.45933000E+00   -3.03068000E-03   8.15854000E-01 
SP   1    1.000000
   4.83456000E-01    1.00000000E+00   1.00000000E+00 
SP   1    1.000000
   1.45585000E-01    1.00000000E+00   1.00000000E+00 
SP   1    1.000000
   4.38000000E-02    1.00000000E+00   1.00000000E+00 
D    1    1.000000
   6.26000000E-01    1.00000000E+00 

6    0
S    6    1.000000
   8.58850000E+03    1.89515000E-03 
   1.29723000E+03    1.43859000E-02 
   2.99296000E+02    7.07320000E-02 
   8.73771000E+01    2.40001000E-01 
   2.56789000E+01    5.94797000E-01 
   3.74004000E+00    2.80802000E-01 
SP   3    1.000000
   4.21175000E+01    1.13889000E-01   3.65114000E-02 
   9.62837000E+00    9.20811000E-01   2.37153000E-01 
   2.85332000E+00   -3.27447000E-03   8.19702000E-01 
SP   1    1.000000
   9.05661000E-01    1.00000000E+00   1.00000000E+00 
SP   1    1.000000
   2.55611000E-01    1.00000000E+00   1.00000000E+00 
SP   1    1.000000
   8.45000000E-02    1.00000000E+00   1.00000000E+00 
D    1    1.000000
   1.29200000E+00    1.00000000E+00 

7    0
S    6    1.000000
   4.56324000E+03    1.96665000E-03 
   6.82024000E+02    1.52306000E-02 
   1.54973000E+02    7.61269000E-02 
   4.44553000E+01    2.60801000E-01 
   1.30290000E+01    6.16462000E-01 
   1.82773000E+00    2.21006000E-01 
SP   3    1.000000
   2.09642000E+01    1.14660000E-01   4.02487000E-02 
   4.80331000E+00    9.19999000E-01   2.37594000E-01 
   1.45933000E+00   -3.03068000E-03   8.15854000E-01 
SP   1    1.000000
   4.83456000E-01    1.00000000E+00   1.00000000E+00 
SP   1    1.000000
   1.45585000E-01    1.00000000E+00   1.00000000E+00 
SP   1    1.000000
   4.38000000E-02    1.00000000E+00   1.00000000E+00 
D    1    1.000000
   6.26000000E-01    1.00000000E+00 

8    0
S    6    1.000000
   8.58850000E+03    1.89515000E-03 
   1.29723000E+03    1.43859000E-02 
   2.99296000E+02    7.07320000E-02 
   8.73771000E+01    2.40001000E-01 
   2.56789000E+01    5.94797000E-01 
   3.74004000E+00    2.80802000E-01 
SP   3    1.000000
   4.21175000E+01    1.13889000E-01   3.65114000E-02 
   9.62837000E+00    9.20811000E-01   2.37153000E-01 
   2.85332000E+00   -3.27447000E-03   8.19702000E-01 
SP   1    1.000000
   9.05661000E-01    1.00000000E+00   1.00000000E+00 
SP   1    1.000000
   2.55611000E-01    1.00000000E+00   1.00000000E+00 
SP   1    1.000000
   8.45000000E-02    1.00000000E+00   1.00000000E+00 
D    1    1.000000
   1.29200000E+00    1.00000000E+00 

9    0
S    6    1.000000
   6.29348000E+03    1.96979000E-03 
   9.49044000E+02    1.49613000E-02 
   2.18776000E+02    7.35006000E-02 
   6.36916000E+01    2.48937000E-01 
   1.88282000E+01    6.02460000E-01 
   2.72023000E+00    2.56202000E-01 
SP   3    1.000000
   3.06331000E+01    1.11906000E-01   3.83119000E-02 
   7.02614000E+00    9.21666000E-01   2.37403000E-01 
   2.11205000E+00   -2.56919000E-03   8.17592000E-01 
SP   1    1.000000
   6.84009000E-01    1.00000000E+00   1.00000000E+00 
SP   1    1.000000
   2.00878000E-01    1.00000000E+00   1.00000000E+00 
SP   1    1.000000
   6.39000000E-02    1.00000000E+00   1.00000000E+00 
D    1    1.000000
   9.13000000E-01    1.00000000E+00 

10    0
S    6    1.000000
   6.29348000E+03    1.96979000E-03 
   9.49044000E+02    1.49613000E-02 
   2.18776000E+02    7.35006000E-02 
   6.36916000E+01    2.48937000E-01 
   1.88282000E+01    6.02460000E-01 
   2.72023000E+00    2.56202000E-01 
SP   3    1.000000
   3.06331000E+01    1.11906000E-01   3.83119000E-02 
   7.02614000E+00    9.21666000E-01   2.37403000E-01 
   2.11205000E+00   -2.56919000E-03   8.17592000E-01 
SP   1    1.000000
   6.84009000E-01    1.00000000E+00   1.00000000E+00 
SP   1    1.000000
   2.00878000E-01    1.00000000E+00   1.00000000E+00 
SP   1    1.000000
   6.39000000E-02    1.00000000E+00   1.00000000E+00 
D    1    1.000000
   9.13000000E-01    1.00000000E+00 

11    0
S    6    1.000000
   4.56324000E+03    1.96665000E-03 
   6.82024000E+02    1.52306000E-02 
   1.54973000E+02    7.61269000E-02 
   4.44553000E+01    2.60801000E-01 
   1.30290000E+01    6.16462000E-01 
   1.82773000E+00    2.21006000E-01 
SP   3    1.000000
   2.09642000E+01    1.14660000E-01   4.02487000E-02 
   4.80331000E+00    9.19999000E-01   2.37594000E-01 
   1.45933000E+00   -3.03068000E-03   8.15854000E-01 
SP   1    1.000000
   4.83456000E-01    1.00000000E+00   1.00000000E+00 
SP   1    1.000000
   1.45585000E-01    1.00000000E+00   1.00000000E+00 
SP   1    1.000000
   4.38000000E-02    1.00000000E+00   1.00000000E+00 
D    1    1.000000
   6.26000000E-01    1.00000000E+00 

12    0
S    3    1.000000
   3.38650000E+01    2.54938000E-02 
   5.09479000E+00    1.90373000E-01 
   1.15879000E+00    8.52161000E-01 
S    1    1.000000
   3.25840000E-01    1.00000000E+00 
S    1    1.000000
   1.02741000E-01    1.00000000E+00 
S    1    1.000000
   3.60000000E-02    1.00000000E+00 
P    1    1.000000
   7.50000000E-01    1.00000000E+00 

[MO]
Sym=X
Ene= -0.494953
Spin=Alpha
Occup=1
     1   -9.769843230521e-03
     2   -1.702658250282e-02
     3    1.469230765974e-02
     4   -6.460142847442e-03
     5    3.229167214221e-14
     6    5.149172453701e-02
     7    1.838536914394e-02
     8   -6.969842028967e-03
     9    5.610901406973e-14
    10    1.714963495727e-01
    11    8.760760031508e-02
    12   -6.949392944781e-02
    13    1.300765608732e-13
    14   -3.836087877673e+00
    15   -1.003327817826e-01
    16   -2.043475074508e+00
    17   -1.460067674381e-12
    18    2.955494076867e-03
    19   -1.634991741068e-14
    20   -3.778217839545e-15
    21    2.871349388184e-03
    22   -3.558539206958e-03
    23   -4.470954663337e-03
    24   -1.129748378369e-02
    25   -3.288351041484e-01
    26   -2.987975366642e-01
    27    4.892892497818e-03
    28    6.018154743615e-03
    29    1.202518825717e-14
    30   -3.235507802212e-03
    31   -1.053189444295e-02
    32   -2.138734072511e-01
    33   -1.613062864763e+00
    34    4.165797178615e-03
    35    3.586699365711e-03
    36    3.059295947816e-15
    37   -2.059143154743e-02
    38   -6.240927538776e-02
    39   -6.708310238409e-01
    40   -1.502329144110e+00
    41   -1.641164887146e-03
    42   -1.401969342471e-02
    43    7.617243095804e-15
    44    7.018895673913e-04
    45    1.008907504666e-03
    46    3.355115289244e-04
    47    7.742418450507e-03
    48   -7.350200069382e-14
    49    6.239497370210e-03
    50    3.598576207345e-03
    51    8.051865080230e-03
    52   -5.970464392341e-14
    53   -3.759992858973e-02
    54   -2.408352600107e-02
    55    4.778178425239e-02
    56   -5.225560424336e-13
    57    1.472473391092e+00
    58    4.672327589736e-01
    59    1.446290042424e-01
    60    4.068745674051e-14
    61   -3.018351212547e-03
    62    1.963000575235e-16
    63   -3.952903164381e-15
    64   -9.118439565514e-03
    65    1.268831318365e-02
    66   -3.757834970385e-03
    67   -6.484192954225e-03
    68   -7.429673816910e-03
    69    8.981859017687e-03
    70    1.979648800383e-14
    71    1.961220520443e-02
    72   -8.410665459066e-03
    73    1.176077535066e-02
    74    3.401085395788e-14
    75    5.631534730500e-02
    76   -6.957418928765e-03
    77    9.854328684611e-03
    78    3.605616402115e-14
    79   -2.832781657472e-01
    80   -1.479023288061e-01
    81    8.114988490035e-02
    82    4.399152800592e-13
    83   -8.974097789732e-04
    84   -6.646559914975e-15
    85    2.654823821894e-15
    86    1.361778980189e-03
    87   -1.206847000215e-03
    88   -9.601534333401e-03
    89   -1.698430537254e-02
    90    3.889414030468e-02
    91    1.160106742483e-02
    92    2.708882651687e-14
    93    4.326668901260e-02
    94    6.755973769112e-02
    95    2.632055865584e-02
    96    3.014594068787e-14
    97    2.676328847162e-01
    98    2.008052299037e-01
    99    1.349728541779e-01
   100    1.034999835701e-13
   101   -4.104311701608e+00
   102    1.619858199964e+00
   103    4.270992604858e-01
   104   -1.205021902065e-12
   105    8.836643031391e-03
   106   -4.785758824846e-15
   107    1.359002545143e-14
   108   -1.486592757394e-02
   109   -1.571166279754e-02
   110    1.399810197405e-02
   111    2.419765575649e-02
   112    2.621098000291e-03
   113    7.475289800928e-02
   114   -1.863865060585e-15
   115   -8.090908750279e-02
   116    1.890343137439e-03
   117    1.012482297649e-01
   118   -1.152789398954e-14
   119   -1.896265004591e-01
   120    6.022962186259e-02
   121    1.215304546021e-01
   122   -2.952585623252e-15
   123   -4.729646992987e-01
   124    4.850485114367e-02
   125    2.680326023961e-02
   126    2.370241731928e-14
   127   -5.606465705841e-05
   128   -1.573147777933e-15
   129   -1.539261099601e-15
   130    3.206954618720e-03
   131    9.440937161777e-04
   132   -1.402367465707e-02
   133   -2.428873525177e-02
   134   -9.294594822079e-03
   135    3.845708912011e-02
   136    3.272919995665e-14
   137    7.618390050670e-02
   138   -1.324009484840e-02
   139    6.021267871606e-02
   140    4.891257769330e-14
   141    2.209905836179e-01
   142   -4.328133217786e-02
   143    9.898283797939e-02
   144    1.515480746966e-13
   145    1.077925445712e+00
   146    1.940871447484e-02
   147    6.952676376438e-01
   148    6.101377345161e-14
   149    2.019415547684e-03
   150    1.207079891949e-14
   151    2.358887567454e-15
   152    1.075564148436e-02
   153    1.569653910419e-03
   154   -1.003958115090e-02
   155   -1.737627203582e-02
   156   -1.614868117056e-02
   157    2.436400335764e-03
   158    1.359884351066e-14
   159    5.447546547680e-02
   160   -2.381397201872e-02
   161    4.897798397161e-03
   162    1.155992662224e-14
   163    1.581695622121e-01
   164   -2.708290775229e-02
   165    8.741322887925e-03
   166    6.355267245072e-14
   167    1.187073411540e+00
   168   -3.650772219079e-01
   169    8.135908787101e-02
   170    4.786770243503e-13
   171    2.400558574687e-04
   172   -4.232085798306e-15
   173   -9.317767937533e-15
   174    3.873609135814e-04
   175   -3.653931994376e-03
   176    9.623933410674e-03
   177    1.689842227030e-02
   178   -1.807219620032e-02
   179    1.154227151365e-02
   180   -5.308548719592e-14
   181   -4.836426240089e-02
   182   -2.317724562894e-02
   183    6.375100478409e-03
   184   -7.020537402432e-14
   185   -2.062187684172e-01
   186   -9.886523109815e-02
   187    1.157003187285e-01
   188   -3.085511120010e-13
   189    4.921418759139e+00
   190   -3.483297097252e+00
   191    2.225361015299e+00
   192    2.134340819765e-12
   193    2.614261456271e-03
   194    4.817420401570e-16
   195    1.777340564423e-15
   196    2.007418316925e-03
   197    1.388375678130e-02
   198   -2.101776714407e-02
   199   -6.617146560437e-02
   200    3.677738499791e-01
   201    3.679277327568e+00
   202    7.103499945991e-03
   203   -9.359801096798e-04
   204    6.465697068616e-17
Sym=X
Ene= 0.494953
Spin=Alpha
Occup=0
     1    6.503791070939e-15
     2    1.399702620644e-14
     3   -9.435904682418e-15
     4   -5.058887671535e-15
     5    1.101833537031e-02
     6   -3.902139992029e-14
     7    1.759875005815e-15
     8   -4.221018540132e-15
     9    1.225987864788e-02
    10   -5.351361546902e-13
    11   -2.403544308157e-13
    12   -4.392669000729e-13
    13    2.778189006135e-02
    14   -2.403648919153e-12
    15   -3.262114423682e-13
    16   -2.259776423211e-12
    17   -7.141446624577e-01
    18   -9.113803675320e-15
    19    6.015429641746e-03
    20    7.628533874004e-03
    21    8.146942257058e-15
    22    8.452357516097e-15
    23   -8.311572147635e-15
    24    6.562973169708e-14
    25   -4.328809887587e-13
    26   -2.399665218284e-12
    27    2.091988646666e-15
    28   -4.405207338453e-15
    29   -9.846763877433e-04
    30   -5.753971112871e-15
    31    5.694456055368e-14
    32   -9.783595519060e-13
    33   -8.747647722194e-13
    34    2.267556525434e-15
    35   -3.656354641682e-15
    36   -3.366108690076e-03
    37   -1.099515112828e-14
    38    1.204453014362e-13
    39   -1.616463673911e-12
    40    2.007144146228e-12
    41   -2.694843306932e-15
    42   -8.949507953438e-15
    43   -3.152549279971e-03
    44   -7.557437610772e-15
    45   -6.692017365744e-15
    46   -1.591534390061e-14
    47   -2.784819809396e-14
    48    3.977538225944e-02
    49    8.697125220594e-15
    50   -8.538992719335e-15
    51   -1.594467507862e-14
    52    7.572057349638e-02
    53    4.649737211215e-13
    54   -7.946045444179e-13
    55   -4.826971562984e-13
    56    7.825337129284e-02
    57    4.527286633631e-12
    58   -1.006328504850e-12
    59   -3.612802535317e-12
    60   -6.226038935362e-01
    61   -1.484129165511e-15
    62    7.104461956743e-03
    63   -2.807204735203e-03
    64   -3.561234909727e-15
    65   -3.202733466749e-16
    66   -4.967939788196e-16
    67    8.288973731648e-16
    68   -3.836390975349e-15
    69   -5.167288588144e-15
    70   -5.881737396104e-03
    71   -9.764581042456e-16
    72   -6.743837389795e-16
    73   -5.722640282601e-16
    74   -4.186905978997e-03
    75   -7.240543981118e-14
    76   -6.595404387672e-14
    77    1.856669077604e-14
    78   -3.491883751177e-02
    79   -9.310984348698e-13
    80   -3.704825925783e-14
    81    7.432071079382e-13
    82    7.228582820702e-02
    83   -1.928124935104e-16
    84    2.409067553162e-03
    85   -1.711870954181e-03
    86   -3.818496725813e-16
    87   -2.259245481296e-15
    88   -2.942006034863e-15
    89   -8.122137429515e-15
    90   -1.449892534182e-14
    91   -1.256521683559e-14
    92    3.423487937152e-02
    93    4.341622842433e-14
    94   -2.938989208037e-14
    95    2.207161149449e-14
    96    4.949227525137e-02
    97   -5.304601419750e-13
    98    2.954855219718e-13
    99   -1.748586186675e-13
   100    9.627783776582e-02
   101   -1.692709078833e-11
   102    3.815782364537e-12
   103    8.148680213474e-13
   104   -1.572976376223e+00
   105    1.575215192153e-14
   106    4.019277000863e-04
   107   -5.053775465134e-03
   108    1.029901576169e-15
   109    1.390936975308e-14
   110   -6.540318592177e-17
   111   -3.346197348403e-16
   112    7.710011273905e-15
   113   -5.180911619532e-15
   114    4.041240344051e-02
   115    5.784912871655e-15
   116    1.457229648489e-15
   117   -2.520734651256e-15
   118    5.939486933205e-02
   119   -6.511454798536e-14
   120    7.192325539559e-14
   121   -2.050078456527e-15
   122    3.369822992895e-02
   123   -1.851979383498e-13
   124   -1.740424548455e-13
   125    2.749770716752e-14
   126    8.776156528325e-02
   127    8.248316687689e-16
   128   -3.518133191479e-03
   129   -2.787980244380e-03
   130   -1.099899565428e-15
   131   -3.125065640116e-15
   132    5.226600507645e-15
   133    1.350370757921e-14
   134   -2.635405592522e-14
   135    1.255643905184e-14
   136    2.015273995751e-02
   137   -2.714760830988e-14
   138   -1.952059911727e-14
   139    2.625025957010e-14
   140    4.771431558117e-02
   141   -1.146647375338e-13
   142   -2.831487170632e-13
   143   -1.642191741836e-13
   144   -2.525439223538e-02
   145    1.065502441354e-11
   146    7.238355936498e-13
   147   -4.668086823869e-13
   148    5.703658836096e-01
   149    8.664319747479e-15
   150   -3.517975058004e-03
   151   -4.952340016089e-03
   152    3.369182441192e-15
   153    1.493756973935e-15
   154   -5.109638352182e-15
   155   -1.059883013464e-14
   156    7.878591906233e-15
   157   -1.463247326855e-14
   158    1.031281893166e-02
   159   -2.375991483107e-15
   160    2.577490571507e-15
   161   -1.705765159743e-14
   162    2.959210252568e-02
   163    5.373329937814e-13
   164    2.648111622729e-13
   165   -1.756172215133e-13
   166   -3.956486200775e-02
   167   -5.255463071636e-12
   168   -1.300059966185e-12
   169   -1.681225977099e-12
   170    4.872577595617e-01
   171   -1.090768957180e-14
   172    5.503227779696e-04
   173    4.583540414325e-03
   174   -8.685277396295e-15
   175   -8.358910161779e-16
   176    5.726037976634e-15
   177    5.059295569228e-15
   178   -3.418714478423e-14
   179   -1.229186313810e-14
   180    5.738048374784e-02
   181   -3.155953326568e-14
   182   -2.773619532971e-14
   183   -9.136803805784e-15
   184    8.024001945603e-02
   185    1.053824855016e-13
   186   -8.590032609705e-13
   187   -1.287331910740e-13
   188    1.995572040709e-01
   189    1.328075260182e-11
   190   -3.087170602885e-12
   191    3.944688894345e-12
   192    6.889538573887e-01
   193   -8.693196666745e-16
   194   -4.141307492615e-03
   195    4.972955633129e-03
   196   -1.648722633958e-14
   197   -7.248555361934e-15
   198   -2.958292115760e-15
   199    6.425558168551e-14
   200    7.108722501041e-13
   201    7.231285086809e-13
   202   -2.703404803109e-15
   203   -2.336716623872e-15
   204    2.982592395437e-04
[5D]
