[Molden Format]
[Atoms] (Angs)
  C      1    6     -0.00754183     -1.75895763      0.00000000
  H      2    1     -2.09769850     -1.41880678     -0.00000000
  H      3    1     -0.13527422     -2.83956838     -0.00000000
  H      4    1      0.04053511      2.02026369      0.00000000
  C      5    6     -1.22066484      0.39918184     -0.00000000
  O      6    8     -2.25210141      1.05663720     -0.00000000
  C      7    6      1.24009552      0.27789184      0.00000000
  O      8    8      2.33767996      1.06122493      0.00000000
  N      9    7      0.03634586      1.00852936      0.00000000
  N     10    7     -1.18738304     -0.97903470     -0.00000000
  C     11    6      1.22288875     -1.12258096      0.00000000
  H     12    1      2.15640383     -1.68445878      0.00000000
[GTO]
1    0
S    6    1.000000
   4.56324000E+03    1.96665000E-03 
   6.82024000E+02    1.52306000E-02 
   1.54973000E+02    7.61269000E-02 
   4.44553000E+01    2.60801000E-01 
   1.30290000E+01    6.16462000E-01 
   1.82773000E+00    2.21006000E-01 
SP   3    1.000000
   2.09642000E+01    1.14660000E-01   4.02487000E-02 
   4.80331000E+00    9.19999000E-01   2.37594000E-01 
   1.45933000E+00   -3.03068000E-03   8.15854000E-01 
SP   1    1.000000
   4.83456000E-01    1.00000000E+00   1.00000000E+00 
SP   1    1.000000
   1.45585000E-01    1.00000000E+00   1.00000000E+00 
SP   1    1.000000
   4.38000000E-02    1.00000000E+00   1.00000000E+00 
D    1    1.000000
   6.26000000E-01    1.00000000E+00 

2    0
S    3    1.000000
   3.38650000E+01    2.54938000E-02 
   5.09479000E+00    1.90373000E-01 
   1.15879000E+00    8.52161000E-01 
S    1    1.000000
   3.25840000E-01    1.00000000E+00 
S    1    1.000000
   1.02741000E-01    1.00000000E+00 
S    1    1.000000
   3.60000000E-02    1.00000000E+00 
P    1    1.000000
   7.50000000E-01    1.00000000E+00 

3    0
S    3    1.000000
   3.38650000E+01    2.54938000E-02 
   5.09479000E+00    1.90373000E-01 
   1.15879000E+00    8.52161000E-01 
S    1    1.000000
   3.25840000E-01    1.00000000E+00 
S    1    1.000000
   1.02741000E-01    1.00000000E+00 
S    1    1.000000
   3.60000000E-02    1.00000000E+00 
P    1    1.000000
   7.50000000E-01    1.00000000E+00 

4    0
S    3    1.000000
   3.38650000E+01    2.54938000E-02 
   5.09479000E+00    1.90373000E-01 
   1.15879000E+00    8.52161000E-01 
S    1    1.000000
   3.25840000E-01    1.00000000E+00 
S    1    1.000000
   1.02741000E-01    1.00000000E+00 
S    1    1.000000
   3.60000000E-02    1.00000000E+00 
P    1    1.000000
   7.50000000E-01    1.00000000E+00 

5    0
S    6    1.000000
   4.56324000E+03    1.96665000E-03 
   6.82024000E+02    1.52306000E-02 
   1.54973000E+02    7.61269000E-02 
   4.44553000E+01    2.60801000E-01 
   1.30290000E+01    6.16462000E-01 
   1.82773000E+00    2.21006000E-01 
SP   3    1.000000
   2.09642000E+01    1.14660000E-01   4.02487000E-02 
   4.80331000E+00    9.19999000E-01   2.37594000E-01 
   1.45933000E+00   -3.03068000E-03   8.15854000E-01 
SP   1    1.000000
   4.83456000E-01    1.00000000E+00   1.00000000E+00 
SP   1    1.000000
   1.45585000E-01    1.00000000E+00   1.00000000E+00 
SP   1    1.000000
   4.38000000E-02    1.00000000E+00   1.00000000E+00 
D    1    1.000000
   6.26000000E-01    1.00000000E+00 

6    0
S    6    1.000000
   8.58850000E+03    1.89515000E-03 
   1.29723000E+03    1.43859000E-02 
   2.99296000E+02    7.07320000E-02 
   8.73771000E+01    2.40001000E-01 
   2.56789000E+01    5.94797000E-01 
   3.74004000E+00    2.80802000E-01 
SP   3    1.000000
   4.21175000E+01    1.13889000E-01   3.65114000E-02 
   9.62837000E+00    9.20811000E-01   2.37153000E-01 
   2.85332000E+00   -3.27447000E-03   8.19702000E-01 
SP   1    1.000000
   9.05661000E-01    1.00000000E+00   1.00000000E+00 
SP   1    1.000000
   2.55611000E-01    1.00000000E+00   1.00000000E+00 
SP   1    1.000000
   8.45000000E-02    1.00000000E+00   1.00000000E+00 
D    1    1.000000
   1.29200000E+00    1.00000000E+00 

7    0
S    6    1.000000
   4.56324000E+03    1.96665000E-03 
   6.82024000E+02    1.52306000E-02 
   1.54973000E+02    7.61269000E-02 
   4.44553000E+01    2.60801000E-01 
   1.30290000E+01    6.16462000E-01 
   1.82773000E+00    2.21006000E-01 
SP   3    1.000000
   2.09642000E+01    1.14660000E-01   4.02487000E-02 
   4.80331000E+00    9.19999000E-01   2.37594000E-01 
   1.45933000E+00   -3.03068000E-03   8.15854000E-01 
SP   1    1.000000
   4.83456000E-01    1.00000000E+00   1.00000000E+00 
SP   1    1.000000
   1.45585000E-01    1.00000000E+00   1.00000000E+00 
SP   1    1.000000
   4.38000000E-02    1.00000000E+00   1.00000000E+00 
D    1    1.000000
   6.26000000E-01    1.00000000E+00 

8    0
S    6    1.000000
   8.58850000E+03    1.89515000E-03 
   1.29723000E+03    1.43859000E-02 
   2.99296000E+02    7.07320000E-02 
   8.73771000E+01    2.40001000E-01 
   2.56789000E+01    5.94797000E-01 
   3.74004000E+00    2.80802000E-01 
SP   3    1.000000
   4.21175000E+01    1.13889000E-01   3.65114000E-02 
   9.62837000E+00    9.20811000E-01   2.37153000E-01 
   2.85332000E+00   -3.27447000E-03   8.19702000E-01 
SP   1    1.000000
   9.05661000E-01    1.00000000E+00   1.00000000E+00 
SP   1    1.000000
   2.55611000E-01    1.00000000E+00   1.00000000E+00 
SP   1    1.000000
   8.45000000E-02    1.00000000E+00   1.00000000E+00 
D    1    1.000000
   1.29200000E+00    1.00000000E+00 

9    0
S    6    1.000000
   6.29348000E+03    1.96979000E-03 
   9.49044000E+02    1.49613000E-02 
   2.18776000E+02    7.35006000E-02 
   6.36916000E+01    2.48937000E-01 
   1.88282000E+01    6.02460000E-01 
   2.72023000E+00    2.56202000E-01 
SP   3    1.000000
   3.06331000E+01    1.11906000E-01   3.83119000E-02 
   7.02614000E+00    9.21666000E-01   2.37403000E-01 
   2.11205000E+00   -2.56919000E-03   8.17592000E-01 
SP   1    1.000000
   6.84009000E-01    1.00000000E+00   1.00000000E+00 
SP   1    1.000000
   2.00878000E-01    1.00000000E+00   1.00000000E+00 
SP   1    1.000000
   6.39000000E-02    1.00000000E+00   1.00000000E+00 
D    1    1.000000
   9.13000000E-01    1.00000000E+00 

10    0
S    6    1.000000
   6.29348000E+03    1.96979000E-03 
   9.49044000E+02    1.49613000E-02 
   2.18776000E+02    7.35006000E-02 
   6.36916000E+01    2.48937000E-01 
   1.88282000E+01    6.02460000E-01 
   2.72023000E+00    2.56202000E-01 
SP   3    1.000000
   3.06331000E+01    1.11906000E-01   3.83119000E-02 
   7.02614000E+00    9.21666000E-01   2.37403000E-01 
   2.11205000E+00   -2.56919000E-03   8.17592000E-01 
SP   1    1.000000
   6.84009000E-01    1.00000000E+00   1.00000000E+00 
SP   1    1.000000
   2.00878000E-01    1.00000000E+00   1.00000000E+00 
SP   1    1.000000
   6.39000000E-02    1.00000000E+00   1.00000000E+00 
D    1    1.000000
   9.13000000E-01    1.00000000E+00 

11    0
S    6    1.000000
   4.56324000E+03    1.96665000E-03 
   6.82024000E+02    1.52306000E-02 
   1.54973000E+02    7.61269000E-02 
   4.44553000E+01    2.60801000E-01 
   1.30290000E+01    6.16462000E-01 
   1.82773000E+00    2.21006000E-01 
SP   3    1.000000
   2.09642000E+01    1.14660000E-01   4.02487000E-02 
   4.80331000E+00    9.19999000E-01   2.37594000E-01 
   1.45933000E+00   -3.03068000E-03   8.15854000E-01 
SP   1    1.000000
   4.83456000E-01    1.00000000E+00   1.00000000E+00 
SP   1    1.000000
   1.45585000E-01    1.00000000E+00   1.00000000E+00 
SP   1    1.000000
   4.38000000E-02    1.00000000E+00   1.00000000E+00 
D    1    1.000000
   6.26000000E-01    1.00000000E+00 

12    0
S    3    1.000000
   3.38650000E+01    2.54938000E-02 
   5.09479000E+00    1.90373000E-01 
   1.15879000E+00    8.52161000E-01 
S    1    1.000000
   3.25840000E-01    1.00000000E+00 
S    1    1.000000
   1.02741000E-01    1.00000000E+00 
S    1    1.000000
   3.60000000E-02    1.00000000E+00 
P    1    1.000000
   7.50000000E-01    1.00000000E+00 

[MO]
Sym=X
Ene= -0.493495
Spin=Alpha
Occup=1
     1    2.616748191975e-03
     2    4.468317653999e-03
     3   -7.945517369748e-03
     4   -4.326248250931e-03
     5   -1.818254481435e-14
     6   -1.201739433949e-02
     7   -1.529532510678e-02
     8   -9.984633752031e-03
     9   -3.089346407307e-14
    10   -1.306381079594e-01
    11    3.638587622904e-02
    12   -1.028236728502e-01
    13    1.008784128029e-13
    14   -6.293245117889e+00
    15   -1.381107734164e-01
    16   -2.603909964849e+00
    17    3.631833057480e-13
    18   -1.308201290673e-02
    19    3.252218262942e-15
    20    8.516282591073e-15
    21   -5.401834517157e-03
    22    6.828897929980e-03
    23    5.863848439276e-03
    24    5.115683989169e-02
    25   -2.830843277487e-01
    26   -9.504859709084e-01
    27    9.297556378728e-03
    28    5.551807229921e-03
    29   -2.166351164111e-15
    30    1.525874875206e-02
    31    3.821341424071e-02
    32   -5.783883743531e-02
    33   -1.282153133361e+00
    34    2.271096900431e-03
    35   -2.805945509986e-03
    36   -3.389008230857e-15
    37    2.748671140181e-02
    38    1.395794012402e-01
    39    4.404350837820e-01
    40    1.794220170572e+00
    41   -1.593100804840e-03
    42    4.884582287294e-03
    43    5.128223232771e-15
    44    4.245743710189e-03
    45    7.165542043568e-03
    46   -9.960497670994e-03
    47   -5.287588191050e-03
    48    6.154052688292e-15
    49   -9.706926698240e-03
    50   -1.596306427232e-02
    51   -5.613746461356e-03
    52   -6.397723163387e-14
    53   -2.728839787858e-01
    54   -1.763154362059e-01
    55    4.756553891364e-02
    56    1.575736294005e-13
    57    8.500773234470e-01
    58    1.840462492330e-02
    59   -1.071567566155e+00
    60    5.687521389799e-13
    61   -1.178124865807e-02
    62   -1.280181480421e-14
    63    1.289948164732e-14
    64    1.006165018486e-02
    65   -1.078097019485e-03
    66   -3.321961768618e-03
    67   -5.747905612086e-03
    68    2.880956811009e-03
    69   -1.605543985557e-02
    70    2.484630664419e-14
    71    2.003364895865e-02
    72    1.150706764571e-03
    73   -2.115414594754e-02
    74    2.363812121232e-14
    75   -9.621074201049e-03
    76    1.361309564143e-02
    77   -3.257028746892e-02
    78    1.143992496099e-13
    79    5.291263809597e-02
    80   -4.632208437025e-02
    81    1.018727143205e-01
    82   -4.596973676831e-13
    83   -1.269342836978e-03
    84    1.903931463712e-15
    85   -4.792722454398e-16
    86   -1.442228716054e-03
    87   -6.913912551717e-04
    88    8.565234707131e-03
    89    1.458555509668e-02
    90   -6.298664085593e-02
    91   -4.205617597624e-02
    92   -1.191156738418e-15
    93   -1.305239362830e-02
    94   -1.120675904978e-01
    95   -7.130651437892e-02
    96   -2.732605698782e-14
    97   -6.226378112362e-01
    98   -2.248301016947e-01
    99   -2.492631052160e-01
   100   -5.167518352169e-15
   101   -9.670983175358e+00
   102    1.103501934655e+00
   103    1.393251453659e+00
   104   -1.745252125450e-13
   105   -2.243652654963e-02
   106   -1.703743838657e-15
   107    7.134966949989e-16
   108    1.672296734891e-02
   109    3.294866991788e-02
   110   -1.479864872216e-02
   111   -2.549971387201e-02
   112   -7.118447257045e-02
   113   -6.629432030731e-02
   114    3.586638143304e-15
   115    8.270090780810e-02
   116   -9.322355338822e-02
   117   -8.972627995068e-02
   118    8.482245358785e-15
   119    2.379701983994e-01
   120   -1.686138736774e-01
   121   -1.241361220401e-01
   122   -4.256552120497e-14
   123    7.824522795477e-01
   124   -2.080768440269e-01
   125   -1.796625978809e-01
   126    1.607737103165e-13
   127   -7.263943924792e-04
   128   -3.053061839868e-16
   129    1.367034720424e-15
   130   -1.737755077487e-03
   131   -3.532588874145e-03
   132    3.298023766825e-03
   133    5.651956418914e-03
   134   -1.240808901197e-02
   135   -4.001318522518e-02
   136    4.705175864151e-15
   137   -1.550367598585e-02
   138   -1.875691856313e-02
   139   -6.241759078004e-02
   140    5.127984109718e-15
   141   -1.932339199229e-02
   142   -1.541252892420e-02
   143   -2.311630674313e-01
   144   -2.312222610123e-15
   145    1.579123478742e+00
   146   -1.055944848457e-02
   147   -6.031667012602e-01
   148   -2.915488517351e-14
   149   -8.265540581234e-03
   150   -3.156934697703e-15
   151    3.594982638847e-15
   152   -1.384910861900e-02
   153   -6.970821850280e-03
   154   -7.421331898989e-03
   155   -1.250836245832e-02
   156   -1.792696715811e-02
   157   -1.187984736378e-02
   158    2.220767090076e-14
   159    3.300624084791e-02
   160   -3.355860803940e-02
   161   -2.121519241038e-02
   162    2.517255552864e-14
   163    1.945720224925e-01
   164    5.506560708709e-02
   165    2.926267863790e-02
   166    6.856592948001e-14
   167    1.214026980048e+00
   168   -1.721898058872e-01
   169   -3.943672538175e-01
   170   -6.118554520046e-13
   171   -6.064837442729e-03
   172   -1.675656052616e-15
   173    6.039983795124e-15
   174   -9.411614311576e-04
   175   -1.636965496177e-03
   176    2.456683339175e-03
   177    3.981694559932e-03
   178   -2.999157695080e-02
   179    2.149874053872e-02
   180    1.491090672964e-14
   181   -7.771300155250e-03
   182   -3.907261856314e-02
   183    4.035255461327e-02
   184    2.320055524142e-14
   185   -7.267630156392e-02
   186   -2.074316873814e-01
   187    1.168466824344e-01
   188   -3.447237690144e-14
   189    9.398888872303e+00
   190   -3.075046560185e+00
   191    2.485287534443e+00
   192   -1.799796276285e-13
   193   -1.456566053466e-02
   194    3.527184904893e-15
   195   -1.057008432436e-15
   196   -3.243716324350e-03
   197   -2.362485984996e-02
   198    2.180195335651e-02
   199    6.035578635177e-02
   200    6.234818807282e-01
   201    3.065400056357e+00
   202    6.273842793711e-03
   203   -6.878199058057e-03
   204    5.500704098824e-15
Sym=X
Ene= 0.493495
Spin=Alpha
Occup=0
     1   -6.599197907468e-03
     2   -1.209861576590e-02
     3    1.206162649355e-02
     4    1.978714136063e-02
     5   -2.158574494853e-14
     6    5.916555400093e-02
     7    1.279481313966e-02
     8    2.530171789001e-02
     9    1.439979825762e-14
    10   -3.626814501685e-01
    11   -3.515647725742e-02
    12   -2.323509904800e-01
    13   -3.057908926209e-14
    14   -8.924762155458e+00
    15   -8.569360970784e-01
    16   -2.353613915202e+00
    17    9.214495153193e-15
    18   -8.497121151144e-03
    19   -1.145033276306e-14
    20    1.360800000265e-14
    21   -9.250772186822e-03
    22    4.882364462735e-03
    23    9.469077541771e-03
    24    8.108686384726e-02
    25    4.777140157529e-01
    26    1.966026491446e+00
    27   -2.240887213461e-03
    28   -4.652715780366e-03
    29    1.570209777788e-14
    30    9.582432537505e-03
    31   -2.219899537608e-02
    32    5.600012556076e-02
    33   -4.923778207195e-01
    34   -5.540189484101e-03
    35   -4.964702338899e-03
    36   -3.796352830770e-15
    37   -1.782594547131e-03
    38    5.385331709465e-02
    39    1.204121695073e-01
    40   -6.304615683376e-02
    41    5.275324085379e-03
    42   -8.202987606713e-03
    43    9.488818425862e-15
    44   -6.756503587648e-03
    45   -1.305396483173e-02
    46    1.389911350008e-02
    47   -4.567342813284e-03
    48   -2.149469629220e-14
    49    7.613823061562e-02
    50    2.658014397577e-02
    51   -7.929711529351e-03
    52   -6.808343880503e-14
    53   -4.334296166493e-01
    54   -1.855764748286e-01
    55    1.461399033195e-01
    56   -1.775595859048e-13
    57    1.582839864721e+00
    58    1.260365957047e+00
    59    1.102343279997e-01
    60   -5.152344471582e-13
    61   -7.596787915672e-03
    62   -6.717612314241e-15
    63    3.801576631404e-15
    64   -5.786587854918e-04
    65   -7.880533232425e-03
    66   -3.466255166909e-03
    67   -6.076642205494e-03
    68    1.144956072474e-02
    69    6.979287540642e-03
    70    2.228783536618e-14
    71    2.328587530041e-02
    72    1.164627266498e-02
    73    1.224042881848e-02
    74    4.838124776383e-14
    75   -3.092035719410e-02
    76    4.268587599019e-02
    77    1.818297431596e-03
    78    3.624584890302e-14
    79    2.759570536250e-01
    80   -8.983456529396e-02
    81    1.341586978891e-02
    82    2.477992475879e-13
    83   -1.353696731520e-03
    84   -2.326980418414e-15
    85    1.264645220555e-16
    86    1.216924553008e-03
    87   -2.381844862533e-04
    88   -1.291612106163e-03
    89   -2.958187560341e-03
    90    2.495304725202e-02
    91    1.037797760937e-02
    92    2.391672759945e-14
    93    3.160833652160e-02
    94    3.686551113883e-02
    95    1.956727771620e-02
    96   -1.385903967402e-14
    97   -4.248465474664e-01
    98    5.048241431313e-01
    99    2.518172819170e-01
   100    1.587426382943e-13
   101   -1.695012660484e+01
   102    3.967339794983e+00
   103    4.092203323860e+00
   104    8.883731698932e-13
   105   -1.730613120088e-02
   106   -7.123794921352e-15
   107    6.742829617637e-15
   108   -3.952401129666e-03
   109   -6.715807701931e-03
   110    1.273798625178e-02
   111    2.197159445108e-02
   112   -1.530762056850e-02
   113   -8.621757503926e-05
   114    2.705175693031e-14
   115   -7.627552881293e-02
   116   -2.182386566267e-02
   117   -3.622158365336e-03
   118   -5.279710857843e-15
   119   -1.798274888052e-01
   120    3.316136831023e-02
   121    5.134089466818e-02
   122    1.639672703556e-13
   123   -7.652756157565e-01
   124    4.415485105998e-07
   125   -5.527865018472e-02
   126   -7.533923705442e-13
   127   -3.322619441596e-03
   128   -2.952746824851e-15
   129   -1.753290351462e-15
   130   -4.923502798373e-05
   131    3.570443145329e-04
   132   -7.142931653177e-03
   133   -1.215256330804e-02
   134    1.398166351559e-02
   135   -4.344136755731e-03
   136    1.038644777871e-14
   137    3.520659643747e-02
   138    1.761461130871e-02
   139   -1.439648715688e-03
   140    1.846951054507e-14
   141    2.454664163276e-01
   142    5.806189412476e-02
   143   -2.188762227067e-01
   144    4.039912778931e-14
   145    2.600317301198e+00
   146    5.166084923156e-01
   147   -7.755157931766e-01
   148   -7.548121345669e-14
   149   -8.417275854639e-03
   150    5.271648360014e-15
   151    2.182847090582e-15
   152    5.256145259832e-03
   153    7.193466847965e-03
   154    5.626521291643e-03
   155    9.814427360555e-03
   156    2.309875617928e-02
   157    2.053738587074e-02
   158    1.714010570228e-14
   159   -3.256185034582e-02
   160    3.277328526259e-02
   161    3.081166379444e-02
   162    3.377873056675e-14
   163    2.379170238411e-02
   164    1.877598597968e-01
   165    1.401093649416e-01
   166    5.035449574307e-14
   167    1.289642559345e+00
   168    8.997365868119e-01
   169    2.931560023023e-01
   170    1.169812553481e-13
   171   -7.856670575854e-03
   172   -1.052215725056e-14
   173    1.463576751549e-15
   174   -2.594676305988e-04
   175    2.485504052298e-03
   176   -8.327339653836e-03
   177   -1.429153329974e-02
   178   -5.662486732231e-04
   179    3.372596966286e-03
   180   -6.519193898617e-15
   181    3.498304329283e-02
   182   -5.529223278543e-03
   183   -1.918112709630e-04
   184   -1.851703743678e-14
   185    5.795770521327e-01
   186   -3.088937024623e-01
   187    2.580785004148e-01
   188   -1.178115627943e-13
   189    1.886574337380e+01
   190   -3.467161483669e+00
   191    3.505393105417e+00
   192   -1.488279872505e-13
   193   -1.681195915715e-02
   194    4.047986417508e-15
   195    1.388578225925e-15
   196    1.031522839045e-02
   197    7.542897947987e-03
   198    2.704506642340e-03
   199    2.415561315063e-02
   200    4.024259850357e-01
   201    9.849564114844e-01
   202    6.533421886672e-04
   203    6.814726617688e-03
   204    2.677876262129e-15
[5D]
