[Molden Format]
[Atoms] (Angs)
  C      1    6     -0.00754183     -1.75895763      0.00000000
  H      2    1     -2.09769850     -1.41880678     -0.00000000
  H      3    1     -0.13527422     -2.83956838     -0.00000000
  H      4    1      0.04053511      2.02026369      0.00000000
  C      5    6     -1.22066484      0.39918184     -0.00000000
  O      6    8     -2.25210141      1.05663720     -0.00000000
  C      7    6      1.24009552      0.27789184      0.00000000
  O      8    8      2.33767996      1.06122493      0.00000000
  N      9    7      0.03634586      1.00852936      0.00000000
  N     10    7     -1.18738304     -0.97903470     -0.00000000
  C     11    6      1.22288875     -1.12258096      0.00000000
  H     12    1      2.15640383     -1.68445878      0.00000000
[GTO]
1    0
S    6    1.000000
   4.56324000E+03    1.96665000E-03 
   6.82024000E+02    1.52306000E-02 
   1.54973000E+02    7.61269000E-02 
   4.44553000E+01    2.60801000E-01 
   1.30290000E+01    6.16462000E-01 
   1.82773000E+00    2.21006000E-01 
SP   3    1.000000
   2.09642000E+01    1.14660000E-01   4.02487000E-02 
   4.80331000E+00    9.19999000E-01   2.37594000E-01 
   1.45933000E+00   -3.03068000E-03   8.15854000E-01 
SP   1    1.000000
   4.83456000E-01    1.00000000E+00   1.00000000E+00 
SP   1    1.000000
   1.45585000E-01    1.00000000E+00   1.00000000E+00 
SP   1    1.000000
   4.38000000E-02    1.00000000E+00   1.00000000E+00 
D    1    1.000000
   6.26000000E-01    1.00000000E+00 

2    0
S    3    1.000000
   3.38650000E+01    2.54938000E-02 
   5.09479000E+00    1.90373000E-01 
   1.15879000E+00    8.52161000E-01 
S    1    1.000000
   3.25840000E-01    1.00000000E+00 
S    1    1.000000
   1.02741000E-01    1.00000000E+00 
S    1    1.000000
   3.60000000E-02    1.00000000E+00 
P    1    1.000000
   7.50000000E-01    1.00000000E+00 

3    0
S    3    1.000000
   3.38650000E+01    2.54938000E-02 
   5.09479000E+00    1.90373000E-01 
   1.15879000E+00    8.52161000E-01 
S    1    1.000000
   3.25840000E-01    1.00000000E+00 
S    1    1.000000
   1.02741000E-01    1.00000000E+00 
S    1    1.000000
   3.60000000E-02    1.00000000E+00 
P    1    1.000000
   7.50000000E-01    1.00000000E+00 

4    0
S    3    1.000000
   3.38650000E+01    2.54938000E-02 
   5.09479000E+00    1.90373000E-01 
   1.15879000E+00    8.52161000E-01 
S    1    1.000000
   3.25840000E-01    1.00000000E+00 
S    1    1.000000
   1.02741000E-01    1.00000000E+00 
S    1    1.000000
   3.60000000E-02    1.00000000E+00 
P    1    1.000000
   7.50000000E-01    1.00000000E+00 

5    0
S    6    1.000000
   4.56324000E+03    1.96665000E-03 
   6.82024000E+02    1.52306000E-02 
   1.54973000E+02    7.61269000E-02 
   4.44553000E+01    2.60801000E-01 
   1.30290000E+01    6.16462000E-01 
   1.82773000E+00    2.21006000E-01 
SP   3    1.000000
   2.09642000E+01    1.14660000E-01   4.02487000E-02 
   4.80331000E+00    9.19999000E-01   2.37594000E-01 
   1.45933000E+00   -3.03068000E-03   8.15854000E-01 
SP   1    1.000000
   4.83456000E-01    1.00000000E+00   1.00000000E+00 
SP   1    1.000000
   1.45585000E-01    1.00000000E+00   1.00000000E+00 
SP   1    1.000000
   4.38000000E-02    1.00000000E+00   1.00000000E+00 
D    1    1.000000
   6.26000000E-01    1.00000000E+00 

6    0
S    6    1.000000
   8.58850000E+03    1.89515000E-03 
   1.29723000E+03    1.43859000E-02 
   2.99296000E+02    7.07320000E-02 
   8.73771000E+01    2.40001000E-01 
   2.56789000E+01    5.94797000E-01 
   3.74004000E+00    2.80802000E-01 
SP   3    1.000000
   4.21175000E+01    1.13889000E-01   3.65114000E-02 
   9.62837000E+00    9.20811000E-01   2.37153000E-01 
   2.85332000E+00   -3.27447000E-03   8.19702000E-01 
SP   1    1.000000
   9.05661000E-01    1.00000000E+00   1.00000000E+00 
SP   1    1.000000
   2.55611000E-01    1.00000000E+00   1.00000000E+00 
SP   1    1.000000
   8.45000000E-02    1.00000000E+00   1.00000000E+00 
D    1    1.000000
   1.29200000E+00    1.00000000E+00 

7    0
S    6    1.000000
   4.56324000E+03    1.96665000E-03 
   6.82024000E+02    1.52306000E-02 
   1.54973000E+02    7.61269000E-02 
   4.44553000E+01    2.60801000E-01 
   1.30290000E+01    6.16462000E-01 
   1.82773000E+00    2.21006000E-01 
SP   3    1.000000
   2.09642000E+01    1.14660000E-01   4.02487000E-02 
   4.80331000E+00    9.19999000E-01   2.37594000E-01 
   1.45933000E+00   -3.03068000E-03   8.15854000E-01 
SP   1    1.000000
   4.83456000E-01    1.00000000E+00   1.00000000E+00 
SP   1    1.000000
   1.45585000E-01    1.00000000E+00   1.00000000E+00 
SP   1    1.000000
   4.38000000E-02    1.00000000E+00   1.00000000E+00 
D    1    1.000000
   6.26000000E-01    1.00000000E+00 

8    0
S    6    1.000000
   8.58850000E+03    1.89515000E-03 
   1.29723000E+03    1.43859000E-02 
   2.99296000E+02    7.07320000E-02 
   8.73771000E+01    2.40001000E-01 
   2.56789000E+01    5.94797000E-01 
   3.74004000E+00    2.80802000E-01 
SP   3    1.000000
   4.21175000E+01    1.13889000E-01   3.65114000E-02 
   9.62837000E+00    9.20811000E-01   2.37153000E-01 
   2.85332000E+00   -3.27447000E-03   8.19702000E-01 
SP   1    1.000000
   9.05661000E-01    1.00000000E+00   1.00000000E+00 
SP   1    1.000000
   2.55611000E-01    1.00000000E+00   1.00000000E+00 
SP   1    1.000000
   8.45000000E-02    1.00000000E+00   1.00000000E+00 
D    1    1.000000
   1.29200000E+00    1.00000000E+00 

9    0
S    6    1.000000
   6.29348000E+03    1.96979000E-03 
   9.49044000E+02    1.49613000E-02 
   2.18776000E+02    7.35006000E-02 
   6.36916000E+01    2.48937000E-01 
   1.88282000E+01    6.02460000E-01 
   2.72023000E+00    2.56202000E-01 
SP   3    1.000000
   3.06331000E+01    1.11906000E-01   3.83119000E-02 
   7.02614000E+00    9.21666000E-01   2.37403000E-01 
   2.11205000E+00   -2.56919000E-03   8.17592000E-01 
SP   1    1.000000
   6.84009000E-01    1.00000000E+00   1.00000000E+00 
SP   1    1.000000
   2.00878000E-01    1.00000000E+00   1.00000000E+00 
SP   1    1.000000
   6.39000000E-02    1.00000000E+00   1.00000000E+00 
D    1    1.000000
   9.13000000E-01    1.00000000E+00 

10    0
S    6    1.000000
   6.29348000E+03    1.96979000E-03 
   9.49044000E+02    1.49613000E-02 
   2.18776000E+02    7.35006000E-02 
   6.36916000E+01    2.48937000E-01 
   1.88282000E+01    6.02460000E-01 
   2.72023000E+00    2.56202000E-01 
SP   3    1.000000
   3.06331000E+01    1.11906000E-01   3.83119000E-02 
   7.02614000E+00    9.21666000E-01   2.37403000E-01 
   2.11205000E+00   -2.56919000E-03   8.17592000E-01 
SP   1    1.000000
   6.84009000E-01    1.00000000E+00   1.00000000E+00 
SP   1    1.000000
   2.00878000E-01    1.00000000E+00   1.00000000E+00 
SP   1    1.000000
   6.39000000E-02    1.00000000E+00   1.00000000E+00 
D    1    1.000000
   9.13000000E-01    1.00000000E+00 

11    0
S    6    1.000000
   4.56324000E+03    1.96665000E-03 
   6.82024000E+02    1.52306000E-02 
   1.54973000E+02    7.61269000E-02 
   4.44553000E+01    2.60801000E-01 
   1.30290000E+01    6.16462000E-01 
   1.82773000E+00    2.21006000E-01 
SP   3    1.000000
   2.09642000E+01    1.14660000E-01   4.02487000E-02 
   4.80331000E+00    9.19999000E-01   2.37594000E-01 
   1.45933000E+00   -3.03068000E-03   8.15854000E-01 
SP   1    1.000000
   4.83456000E-01    1.00000000E+00   1.00000000E+00 
SP   1    1.000000
   1.45585000E-01    1.00000000E+00   1.00000000E+00 
SP   1    1.000000
   4.38000000E-02    1.00000000E+00   1.00000000E+00 
D    1    1.000000
   6.26000000E-01    1.00000000E+00 

12    0
S    3    1.000000
   3.38650000E+01    2.54938000E-02 
   5.09479000E+00    1.90373000E-01 
   1.15879000E+00    8.52161000E-01 
S    1    1.000000
   3.25840000E-01    1.00000000E+00 
S    1    1.000000
   1.02741000E-01    1.00000000E+00 
S    1    1.000000
   3.60000000E-02    1.00000000E+00 
P    1    1.000000
   7.50000000E-01    1.00000000E+00 

[MO]
Sym=X
Ene= -0.148120
Spin=Alpha
Occup=1
     1    4.161261034045e-07
     2    2.387838136454e-07
     3    4.347009862657e-06
     4   -4.873260128956e-06
     5    4.732061838843e-16
     6   -3.043200760346e-06
     7   -1.852063549704e-05
     8    1.698854408023e-05
     9   -8.627903838792e-16
    10    2.304777244133e-04
    11   -7.196735245863e-05
    12   -4.055434320344e-06
    13    2.281644028100e-16
    14   -4.417028278315e-04
    15   -5.520092299089e-04
    16   -1.008196228779e-04
    17   -7.033565112694e-15
    18   -2.447196103943e-06
    19   -1.458942307256e-16
    20    5.521476808745e-16
    21   -3.106305068644e-06
    22   -4.442825439679e-06
    23   -3.340312328878e-06
    24   -4.807945091413e-05
    25   -1.049344068153e-04
    26   -2.593021553655e-04
    27   -9.285660231690e-06
    28    7.880920236501e-06
    29   -7.059456776444e-16
    30    4.560349609891e-06
    31   -3.057004177077e-05
    32    8.385988577342e-06
    33   -6.204619576686e-05
    34    2.209003349902e-06
    35   -3.852619665790e-06
    36    1.175968779609e-15
    37   -3.063479451833e-06
    38   -6.108702891368e-05
    39   -6.951671390853e-05
    40   -3.116206581059e-04
    41   -9.929838756363e-06
    42    7.604508525844e-06
    43   -4.719849021172e-16
    44   -4.006556817567e-06
    45    7.629756535588e-05
    46    5.768818108963e-05
    47   -3.492868719475e-05
    48   -1.841238790279e-15
    49   -2.932042282382e-04
    50    3.537973621878e-04
    51   -2.233231517597e-04
    52    2.822056094370e-15
    53    6.958007788289e-05
    54    4.161795279493e-04
    55   -2.707546532075e-04
    56   -4.606156209352e-15
    57   -4.604929640492e-04
    58   -6.026630639020e-04
    59    4.542672340445e-04
    60   -1.625115342154e-15
    61    5.240113901013e-05
    62   -8.304457475766e-16
    63    7.642357144797e-17
    64   -8.885489716604e-05
    65    1.824344108313e-04
    66   -5.514988471793e-01
    67   -4.716710788558e-01
    68   -1.528835534933e-03
    69    9.671262768682e-04
    70   -8.422799865109e-16
    71   -5.482292756195e-03
    72    6.266584451384e-04
    73   -3.869711466726e-04
    74    7.245303893979e-16
    75    1.248601106477e-03
    76   -1.442605917048e-04
    77    1.100796965956e-04
    78   -7.511990908938e-16
    79   -1.437246604161e-03
    80   -6.122318461946e-05
    81    1.486363458503e-05
    82    1.142355538181e-15
    83    1.164692013231e-04
    84   -1.290332321791e-16
    85    1.101608424286e-15
    86    2.905251077309e-05
    87   -7.522074768154e-05
    88    3.422682184811e-07
    89   -5.910968626878e-07
    90    3.836038524908e-06
    91   -2.548924657509e-06
    92    7.688226695665e-16
    93    5.231419111754e-06
    94   -1.738273639379e-05
    95    1.371691738908e-05
    96    1.677302820063e-16
    97    1.824041077360e-04
    98   -5.606593331056e-05
    99    4.953636707865e-05
   100   -6.905598567830e-16
   101   -9.126144309030e-04
   102   -1.040576981088e-04
   103    7.323960404520e-04
   104   -2.845301735763e-15
   105   -2.387216501856e-06
   106    3.118759566728e-16
   107    3.151333413383e-16
   108    6.136877589110e-06
   109   -2.973092816037e-07
   110    4.453565083149e-06
   111    3.499893111525e-06
   112   -5.465172216828e-07
   113    5.099288295393e-07
   114   -8.892670204954e-16
   115    8.654867024867e-06
   116   -9.918928550891e-07
   117   -2.211922192943e-06
   118    2.174948698187e-15
   119   -4.524106091212e-05
   120    1.485536535555e-05
   121    1.198617000962e-05
   122   -1.676584460248e-15
   123    1.441959583425e-04
   124   -7.938499805952e-05
   125   -5.892763782068e-05
   126    6.922673137775e-16
   127   -3.685803326611e-07
   128    2.716339657315e-16
   129   -1.702785135196e-16
   130   -8.454238204732e-07
   131   -6.538877369997e-07
   132   -2.287582152280e-07
   133   -1.015574254229e-06
   134   -1.145641966494e-05
   135   -5.971317078043e-07
   136    3.931236319082e-16
   137    2.374996966954e-05
   138    3.207655136596e-05
   139    4.833056074149e-07
   140   -1.809405575648e-15
   141   -2.441366200800e-04
   142   -4.257534833668e-05
   143    2.321703350092e-04
   144    3.511985384534e-15
   145    5.759154519942e-05
   146   -5.188016079632e-04
   147    2.801685214197e-05
   148    1.203215709488e-15
   149    7.196313731372e-06
   150    2.356367435514e-16
   151    1.131621868033e-15
   152   -2.121680107455e-05
   153   -9.989525382967e-06
   154   -8.742149941784e-07
   155   -1.832966934594e-06
   156   -6.223430574059e-06
   157    1.123174820228e-05
   158   -8.889263546736e-16
   159    2.575317266898e-05
   160    1.810058930987e-05
   161   -2.851647124344e-05
   162    2.152823771024e-16
   163   -2.571967271062e-04
   164   -2.227403645355e-04
   165   -6.198708529319e-05
   166    9.127509108634e-16
   167    6.615054408662e-05
   168   -3.032482891004e-04
   169    3.413285562694e-04
   170    5.389731329708e-15
   171    8.753737880107e-06
   172   -1.981909985636e-16
   173   -3.222451185478e-16
   174    1.998059598026e-05
   175    1.349325015035e-05
   176   -1.283837380752e-07
   177    6.181109477738e-07
   178   -1.866870391738e-06
   179    5.027939510798e-07
   180    6.956896357159e-17
   181   -9.518443635012e-06
   182    9.792204540881e-06
   183   -3.043572370316e-06
   184    1.326827204631e-15
   185    4.118080752701e-05
   186   -3.889657005781e-05
   187    1.797477813465e-05
   188   -2.890498509243e-15
   189    2.832974645135e-03
   190   -4.175555771651e-04
   191    2.906444356026e-04
   192    7.389425362152e-15
   193   -3.591641099099e-06
   194    4.811377816021e-16
   195    5.300973713031e-17
   196   -1.928480271643e-06
   197    2.541385652377e-06
   198   -8.404954884061e-07
   199    6.356305716600e-06
   200    1.637011749993e-05
   201    1.511909967669e-04
   202    2.972431743281e-07
   203   -3.539895763141e-07
   204    9.820076541018e-16
Sym=X
Ene= 0.148120
Spin=Alpha
Occup=0
     1   -2.273903368151e-07
     2    3.309155710086e-06
     3    5.000083527454e-07
     4    1.934058657145e-06
     5    5.950672990785e-16
     6   -2.281058574755e-05
     7   -1.427288723774e-05
     8   -1.641228088380e-05
     9   -1.089799361327e-15
    10    3.271300878798e-04
    11    7.490993193474e-05
    12    1.990429117332e-04
    13    6.664218537136e-15
    14    1.536039727178e-04
    15   -2.189473275128e-04
    16    5.962763574345e-04
    17   -1.039847272708e-14
    18   -1.274972154248e-06
    19    6.863059985725e-16
    20    1.006763306623e-15
    21    2.948840797533e-06
    22   -1.303949391987e-05
    23   -5.409949667063e-07
    24   -1.183604611265e-05
    25    6.715189106062e-05
    26   -4.694991576838e-05
    27    1.993997951098e-06
    28   -1.153588640887e-06
    29    1.216296755290e-15
    30    5.431713116945e-07
    31    4.545439832701e-06
    32    1.391891730912e-04
    33    2.921183070155e-04
    34   -4.737332754600e-06
    35   -8.431795664669e-08
    36   -1.601700403531e-15
    37   -4.833308478620e-06
    38   -3.808914894772e-05
    39   -5.516483478999e-05
    40   -8.412167802285e-05
    41    2.108558189629e-06
    42    1.071296588269e-05
    43   -7.934328132451e-16
    44    1.086924088245e-07
    45    5.932447055850e-07
    46   -8.344926911204e-07
    47    4.799453551863e-08
    48   -1.070844053730e-15
    49   -4.214750837407e-06
    50   -4.446809748533e-07
    51   -1.396176201667e-06
    52    1.288371897864e-15
    53    1.296186669472e-04
    54    1.599300865118e-04
    55   -1.897249303288e-05
    56    1.027184730296e-15
    57    2.112430404045e-04
    58    2.767037838768e-06
    59    1.694471592426e-04
    60   -6.938229709612e-15
    61   -3.670400172314e-06
    62   -4.668250763090e-16
    63    6.208090408617e-16
    64   -1.746139265976e-06
    65   -3.655588282950e-06
    66   -4.541724937523e-06
    67   -4.343895817660e-06
    68    7.738548138214e-07
    69   -2.129808339606e-07
    70   -2.543636109571e-16
    71   -1.599048961621e-07
    72   -1.264838694141e-06
    73    2.022439595248e-06
    74    1.483626964323e-15
    75    7.505029830700e-06
    76   -9.442750279152e-07
    77   -1.240252703117e-05
    78   -3.128180557604e-15
    79    2.654220600504e-04
    80    1.334769031157e-04
    81   -4.493077476316e-05
    82    3.945941944991e-15
    83   -2.427055071492e-07
    84    5.148507093903e-16
    85    2.700781774441e-16
    86   -1.182969953685e-06
    87    3.860397412670e-07
    88    6.965083739684e-07
    89    5.066514160626e-05
    90   -4.831554289291e-06
    91   -6.262485556638e-06
    92    1.828545197143e-16
    93   -1.540768796202e-04
    94   -3.181393859669e-04
    95   -2.330369498084e-04
    96   -4.340490663455e-16
    97    3.298823959863e-04
    98    2.440377982250e-05
    99   -8.874658856236e-05
   100    3.838763916178e-15
   101    1.910075423279e-03
   102    7.779495177047e-04
   103   -3.218190009571e-04
   104   -1.032810530349e-14
   105    4.133091811604e-05
   106    3.349840296448e-16
   107    1.047381848248e-15
   108   -8.764479855521e-05
   109   -2.009285392238e-04
   110   -5.515862935062e-01
   111   -4.717079649383e-01
   112    1.423543575897e-03
   113    9.633917237562e-04
   114    7.453361070380e-16
   115   -5.098877651525e-03
   116   -6.554360125042e-04
   117   -4.399109378539e-04
   118    2.676062270711e-16
   119    6.892870729298e-04
   120    2.739824606274e-04
   121    2.090701927639e-04
   122   -2.516586805936e-15
   123   -1.480944571663e-03
   124    7.710469165966e-05
   125    2.913072223812e-05
   126    2.418709865612e-15
   127    7.652225560049e-05
   128    3.166345432030e-16
   129    6.643412307779e-17
   130    4.609939349898e-05
   131    1.719755256928e-04
   132   -4.836404149768e-07
   133    9.040595477782e-07
   134    1.446501492119e-05
   135   -6.238832640046e-06
   136   -9.318747539161e-16
   137    9.328107876568e-06
   138   -4.621310179725e-05
   139    2.535506035210e-05
   140    1.449296630063e-15
   141   -1.455724989964e-04
   142    6.709981991728e-05
   143    1.149327840992e-04
   144   -3.102179897256e-15
   145    3.005890634245e-04
   146    5.283626268087e-04
   147    3.269601949469e-05
   148    5.085290845511e-15
   149    7.418456692884e-06
   150   -8.878662869393e-16
   151    1.317600961563e-17
   152   -2.060110258538e-05
   153    2.460543912261e-05
   154   -6.054039721888e-08
   155    3.669355292557e-07
   156    9.498805612123e-07
   157    1.747583194073e-07
   158   -1.294233984086e-16
   159    3.683582340904e-06
   160   -4.172242074701e-06
   161   -9.800581862857e-07
   162    2.794577504863e-16
   163   -1.123713488641e-04
   164   -6.485119742366e-05
   165   -4.694935551442e-06
   166   -3.380384515607e-15
   167   -2.073626476647e-04
   168    6.543058002390e-05
   169    1.851478565697e-05
   170    5.105436004151e-15
   171    1.628411409524e-07
   172    4.386153709148e-16
   173   -1.634986674037e-16
   174    4.549665991545e-07
   175    2.500289897872e-06
   176   -2.209469278767e-06
   177    1.803040671468e-06
   178    7.383386552914e-06
   179    2.004088980182e-05
   180   -1.044004686963e-15
   181   -1.919256287426e-06
   182   -1.800233954320e-05
   183   -1.066331461695e-04
   184    2.749612744819e-15
   185   -3.327977817531e-04
   186    3.001800154221e-04
   187   -3.707292639823e-05
   188   -8.576359670338e-15
   189   -1.714453263518e-03
   190   -4.945909560841e-05
   191   -1.020965030014e-03
   192    1.606438139432e-14
   193    5.357605082685e-06
   194    3.955372916196e-16
   195   -3.306944785163e-16
   196    5.196692806899e-05
   197   -3.471797333578e-05
   198   -2.287805669547e-06
   199   -9.077073530080e-05
   200   -6.623925782050e-05
   201   -3.239896091520e-04
   202    2.244313091197e-05
   203   -1.355354535035e-05
   204    3.079998370651e-16
[5D]
