[Molden Format]
[Atoms] (Angs)
  C      1    6     -0.00754183     -1.75895763      0.00000000
  H      2    1     -2.09769850     -1.41880678     -0.00000000
  H      3    1     -0.13527422     -2.83956838     -0.00000000
  H      4    1      0.04053511      2.02026369      0.00000000
  C      5    6     -1.22066484      0.39918184     -0.00000000
  O      6    8     -2.25210141      1.05663720     -0.00000000
  C      7    6      1.24009552      0.27789184      0.00000000
  O      8    8      2.33767996      1.06122493      0.00000000
  N      9    7      0.03634586      1.00852936      0.00000000
  N     10    7     -1.18738304     -0.97903470     -0.00000000
  C     11    6      1.22288875     -1.12258096      0.00000000
  H     12    1      2.15640383     -1.68445878      0.00000000
[GTO]
1    0
S    6    1.000000
   4.56324000E+03    1.96665000E-03 
   6.82024000E+02    1.52306000E-02 
   1.54973000E+02    7.61269000E-02 
   4.44553000E+01    2.60801000E-01 
   1.30290000E+01    6.16462000E-01 
   1.82773000E+00    2.21006000E-01 
SP   3    1.000000
   2.09642000E+01    1.14660000E-01   4.02487000E-02 
   4.80331000E+00    9.19999000E-01   2.37594000E-01 
   1.45933000E+00   -3.03068000E-03   8.15854000E-01 
SP   1    1.000000
   4.83456000E-01    1.00000000E+00   1.00000000E+00 
SP   1    1.000000
   1.45585000E-01    1.00000000E+00   1.00000000E+00 
SP   1    1.000000
   4.38000000E-02    1.00000000E+00   1.00000000E+00 
D    1    1.000000
   6.26000000E-01    1.00000000E+00 

2    0
S    3    1.000000
   3.38650000E+01    2.54938000E-02 
   5.09479000E+00    1.90373000E-01 
   1.15879000E+00    8.52161000E-01 
S    1    1.000000
   3.25840000E-01    1.00000000E+00 
S    1    1.000000
   1.02741000E-01    1.00000000E+00 
S    1    1.000000
   3.60000000E-02    1.00000000E+00 
P    1    1.000000
   7.50000000E-01    1.00000000E+00 

3    0
S    3    1.000000
   3.38650000E+01    2.54938000E-02 
   5.09479000E+00    1.90373000E-01 
   1.15879000E+00    8.52161000E-01 
S    1    1.000000
   3.25840000E-01    1.00000000E+00 
S    1    1.000000
   1.02741000E-01    1.00000000E+00 
S    1    1.000000
   3.60000000E-02    1.00000000E+00 
P    1    1.000000
   7.50000000E-01    1.00000000E+00 

4    0
S    3    1.000000
   3.38650000E+01    2.54938000E-02 
   5.09479000E+00    1.90373000E-01 
   1.15879000E+00    8.52161000E-01 
S    1    1.000000
   3.25840000E-01    1.00000000E+00 
S    1    1.000000
   1.02741000E-01    1.00000000E+00 
S    1    1.000000
   3.60000000E-02    1.00000000E+00 
P    1    1.000000
   7.50000000E-01    1.00000000E+00 

5    0
S    6    1.000000
   4.56324000E+03    1.96665000E-03 
   6.82024000E+02    1.52306000E-02 
   1.54973000E+02    7.61269000E-02 
   4.44553000E+01    2.60801000E-01 
   1.30290000E+01    6.16462000E-01 
   1.82773000E+00    2.21006000E-01 
SP   3    1.000000
   2.09642000E+01    1.14660000E-01   4.02487000E-02 
   4.80331000E+00    9.19999000E-01   2.37594000E-01 
   1.45933000E+00   -3.03068000E-03   8.15854000E-01 
SP   1    1.000000
   4.83456000E-01    1.00000000E+00   1.00000000E+00 
SP   1    1.000000
   1.45585000E-01    1.00000000E+00   1.00000000E+00 
SP   1    1.000000
   4.38000000E-02    1.00000000E+00   1.00000000E+00 
D    1    1.000000
   6.26000000E-01    1.00000000E+00 

6    0
S    6    1.000000
   8.58850000E+03    1.89515000E-03 
   1.29723000E+03    1.43859000E-02 
   2.99296000E+02    7.07320000E-02 
   8.73771000E+01    2.40001000E-01 
   2.56789000E+01    5.94797000E-01 
   3.74004000E+00    2.80802000E-01 
SP   3    1.000000
   4.21175000E+01    1.13889000E-01   3.65114000E-02 
   9.62837000E+00    9.20811000E-01   2.37153000E-01 
   2.85332000E+00   -3.27447000E-03   8.19702000E-01 
SP   1    1.000000
   9.05661000E-01    1.00000000E+00   1.00000000E+00 
SP   1    1.000000
   2.55611000E-01    1.00000000E+00   1.00000000E+00 
SP   1    1.000000
   8.45000000E-02    1.00000000E+00   1.00000000E+00 
D    1    1.000000
   1.29200000E+00    1.00000000E+00 

7    0
S    6    1.000000
   4.56324000E+03    1.96665000E-03 
   6.82024000E+02    1.52306000E-02 
   1.54973000E+02    7.61269000E-02 
   4.44553000E+01    2.60801000E-01 
   1.30290000E+01    6.16462000E-01 
   1.82773000E+00    2.21006000E-01 
SP   3    1.000000
   2.09642000E+01    1.14660000E-01   4.02487000E-02 
   4.80331000E+00    9.19999000E-01   2.37594000E-01 
   1.45933000E+00   -3.03068000E-03   8.15854000E-01 
SP   1    1.000000
   4.83456000E-01    1.00000000E+00   1.00000000E+00 
SP   1    1.000000
   1.45585000E-01    1.00000000E+00   1.00000000E+00 
SP   1    1.000000
   4.38000000E-02    1.00000000E+00   1.00000000E+00 
D    1    1.000000
   6.26000000E-01    1.00000000E+00 

8    0
S    6    1.000000
   8.58850000E+03    1.89515000E-03 
   1.29723000E+03    1.43859000E-02 
   2.99296000E+02    7.07320000E-02 
   8.73771000E+01    2.40001000E-01 
   2.56789000E+01    5.94797000E-01 
   3.74004000E+00    2.80802000E-01 
SP   3    1.000000
   4.21175000E+01    1.13889000E-01   3.65114000E-02 
   9.62837000E+00    9.20811000E-01   2.37153000E-01 
   2.85332000E+00   -3.27447000E-03   8.19702000E-01 
SP   1    1.000000
   9.05661000E-01    1.00000000E+00   1.00000000E+00 
SP   1    1.000000
   2.55611000E-01    1.00000000E+00   1.00000000E+00 
SP   1    1.000000
   8.45000000E-02    1.00000000E+00   1.00000000E+00 
D    1    1.000000
   1.29200000E+00    1.00000000E+00 

9    0
S    6    1.000000
   6.29348000E+03    1.96979000E-03 
   9.49044000E+02    1.49613000E-02 
   2.18776000E+02    7.35006000E-02 
   6.36916000E+01    2.48937000E-01 
   1.88282000E+01    6.02460000E-01 
   2.72023000E+00    2.56202000E-01 
SP   3    1.000000
   3.06331000E+01    1.11906000E-01   3.83119000E-02 
   7.02614000E+00    9.21666000E-01   2.37403000E-01 
   2.11205000E+00   -2.56919000E-03   8.17592000E-01 
SP   1    1.000000
   6.84009000E-01    1.00000000E+00   1.00000000E+00 
SP   1    1.000000
   2.00878000E-01    1.00000000E+00   1.00000000E+00 
SP   1    1.000000
   6.39000000E-02    1.00000000E+00   1.00000000E+00 
D    1    1.000000
   9.13000000E-01    1.00000000E+00 

10    0
S    6    1.000000
   6.29348000E+03    1.96979000E-03 
   9.49044000E+02    1.49613000E-02 
   2.18776000E+02    7.35006000E-02 
   6.36916000E+01    2.48937000E-01 
   1.88282000E+01    6.02460000E-01 
   2.72023000E+00    2.56202000E-01 
SP   3    1.000000
   3.06331000E+01    1.11906000E-01   3.83119000E-02 
   7.02614000E+00    9.21666000E-01   2.37403000E-01 
   2.11205000E+00   -2.56919000E-03   8.17592000E-01 
SP   1    1.000000
   6.84009000E-01    1.00000000E+00   1.00000000E+00 
SP   1    1.000000
   2.00878000E-01    1.00000000E+00   1.00000000E+00 
SP   1    1.000000
   6.39000000E-02    1.00000000E+00   1.00000000E+00 
D    1    1.000000
   9.13000000E-01    1.00000000E+00 

11    0
S    6    1.000000
   4.56324000E+03    1.96665000E-03 
   6.82024000E+02    1.52306000E-02 
   1.54973000E+02    7.61269000E-02 
   4.44553000E+01    2.60801000E-01 
   1.30290000E+01    6.16462000E-01 
   1.82773000E+00    2.21006000E-01 
SP   3    1.000000
   2.09642000E+01    1.14660000E-01   4.02487000E-02 
   4.80331000E+00    9.19999000E-01   2.37594000E-01 
   1.45933000E+00   -3.03068000E-03   8.15854000E-01 
SP   1    1.000000
   4.83456000E-01    1.00000000E+00   1.00000000E+00 
SP   1    1.000000
   1.45585000E-01    1.00000000E+00   1.00000000E+00 
SP   1    1.000000
   4.38000000E-02    1.00000000E+00   1.00000000E+00 
D    1    1.000000
   6.26000000E-01    1.00000000E+00 

12    0
S    3    1.000000
   3.38650000E+01    2.54938000E-02 
   5.09479000E+00    1.90373000E-01 
   1.15879000E+00    8.52161000E-01 
S    1    1.000000
   3.25840000E-01    1.00000000E+00 
S    1    1.000000
   1.02741000E-01    1.00000000E+00 
S    1    1.000000
   3.60000000E-02    1.00000000E+00 
P    1    1.000000
   7.50000000E-01    1.00000000E+00 

[MO]
Sym=X
Ene= -0.495307
Spin=Alpha
Occup=1
     1    2.298940736636e-03
     2    4.131052283946e-03
     3    4.513458920046e-03
     4    1.297504321497e-02
     5    1.170368651276e-14
     6   -1.808274436633e-02
     7    1.021345216292e-02
     8    1.974141416078e-02
     9    2.882603677086e-14
    10   -3.726315088523e-02
    11   -2.745550198867e-03
    12    4.394295033031e-02
    13    4.015464739762e-14
    14   -1.733192567569e+00
    15    8.134493455406e-02
    16   -1.466797762428e-02
    17   -5.648421793656e-13
    18    7.751564768148e-03
    19   -1.210432917442e-14
    20    1.555941597779e-16
    21   -2.374726276567e-03
    22   -3.206053783699e-05
    23    4.915060838539e-03
    24    9.864683691057e-03
    25   -7.760969013250e-03
    26    1.224790948921e-01
    27   -4.809388187199e-03
    28   -2.740233611436e-03
    29    5.439820710322e-15
    30   -7.531912319131e-03
    31   -1.337880164683e-02
    32    2.751310349222e-02
    33    3.585199476538e-01
    34    3.021376119228e-04
    35   -2.381930317174e-03
    36   -2.047541894545e-15
    37   -2.334422700052e-03
    38   -1.200875218406e-03
    39    2.857052905514e-01
    40    6.321726547429e-01
    41    3.668953193068e-03
    42    1.049729772630e-02
    43    8.630445312004e-15
    44   -2.623357739861e-03
    45   -4.097278048443e-03
    46    1.052033918882e-02
    47    5.783469328043e-03
    48   -4.553846400092e-14
    49   -1.493470171521e-03
    50    1.730719907389e-02
    51    1.136511160761e-02
    52   -6.938660395250e-14
    53    1.087984834706e-01
    54   -6.218739058806e-04
    55   -6.068984510036e-02
    56   -1.686584493286e-13
    57    1.120838411008e+00
    58    3.619492035563e-01
    59   -2.122082741664e-01
    60    5.116106035542e-13
    61    9.437668990351e-03
    62   -2.788405284140e-15
    63    3.038974191101e-15
    64    3.963404063114e-03
    65   -2.793244398176e-03
    66    3.795962765192e-03
    67    6.586800004360e-03
    68   -5.019222279679e-03
    69   -5.526860464796e-03
    70    2.753763939723e-14
    71   -2.221712855386e-02
    72   -8.449868124585e-03
    73   -9.602417889143e-03
    74    3.691104701447e-14
    75   -2.053049792624e-02
    76   -7.333148452985e-03
    77    3.014245015875e-04
    78    1.086220263727e-13
    79   -9.559811183831e-02
    80   -4.865947048961e-02
    81   -1.765975802897e-02
    82   -1.943539661377e-13
    83    9.282427939132e-04
    84   -1.133756437391e-15
    85    7.870681181555e-16
    86   -6.031073236762e-05
    87    8.846836785863e-04
    88   -2.895075345201e-03
    89   -4.379547809769e-03
    90    1.614900968465e-02
    91    2.449162813836e-02
    92    1.648987489785e-14
    93   -1.355382567556e-02
    94    2.739255817167e-02
    95    3.438121277247e-02
    96    2.299443151056e-14
    97    1.264882599549e-01
    98    1.210115737288e-01
    99    2.014120303635e-01
   100    5.585362235506e-14
   101   -2.829927480770e+00
   102    1.256161921297e+00
   103    1.296528720890e+00
   104   -1.402460699200e-12
   105    2.437662592915e-02
   106   -3.800803186079e-15
   107    9.820998749580e-15
   108    1.764344883684e-03
   109   -2.471282796691e-04
   110    2.398467160962e-02
   111    4.156340823088e-02
   112    1.302614363725e-02
   113   -2.007205847959e-03
   114   -1.949660633349e-14
   115   -1.434191115869e-01
   116    1.625756072107e-02
   117   -2.794968168420e-03
   118   -1.580420114156e-14
   119   -2.569800307684e-01
   120    7.904806711995e-02
   121    3.210520484426e-02
   122   -1.206995801133e-13
   123   -5.794371776841e-01
   124   -8.248412412080e-02
   125   -4.025025977130e-02
   126    4.140942274093e-13
   127    3.104062753085e-03
   128   -2.440532178583e-16
   129   -1.531199281364e-17
   130   -7.042745046795e-04
   131   -1.273522588172e-03
   132    1.837032576148e-02
   133    3.180705476821e-02
   134   -1.077422748503e-02
   135   -1.564242035940e-02
   136    7.012554836444e-15
   137   -9.903336928090e-02
   138   -1.615917441784e-02
   139   -2.237247565114e-02
   140    1.911536898369e-14
   141   -2.729145657692e-01
   142   -7.046039055944e-02
   143   -3.182552396450e-02
   144   -5.114968796470e-15
   145   -4.109362692064e-01
   146   -1.796937035349e-01
   147   -4.948228031728e-01
   148    3.180080600675e-13
   149    5.674503160777e-03
   150    9.281637324712e-15
   151    1.869291381496e-15
   152    1.026446777943e-03
   153    2.752994217751e-03
   154    8.347336020889e-03
   155    1.447654233870e-02
   156    2.264166232694e-03
   157   -4.646689525658e-03
   158    1.798197996509e-14
   159   -4.743611114040e-02
   160    4.953773800396e-03
   161   -6.171584220895e-03
   162    1.742607988050e-14
   163   -9.753948777678e-02
   164   -1.642212603024e-02
   165   -4.077118635890e-02
   166    8.687852749269e-14
   167   -9.052691299598e-01
   168   -2.083633592151e-01
   169   -2.962139545853e-01
   170   -1.233948059663e-13
   171    2.481808203984e-03
   172   -1.359223212628e-15
   173   -7.234243563171e-15
   174    2.219994323886e-03
   175    3.058460681023e-03
   176    1.634616869839e-02
   177    2.845509488725e-02
   178   -1.744438970327e-02
   179   -8.259569191367e-03
   180   -3.025229800054e-14
   181   -8.581212739919e-02
   182   -2.452927688569e-02
   183   -1.755621585096e-02
   184   -3.950702428931e-14
   185   -2.214596191211e-01
   186   -8.488271021206e-02
   187    2.319837827276e-02
   188   -1.456042239997e-13
   189    3.082444757414e+00
   190   -1.698804306169e+00
   191    1.117343571236e+00
   192    1.303934741791e-12
   193    9.748084360731e-03
   194    1.073060924538e-15
   195    5.850554876072e-16
   196    4.422674304061e-03
   197    1.107671847796e-03
   198   -9.438875725156e-03
   199   -2.181704238524e-02
   200    1.938292115299e-01
   201    1.790715795824e+00
   202    5.901585462381e-03
   203   -2.313792016240e-03
   204    5.710756806146e-16
Sym=X
Ene= 0.495307
Spin=Alpha
Occup=0
     1   -6.611086852875e-03
     2   -1.211714127802e-02
     3    1.217711424685e-02
     4    1.997621953313e-02
     5   -2.164156038704e-14
     6    5.916712153830e-02
     7    1.295093449555e-02
     8    2.558429835909e-02
     9    1.437631526875e-14
    10   -3.622909303472e-01
    11   -3.494398703075e-02
    12   -2.319169834331e-01
    13   -3.057791528616e-14
    14   -8.921195768667e+00
    15   -8.560208945855e-01
    16   -2.352777010067e+00
    17    8.845197783325e-15
    18   -8.495738859518e-03
    19   -1.144965730883e-14
    20    1.361411299562e-14
    21   -9.247100406169e-03
    22    4.905824786658e-03
    23    9.464933713330e-03
    24    8.104106104119e-02
    25    4.773658165694e-01
    26    1.965675493253e+00
    27   -2.234481827873e-03
    28   -4.644381410011e-03
    29    1.570737484259e-14
    30    9.429846851895e-03
    31   -2.241470403542e-02
    32    5.604505331380e-02
    33   -4.921084777241e-01
    34   -5.532773382772e-03
    35   -4.987339318202e-03
    36   -3.816796843859e-15
    37   -1.951840582789e-03
    38    5.365203747953e-02
    39    1.204418438650e-01
    40   -6.311456843126e-02
    41    5.255583137995e-03
    42   -8.178784800702e-03
    43    9.530061541434e-15
    44   -6.768467407709e-03
    45   -1.307266782846e-02
    46    1.403767761247e-02
    47   -4.507355839341e-03
    48   -2.148265339225e-14
    49    7.616076084029e-02
    50    2.679603361011e-02
    51   -7.823709847953e-03
    52   -6.823679743493e-14
    53   -4.333008161846e-01
    54   -1.854642153507e-01
    55    1.461112317316e-01
    56   -1.778328681211e-13
    57    1.583511421374e+00
    58    1.260446181507e+00
    59    1.101153317664e-01
    60   -5.149500707810e-13
    61   -7.595395415865e-03
    62   -6.756408366153e-15
    63    3.859888316587e-15
    64   -5.076251690733e-04
    65   -7.834716521275e-03
    66   -3.466286484008e-03
    67   -6.076844521716e-03
    68    1.130071869685e-02
    69    6.885188744812e-03
    70    2.232438327520e-14
    71    2.328713159670e-02
    72    1.142345128099e-02
    73    1.209864209587e-02
    74    4.843271200386e-14
    75   -3.086354512207e-02
    76    4.251163300379e-02
    77    1.669701995114e-03
    78    3.640884414722e-14
    79    2.759030209695e-01
    80   -8.986951537405e-02
    81    1.342163888157e-02
    82    2.476131171300e-13
    83   -1.348347500584e-03
    84   -2.333566365276e-15
    85    1.313957232292e-16
    86    1.209634036647e-03
    87   -2.350507468861e-04
    88   -1.264820393397e-03
    89   -2.912923550907e-03
    90    2.505049133013e-02
    91    1.040024131860e-02
    92    2.390658845153e-14
    93    3.149469792088e-02
    94    3.706937769902e-02
    95    1.962422478831e-02
    96   -1.390163874127e-14
    97   -4.248197373347e-01
    98    5.050319492776e-01
    99    2.517434773321e-01
   100    1.588213628540e-13
   101   -1.695231576354e+01
   102    3.967856595011e+00
   103    4.092900455338e+00
   104    8.884367582114e-13
   105   -1.730596506359e-02
   106   -7.139048941372e-15
   107    6.762128781632e-15
   108   -3.926152218569e-03
   109   -6.585220695006e-03
   110    1.279891128960e-02
   111    2.204819365152e-02
   112   -1.579569077722e-02
   113   -3.149208227771e-04
   114    2.711045520524e-14
   115   -7.661865870302e-02
   116   -2.226761842129e-02
   117   -3.813213522163e-03
   118   -5.218668027800e-15
   119   -1.800136769620e-01
   120    3.291902990427e-02
   121    5.133021321621e-02
   122    1.641081184531e-13
   123   -7.652200935970e-01
   124    4.465841433199e-05
   125   -5.525522984606e-02
   126   -7.539822756589e-13
   127   -3.318896562578e-03
   128   -2.964317034817e-15
   129   -1.751581328868e-15
   130   -4.235325964279e-05
   131    3.551851200884e-04
   132   -7.091670779836e-03
   133   -1.206974186374e-02
   134    1.374207631940e-02
   135   -4.503420087133e-03
   136    1.040611073185e-14
   137    3.498201212011e-02
   138    1.725906152215e-02
   139   -1.684327566936e-03
   140    1.851377179381e-14
   141    2.454984360757e-01
   142    5.788773026765e-02
   143   -2.190781193682e-01
   144    4.045862232799e-14
   145    2.600178392570e+00
   146    5.166905349179e-01
   147   -7.754827093894e-01
   148   -7.551787013462e-14
   149   -8.416724085614e-03
   150    5.254829295538e-15
   151    2.187984623723e-15
   152    5.278883227337e-03
   153    7.206554976036e-03
   154    5.647833290496e-03
   155    9.851412093197e-03
   156    2.307799871256e-02
   157    2.045567900807e-02
   158    1.718143734006e-14
   159   -3.267114393821e-02
   160    3.274011352667e-02
   161    3.068452074527e-02
   162    3.382313966694e-14
   163    2.358460684377e-02
   164    1.875861911870e-01
   165    1.399751968191e-01
   166    5.051198033875e-14
   167    1.289746143404e+00
   168    8.995961110516e-01
   169    2.932360435967e-01
   170    1.168669074562e-13
   171   -7.854068484547e-03
   172   -1.051864418403e-14
   173    1.476151402213e-15
   174   -2.458383874085e-04
   175    2.497054557914e-03
   176   -8.257600119497e-03
   177   -1.418085700770e-02
   178   -8.944246404131e-04
   179    3.397333945151e-03
   180   -6.515657617260e-15
   181    3.472694158148e-02
   182   -6.015585158045e-03
   183   -1.251976616872e-04
   184   -1.853028703567e-14
   185    5.790051677684e-01
   186   -3.090377372495e-01
   187    2.580762180047e-01
   188   -1.178984635126e-13
   189    1.886393364029e+01
   190   -3.466432162920e+00
   191    3.506051717938e+00
   192   -1.483278682862e-13
   193   -1.680649635912e-02
   194    4.062866000040e-15
   195    1.363385381530e-15
   196    1.032733390190e-02
   197    7.580522742615e-03
   198    2.416801331041e-03
   199    2.373605021157e-02
   200    4.023713170327e-01
   201    9.848746026403e-01
   202    6.728447245836e-04
   203    6.777732544382e-03
   204    2.692856487651e-15
[5D]
