[Molden Format]
[Atoms] (Angs)
  C      1    6     -0.00754183     -1.75895763      0.00000000
  H      2    1     -2.09769850     -1.41880678     -0.00000000
  H      3    1     -0.13527422     -2.83956838     -0.00000000
  H      4    1      0.04053511      2.02026369      0.00000000
  C      5    6     -1.22066484      0.39918184     -0.00000000
  O      6    8     -2.25210141      1.05663720     -0.00000000
  C      7    6      1.24009552      0.27789184      0.00000000
  O      8    8      2.33767996      1.06122493      0.00000000
  N      9    7      0.03634586      1.00852936      0.00000000
  N     10    7     -1.18738304     -0.97903470     -0.00000000
  C     11    6      1.22288875     -1.12258096      0.00000000
  H     12    1      2.15640383     -1.68445878      0.00000000
[GTO]
1    0
S    6    1.000000
   4.56324000E+03    1.96665000E-03 
   6.82024000E+02    1.52306000E-02 
   1.54973000E+02    7.61269000E-02 
   4.44553000E+01    2.60801000E-01 
   1.30290000E+01    6.16462000E-01 
   1.82773000E+00    2.21006000E-01 
SP   3    1.000000
   2.09642000E+01    1.14660000E-01   4.02487000E-02 
   4.80331000E+00    9.19999000E-01   2.37594000E-01 
   1.45933000E+00   -3.03068000E-03   8.15854000E-01 
SP   1    1.000000
   4.83456000E-01    1.00000000E+00   1.00000000E+00 
SP   1    1.000000
   1.45585000E-01    1.00000000E+00   1.00000000E+00 
SP   1    1.000000
   4.38000000E-02    1.00000000E+00   1.00000000E+00 
D    1    1.000000
   6.26000000E-01    1.00000000E+00 

2    0
S    3    1.000000
   3.38650000E+01    2.54938000E-02 
   5.09479000E+00    1.90373000E-01 
   1.15879000E+00    8.52161000E-01 
S    1    1.000000
   3.25840000E-01    1.00000000E+00 
S    1    1.000000
   1.02741000E-01    1.00000000E+00 
S    1    1.000000
   3.60000000E-02    1.00000000E+00 
P    1    1.000000
   7.50000000E-01    1.00000000E+00 

3    0
S    3    1.000000
   3.38650000E+01    2.54938000E-02 
   5.09479000E+00    1.90373000E-01 
   1.15879000E+00    8.52161000E-01 
S    1    1.000000
   3.25840000E-01    1.00000000E+00 
S    1    1.000000
   1.02741000E-01    1.00000000E+00 
S    1    1.000000
   3.60000000E-02    1.00000000E+00 
P    1    1.000000
   7.50000000E-01    1.00000000E+00 

4    0
S    3    1.000000
   3.38650000E+01    2.54938000E-02 
   5.09479000E+00    1.90373000E-01 
   1.15879000E+00    8.52161000E-01 
S    1    1.000000
   3.25840000E-01    1.00000000E+00 
S    1    1.000000
   1.02741000E-01    1.00000000E+00 
S    1    1.000000
   3.60000000E-02    1.00000000E+00 
P    1    1.000000
   7.50000000E-01    1.00000000E+00 

5    0
S    6    1.000000
   4.56324000E+03    1.96665000E-03 
   6.82024000E+02    1.52306000E-02 
   1.54973000E+02    7.61269000E-02 
   4.44553000E+01    2.60801000E-01 
   1.30290000E+01    6.16462000E-01 
   1.82773000E+00    2.21006000E-01 
SP   3    1.000000
   2.09642000E+01    1.14660000E-01   4.02487000E-02 
   4.80331000E+00    9.19999000E-01   2.37594000E-01 
   1.45933000E+00   -3.03068000E-03   8.15854000E-01 
SP   1    1.000000
   4.83456000E-01    1.00000000E+00   1.00000000E+00 
SP   1    1.000000
   1.45585000E-01    1.00000000E+00   1.00000000E+00 
SP   1    1.000000
   4.38000000E-02    1.00000000E+00   1.00000000E+00 
D    1    1.000000
   6.26000000E-01    1.00000000E+00 

6    0
S    6    1.000000
   8.58850000E+03    1.89515000E-03 
   1.29723000E+03    1.43859000E-02 
   2.99296000E+02    7.07320000E-02 
   8.73771000E+01    2.40001000E-01 
   2.56789000E+01    5.94797000E-01 
   3.74004000E+00    2.80802000E-01 
SP   3    1.000000
   4.21175000E+01    1.13889000E-01   3.65114000E-02 
   9.62837000E+00    9.20811000E-01   2.37153000E-01 
   2.85332000E+00   -3.27447000E-03   8.19702000E-01 
SP   1    1.000000
   9.05661000E-01    1.00000000E+00   1.00000000E+00 
SP   1    1.000000
   2.55611000E-01    1.00000000E+00   1.00000000E+00 
SP   1    1.000000
   8.45000000E-02    1.00000000E+00   1.00000000E+00 
D    1    1.000000
   1.29200000E+00    1.00000000E+00 

7    0
S    6    1.000000
   4.56324000E+03    1.96665000E-03 
   6.82024000E+02    1.52306000E-02 
   1.54973000E+02    7.61269000E-02 
   4.44553000E+01    2.60801000E-01 
   1.30290000E+01    6.16462000E-01 
   1.82773000E+00    2.21006000E-01 
SP   3    1.000000
   2.09642000E+01    1.14660000E-01   4.02487000E-02 
   4.80331000E+00    9.19999000E-01   2.37594000E-01 
   1.45933000E+00   -3.03068000E-03   8.15854000E-01 
SP   1    1.000000
   4.83456000E-01    1.00000000E+00   1.00000000E+00 
SP   1    1.000000
   1.45585000E-01    1.00000000E+00   1.00000000E+00 
SP   1    1.000000
   4.38000000E-02    1.00000000E+00   1.00000000E+00 
D    1    1.000000
   6.26000000E-01    1.00000000E+00 

8    0
S    6    1.000000
   8.58850000E+03    1.89515000E-03 
   1.29723000E+03    1.43859000E-02 
   2.99296000E+02    7.07320000E-02 
   8.73771000E+01    2.40001000E-01 
   2.56789000E+01    5.94797000E-01 
   3.74004000E+00    2.80802000E-01 
SP   3    1.000000
   4.21175000E+01    1.13889000E-01   3.65114000E-02 
   9.62837000E+00    9.20811000E-01   2.37153000E-01 
   2.85332000E+00   -3.27447000E-03   8.19702000E-01 
SP   1    1.000000
   9.05661000E-01    1.00000000E+00   1.00000000E+00 
SP   1    1.000000
   2.55611000E-01    1.00000000E+00   1.00000000E+00 
SP   1    1.000000
   8.45000000E-02    1.00000000E+00   1.00000000E+00 
D    1    1.000000
   1.29200000E+00    1.00000000E+00 

9    0
S    6    1.000000
   6.29348000E+03    1.96979000E-03 
   9.49044000E+02    1.49613000E-02 
   2.18776000E+02    7.35006000E-02 
   6.36916000E+01    2.48937000E-01 
   1.88282000E+01    6.02460000E-01 
   2.72023000E+00    2.56202000E-01 
SP   3    1.000000
   3.06331000E+01    1.11906000E-01   3.83119000E-02 
   7.02614000E+00    9.21666000E-01   2.37403000E-01 
   2.11205000E+00   -2.56919000E-03   8.17592000E-01 
SP   1    1.000000
   6.84009000E-01    1.00000000E+00   1.00000000E+00 
SP   1    1.000000
   2.00878000E-01    1.00000000E+00   1.00000000E+00 
SP   1    1.000000
   6.39000000E-02    1.00000000E+00   1.00000000E+00 
D    1    1.000000
   9.13000000E-01    1.00000000E+00 

10    0
S    6    1.000000
   6.29348000E+03    1.96979000E-03 
   9.49044000E+02    1.49613000E-02 
   2.18776000E+02    7.35006000E-02 
   6.36916000E+01    2.48937000E-01 
   1.88282000E+01    6.02460000E-01 
   2.72023000E+00    2.56202000E-01 
SP   3    1.000000
   3.06331000E+01    1.11906000E-01   3.83119000E-02 
   7.02614000E+00    9.21666000E-01   2.37403000E-01 
   2.11205000E+00   -2.56919000E-03   8.17592000E-01 
SP   1    1.000000
   6.84009000E-01    1.00000000E+00   1.00000000E+00 
SP   1    1.000000
   2.00878000E-01    1.00000000E+00   1.00000000E+00 
SP   1    1.000000
   6.39000000E-02    1.00000000E+00   1.00000000E+00 
D    1    1.000000
   9.13000000E-01    1.00000000E+00 

11    0
S    6    1.000000
   4.56324000E+03    1.96665000E-03 
   6.82024000E+02    1.52306000E-02 
   1.54973000E+02    7.61269000E-02 
   4.44553000E+01    2.60801000E-01 
   1.30290000E+01    6.16462000E-01 
   1.82773000E+00    2.21006000E-01 
SP   3    1.000000
   2.09642000E+01    1.14660000E-01   4.02487000E-02 
   4.80331000E+00    9.19999000E-01   2.37594000E-01 
   1.45933000E+00   -3.03068000E-03   8.15854000E-01 
SP   1    1.000000
   4.83456000E-01    1.00000000E+00   1.00000000E+00 
SP   1    1.000000
   1.45585000E-01    1.00000000E+00   1.00000000E+00 
SP   1    1.000000
   4.38000000E-02    1.00000000E+00   1.00000000E+00 
D    1    1.000000
   6.26000000E-01    1.00000000E+00 

12    0
S    3    1.000000
   3.38650000E+01    2.54938000E-02 
   5.09479000E+00    1.90373000E-01 
   1.15879000E+00    8.52161000E-01 
S    1    1.000000
   3.25840000E-01    1.00000000E+00 
S    1    1.000000
   1.02741000E-01    1.00000000E+00 
S    1    1.000000
   3.60000000E-02    1.00000000E+00 
P    1    1.000000
   7.50000000E-01    1.00000000E+00 

[MO]
Sym=X
Ene= -0.038883
Spin=Alpha
Occup=1
     1   -6.569161300315e-06
     2   -8.082545975411e-06
     3    6.877301231858e-06
     4   -2.766696565873e-05
     5    6.312782751206e-16
     6    1.291805757899e-05
     7   -4.472865229645e-06
     8   -6.177905798672e-05
     9   -1.103211645167e-15
    10    5.352349404963e-04
    11    1.498485372593e-04
    12    1.407793425328e-04
    13    6.751800351517e-15
    14    3.046722482997e-05
    15    4.396690164849e-05
    16    1.470272196016e-05
    17   -1.130023134926e-14
    18   -1.845655378081e-06
    19    6.713606925550e-16
    20    9.995376207717e-16
    21    1.370388460203e-05
    22   -1.686828169349e-05
    23   -1.426571297799e-05
    24   -8.304532501951e-05
    25   -4.480526705087e-04
    26   -1.187463723440e-03
    27    1.468202324487e-05
    28    8.342906017697e-06
    29    1.226271476332e-15
    30   -1.846192633601e-06
    31   -4.455222168275e-06
    32   -5.756441173793e-05
    33   -4.527684226618e-04
    34    2.525011070863e-06
    35    6.423390231830e-06
    36   -1.602888512161e-15
    37   -1.210826158708e-05
    38   -6.893878515346e-05
    39   -1.499083079113e-04
    40   -4.160529852989e-05
    41    3.259443981415e-06
    42    6.127199881493e-06
    43   -7.828488791882e-16
    44    3.234349007487e-06
    45    5.421694406774e-06
    46   -7.287063971744e-06
    47    6.530968955492e-06
    48   -1.136241087483e-15
    49   -5.320138658477e-06
    50   -5.290826399714e-06
    51    8.502746753289e-06
    52    1.244467951151e-15
    53    6.619766827531e-05
    54    1.267450410764e-04
    55   -2.340396969539e-05
    56    7.864033131087e-16
    57    3.100694374224e-04
    58   -1.254901828912e-04
    59   -1.737740816831e-04
    60   -6.338875998764e-15
    61   -1.109579388487e-05
    62   -4.639080940389e-16
    63    6.137698836347e-16
    64   -1.355699751992e-06
    65    1.031123403817e-05
    66   -5.811501184424e-06
    67   -1.003283146436e-05
    68   -1.189203735204e-05
    69   -6.197999465893e-06
    70   -2.347148088848e-16
    71    3.300726739783e-05
    72   -1.662644771402e-05
    73   -8.197717783742e-06
    74    1.520139872022e-15
    75    7.484783960445e-05
    76   -1.435939915494e-05
    77   -2.688010872887e-05
    78   -3.018817697912e-15
    79    2.211170540131e-04
    80    8.804693012537e-05
    81    3.161847799318e-05
    82    3.773718823821e-15
    83   -1.873964528475e-06
    84    5.211070417223e-16
    85    2.779822648786e-16
    86   -8.665983783397e-07
    87   -1.539175792239e-06
    88   -3.383450501175e-06
    89    4.401721597180e-05
    90   -4.586529072032e-06
    91   -1.971505709948e-05
    92    2.053675113226e-16
    93   -1.391747203602e-04
    94   -3.152888271218e-04
    95   -2.472072858013e-04
    96   -4.340229602815e-16
    97    4.273242648069e-04
    98   -3.152633417999e-05
    99   -1.636446849636e-04
   100    3.851334287842e-15
   101    1.477378512978e-03
   102    8.635249802889e-04
   103   -2.926020059508e-04
   104   -1.188570167015e-14
   105    4.640964485106e-05
   106    3.279932924045e-16
   107    1.071156905925e-15
   108   -8.898536435745e-05
   109   -1.979577399690e-04
   110   -5.515662474443e-01
   111   -4.717139175466e-01
   112    1.383651994915e-03
   113    1.003333378086e-03
   114    7.446878535480e-16
   115   -5.162342220275e-03
   116   -6.260721452545e-04
   117   -4.401248013934e-04
   118    2.592135361343e-16
   119    7.796722393056e-04
   120    2.475543130759e-04
   121    2.195508168292e-04
   122   -2.594197802126e-15
   123   -1.483097991072e-03
   124    6.893965212240e-05
   125    3.691787657972e-05
   126    2.819922224813e-15
   127    5.129115678076e-05
   128    3.357051300803e-16
   129    4.256240275754e-17
   130    4.593636716156e-05
   131    1.722752451455e-04
   132   -9.584284908281e-06
   133   -1.527609146145e-05
   134   -3.049507228867e-06
   135   -2.646201179280e-06
   136   -9.161274610592e-16
   137    6.364965272162e-05
   138   -6.810188993225e-05
   139    2.528656986889e-05
   140    1.482641452913e-15
   141   -2.333510801787e-05
   142    9.312206239916e-06
   143    1.473555102422e-04
   144   -3.049240781120e-15
   145    5.140370558008e-04
   146    4.050034566097e-04
   147    1.026111221657e-04
   148    5.302345047471e-15
   149    5.603968218661e-06
   150   -8.816251785896e-16
   151    1.704377413895e-17
   152   -1.765268256774e-05
   153    2.161455778627e-05
   154   -2.011816283541e-05
   155   -3.428606877078e-05
   156   -4.039686013621e-05
   157   -2.195058445430e-05
   158   -1.142621285691e-16
   159    1.109379317522e-04
   160   -6.800517812162e-05
   161   -3.436279470978e-05
   162    2.915928335317e-16
   163    2.070370607523e-04
   164   -1.800855144866e-04
   165   -6.182507123063e-05
   166   -3.335224846255e-15
   167    3.303844949735e-04
   168   -3.590361765844e-04
   169   -8.840904915863e-05
   170    5.194484573382e-15
   171   -8.076593028395e-07
   172    4.441529003188e-16
   173   -1.807466452938e-16
   174   -3.245504970497e-06
   175   -4.256792822280e-06
   176    1.384415385859e-06
   177    7.266620744218e-06
   178   -1.936984885610e-06
   179    2.463143103247e-05
   180   -1.102397854416e-15
   181   -1.324473381102e-05
   182   -2.740981338169e-05
   183   -9.768222577618e-05
   184    2.770625512764e-15
   185   -5.469191147624e-04
   186    3.309747657068e-04
   187   -3.397779346984e-05
   188   -8.745547560648e-15
   189   -1.272969427948e-03
   190   -8.283126325624e-04
   191   -5.203693500219e-04
   192    1.768054655744e-14
   193    6.256851080284e-06
   194    3.919888960952e-16
   195   -3.250047624915e-16
   196    4.362805509251e-05
   197   -2.865491158089e-05
   198   -1.237316176507e-05
   199   -1.224029134803e-04
   200   -6.848120696572e-06
   201    6.604805182607e-04
   202    2.369436611832e-05
   203   -1.567455652498e-05
   204    3.102070763954e-16
Sym=X
Ene= 0.038883
Spin=Alpha
Occup=0
     1    4.082580240200e-16
     2   -1.149697257890e-15
     3    1.329096922360e-15
     4   -8.581473121618e-16
     5   -6.820152633720e-02
     6    1.017247221584e-14
     7    2.122218949977e-15
     8    6.139611212737e-15
     9   -1.160515753070e-01
    10   -1.423800505706e-13
    11    5.700043524908e-15
    12   -1.539540396386e-13
    13   -1.140526257142e-01
    14   -2.771134557961e-12
    15   -7.247715191747e-13
    16   -7.981612949504e-13
    17   -9.518760280636e-03
    18    8.430982418304e-16
    19   -2.716875573825e-02
    20    1.746642752601e-05
    21   -1.304269364743e-15
    22   -3.089800984444e-15
    23    5.369679551384e-15
    24   -1.266926245255e-14
    25    3.279912795808e-13
    26   -2.354380880374e-14
    27   -2.921670911634e-15
    28    1.213969648068e-15
    29    9.266861844933e-03
    30   -2.379812267662e-15
    31   -7.528873017645e-15
    32   -1.417076527145e-13
    33   -3.804790923715e-13
    34   -1.710707124095e-15
    35    2.036302625854e-16
    36   -5.224174082178e-03
    37   -6.233471947486e-15
    38    3.586263837162e-14
    39   -2.665693783243e-13
    40    1.829641663219e-13
    41    1.604652476298e-15
    42   -1.658935854443e-15
    43    8.858866947886e-03
    44    1.538419475284e-16
    45    2.594911854571e-15
    46    1.878203113849e-16
    47    2.111843625268e-15
    48   -4.458359314132e-03
    49   -1.267886316211e-14
    50   -2.171634645464e-16
    51   -1.190625574098e-15
    52   -4.635881648029e-03
    53   -8.339110666482e-14
    54   -6.257896802499e-14
    55    3.342458239259e-14
    56   -3.831819425493e-02
    57    4.113026641036e-13
    58    1.050245395805e-14
    59   -4.182410048977e-13
    60   -2.588096887289e-02
    61    2.142210861457e-15
    62    4.838973910172e-02
    63   -3.263754467024e-02
    64   -1.488356413531e-15
    65   -4.466165514310e-16
    66   -3.054491892561e-16
    67   -3.786563752556e-16
    68    1.829312373826e-15
    69    6.461402213548e-16
    70   -1.604292734621e-01
    71    6.676435364624e-16
    72    2.746708176604e-15
    73    3.315957256925e-15
    74   -2.430159182543e-01
    75   -2.940619080066e-15
    76    7.152159249983e-15
    77   -3.744063367542e-15
    78   -2.388387730713e-01
    79   -6.112670519881e-14
    80   -7.335189361466e-14
    81    2.326049068703e-14
    82   -5.373043325580e-02
    83   -3.188958903294e-16
    84   -9.184833341812e-03
    85    5.420840244732e-03
    86    2.244110800206e-16
    87    5.019238486506e-18
    88   -1.240514198431e-15
    89   -2.078011244621e-16
    90   -6.067161956387e-16
    91   -7.364905432894e-16
    92   -1.488782158521e-02
    93    1.978953155875e-15
    94    5.077835551389e-16
    95    3.337808485545e-15
    96   -2.629407984560e-02
    97   -4.395039300249e-14
    98    2.916549576556e-14
    99    9.785949904769e-14
   100   -1.496411699878e-02
   101    2.078970802118e-12
   102    2.516152031755e-13
   103   -9.495060141456e-13
   104    2.514222169906e-02
   105    2.131517168413e-15
   106   -1.833738858321e-02
   107    2.928537513988e-02
   108    9.718892880255e-16
   109    5.766722860272e-16
   110    1.300592424825e-16
   111    1.288796511293e-16
   112    2.813616050118e-15
   113   -3.966984508619e-15
   114   -1.651323597263e-03
   115    1.867810552177e-15
   116    3.336106401857e-15
   117    1.738830549179e-15
   118   -3.721542383359e-03
   119   -2.020284090175e-14
   120    1.264839105046e-14
   121   -1.685920290042e-14
   122   -1.583430427494e-03
   123   -4.023756571437e-14
   124    9.828480509915e-15
   125    4.916611188882e-14
   126   -6.957176054966e-03
   127   -1.836247780696e-15
   128   -1.572769676376e-03
   129    3.381771687454e-03
   130   -3.392566501377e-16
   131   -6.056601485415e-16
   132   -1.111178006776e-17
   133    1.692009524884e-15
   134    6.796936958649e-16
   135    1.329040835886e-15
   136    1.289852563080e-01
   137   -1.287185190626e-14
   138    6.363698590567e-15
   139   -1.282756966787e-15
   140    2.027047331391e-01
   141    5.539890416557e-14
   142   -4.079117229535e-14
   143   -2.860671741156e-14
   144    2.329040592202e-01
   145    1.798293312050e-13
   146   -6.269430668941e-14
   147    4.590229356233e-13
   148    4.514673063305e-02
   149    3.337254248825e-16
   150    1.820291072270e-03
   151   -4.107165253615e-03
   152    1.231034463134e-15
   153    8.257846046780e-16
   154   -1.077031770306e-15
   155   -4.068594805924e-16
   156    6.273972322726e-16
   157    7.874181736977e-16
   158    1.195391526284e-01
   159    7.840634749346e-16
   160   -3.974661160787e-15
   161   -3.251126151446e-15
   162    1.861924521266e-01
   163    5.777424470141e-14
   164    5.653617605626e-14
   165    3.026856631800e-14
   166    2.342594952903e-01
   167   -1.078306477435e-14
   168    5.158345606628e-13
   169    2.107115913720e-13
   170    6.933926900591e-02
   171   -2.337156554721e-15
   172   -1.132042611564e-03
   173    4.956625353542e-03
   174   -9.711064593598e-16
   175    1.766304363806e-15
   176    3.759628395709e-16
   177    6.894932728146e-16
   178   -1.073683589929e-15
   179   -2.286210650987e-15
   180   -1.232937228361e-01
   181   -8.440130591377e-15
   182   -4.310342709244e-15
   183   -1.278287439945e-15
   184   -2.065079856164e-01
   185    1.463753762481e-13
   186   -1.054162314589e-13
   187    9.616839136995e-14
   188   -2.052976722762e-01
   189    2.603253770132e-13
   190   -8.908666353506e-13
   191   -8.092860307135e-13
   192   -4.509961319616e-02
   193   -2.618688629593e-15
   194    9.028895373811e-03
   195   -3.058755015375e-03
   196   -2.085333606594e-15
   197    2.783988002496e-15
   198   -1.313322798108e-15
   199    2.560013991797e-14
   200    1.124877027288e-13
   201    1.698153546444e-13
   202   -4.305186391327e-15
   203    1.847325648582e-15
   204   -9.155166988312e-03
[5D]
