[Molden Format]
[Atoms] (Angs)
  C      1    6     -0.00754183     -1.75895763      0.00000000
  H      2    1     -2.09769850     -1.41880678     -0.00000000
  H      3    1     -0.13527422     -2.83956838     -0.00000000
  H      4    1      0.04053511      2.02026369      0.00000000
  C      5    6     -1.22066484      0.39918184     -0.00000000
  O      6    8     -2.25210141      1.05663720     -0.00000000
  C      7    6      1.24009552      0.27789184      0.00000000
  O      8    8      2.33767996      1.06122493      0.00000000
  N      9    7      0.03634586      1.00852936      0.00000000
  N     10    7     -1.18738304     -0.97903470     -0.00000000
  C     11    6      1.22288875     -1.12258096      0.00000000
  H     12    1      2.15640383     -1.68445878      0.00000000
[GTO]
1    0
S    6    1.000000
   4.56324000E+03    1.96665000E-03 
   6.82024000E+02    1.52306000E-02 
   1.54973000E+02    7.61269000E-02 
   4.44553000E+01    2.60801000E-01 
   1.30290000E+01    6.16462000E-01 
   1.82773000E+00    2.21006000E-01 
SP   3    1.000000
   2.09642000E+01    1.14660000E-01   4.02487000E-02 
   4.80331000E+00    9.19999000E-01   2.37594000E-01 
   1.45933000E+00   -3.03068000E-03   8.15854000E-01 
SP   1    1.000000
   4.83456000E-01    1.00000000E+00   1.00000000E+00 
SP   1    1.000000
   1.45585000E-01    1.00000000E+00   1.00000000E+00 
SP   1    1.000000
   4.38000000E-02    1.00000000E+00   1.00000000E+00 
D    1    1.000000
   6.26000000E-01    1.00000000E+00 

2    0
S    3    1.000000
   3.38650000E+01    2.54938000E-02 
   5.09479000E+00    1.90373000E-01 
   1.15879000E+00    8.52161000E-01 
S    1    1.000000
   3.25840000E-01    1.00000000E+00 
S    1    1.000000
   1.02741000E-01    1.00000000E+00 
S    1    1.000000
   3.60000000E-02    1.00000000E+00 
P    1    1.000000
   7.50000000E-01    1.00000000E+00 

3    0
S    3    1.000000
   3.38650000E+01    2.54938000E-02 
   5.09479000E+00    1.90373000E-01 
   1.15879000E+00    8.52161000E-01 
S    1    1.000000
   3.25840000E-01    1.00000000E+00 
S    1    1.000000
   1.02741000E-01    1.00000000E+00 
S    1    1.000000
   3.60000000E-02    1.00000000E+00 
P    1    1.000000
   7.50000000E-01    1.00000000E+00 

4    0
S    3    1.000000
   3.38650000E+01    2.54938000E-02 
   5.09479000E+00    1.90373000E-01 
   1.15879000E+00    8.52161000E-01 
S    1    1.000000
   3.25840000E-01    1.00000000E+00 
S    1    1.000000
   1.02741000E-01    1.00000000E+00 
S    1    1.000000
   3.60000000E-02    1.00000000E+00 
P    1    1.000000
   7.50000000E-01    1.00000000E+00 

5    0
S    6    1.000000
   4.56324000E+03    1.96665000E-03 
   6.82024000E+02    1.52306000E-02 
   1.54973000E+02    7.61269000E-02 
   4.44553000E+01    2.60801000E-01 
   1.30290000E+01    6.16462000E-01 
   1.82773000E+00    2.21006000E-01 
SP   3    1.000000
   2.09642000E+01    1.14660000E-01   4.02487000E-02 
   4.80331000E+00    9.19999000E-01   2.37594000E-01 
   1.45933000E+00   -3.03068000E-03   8.15854000E-01 
SP   1    1.000000
   4.83456000E-01    1.00000000E+00   1.00000000E+00 
SP   1    1.000000
   1.45585000E-01    1.00000000E+00   1.00000000E+00 
SP   1    1.000000
   4.38000000E-02    1.00000000E+00   1.00000000E+00 
D    1    1.000000
   6.26000000E-01    1.00000000E+00 

6    0
S    6    1.000000
   8.58850000E+03    1.89515000E-03 
   1.29723000E+03    1.43859000E-02 
   2.99296000E+02    7.07320000E-02 
   8.73771000E+01    2.40001000E-01 
   2.56789000E+01    5.94797000E-01 
   3.74004000E+00    2.80802000E-01 
SP   3    1.000000
   4.21175000E+01    1.13889000E-01   3.65114000E-02 
   9.62837000E+00    9.20811000E-01   2.37153000E-01 
   2.85332000E+00   -3.27447000E-03   8.19702000E-01 
SP   1    1.000000
   9.05661000E-01    1.00000000E+00   1.00000000E+00 
SP   1    1.000000
   2.55611000E-01    1.00000000E+00   1.00000000E+00 
SP   1    1.000000
   8.45000000E-02    1.00000000E+00   1.00000000E+00 
D    1    1.000000
   1.29200000E+00    1.00000000E+00 

7    0
S    6    1.000000
   4.56324000E+03    1.96665000E-03 
   6.82024000E+02    1.52306000E-02 
   1.54973000E+02    7.61269000E-02 
   4.44553000E+01    2.60801000E-01 
   1.30290000E+01    6.16462000E-01 
   1.82773000E+00    2.21006000E-01 
SP   3    1.000000
   2.09642000E+01    1.14660000E-01   4.02487000E-02 
   4.80331000E+00    9.19999000E-01   2.37594000E-01 
   1.45933000E+00   -3.03068000E-03   8.15854000E-01 
SP   1    1.000000
   4.83456000E-01    1.00000000E+00   1.00000000E+00 
SP   1    1.000000
   1.45585000E-01    1.00000000E+00   1.00000000E+00 
SP   1    1.000000
   4.38000000E-02    1.00000000E+00   1.00000000E+00 
D    1    1.000000
   6.26000000E-01    1.00000000E+00 

8    0
S    6    1.000000
   8.58850000E+03    1.89515000E-03 
   1.29723000E+03    1.43859000E-02 
   2.99296000E+02    7.07320000E-02 
   8.73771000E+01    2.40001000E-01 
   2.56789000E+01    5.94797000E-01 
   3.74004000E+00    2.80802000E-01 
SP   3    1.000000
   4.21175000E+01    1.13889000E-01   3.65114000E-02 
   9.62837000E+00    9.20811000E-01   2.37153000E-01 
   2.85332000E+00   -3.27447000E-03   8.19702000E-01 
SP   1    1.000000
   9.05661000E-01    1.00000000E+00   1.00000000E+00 
SP   1    1.000000
   2.55611000E-01    1.00000000E+00   1.00000000E+00 
SP   1    1.000000
   8.45000000E-02    1.00000000E+00   1.00000000E+00 
D    1    1.000000
   1.29200000E+00    1.00000000E+00 

9    0
S    6    1.000000
   6.29348000E+03    1.96979000E-03 
   9.49044000E+02    1.49613000E-02 
   2.18776000E+02    7.35006000E-02 
   6.36916000E+01    2.48937000E-01 
   1.88282000E+01    6.02460000E-01 
   2.72023000E+00    2.56202000E-01 
SP   3    1.000000
   3.06331000E+01    1.11906000E-01   3.83119000E-02 
   7.02614000E+00    9.21666000E-01   2.37403000E-01 
   2.11205000E+00   -2.56919000E-03   8.17592000E-01 
SP   1    1.000000
   6.84009000E-01    1.00000000E+00   1.00000000E+00 
SP   1    1.000000
   2.00878000E-01    1.00000000E+00   1.00000000E+00 
SP   1    1.000000
   6.39000000E-02    1.00000000E+00   1.00000000E+00 
D    1    1.000000
   9.13000000E-01    1.00000000E+00 

10    0
S    6    1.000000
   6.29348000E+03    1.96979000E-03 
   9.49044000E+02    1.49613000E-02 
   2.18776000E+02    7.35006000E-02 
   6.36916000E+01    2.48937000E-01 
   1.88282000E+01    6.02460000E-01 
   2.72023000E+00    2.56202000E-01 
SP   3    1.000000
   3.06331000E+01    1.11906000E-01   3.83119000E-02 
   7.02614000E+00    9.21666000E-01   2.37403000E-01 
   2.11205000E+00   -2.56919000E-03   8.17592000E-01 
SP   1    1.000000
   6.84009000E-01    1.00000000E+00   1.00000000E+00 
SP   1    1.000000
   2.00878000E-01    1.00000000E+00   1.00000000E+00 
SP   1    1.000000
   6.39000000E-02    1.00000000E+00   1.00000000E+00 
D    1    1.000000
   9.13000000E-01    1.00000000E+00 

11    0
S    6    1.000000
   4.56324000E+03    1.96665000E-03 
   6.82024000E+02    1.52306000E-02 
   1.54973000E+02    7.61269000E-02 
   4.44553000E+01    2.60801000E-01 
   1.30290000E+01    6.16462000E-01 
   1.82773000E+00    2.21006000E-01 
SP   3    1.000000
   2.09642000E+01    1.14660000E-01   4.02487000E-02 
   4.80331000E+00    9.19999000E-01   2.37594000E-01 
   1.45933000E+00   -3.03068000E-03   8.15854000E-01 
SP   1    1.000000
   4.83456000E-01    1.00000000E+00   1.00000000E+00 
SP   1    1.000000
   1.45585000E-01    1.00000000E+00   1.00000000E+00 
SP   1    1.000000
   4.38000000E-02    1.00000000E+00   1.00000000E+00 
D    1    1.000000
   6.26000000E-01    1.00000000E+00 

12    0
S    3    1.000000
   3.38650000E+01    2.54938000E-02 
   5.09479000E+00    1.90373000E-01 
   1.15879000E+00    8.52161000E-01 
S    1    1.000000
   3.25840000E-01    1.00000000E+00 
S    1    1.000000
   1.02741000E-01    1.00000000E+00 
S    1    1.000000
   3.60000000E-02    1.00000000E+00 
P    1    1.000000
   7.50000000E-01    1.00000000E+00 

[MO]
Sym=X
Ene= -0.003524
Spin=Alpha
Occup=1
     1    1.451378380171e-15
     2    4.178057135484e-16
     3    1.374139238242e-14
     4    7.059078467705e-15
     5   -8.728997584667e-02
     6   -1.316426120304e-14
     7   -1.105764746144e-14
     8    7.806916764331e-18
     9   -1.541148633274e-01
    10    3.016033461065e-13
    11    3.517230866699e-13
    12    3.589209954392e-13
    13   -1.972070508595e-01
    14    7.385579244897e-12
    15    3.959212197005e-13
    16    2.010775689177e-12
    17   -1.933975454094e-02
    18   -2.574355751541e-16
    19   -4.126055843060e-02
    20   -1.365638245365e-02
    21   -6.602255468926e-15
    22   -1.656269976944e-14
    23    1.812911833315e-14
    24   -8.637798170277e-14
    25    1.051339156325e-12
    26    9.194807136173e-13
    27   -1.004046443013e-14
    28   -1.930788132482e-15
    29    3.126787253448e-02
    30    2.857808203746e-15
    31    2.215083261362e-14
    32    2.829641662065e-13
    33    3.792922323693e-13
    34   -5.008819708994e-15
    35    1.341236975311e-15
    36   -4.194243340466e-03
    37    1.887279201206e-14
    38   -6.100734350005e-14
    39    1.560474837902e-12
    40   -6.440014524006e-13
    41    6.607799468055e-15
    42    1.951564661337e-15
    43   -3.165936129275e-03
    44    1.692938297289e-15
    45    4.120543209128e-15
    46    1.687976849025e-14
    47    1.924560281960e-14
    48   -2.645605187700e-02
    49   -3.117609892834e-16
    50    2.438805901496e-14
    51    5.548609773847e-15
    52   -3.720878860884e-02
    53   -5.649331139157e-13
    54    5.775754005995e-13
    55    1.507121692387e-13
    56   -9.018369985041e-02
    57   -3.823240001566e-12
    58   -2.367480727046e-13
    59    1.576990080259e-12
    60   -3.837775295960e-02
    61    5.618011163485e-15
    62    2.991513625992e-02
    63   -3.293317496736e-02
    64    5.351580194292e-15
    65   -4.630984324211e-15
    66   -6.451467832277e-17
    67    1.081670439845e-16
    68    4.128742676365e-15
    69    9.442926923871e-15
    70   -5.860021626960e-02
    71   -6.557007931662e-15
    72   -6.212056163554e-15
    73    1.166341205457e-14
    74   -8.798886629013e-02
    75    9.673515746401e-14
    76    1.240810144917e-13
    77   -1.485466575955e-14
    78   -1.475465099638e-01
    79    1.103074998663e-12
    80    3.543878333069e-14
    81   -9.050102404856e-13
    82   -3.101931335748e-02
    83    1.609650855266e-15
    84   -3.421535364336e-03
    85    7.454103524161e-03
    86    1.049713265732e-15
    87    2.090340796372e-15
    88   -2.345471542552e-15
    89   -9.007861981994e-16
    90    1.137783380792e-14
    91    1.374548065723e-14
    92    4.786794213337e-02
    93   -2.052598257324e-14
    94    1.125171197216e-14
    95    1.985347712950e-14
    96    8.846464217774e-02
    97    7.196494972697e-13
    98   -5.633657663924e-14
    99    4.423444852028e-13
   100    1.071582008812e-01
   101    1.914913043650e-11
   102   -3.968527004355e-12
   103   -2.312987621337e-12
   104   -7.332767442768e-03
   105   -1.513275806253e-15
   106    4.014050324918e-02
   107    2.886771671027e-02
   108   -4.361370216023e-17
   109   -9.391236442521e-15
   110   -1.435050586969e-16
   111   -1.937738900119e-16
   112   -4.963806586500e-15
   113    6.998279958788e-16
   114    8.366267755734e-02
   115    9.533680280768e-15
   116   -8.460016489562e-15
   117   -4.231187357533e-15
   118    1.231110204412e-01
   119   -5.755307068785e-14
   120    3.346145083035e-14
   121    2.168929918157e-14
   122    2.628280129899e-01
   123   -9.943185709161e-14
   124    2.792860981041e-13
   125    3.243161926689e-13
   126    1.189778095640e-01
   127   -4.937507639902e-16
   128   -5.272892121625e-03
   129   -4.493261938161e-03
   130    2.278856303083e-15
   131    4.037442781471e-15
   132   -1.669224828965e-16
   133   -2.202565971289e-15
   134    2.176762448726e-14
   135   -6.131170149855e-15
   136   -1.014135053728e-02
   137    2.234850815948e-15
   138    1.546599451335e-14
   139    2.077619169683e-15
   140   -1.301693298574e-02
   141   -5.788870287814e-14
   142    1.340898963647e-13
   143    1.640171438586e-14
   144   -5.192743541980e-02
   145   -7.201160539744e-12
   146   -1.468253985895e-12
   147   -6.095032608508e-14
   148   -7.781804812950e-03
   149   -4.002444813592e-15
   150    1.730773012253e-03
   151   -2.088603111722e-03
   152    2.984798987180e-16
   153    5.424125845086e-16
   154    5.160624250103e-15
   155    7.559758863663e-15
   156    8.552189480258e-15
   157    7.443578449107e-15
   158    1.478180758661e-01
   159   -4.264171026981e-15
   160    2.475080113641e-14
   161    2.472166725637e-15
   162    2.283895711452e-01
   163   -3.515593355330e-13
   164   -1.790246395249e-13
   165    9.128518581952e-14
   166    3.503028537402e-01
   167    1.512061915743e-12
   168    1.916433698382e-12
   169    4.739456143412e-13
   170    1.176582948648e-01
   171    3.235235825403e-15
   172   -1.431566492950e-02
   173   -7.050105906496e-03
   174    6.556618347999e-15
   175    9.834902719284e-15
   176   -3.293670006818e-15
   177   -6.129029804455e-15
   178    3.210161623995e-14
   179   -5.824189144355e-16
   180   -1.139195669128e-01
   181   -1.737128821030e-14
   182    3.229674631288e-14
   183    2.016092774747e-14
   184   -1.894452496781e-01
   185    3.265283216991e-13
   186    7.615200705011e-13
   187    7.636588786284e-14
   188   -2.389505959497e-01
   189   -1.881595588912e-11
   190    5.336227980125e-12
   191   -4.193407651272e-12
   192   -2.958715469292e-02
   193   -8.206710005566e-15
   194    2.657235687161e-02
   195    9.297575459393e-03
   196    3.476793138816e-15
   197   -5.202214983091e-17
   198   -7.946413082977e-15
   199   -1.230983863478e-13
   200   -9.326146653455e-13
   201   -1.891016828978e-12
   202    1.185197094687e-14
   203   -1.055119534367e-15
   204   -8.552723673170e-03
Sym=X
Ene= -0.140150
Spin=Alpha
Occup=1
     1    4.675324159145e-16
     2    3.501952580426e-16
     3   -1.575620390765e-15
     4   -5.728405317560e-15
     5   -2.560347118511e-03
     6    7.790346617887e-15
     7    9.138007455072e-15
     8    7.180191954553e-15
     9   -8.043681561441e-03
    10   -3.125523683809e-13
    11   -5.418469495331e-14
    12   -3.594064849602e-13
    13   -5.333949633392e-03
    14   -5.514240582391e-12
    15   -1.046817232791e-12
    16   -2.031161661263e-12
    17    1.195559899533e-03
    18   -5.991604609980e-16
    19   -1.108551196980e-02
    20    3.782315968941e-03
    21    2.535337399727e-16
    22    5.082815765242e-16
    23    3.628658479313e-15
    24    1.942852648759e-15
    25    4.090643663575e-13
    26   -2.979889605276e-13
    27    3.393082178977e-15
    28    3.475059805496e-15
    29    4.518310351219e-03
    30   -2.844488384541e-15
    31    1.200701249694e-15
    32   -4.510248641891e-13
    33   -8.743171710257e-13
    34   -5.038893131583e-15
    35    9.771192795199e-17
    36   -7.740067308769e-04
    37   -1.372290297513e-14
    38    7.788540584664e-14
    39   -7.429188747016e-13
    40    3.506026396739e-13
    41    3.731440730901e-15
    42   -2.736708825056e-15
    43    1.184046799840e-02
    44   -3.097642696164e-16
    45    7.945449591318e-16
    46   -1.699717782501e-15
    47   -8.508571684725e-16
    48   -1.075264683769e-02
    49   -6.415864441209e-15
    50   -4.835656893518e-15
    51   -3.748366140165e-15
    52   -1.912783546307e-02
    53   -3.276283560724e-14
    54   -3.182719248468e-13
    55    9.488141086207e-14
    56   -3.796931248204e-02
    57    1.596331830490e-12
    58   -4.805861419598e-14
    59   -1.083277802615e-12
    60   -1.397989582704e-02
    61    3.736917938112e-15
    62    5.540219387697e-02
    63   -1.608043279625e-02
    64   -2.940412159837e-16
    65   -1.642783236960e-15
    66   -3.291645600922e-16
    67   -3.091380672322e-16
    68    7.618225222612e-16
    69   -1.338309203217e-15
    70   -1.459812435264e-01
    71    1.044805813155e-15
    72    8.558941994527e-15
    73    5.645896967628e-15
    74   -2.267881393913e-01
    75   -5.178905637155e-14
    76   -3.769603581091e-14
    77   -6.554109517982e-15
    78   -2.260965757563e-01
    79   -4.643940719588e-13
    80   -1.540376073589e-13
    81    2.309452606648e-13
    82   -4.623126183245e-02
    83   -1.049142213452e-15
    84   -9.601443410885e-03
    85    6.831433776578e-03
    86   -1.368034470915e-16
    87   -7.070208475386e-16
    88   -1.951443204616e-15
    89   -2.674790288891e-15
    90   -5.080539861498e-15
    91   -4.775472387640e-15
    92   -5.575348859345e-02
    93    1.410508751128e-14
    94    1.102640619655e-14
    95   -7.832535637545e-15
    96   -1.028990437534e-01
    97   -2.134277619973e-13
    98    7.629193284785e-14
    99    3.497833363498e-14
   100   -1.164150826062e-01
   101   -3.413555871163e-12
   102    1.090705986067e-12
   103   -1.317400556102e-13
   104    4.113354601098e-04
   105    4.597737823569e-15
   106   -4.825745730191e-02
   107    5.113013352176e-04
   108   -3.294350841828e-15
   109    5.206357637408e-15
   110    1.036043950337e-16
   111   -7.588583592756e-16
   112    2.131105941604e-15
   113   -1.739686908217e-15
   114   -1.315718366507e-01
   115    8.605985874460e-15
   116    6.715286992004e-15
   117    1.014512074706e-15
   118   -2.049525370259e-01
   119   -5.225230822977e-14
   120    1.028375617015e-14
   121   -3.766213361167e-16
   122   -2.169558550896e-01
   123    6.291205062757e-14
   124   -1.927778853337e-14
   125   -7.935424210466e-14
   126   -5.410670993844e-02
   127    3.096048039946e-17
   128    9.996650931701e-03
   129    8.454539083545e-03
   130   -3.640340142569e-16
   131   -1.110733864905e-15
   132    1.108054882387e-15
   133    5.913535708837e-15
   134   -4.654904162833e-15
   135    4.883565912487e-15
   136    1.717441339355e-01
   137   -3.442276091677e-14
   138    4.461281509937e-15
   139    5.899881300926e-15
   140    2.752722185654e-01
   141    1.145364450682e-13
   142   -8.045423761478e-14
   143   -9.835437525368e-14
   144    3.306370415465e-01
   145    2.132378261144e-12
   146    1.260512599863e-13
   147    5.875858869687e-13
   148    5.572803977272e-02
   149    2.927070830020e-15
   150   -4.146688856318e-03
   151   -4.972310644997e-03
   152    3.870497903274e-15
   153    2.762262110868e-16
   154   -2.830296534061e-15
   155   -1.708643577866e-15
   156    2.694556966084e-15
   157    9.904614937851e-16
   158    4.774052233306e-02
   159   -9.953058357041e-15
   160   -6.765090603368e-15
   161   -9.443072366988e-16
   162    7.451352821382e-02
   163    2.641499080714e-13
   164    1.734278104790e-13
   165    4.440380907810e-14
   166    9.883431737810e-02
   167   -5.978695764291e-13
   168    4.421191121647e-13
   169    1.269701901455e-13
   170    2.671864508740e-02
   171   -5.545373275619e-15
   172    2.096281275293e-03
   173   -1.315352944140e-03
   174   -3.211958807599e-15
   175   -1.160219655031e-16
   176    1.282024351861e-15
   177    2.429844862055e-15
   178   -7.397318126807e-15
   179   -3.363358159920e-15
   180   -3.009089163021e-02
   181   -4.029426319932e-15
   182   -1.159610429488e-14
   183   -6.207180160270e-15
   184   -5.430761887591e-02
   185    1.085934500838e-13
   186   -3.547866741264e-13
   187    8.244082110705e-14
   188   -3.545040544857e-02
   189    6.418972891028e-12
   190   -2.607343512783e-12
   191    6.811458333084e-13
   192   -1.527638012519e-02
   193   -7.405345754605e-16
   194   -1.491935350944e-03
   195   -8.042132537155e-03
   196   -4.671405114612e-15
   197    1.901270159005e-15
   198   -1.951954162547e-15
   199    5.868972931123e-14
   200    4.583827289954e-13
   201    1.019818242619e-12
   202   -7.723127195188e-15
   203    3.996538407889e-15
   204   -3.653617410449e-03
Sym=X
Ene= -0.239013
Spin=Alpha
Occup=1
     1   -1.681155229213e-02
     2   -2.950221457140e-02
     3    3.917591903879e-03
     4   -5.033625712966e-02
     5   -3.610353372222e-15
     6    1.001399322035e-01
     7   -1.383990713931e-04
     8   -7.960343540101e-02
     9   -5.247858209020e-15
    10    2.889834960141e-01
    11    2.957058043183e-02
    12   -1.857397222691e-01
    13   -1.616447432083e-14
    14    7.327082645016e-01
    15    1.058797990876e-01
    16   -1.140281964683e+00
    17   -3.928706885741e-15
    18   -6.889993393804e-03
    19   -4.442827281977e-17
    20   -4.370251123894e-16
    21    1.736519282247e-02
    22   -4.914167849899e-03
    23   -1.407117798122e-02
    24   -6.768999693395e-02
    25   -3.285999394291e-01
    26   -7.385113734669e-01
    27    1.277860088983e-02
    28    1.000302891211e-02
    29    5.491237341556e-16
    30    1.295318674920e-04
    31   -1.798876134870e-02
    32   -3.387365615635e-01
    33   -1.728794948831e+00
    34    5.146897294993e-03
    35    1.337344942109e-02
    36    5.443035948805e-16
    37   -9.375732812176e-03
    38   -1.941408851261e-02
    39   -8.599363333427e-02
    40   -3.200318700877e-02
    41   -3.549434369146e-04
    42   -4.470453104997e-03
    43   -6.227934000754e-16
    44   -7.357138804445e-05
    45   -8.005065417158e-04
    46   -4.078841916672e-03
    47   -8.563296799653e-04
    48    1.254025110541e-15
    49    2.373005583473e-02
    50   -3.190622046352e-03
    51   -5.937327030630e-03
    52    1.095774815613e-15
    53   -1.286513257798e-01
    54   -6.741276298213e-02
    55    3.434106899839e-02
    56    1.052192606305e-14
    57   -8.611494666081e-02
    58   -1.996048570321e-01
    59   -2.242717063450e-01
    60    7.899381489408e-14
    61   -7.500650450892e-03
    62   -6.101487831984e-16
    63   -1.630193099290e-16
    64   -8.933527982552e-04
    65    1.257311280221e-02
    66   -3.992574364049e-03
    67   -6.977841305916e-03
    68   -8.778757038672e-03
    69   -2.269017884880e-03
    70   -5.309046284127e-16
    71    2.329078276412e-02
    72   -1.104121536736e-02
    73   -3.550148056912e-03
    74   -6.090126412992e-15
    75    3.407160647437e-02
    76   -8.883779698803e-03
    77   -1.066188253877e-02
    78   -2.597868525953e-15
    79   -4.786458805425e-02
    80   -3.041012671271e-02
    81    6.549327396132e-02
    82   -5.363679042286e-14
    83   -1.203400035399e-03
    84   -3.218559656281e-16
    85    1.467594417197e-16
    86    1.186258808277e-04
    87   -1.709742804128e-03
    88   -4.582247107768e-03
    89   -8.239181342885e-03
    90    5.485955813222e-03
    91   -1.327002059161e-02
    92    3.392350345456e-15
    93    3.697325458803e-02
    94    6.428819026702e-03
    95   -2.005229779018e-02
    96    1.084098071761e-14
    97   -3.063332632077e-03
    98    6.972879634479e-02
    99   -1.098399713361e-02
   100   -1.846656656992e-14
   101   -7.950003638850e-02
   102   -2.654600672106e-01
   103   -1.071821137334e-01
   104   -4.311530308152e-13
   105   -5.036782827024e-03
   106    4.301271995416e-16
   107   -1.696341536570e-16
   108   -1.850525288737e-03
   109   -8.880973197558e-03
   110   -2.369773099821e-03
   111   -4.128960424566e-03
   112    3.188260926011e-03
   113    1.142265937094e-02
   114   -3.088337947087e-15
   115    1.392890581028e-02
   116    5.521680970121e-03
   117    1.725278442116e-02
   118   -4.914037345264e-16
   119    8.574743221659e-03
   120   -3.512523939053e-03
   121    1.892702020876e-02
   122   -3.532496240482e-14
   123    3.227393066799e-02
   124    5.357373109877e-02
   125    5.332652313885e-02
   126    1.810403636976e-13
   127   -9.347812410057e-04
   128    5.576843291411e-16
   129    4.951586338886e-16
   130   -1.644963909433e-04
   131    9.518135624805e-04
   132   -1.229540696617e-02
   133   -2.121894767113e-02
   134   -5.959420203534e-03
   135   -5.249593036299e-03
   136   -4.056388416920e-15
   137    6.600082005263e-02
   138   -9.835398660212e-03
   139   -9.656034797077e-03
   140   -5.042999815648e-15
   141    1.985527261438e-01
   142   -1.489547256065e-02
   143   -4.340305341226e-02
   144   -2.441242874003e-14
   145    5.073365854022e-01
   146   -1.494474378501e-02
   147    6.068706721891e-03
   148    1.471048062586e-13
   149   -1.887525765244e-03
   150   -6.651985172685e-16
   151   -1.590304667962e-18
   152    2.883750691192e-03
   153   -4.860400050579e-04
   154   -2.032711656179e-02
   155   -3.520526048086e-02
   156   -3.350497543242e-02
   157   -1.986200292241e-02
   158   -4.620533440297e-15
   159    1.125604180086e-01
   160   -5.249257932809e-02
   161   -3.025231741433e-02
   162   -5.192546917739e-15
   163    3.242667906164e-01
   164   -7.560623020713e-02
   165   -3.642139930077e-02
   166   -2.025696908537e-14
   167    8.190145835359e-01
   168   -1.293463524016e-01
   169    9.672358349434e-02
   170    4.522341644521e-14
   171   -4.524917509128e-03
   172   -8.720114989767e-16
   173    9.623687317651e-16
   174   -6.622122392957e-03
   175   -8.299849427738e-03
   176   -1.053635418017e-02
   177   -1.831653659201e-02
   178    1.619162668059e-02
   179   -6.481733776832e-03
   180    5.736412590741e-15
   181    5.793106528949e-02
   182    2.569715298913e-02
   183   -7.425611462379e-03
   184    1.741405353325e-15
   185    2.113672332972e-01
   186    2.284792705474e-02
   187    3.744548799975e-03
   188    2.261195249860e-14
   189    5.421725778202e-01
   190    3.136258956470e-01
   191    2.966376719432e-01
   192    1.466587335521e-13
   193   -5.789415982225e-03
   194    5.857271179078e-16
   195    2.249821973535e-15
   196   -9.072021702797e-03
   197    1.165227871147e-02
   198   -8.449932912527e-03
   199   -2.606810277790e-02
   200   -1.162002096252e-01
   201   -5.185778589730e-01
   202   -5.534168396665e-03
   203    4.633359620765e-03
   204    2.203575502003e-16
Sym=X
Ene= 0.239013
Spin=Alpha
Occup=0
     1   -1.491072431281e-03
     2   -1.825957441353e-03
     3    4.260551366263e-03
     4   -1.920541561097e-02
     5    1.589194542647e-14
     6   -4.841381638783e-03
     7    8.175425082351e-03
     8   -3.066762199577e-02
     9    1.862328565591e-14
    10    2.040561651205e-01
    11    7.812566156230e-02
    12    2.387455299881e-02
    13    9.895337874545e-14
    14    2.536238684792e-02
    15    5.896849148730e-01
    16   -1.464742637296e-01
    17   -9.383610341118e-13
    18    7.881813995106e-03
    19   -8.875211214291e-15
    20   -3.229007309368e-15
    21    8.158797653504e-03
    22   -4.349683461222e-03
    23   -9.432858460863e-03
    24   -6.806765171154e-02
    25   -5.405319299169e-01
    26   -1.130494154018e+00
    27    7.258766583030e-03
    28    7.361244896020e-03
    29    7.138422277998e-16
    30   -9.762400967023e-03
    31   -1.637253675195e-02
    32   -1.606485873887e-01
    33   -2.998012059492e-01
    34    8.037598224930e-03
    35    4.114613912774e-03
    36   -4.159094712247e-16
    37    1.826887046036e-04
    38   -5.686910554388e-03
    39    1.981124447356e-01
    40    7.637204534695e-01
    41    1.621199617255e-04
    42    9.888439764841e-03
    43    4.962031133284e-15
    44    2.104070950123e-03
    45    4.322233842362e-03
    46   -1.374130632881e-03
    47    9.324857982777e-03
    48   -6.171916870024e-14
    49   -2.623279564861e-02
    50    1.210231831631e-04
    51    1.675596415394e-02
    52   -9.507963983139e-14
    53    1.143155167867e-01
    54   -4.500314412038e-03
    55   -6.988825497167e-02
    56   -2.227650525875e-13
    57    9.798711430155e-01
    58    6.586587725919e-03
    59   -4.975799454280e-01
    60    8.646072561630e-13
    61    6.886093737888e-03
    62   -5.629881393749e-15
    63    5.485930924905e-15
    64    4.646764707396e-03
    65    9.108459865108e-03
    66    1.369357656267e-03
    67    2.363731474770e-03
    68   -1.539164444943e-02
    69   -1.132215488108e-02
    70    3.080319305710e-14
    71   -9.765896082960e-03
    72   -2.062221726459e-02
    73   -1.868187735806e-02
    74    3.478841765656e-14
    75    1.924390490845e-02
    76   -2.579410035724e-02
    77   -1.060518766744e-02
    78    1.238665328966e-13
    79   -2.401471967985e-01
    80   -7.449509517414e-02
    81    4.253109453491e-02
    82   -2.609877957756e-13
    83    1.923300763810e-04
    84   -2.661959917756e-15
    85    2.063489025715e-15
    86   -4.038437857016e-04
    87   -4.405009182969e-04
    88   -3.924648955332e-03
    89   -6.481108002841e-03
    90   -2.018391889782e-03
    91    1.353805197516e-03
    92    1.119378411816e-14
    93    1.293911185973e-03
    94   -2.970290719811e-03
    95   -2.188142629744e-03
    96    2.908553990695e-14
    97    2.011723115356e-01
    98   -4.458325267149e-02
    99    4.379222925927e-02
   100   -1.451289152112e-14
   101   -5.345485108308e-01
   102    5.139869572504e-01
   103    2.911900566281e-01
   104   -2.294862915961e-12
   105    1.980466237407e-02
   106   -1.047798679903e-15
   107    8.601803177690e-15
   108    4.049059862607e-03
   109    4.265281750778e-03
   110    1.004427723030e-02
   111    1.731655076586e-02
   112    1.818757301911e-03
   113    1.227669122309e-03
   114   -2.343907046754e-14
   115   -5.686802856718e-02
   116    1.916968767953e-04
   117    1.106033210337e-03
   118   -6.377428901969e-15
   119   -1.030644139090e-01
   120    3.566599538958e-02
   121    1.664455377775e-02
   122   -1.798895058221e-13
   123   -2.801415721032e-01
   124   -8.163634032799e-02
   125   -2.568009486454e-02
   126    7.679951430296e-13
   127    2.756773514028e-03
   128    4.315217867557e-16
   129    8.459585534101e-16
   130   -5.631624165665e-04
   131   -1.042609417938e-03
   132    1.272785007477e-02
   133    2.208818865456e-02
   134   -2.105030811163e-02
   135   -1.786990496954e-02
   136    1.576550212915e-14
   137   -6.956788135905e-02
   138   -3.005848700307e-02
   139   -2.888001168159e-02
   140    2.903973640452e-14
   141   -2.225255717289e-01
   142   -8.762373738861e-02
   143    5.518294292194e-03
   144    3.386694330259e-14