[Molden Format]
[Atoms] (Angs)
  C      1    6     -0.00754183     -1.75895763      0.00000000
  H      2    1     -2.09769850     -1.41880678     -0.00000000
  H      3    1     -0.13527422     -2.83956838     -0.00000000
  H      4    1      0.04053511      2.02026369      0.00000000
  C      5    6     -1.22066484      0.39918184     -0.00000000
  O      6    8     -2.25210141      1.05663720     -0.00000000
  C      7    6      1.24009552      0.27789184      0.00000000
  O      8    8      2.33767996      1.06122493      0.00000000
  N      9    7      0.03634586      1.00852936      0.00000000
  N     10    7     -1.18738304     -0.97903470     -0.00000000
  C     11    6      1.22288875     -1.12258096      0.00000000
  H     12    1      2.15640383     -1.68445878      0.00000000
[GTO]
1    0
S    6    1.000000
   4.56324000E+03    1.96665000E-03 
   6.82024000E+02    1.52306000E-02 
   1.54973000E+02    7.61269000E-02 
   4.44553000E+01    2.60801000E-01 
   1.30290000E+01    6.16462000E-01 
   1.82773000E+00    2.21006000E-01 
SP   3    1.000000
   2.09642000E+01    1.14660000E-01   4.02487000E-02 
   4.80331000E+00    9.19999000E-01   2.37594000E-01 
   1.45933000E+00   -3.03068000E-03   8.15854000E-01 
SP   1    1.000000
   4.83456000E-01    1.00000000E+00   1.00000000E+00 
SP   1    1.000000
   1.45585000E-01    1.00000000E+00   1.00000000E+00 
SP   1    1.000000
   4.38000000E-02    1.00000000E+00   1.00000000E+00 
D    1    1.000000
   6.26000000E-01    1.00000000E+00 

2    0
S    3    1.000000
   3.38650000E+01    2.54938000E-02 
   5.09479000E+00    1.90373000E-01 
   1.15879000E+00    8.52161000E-01 
S    1    1.000000
   3.25840000E-01    1.00000000E+00 
S    1    1.000000
   1.02741000E-01    1.00000000E+00 
S    1    1.000000
   3.60000000E-02    1.00000000E+00 
P    1    1.000000
   7.50000000E-01    1.00000000E+00 

3    0
S    3    1.000000
   3.38650000E+01    2.54938000E-02 
   5.09479000E+00    1.90373000E-01 
   1.15879000E+00    8.52161000E-01 
S    1    1.000000
   3.25840000E-01    1.00000000E+00 
S    1    1.000000
   1.02741000E-01    1.00000000E+00 
S    1    1.000000
   3.60000000E-02    1.00000000E+00 
P    1    1.000000
   7.50000000E-01    1.00000000E+00 

4    0
S    3    1.000000
   3.38650000E+01    2.54938000E-02 
   5.09479000E+00    1.90373000E-01 
   1.15879000E+00    8.52161000E-01 
S    1    1.000000
   3.25840000E-01    1.00000000E+00 
S    1    1.000000
   1.02741000E-01    1.00000000E+00 
S    1    1.000000
   3.60000000E-02    1.00000000E+00 
P    1    1.000000
   7.50000000E-01    1.00000000E+00 

5    0
S    6    1.000000
   4.56324000E+03    1.96665000E-03 
   6.82024000E+02    1.52306000E-02 
   1.54973000E+02    7.61269000E-02 
   4.44553000E+01    2.60801000E-01 
   1.30290000E+01    6.16462000E-01 
   1.82773000E+00    2.21006000E-01 
SP   3    1.000000
   2.09642000E+01    1.14660000E-01   4.02487000E-02 
   4.80331000E+00    9.19999000E-01   2.37594000E-01 
   1.45933000E+00   -3.03068000E-03   8.15854000E-01 
SP   1    1.000000
   4.83456000E-01    1.00000000E+00   1.00000000E+00 
SP   1    1.000000
   1.45585000E-01    1.00000000E+00   1.00000000E+00 
SP   1    1.000000
   4.38000000E-02    1.00000000E+00   1.00000000E+00 
D    1    1.000000
   6.26000000E-01    1.00000000E+00 

6    0
S    6    1.000000
   8.58850000E+03    1.89515000E-03 
   1.29723000E+03    1.43859000E-02 
   2.99296000E+02    7.07320000E-02 
   8.73771000E+01    2.40001000E-01 
   2.56789000E+01    5.94797000E-01 
   3.74004000E+00    2.80802000E-01 
SP   3    1.000000
   4.21175000E+01    1.13889000E-01   3.65114000E-02 
   9.62837000E+00    9.20811000E-01   2.37153000E-01 
   2.85332000E+00   -3.27447000E-03   8.19702000E-01 
SP   1    1.000000
   9.05661000E-01    1.00000000E+00   1.00000000E+00 
SP   1    1.000000
   2.55611000E-01    1.00000000E+00   1.00000000E+00 
SP   1    1.000000
   8.45000000E-02    1.00000000E+00   1.00000000E+00 
D    1    1.000000
   1.29200000E+00    1.00000000E+00 

7    0
S    6    1.000000
   4.56324000E+03    1.96665000E-03 
   6.82024000E+02    1.52306000E-02 
   1.54973000E+02    7.61269000E-02 
   4.44553000E+01    2.60801000E-01 
   1.30290000E+01    6.16462000E-01 
   1.82773000E+00    2.21006000E-01 
SP   3    1.000000
   2.09642000E+01    1.14660000E-01   4.02487000E-02 
   4.80331000E+00    9.19999000E-01   2.37594000E-01 
   1.45933000E+00   -3.03068000E-03   8.15854000E-01 
SP   1    1.000000
   4.83456000E-01    1.00000000E+00   1.00000000E+00 
SP   1    1.000000
   1.45585000E-01    1.00000000E+00   1.00000000E+00 
SP   1    1.000000
   4.38000000E-02    1.00000000E+00   1.00000000E+00 
D    1    1.000000
   6.26000000E-01    1.00000000E+00 

8    0
S    6    1.000000
   8.58850000E+03    1.89515000E-03 
   1.29723000E+03    1.43859000E-02 
   2.99296000E+02    7.07320000E-02 
   8.73771000E+01    2.40001000E-01 
   2.56789000E+01    5.94797000E-01 
   3.74004000E+00    2.80802000E-01 
SP   3    1.000000
   4.21175000E+01    1.13889000E-01   3.65114000E-02 
   9.62837000E+00    9.20811000E-01   2.37153000E-01 
   2.85332000E+00   -3.27447000E-03   8.19702000E-01 
SP   1    1.000000
   9.05661000E-01    1.00000000E+00   1.00000000E+00 
SP   1    1.000000
   2.55611000E-01    1.00000000E+00   1.00000000E+00 
SP   1    1.000000
   8.45000000E-02    1.00000000E+00   1.00000000E+00 
D    1    1.000000
   1.29200000E+00    1.00000000E+00 

9    0
S    6    1.000000
   6.29348000E+03    1.96979000E-03 
   9.49044000E+02    1.49613000E-02 
   2.18776000E+02    7.35006000E-02 
   6.36916000E+01    2.48937000E-01 
   1.88282000E+01    6.02460000E-01 
   2.72023000E+00    2.56202000E-01 
SP   3    1.000000
   3.06331000E+01    1.11906000E-01   3.83119000E-02 
   7.02614000E+00    9.21666000E-01   2.37403000E-01 
   2.11205000E+00   -2.56919000E-03   8.17592000E-01 
SP   1    1.000000
   6.84009000E-01    1.00000000E+00   1.00000000E+00 
SP   1    1.000000
   2.00878000E-01    1.00000000E+00   1.00000000E+00 
SP   1    1.000000
   6.39000000E-02    1.00000000E+00   1.00000000E+00 
D    1    1.000000
   9.13000000E-01    1.00000000E+00 

10    0
S    6    1.000000
   6.29348000E+03    1.96979000E-03 
   9.49044000E+02    1.49613000E-02 
   2.18776000E+02    7.35006000E-02 
   6.36916000E+01    2.48937000E-01 
   1.88282000E+01    6.02460000E-01 
   2.72023000E+00    2.56202000E-01 
SP   3    1.000000
   3.06331000E+01    1.11906000E-01   3.83119000E-02 
   7.02614000E+00    9.21666000E-01   2.37403000E-01 
   2.11205000E+00   -2.56919000E-03   8.17592000E-01 
SP   1    1.000000
   6.84009000E-01    1.00000000E+00   1.00000000E+00 
SP   1    1.000000
   2.00878000E-01    1.00000000E+00   1.00000000E+00 
SP   1    1.000000
   6.39000000E-02    1.00000000E+00   1.00000000E+00 
D    1    1.000000
   9.13000000E-01    1.00000000E+00 

11    0
S    6    1.000000
   4.56324000E+03    1.96665000E-03 
   6.82024000E+02    1.52306000E-02 
   1.54973000E+02    7.61269000E-02 
   4.44553000E+01    2.60801000E-01 
   1.30290000E+01    6.16462000E-01 
   1.82773000E+00    2.21006000E-01 
SP   3    1.000000
   2.09642000E+01    1.14660000E-01   4.02487000E-02 
   4.80331000E+00    9.19999000E-01   2.37594000E-01 
   1.45933000E+00   -3.03068000E-03   8.15854000E-01 
SP   1    1.000000
   4.83456000E-01    1.00000000E+00   1.00000000E+00 
SP   1    1.000000
   1.45585000E-01    1.00000000E+00   1.00000000E+00 
SP   1    1.000000
   4.38000000E-02    1.00000000E+00   1.00000000E+00 
D    1    1.000000
   6.26000000E-01    1.00000000E+00 

12    0
S    3    1.000000
   3.38650000E+01    2.54938000E-02 
   5.09479000E+00    1.90373000E-01 
   1.15879000E+00    8.52161000E-01 
S    1    1.000000
   3.25840000E-01    1.00000000E+00 
S    1    1.000000
   1.02741000E-01    1.00000000E+00 
S    1    1.000000
   3.60000000E-02    1.00000000E+00 
P    1    1.000000
   7.50000000E-01    1.00000000E+00 

[MO]
Sym=X
Ene= -0.003947
Spin=Alpha
Occup=1
     1    3.492513105089e-05
     2    6.060558081603e-05
     3   -4.544075385317e-06
     4    1.027940930865e-04
     5    4.724661181190e-16
     6   -2.103663985779e-04
     7   -1.994768381833e-05
     8    1.870322998890e-04
     9   -8.399006572078e-16
    10   -3.574485991011e-04
    11   -1.308541790786e-04
    12    3.714349134636e-04
    13    2.420849891576e-16
    14   -1.879880388261e-03
    15   -7.828204050622e-04
    16    2.144611028339e-03
    17   -7.008414432411e-15
    18    1.142551419750e-05
    19   -1.413400483237e-16
    20    5.569626294194e-16
    21   -3.986818081202e-05
    22    6.357497363917e-06
    23    2.565941123539e-05
    24    9.612296253030e-05
    25    5.413035976563e-04
    26    1.209379809009e-03
    27   -3.388692559482e-05
    28   -1.106163619626e-05
    29   -7.121327492538e-16
    30    3.179053682729e-06
    31    6.684042076011e-06
    32    6.870587372666e-04
    33    3.338154907082e-03
    34   -8.477057724632e-06
    35   -3.133209599662e-05
    36    1.175641827548e-15
    37    1.506033420409e-05
    38   -2.264939352518e-05
    39    9.666466758962e-05
    40   -2.675719612686e-04
    41   -1.023823025039e-05
    42    1.542051777085e-05
    43   -4.701155535994e-16
    44   -4.375781867899e-06
    45    7.816216107732e-05
    46    6.492258630800e-05
    47   -3.328231136455e-05
    48   -1.847904180705e-15
    49   -3.454465795819e-04
    50    3.651252443079e-04
    51   -2.140465430924e-04
    52    2.817495869899e-15
    53    3.256254976375e-04
    54    5.370043506861e-04
    55   -3.583129100849e-04
    56   -4.629465780733e-15
    57   -2.728425363797e-04
    58   -2.161294978107e-04
    59    9.049663970971e-04
    60   -1.788672484698e-15
    61    7.269154607299e-05
    62   -8.317503805234e-16
    63    7.858841714969e-17
    64   -8.900967528190e-05
    65    1.593816243208e-04
    66   -5.514768688535e-01
    67   -4.716645911128e-01
    68   -1.504510732723e-03
    69    1.020229002813e-03
    70   -8.360346397293e-16
    71   -5.549491170661e-03
    72    6.418024836282e-04
    73   -4.160150194269e-04
    74    7.332835715666e-16
    75    1.212181998522e-03
    76   -1.224176323804e-04
    77    1.317835002993e-04
    78   -7.357862984435e-16
    79   -1.372107659163e-03
    80   -9.531344172324e-06
    81   -1.183020674607e-04
    82    1.244740685161e-15
    83    8.650671943591e-05
    84   -1.279922983246e-16
    85    1.097725833066e-15
    86    3.121298611330e-05
    87   -7.838407763401e-05
    88    9.917314425255e-06
    89    1.650575436495e-05
    90   -6.689542937308e-06
    91    2.509637923979e-05
    92    7.517138987875e-16
    93   -7.053792601700e-05
    94   -2.818284818751e-05
    95    5.679492223077e-05
    96    1.491549510941e-16
    97    1.763881132103e-04
    98   -1.970192568037e-04
    99    6.499966750385e-05
   100   -6.503926474444e-16
   101   -8.692249585132e-04
   102    4.273792419765e-04
   103    9.498906363558e-04
   104   -1.868234757523e-15
   105    7.090272934939e-06
   106    3.150660710182e-16
   107    3.087779096625e-16
   108    1.016796670583e-05
   109    1.770869729527e-05
   110    4.045427084504e-05
   111    3.695038231975e-05
   112   -6.986004372250e-06
   113   -2.351824727296e-05
   114   -8.838501421313e-16
   115   -1.342016940427e-05
   116   -1.185203730515e-05
   117   -3.800514883717e-05
   118    2.183283134569e-15
   119   -5.392254613609e-05
   120    1.963696624934e-05
   121   -2.739024866929e-05
   122   -1.592771342517e-15
   123    1.152163562331e-04
   124   -1.908081214462e-04
   125   -1.641622296187e-04
   126    2.738081694442e-16
   127    1.501180032841e-06
   128    2.639991930519e-16
   129   -1.611766780542e-16
   130   -5.356616066746e-07
   131   -2.472783349087e-06
   132    2.341549042064e-05
   133    3.952461636049e-05
   134    6.541972648574e-07
   135    1.086526214908e-05
   136    4.017489255092e-16
   137   -1.033471053852e-04
   138    5.018519988034e-05
   139    2.072417957932e-05
   140   -1.799329560696e-15
   141   -6.146082247773e-04
   142   -1.362984865406e-05
   143    3.192718397395e-04
   144    3.575614641703e-15
   145   -9.135038208822e-04
   146   -4.962383389321e-04
   147    1.684006348486e-05
   148    8.554410328722e-16
   149    1.055386446502e-05
   150    2.395358959721e-16
   151    1.134595175916e-15
   152   -2.640193021924e-05
   153   -8.622146603464e-06
   154    4.091034335163e-05
   155    7.008600042318e-05
   156    6.257420614431e-05
   157    5.017629964253e-05
   158   -8.799654312305e-16
   159   -2.052920670562e-04
   160    1.249718662397e-04
   161    3.175507011517e-05
   162    2.254886068418e-16
   163   -9.263553140861e-04
   164   -6.474858516608e-05
   165    7.454821692241e-07
   166    9.629744209510e-16
   167   -1.552040507438e-03
   168   -4.616947075976e-05
   169    1.576447580258e-04
   170    5.300771414677e-15
   171    1.719600717860e-05
   172   -2.004586757032e-16
   173   -3.216341587313e-16
   174    3.438358676620e-05
   175    3.015125957525e-05
   176    2.209094935147e-05
   177    3.908126999910e-05
   178   -3.728876062915e-05
   179    1.453529068102e-05
   180    7.586417680757e-17
   181   -1.332690513446e-04
   182   -4.612731131531e-05
   183    1.301917907549e-05
   184    1.295014774039e-15
   185   -3.802775505642e-04
   186   -8.886078788472e-05
   187    1.752951947364e-05
   188   -2.909880501570e-15
   189    1.894768229548e-03
   190   -1.034830282214e-03
   191   -3.039012159520e-04
   192    7.027473075147e-15
   193    7.792839532975e-06
   194    4.811558680734e-16
   195    4.324336793365e-17
   196    1.770389528705e-05
   197   -2.201270101840e-05
   198    1.550317915208e-05
   199    6.206838957536e-05
   200    2.495564639300e-04
   201    1.133581145800e-03
   202    1.141207485244e-05
   203   -1.001937033497e-05
   204    9.813854636965e-16
Sym=X
Ene= 0.003947
Spin=Alpha
Occup=0
     1    8.229456349993e-17
     2    1.541545121926e-15
     3   -1.082964782653e-15
     4   -7.123990463209e-15
     5    1.094026493293e-01
     6    6.377836292399e-16
     7    9.442151400621e-15
     8    1.636556128121e-15
     9    1.764676606822e-01
    10   -1.871856888482e-13
    11   -2.599967236266e-14
    12   -2.136223968008e-13
    13    1.988519555094e-01
    14   -8.915890405849e-12
    15   -1.590613392726e-12
    16   -2.511148097384e-12
    17    3.741367689096e-02
    18   -1.829769512821e-16
    19    2.603807184698e-02
    20    5.494608416911e-03
    21   -1.288285755278e-15
    22    5.092474582541e-16
    23    3.394860002491e-15
    24   -3.143277154189e-14
    25    4.870420005242e-13
    26   -2.097257431448e-13
    27   -1.371187448809e-16
    28    1.988304102355e-15
    29   -1.815759837087e-02
    30   -4.544898213784e-16
    31   -5.459711602852e-15
    32   -2.439239277345e-13
    33   -7.805404037854e-13
    34   -4.644306941413e-15
    35   -5.246606818806e-16
    36    8.270693645422e-03
    37   -8.847709518938e-15
    38    7.281719698600e-14
    39   -3.471201995958e-13
    40    7.936350468835e-14
    41    3.401764200250e-15
    42   -2.799332143691e-15
    43    4.144858044224e-03
    44    9.354248011240e-16
    45    6.830113001448e-17
    46    2.587068518275e-15
    47    3.665152000980e-15
    48   -1.842782651629e-02
    49    5.831551859798e-16
    50   -1.048839863340e-15
    51    2.819697942209e-15
    52   -3.820775210499e-02
    53   -1.079242680718e-13
    54   -1.233097558770e-13
    55    2.005558056990e-13
    56    4.993302620334e-04
    57    2.209450589586e-12
    58    2.265022049265e-13
    59   -9.062821710595e-13
    60    2.615746908820e-02
    61    6.692165600555e-15
    62    3.148499527515e-03
    63    2.978154225355e-02
    64   -1.220260585080e-15
    65    1.650148766415e-16
    66    2.387988028942e-16
    67    3.829818627405e-16
    68   -2.750542343875e-15
    69   -2.190333622978e-15
    70    7.031252120411e-02
    71   -4.006433138541e-16
    72    3.600426622947e-15
    73    4.672245545684e-15
    74    8.828336909062e-02
    75   -3.339258939771e-14
    76   -2.829510419283e-14
    77   -2.442105842957e-14
    78    7.153786918797e-02
    79   -2.475721089723e-13
    80   -1.100745278609e-13
    81    6.013090092447e-14
    82    1.929566696427e-03
    83    2.030902954174e-16
    84    1.818724965638e-03
    85   -6.929029705488e-05
    86   -2.710588971559e-16
    87   -5.235605952677e-16
    88   -1.180825609371e-15
    89   -4.109373034425e-15
    90   -3.364650009619e-15
    91   -1.968035686248e-15
    92   -1.920745166461e-02
    93    1.345061230016e-14
    94    1.758293331566e-14
    95   -1.791080578442e-14
    96   -3.594918894318e-02
    97   -8.204896351121e-14
    98    9.675847298999e-14
    99    1.783231921903e-14
   100   -6.173395986049e-02
   101   -5.774646950881e-12
   102    6.994565506999e-13
   103    9.990700959005e-13
   104   -3.662499885019e-02
   105    2.532244188979e-16
   106   -3.069178586922e-02
   107   -3.505885565828e-02
   108   -4.614261236298e-15
   109    5.103181763043e-15
   110   -3.171408128209e-16
   111   -1.730485205609e-15
   112   -4.051560767096e-15
   113    6.615922519037e-15
   114   -1.540867355032e-01
   115    1.217184517991e-14
   116    3.345457067911e-15
   117   -1.555698343153e-15
   118   -2.335342428005e-01
   119   -6.611506178468e-14
   120   -2.177779103901e-15
   121    4.087517954069e-14
   122   -2.300585753341e-01
   123    1.876987052988e-13
   124    4.762070858584e-14
   125   -1.524158784208e-13
   126   -6.367588762089e-02
   127   -3.988052862872e-16
   128    9.226834003948e-03
   129    4.693974518240e-03
   130    2.805829398497e-16
   131   -7.067900776736e-16
   132    1.333960621149e-15
   133    5.047457209420e-15
   134    9.466763504106e-16
   135    3.596168578134e-15
   136    4.270421357265e-02
   137   -2.547060038873e-14
   138    1.556070366138e-15
   139    1.082888786276e-14
   140    6.577424280133e-02
   141    4.483518012149e-14
   142    2.507083479402e-14
   143   -1.201557369966e-13
   144    8.394487693464e-02
   145    7.505374073754e-13
   146    7.112576789558e-14
   147    3.978368757272e-13
   148    3.182115880007e-02
   149    1.408216042025e-15
   150   -2.688625441020e-03
   151   -2.338260263437e-04
   152    4.426142674930e-15
   153    2.846122460140e-16
   154   -1.060421725001e-15
   155   -3.952658636574e-16
   156    5.945197354392e-15
   157    4.670444061343e-15
   158   -1.254525649221e-01
   159   -1.533476399881e-14
   160    4.996413898920e-15
   161    3.649463124649e-15
   162   -1.930463163980e-01
   163    2.274925437544e-13
   164    7.306843988969e-14
   165    6.851683926971e-14
   166   -2.372590186349e-01
   167   -2.628782406442e-13
   168    6.681734547342e-13
   169    5.449240127841e-14
   170   -1.025507305375e-01
   171   -4.819469896641e-15
   172    1.120573226483e-02
   173   -7.753707106620e-03
   174   -2.936018181715e-15
   175    1.570755590172e-15
   176   -4.339054321031e-16
   177   -8.714864355278e-16
   178   -1.118854127010e-16
   179   -2.060225919246e-15
   180    1.368918839103e-01
   181    1.925369851097e-14
   182   -2.779072362069e-15
   183   -3.240632579851e-15
   184    2.231740029148e-01
   185   -1.366391458218e-14
   186   -1.956043272315e-13
   187   -6.944877958186e-15
   188    2.250368187705e-01
   189    1.177205416487e-11
   190   -3.149732195251e-12
   191    1.133075174036e-12
   192    4.962230836355e-02
   193    1.783661305625e-15
   194   -1.634394428844e-02
   195   -3.430162573052e-03
   196   -2.465805969554e-15
   197    1.584062333442e-15
   198   -3.997238314586e-15
   199    4.503427419855e-14
   200    2.142238877863e-13
   201    1.255739080536e-12
   202   -6.957368227335e-15
   203    3.932018382940e-15
   204    1.026734917643e-02
[5D]
