[Molden Format]
[Atoms] (Angs)
  C      1    6     -0.00754183     -1.75895763      0.00000000
  H      2    1     -2.09769850     -1.41880678     -0.00000000
  H      3    1     -0.13527422     -2.83956838     -0.00000000
  H      4    1      0.04053511      2.02026369      0.00000000
  C      5    6     -1.22066484      0.39918184     -0.00000000
  O      6    8     -2.25210141      1.05663720     -0.00000000
  C      7    6      1.24009552      0.27789184      0.00000000
  O      8    8      2.33767996      1.06122493      0.00000000
  N      9    7      0.03634586      1.00852936      0.00000000
  N     10    7     -1.18738304     -0.97903470     -0.00000000
  C     11    6      1.22288875     -1.12258096      0.00000000
  H     12    1      2.15640383     -1.68445878      0.00000000
[GTO]
1    0
S    6    1.000000
   4.56324000E+03    1.96665000E-03 
   6.82024000E+02    1.52306000E-02 
   1.54973000E+02    7.61269000E-02 
   4.44553000E+01    2.60801000E-01 
   1.30290000E+01    6.16462000E-01 
   1.82773000E+00    2.21006000E-01 
SP   3    1.000000
   2.09642000E+01    1.14660000E-01   4.02487000E-02 
   4.80331000E+00    9.19999000E-01   2.37594000E-01 
   1.45933000E+00   -3.03068000E-03   8.15854000E-01 
SP   1    1.000000
   4.83456000E-01    1.00000000E+00   1.00000000E+00 
SP   1    1.000000
   1.45585000E-01    1.00000000E+00   1.00000000E+00 
SP   1    1.000000
   4.38000000E-02    1.00000000E+00   1.00000000E+00 
D    1    1.000000
   6.26000000E-01    1.00000000E+00 

2    0
S    3    1.000000
   3.38650000E+01    2.54938000E-02 
   5.09479000E+00    1.90373000E-01 
   1.15879000E+00    8.52161000E-01 
S    1    1.000000
   3.25840000E-01    1.00000000E+00 
S    1    1.000000
   1.02741000E-01    1.00000000E+00 
S    1    1.000000
   3.60000000E-02    1.00000000E+00 
P    1    1.000000
   7.50000000E-01    1.00000000E+00 

3    0
S    3    1.000000
   3.38650000E+01    2.54938000E-02 
   5.09479000E+00    1.90373000E-01 
   1.15879000E+00    8.52161000E-01 
S    1    1.000000
   3.25840000E-01    1.00000000E+00 
S    1    1.000000
   1.02741000E-01    1.00000000E+00 
S    1    1.000000
   3.60000000E-02    1.00000000E+00 
P    1    1.000000
   7.50000000E-01    1.00000000E+00 

4    0
S    3    1.000000
   3.38650000E+01    2.54938000E-02 
   5.09479000E+00    1.90373000E-01 
   1.15879000E+00    8.52161000E-01 
S    1    1.000000
   3.25840000E-01    1.00000000E+00 
S    1    1.000000
   1.02741000E-01    1.00000000E+00 
S    1    1.000000
   3.60000000E-02    1.00000000E+00 
P    1    1.000000
   7.50000000E-01    1.00000000E+00 

5    0
S    6    1.000000
   4.56324000E+03    1.96665000E-03 
   6.82024000E+02    1.52306000E-02 
   1.54973000E+02    7.61269000E-02 
   4.44553000E+01    2.60801000E-01 
   1.30290000E+01    6.16462000E-01 
   1.82773000E+00    2.21006000E-01 
SP   3    1.000000
   2.09642000E+01    1.14660000E-01   4.02487000E-02 
   4.80331000E+00    9.19999000E-01   2.37594000E-01 
   1.45933000E+00   -3.03068000E-03   8.15854000E-01 
SP   1    1.000000
   4.83456000E-01    1.00000000E+00   1.00000000E+00 
SP   1    1.000000
   1.45585000E-01    1.00000000E+00   1.00000000E+00 
SP   1    1.000000
   4.38000000E-02    1.00000000E+00   1.00000000E+00 
D    1    1.000000
   6.26000000E-01    1.00000000E+00 

6    0
S    6    1.000000
   8.58850000E+03    1.89515000E-03 
   1.29723000E+03    1.43859000E-02 
   2.99296000E+02    7.07320000E-02 
   8.73771000E+01    2.40001000E-01 
   2.56789000E+01    5.94797000E-01 
   3.74004000E+00    2.80802000E-01 
SP   3    1.000000
   4.21175000E+01    1.13889000E-01   3.65114000E-02 
   9.62837000E+00    9.20811000E-01   2.37153000E-01 
   2.85332000E+00   -3.27447000E-03   8.19702000E-01 
SP   1    1.000000
   9.05661000E-01    1.00000000E+00   1.00000000E+00 
SP   1    1.000000
   2.55611000E-01    1.00000000E+00   1.00000000E+00 
SP   1    1.000000
   8.45000000E-02    1.00000000E+00   1.00000000E+00 
D    1    1.000000
   1.29200000E+00    1.00000000E+00 

7    0
S    6    1.000000
   4.56324000E+03    1.96665000E-03 
   6.82024000E+02    1.52306000E-02 
   1.54973000E+02    7.61269000E-02 
   4.44553000E+01    2.60801000E-01 
   1.30290000E+01    6.16462000E-01 
   1.82773000E+00    2.21006000E-01 
SP   3    1.000000
   2.09642000E+01    1.14660000E-01   4.02487000E-02 
   4.80331000E+00    9.19999000E-01   2.37594000E-01 
   1.45933000E+00   -3.03068000E-03   8.15854000E-01 
SP   1    1.000000
   4.83456000E-01    1.00000000E+00   1.00000000E+00 
SP   1    1.000000
   1.45585000E-01    1.00000000E+00   1.00000000E+00 
SP   1    1.000000
   4.38000000E-02    1.00000000E+00   1.00000000E+00 
D    1    1.000000
   6.26000000E-01    1.00000000E+00 

8    0
S    6    1.000000
   8.58850000E+03    1.89515000E-03 
   1.29723000E+03    1.43859000E-02 
   2.99296000E+02    7.07320000E-02 
   8.73771000E+01    2.40001000E-01 
   2.56789000E+01    5.94797000E-01 
   3.74004000E+00    2.80802000E-01 
SP   3    1.000000
   4.21175000E+01    1.13889000E-01   3.65114000E-02 
   9.62837000E+00    9.20811000E-01   2.37153000E-01 
   2.85332000E+00   -3.27447000E-03   8.19702000E-01 
SP   1    1.000000
   9.05661000E-01    1.00000000E+00   1.00000000E+00 
SP   1    1.000000
   2.55611000E-01    1.00000000E+00   1.00000000E+00 
SP   1    1.000000
   8.45000000E-02    1.00000000E+00   1.00000000E+00 
D    1    1.000000
   1.29200000E+00    1.00000000E+00 

9    0
S    6    1.000000
   6.29348000E+03    1.96979000E-03 
   9.49044000E+02    1.49613000E-02 
   2.18776000E+02    7.35006000E-02 
   6.36916000E+01    2.48937000E-01 
   1.88282000E+01    6.02460000E-01 
   2.72023000E+00    2.56202000E-01 
SP   3    1.000000
   3.06331000E+01    1.11906000E-01   3.83119000E-02 
   7.02614000E+00    9.21666000E-01   2.37403000E-01 
   2.11205000E+00   -2.56919000E-03   8.17592000E-01 
SP   1    1.000000
   6.84009000E-01    1.00000000E+00   1.00000000E+00 
SP   1    1.000000
   2.00878000E-01    1.00000000E+00   1.00000000E+00 
SP   1    1.000000
   6.39000000E-02    1.00000000E+00   1.00000000E+00 
D    1    1.000000
   9.13000000E-01    1.00000000E+00 

10    0
S    6    1.000000
   6.29348000E+03    1.96979000E-03 
   9.49044000E+02    1.49613000E-02 
   2.18776000E+02    7.35006000E-02 
   6.36916000E+01    2.48937000E-01 
   1.88282000E+01    6.02460000E-01 
   2.72023000E+00    2.56202000E-01 
SP   3    1.000000
   3.06331000E+01    1.11906000E-01   3.83119000E-02 
   7.02614000E+00    9.21666000E-01   2.37403000E-01 
   2.11205000E+00   -2.56919000E-03   8.17592000E-01 
SP   1    1.000000
   6.84009000E-01    1.00000000E+00   1.00000000E+00 
SP   1    1.000000
   2.00878000E-01    1.00000000E+00   1.00000000E+00 
SP   1    1.000000
   6.39000000E-02    1.00000000E+00   1.00000000E+00 
D    1    1.000000
   9.13000000E-01    1.00000000E+00 

11    0
S    6    1.000000
   4.56324000E+03    1.96665000E-03 
   6.82024000E+02    1.52306000E-02 
   1.54973000E+02    7.61269000E-02 
   4.44553000E+01    2.60801000E-01 
   1.30290000E+01    6.16462000E-01 
   1.82773000E+00    2.21006000E-01 
SP   3    1.000000
   2.09642000E+01    1.14660000E-01   4.02487000E-02 
   4.80331000E+00    9.19999000E-01   2.37594000E-01 
   1.45933000E+00   -3.03068000E-03   8.15854000E-01 
SP   1    1.000000
   4.83456000E-01    1.00000000E+00   1.00000000E+00 
SP   1    1.000000
   1.45585000E-01    1.00000000E+00   1.00000000E+00 
SP   1    1.000000
   4.38000000E-02    1.00000000E+00   1.00000000E+00 
D    1    1.000000
   6.26000000E-01    1.00000000E+00 

12    0
S    3    1.000000
   3.38650000E+01    2.54938000E-02 
   5.09479000E+00    1.90373000E-01 
   1.15879000E+00    8.52161000E-01 
S    1    1.000000
   3.25840000E-01    1.00000000E+00 
S    1    1.000000
   1.02741000E-01    1.00000000E+00 
S    1    1.000000
   3.60000000E-02    1.00000000E+00 
P    1    1.000000
   7.50000000E-01    1.00000000E+00 

[MO]
Sym=X
Ene= -0.002272
Spin=Alpha
Occup=1
     1   -8.829797462302e-05
     2   -1.516817815837e-04
     3    2.019118000107e-05
     4   -2.692747033620e-04
     5    6.100139972504e-16
     6    5.106023840665e-04
     7   -1.974452279358e-05
     8   -4.413747432249e-04
     9   -1.126303239102e-15
    10    1.878404253477e-03
    11    1.914682008673e-04
    12   -7.617266673813e-04
    13    6.682308516620e-15
    14    4.000787525638e-03
    15    5.219922595672e-04
    16   -5.048057540319e-03
    17   -1.132842827387e-14
    18   -3.815050060774e-05
    19    6.689275332868e-16
    20    9.976343695349e-16
    21    9.977410947012e-05
    22   -3.405867383283e-05
    23   -8.961609671365e-05
    24   -4.439103957978e-04
    25   -1.966669903644e-03
    26   -4.316205650810e-03
    27    7.950205559081e-05
    28    5.723077343360e-05
    29    1.226156352353e-15
    30    6.069872975953e-06
    31   -8.978032881468e-05
    32   -1.560124343799e-03
    33   -8.251016292465e-03
    34    2.528198451976e-05
    35    6.878303514541e-05
    36   -1.600065886911e-15
    37   -5.313620891423e-05
    38   -1.312483965512e-04
    39   -4.342473309518e-04
    40   -1.411200862773e-04
    41    2.897815549110e-06
    42   -1.081397744396e-05
    43   -7.846605587317e-16
    44   -1.533090522551e-07
    45   -3.948372566659e-06
    46   -2.659464544216e-05
    47   -2.713286730747e-06
    48   -1.119939326605e-15
    49    1.325581151518e-04
    50   -2.231857428124e-05
    51   -3.098209293572e-05
    52    1.225207145705e-15
    53   -5.402414578868e-04
    54   -2.134122579512e-04
    55    1.351458068274e-04
    56    9.293572645104e-16
    57   -4.390482973719e-04
    58   -9.807503361662e-04
    59   -9.568407524816e-04
    60   -5.466609254575e-15
    61   -4.976318486692e-05
    62   -4.711567400928e-16
    63    6.117134288623e-16
    64   -4.172708809618e-06
    65    7.253802267647e-05
    66   -1.145197613825e-04
    67   -1.203719747301e-04
    68   -5.520141237944e-05
    69   -1.708685608955e-05
    70   -2.290484242635e-16
    71    1.467923319045e-04
    72   -7.049736286502e-05
    73   -2.562546427659e-05
    74    1.495889277376e-15
    75    2.328766095356e-04
    76   -5.873379592883e-05
    77   -7.434524430287e-05
    78   -2.962995307754e-15
    79    5.990580627247e-05
    80   -5.247684813081e-05
    81    2.872686677968e-04
    82    3.135525308565e-15
    83   -8.221140063460e-06
    84    5.204986070936e-16
    85    2.795318478753e-16
    86   -2.316943105097e-07
    87   -1.001065769441e-05
    88   -2.351258426119e-05
    89    8.081946200958e-06
    90    1.580266296442e-05
    91   -7.981051563381e-05
    92    2.247315627212e-16
    93    2.059687276752e-05
    94   -2.936920485705e-04
    95   -3.373721879580e-04
    96   -3.626622218977e-16
    97    3.310621057714e-04
    98    3.217156399148e-04
    99   -1.491937438725e-04
   100    3.728312858932e-15
   101    1.141193630576e-03
   102   -4.379381920917e-04
   103   -6.352812017014e-04
   104   -1.486366205002e-14
   105    2.462254465237e-05
   106    3.285336453706e-16
   107    1.069862924378e-15
   108   -9.791453200851e-05
   109   -2.372105863112e-04
   110   -5.515668328530e-01
   111   -4.717219864261e-01
   112    1.398553630829e-03
   113    1.051307486003e-03
   114    7.034477477803e-16
   115   -5.109275486982e-03
   116   -6.002300255640e-04
   117   -3.676584289178e-04
   118    2.358721009947e-16
   119    7.828249784441e-04
   120    2.392892667617e-04
   121    2.983559698180e-04
   122   -2.915382993614e-15
   123   -1.430191261524e-03
   124    3.357033551001e-04
   125    2.695610933258e-04
   126    4.235545253055e-15
   127    4.765854722426e-05
   128    3.402851320459e-16
   129    4.520529425018e-17
   130    4.506549864660e-05
   131    1.759214588080e-04
   132   -6.240597055351e-05
   133   -1.061955233611e-04
   134   -3.343445431245e-05
   135   -4.109193471573e-05
   136   -9.433935406974e-16
   137    3.419580053818e-04
   138   -1.168462615562e-04
   139   -4.008870025528e-05
   140    1.451011826659e-15
   141    8.453858596609e-04
   142   -8.391426906749e-05
   143   -1.280686523829e-04
   144   -3.224566985699e-15
   145    2.896776574279e-03
   146    3.926958018321e-04
   147   -2.556399947815e-05
   148    6.240481942278e-15
   149   -1.434322786255e-06
   150   -8.863087122444e-16
   151    1.579856072896e-17
   152   -5.454102415304e-06
   153    2.046893336456e-05
   154   -1.225585100650e-04
   155   -2.113602815858e-04
   156   -2.225667302253e-04
   157   -1.254889824346e-04
   158   -1.329842710318e-16
   159    6.934384825587e-04
   160   -3.486190292404e-04
   161   -1.908943503610e-04
   162    2.723310459170e-16
   163    1.800845167555e-03
   164   -6.004846708473e-04
   165   -2.364067512757e-04
   166   -3.420322072308e-15
   167    3.810141229906e-03
   168   -8.635934156957e-04
   169    4.246895332076e-04
   170    5.198206313870e-15
   171   -3.287822584826e-05
   172    4.412973948471e-16
   173   -1.731285124304e-16
   174   -3.946132842133e-05
   175   -4.908390061142e-05
   176   -5.537659689129e-05
   177   -9.083502165311e-05
   178    8.063566455374e-05
   179   -1.211206724695e-05
   180   -1.076151001183e-15
   181    2.953538447253e-04
   182    1.002986538547e-04
   183   -1.395063712601e-04
   184    2.772838479825e-15
   185    6.589058136443e-04
   186    3.720555668308e-04
   187   -2.128757819502e-05
   188   -8.625925719948e-15
   189    1.132592100212e-03
   190    1.205152533620e-03
   191    8.180016909801e-04
   192    1.873516397036e-14
   193   -2.250592705010e-05
   194    3.980707590175e-16
   195   -3.105995634218e-16
   196    2.249343118417e-06
   197    2.546695101108e-05
   198   -4.663807027390e-05
   199   -2.273871506450e-04
   200   -5.920413152555e-04
   201   -2.406380475284e-03
   202   -3.758321962832e-06
   203    8.789332998831e-06
   204    3.113804476105e-16
Sym=X
Ene= 0.002272
Spin=Alpha
Occup=0
     1    1.069903053584e-15
     2    8.002610120038e-16
     3    1.706722990121e-15
     4    1.240529934940e-15
     5   -7.080298082993e-03
     6   -1.069376669449e-14
     7    5.196762534311e-15
     8   -6.651656764251e-15
     9   -2.986298309267e-03
    10    1.657179810947e-14
    11   -8.826426715216e-14
    12    8.625088317025e-14
    13   -4.807908836130e-02
    14    3.913246244766e-12
    15    8.432947775210e-13
    16    8.441902211634e-13
    17    1.212988167869e-02
    18    1.562046763197e-16
    19   -3.987283435002e-02
    20    1.600224468255e-02
    21    2.560623526199e-15
    22   -6.407943302900e-15
    23    2.503847936172e-15
    24   -7.110454197286e-15
    25   -6.425740445785e-14
    26   -6.728649568918e-14
    27   -5.789913428037e-15
    28   -2.525890083871e-15
    29    1.240321648457e-02
    30   -2.923701463623e-15
    31    2.348573631640e-14
    32    1.324593437233e-14
    33    2.600881931542e-13
    34   -4.611589265460e-16
    35    4.634398819619e-15
    36   -4.160475577376e-03
    37   -1.930966091011e-15
    38   -8.797091493466e-15
    39    7.244095587654e-14
    40    1.314688063159e-13
    41    1.683840334139e-15
    42   -4.967806308068e-15
    43   -6.283605462515e-05
    44    5.990504380802e-16
    45    1.952383974489e-15
    46    4.185916805397e-16
    47    3.282335382570e-15
    48   -1.822138793907e-02
    49   -1.611412387406e-14
    50    4.318174254341e-15
    51    5.343313805763e-15
    52   -2.934594132193e-02
    53    1.111382939153e-13
    54   -3.017094320409e-14
    55   -6.743762603205e-14
    56   -5.717452378346e-02
    57   -3.916748637451e-13
    58   -1.129028769736e-13
    59   -8.873001179214e-14
    60   -3.315972490599e-02
    61   -3.145186492049e-15
    62    3.288186124035e-02
    63   -4.654452992699e-02
    64   -1.707762168677e-15
    65   -2.241674756440e-15
    66   -1.333019740848e-16
    67   -8.711827753434e-17
    68    8.175562542458e-16
    69    1.025913283897e-15
    70   -1.461346536173e-01
    71   -6.068552871405e-16
    72   -1.494984169724e-15
    73   -4.306589576098e-15
    74   -2.211497240782e-01
    75   -8.818423420542e-15
    76   -9.674206921112e-15
    77    1.300537583571e-14
    78   -2.123119039055e-01
    79    1.547001158462e-15
    80   -1.744892236998e-14
    81    1.220478231533e-14
    82   -4.118717772381e-02
    83   -1.609154758047e-16
    84   -9.908513923210e-03
    85    4.027803661142e-03
    86   -1.365416440138e-16
    87    3.970496460606e-16
    88   -2.003124688141e-15
    89   -1.215804639063e-15
    90    8.199236460507e-16
    91   -5.208625337339e-15
    92   -1.097665942389e-02
    93    9.808299835567e-15
    94   -7.083187295585e-15
    95   -4.199211103326e-15
    96   -2.575829887063e-02
    97    7.699458739090e-14
    98   -5.347516607091e-15
    99   -5.686016407062e-14
   100    2.484782229875e-02
   101    5.000145920214e-13
   102   -1.475846932464e-13
   103   -1.710717092896e-13
   104    5.657937561705e-02
   105    3.768518086604e-15
   106    5.389277971926e-03
   107    2.006373725883e-02
   108    1.662252223599e-15
   109   -2.644416786900e-16
   110   -5.341730552636e-16
   111   -1.087378371131e-15
   112    4.893594657950e-15
   113   -4.076830194416e-15
   114    9.027804733497e-02
   115    3.664916413898e-15
   116    1.236247061823e-15
   117    5.716030390917e-15
   118    1.145167633474e-01
   119    2.249217741623e-15
   120    2.569045596523e-15
   121   -1.977692136885e-14
   122    9.188431561884e-02
   123    4.934935364923e-14
   124   -1.322866269119e-14
   125    2.065612688634e-14
   126    1.234285338536e-02
   127    1.230084219296e-15
   128   -2.989808404519e-03
   129   -6.173983152945e-04
   130    8.625656443290e-16
   131   -1.183460588701e-16
   132    1.063581341095e-15
   133    1.606503823284e-15
   134   -3.735726821335e-16
   135    6.667467911666e-16
   136    1.067510114724e-02
   137   -8.241589455145e-16
   138    5.261925239563e-15
   139    1.804663971173e-15
   140    1.466007233364e-02
   141   -8.288237549733e-14
   142   -1.880489726808e-14
   143   -6.612773924422e-15
   144    2.808517617751e-02
   145    6.240044949772e-13
   146   -1.345102149958e-13
   147   -2.655636680089e-13
   148   -7.746810041784e-03
   149    3.317027522651e-15
   150    1.510922543583e-03
   151   -6.275708792468e-04
   152    5.202765625434e-16
   153   -1.664027344223e-15
   154   -1.506628552466e-15
   155   -2.476265220162e-15
   156   -1.558301543336e-15
   157   -2.905885384493e-16
   158    2.023753982031e-01
   159    1.101116895989e-14
   160   -3.215356153401e-15
   161    2.920859824696e-15
   162    3.166423712694e-01
   163   -1.660392151205e-14
   164   -2.542869525315e-14
   165   -2.931838781121e-14
   166    3.660703555987e-01
   167   -8.542472690454e-13
   168   -3.409999663425e-13
   169   -2.361676339694e-13
   170    9.716877327089e-02
   171   -1.694771568187e-15
   172    8.133944126183e-03
   173   -3.127357456505e-04
   174   -8.946577657222e-16
   175    2.335410723127e-15
   176    8.191313782751e-16
   177    1.327654171822e-15
   178   -5.456146012636e-15
   179   -7.110097527431e-15
   180   -9.657519925470e-02
   181   -9.170616674082e-15
   182   -1.521800593941e-15
   183    8.292020758439e-15
   184   -1.569009139460e-01
   185    1.724109716789e-14
   186   -2.262257342604e-14
   187   -1.568598498564e-13
   188   -1.933427284410e-01
   189   -4.148178484879e-12
   190    1.070607326598e-12
   191    2.325333976112e-13
   192   -7.824529603831e-02
   193   -6.200443394282e-15
   194    1.955841320313e-03
   195   -4.021083402917e-04
   196    1.187010222381e-15
   197   -2.489265705704e-15
   198    2.950536562716e-15
   199   -2.368562698442e-14
   200    4.583404762282e-14
   201   -1.693311169153e-13
   202    4.713438647905e-15
   203   -4.303193705083e-15
   204   -8.499287042064e-03
[5D]
