[Molden Format]
[Atoms] (Angs)
  C      1    6     -0.00754183     -1.75895763      0.00000000
  H      2    1     -2.09769850     -1.41880678     -0.00000000
  H      3    1     -0.13527422     -2.83956838     -0.00000000
  H      4    1      0.04053511      2.02026369      0.00000000
  C      5    6     -1.22066484      0.39918184     -0.00000000
  O      6    8     -2.25210141      1.05663720     -0.00000000
  C      7    6      1.24009552      0.27789184      0.00000000
  O      8    8      2.33767996      1.06122493      0.00000000
  N      9    7      0.03634586      1.00852936      0.00000000
  N     10    7     -1.18738304     -0.97903470     -0.00000000
  C     11    6      1.22288875     -1.12258096      0.00000000
  H     12    1      2.15640383     -1.68445878      0.00000000
[GTO]
1    0
S    6    1.000000
   4.56324000E+03    1.96665000E-03 
   6.82024000E+02    1.52306000E-02 
   1.54973000E+02    7.61269000E-02 
   4.44553000E+01    2.60801000E-01 
   1.30290000E+01    6.16462000E-01 
   1.82773000E+00    2.21006000E-01 
SP   3    1.000000
   2.09642000E+01    1.14660000E-01   4.02487000E-02 
   4.80331000E+00    9.19999000E-01   2.37594000E-01 
   1.45933000E+00   -3.03068000E-03   8.15854000E-01 
SP   1    1.000000
   4.83456000E-01    1.00000000E+00   1.00000000E+00 
SP   1    1.000000
   1.45585000E-01    1.00000000E+00   1.00000000E+00 
SP   1    1.000000
   4.38000000E-02    1.00000000E+00   1.00000000E+00 
D    1    1.000000
   6.26000000E-01    1.00000000E+00 

2    0
S    3    1.000000
   3.38650000E+01    2.54938000E-02 
   5.09479000E+00    1.90373000E-01 
   1.15879000E+00    8.52161000E-01 
S    1    1.000000
   3.25840000E-01    1.00000000E+00 
S    1    1.000000
   1.02741000E-01    1.00000000E+00 
S    1    1.000000
   3.60000000E-02    1.00000000E+00 
P    1    1.000000
   7.50000000E-01    1.00000000E+00 

3    0
S    3    1.000000
   3.38650000E+01    2.54938000E-02 
   5.09479000E+00    1.90373000E-01 
   1.15879000E+00    8.52161000E-01 
S    1    1.000000
   3.25840000E-01    1.00000000E+00 
S    1    1.000000
   1.02741000E-01    1.00000000E+00 
S    1    1.000000
   3.60000000E-02    1.00000000E+00 
P    1    1.000000
   7.50000000E-01    1.00000000E+00 

4    0
S    3    1.000000
   3.38650000E+01    2.54938000E-02 
   5.09479000E+00    1.90373000E-01 
   1.15879000E+00    8.52161000E-01 
S    1    1.000000
   3.25840000E-01    1.00000000E+00 
S    1    1.000000
   1.02741000E-01    1.00000000E+00 
S    1    1.000000
   3.60000000E-02    1.00000000E+00 
P    1    1.000000
   7.50000000E-01    1.00000000E+00 

5    0
S    6    1.000000
   4.56324000E+03    1.96665000E-03 
   6.82024000E+02    1.52306000E-02 
   1.54973000E+02    7.61269000E-02 
   4.44553000E+01    2.60801000E-01 
   1.30290000E+01    6.16462000E-01 
   1.82773000E+00    2.21006000E-01 
SP   3    1.000000
   2.09642000E+01    1.14660000E-01   4.02487000E-02 
   4.80331000E+00    9.19999000E-01   2.37594000E-01 
   1.45933000E+00   -3.03068000E-03   8.15854000E-01 
SP   1    1.000000
   4.83456000E-01    1.00000000E+00   1.00000000E+00 
SP   1    1.000000
   1.45585000E-01    1.00000000E+00   1.00000000E+00 
SP   1    1.000000
   4.38000000E-02    1.00000000E+00   1.00000000E+00 
D    1    1.000000
   6.26000000E-01    1.00000000E+00 

6    0
S    6    1.000000
   8.58850000E+03    1.89515000E-03 
   1.29723000E+03    1.43859000E-02 
   2.99296000E+02    7.07320000E-02 
   8.73771000E+01    2.40001000E-01 
   2.56789000E+01    5.94797000E-01 
   3.74004000E+00    2.80802000E-01 
SP   3    1.000000
   4.21175000E+01    1.13889000E-01   3.65114000E-02 
   9.62837000E+00    9.20811000E-01   2.37153000E-01 
   2.85332000E+00   -3.27447000E-03   8.19702000E-01 
SP   1    1.000000
   9.05661000E-01    1.00000000E+00   1.00000000E+00 
SP   1    1.000000
   2.55611000E-01    1.00000000E+00   1.00000000E+00 
SP   1    1.000000
   8.45000000E-02    1.00000000E+00   1.00000000E+00 
D    1    1.000000
   1.29200000E+00    1.00000000E+00 

7    0
S    6    1.000000
   4.56324000E+03    1.96665000E-03 
   6.82024000E+02    1.52306000E-02 
   1.54973000E+02    7.61269000E-02 
   4.44553000E+01    2.60801000E-01 
   1.30290000E+01    6.16462000E-01 
   1.82773000E+00    2.21006000E-01 
SP   3    1.000000
   2.09642000E+01    1.14660000E-01   4.02487000E-02 
   4.80331000E+00    9.19999000E-01   2.37594000E-01 
   1.45933000E+00   -3.03068000E-03   8.15854000E-01 
SP   1    1.000000
   4.83456000E-01    1.00000000E+00   1.00000000E+00 
SP   1    1.000000
   1.45585000E-01    1.00000000E+00   1.00000000E+00 
SP   1    1.000000
   4.38000000E-02    1.00000000E+00   1.00000000E+00 
D    1    1.000000
   6.26000000E-01    1.00000000E+00 

8    0
S    6    1.000000
   8.58850000E+03    1.89515000E-03 
   1.29723000E+03    1.43859000E-02 
   2.99296000E+02    7.07320000E-02 
   8.73771000E+01    2.40001000E-01 
   2.56789000E+01    5.94797000E-01 
   3.74004000E+00    2.80802000E-01 
SP   3    1.000000
   4.21175000E+01    1.13889000E-01   3.65114000E-02 
   9.62837000E+00    9.20811000E-01   2.37153000E-01 
   2.85332000E+00   -3.27447000E-03   8.19702000E-01 
SP   1    1.000000
   9.05661000E-01    1.00000000E+00   1.00000000E+00 
SP   1    1.000000
   2.55611000E-01    1.00000000E+00   1.00000000E+00 
SP   1    1.000000
   8.45000000E-02    1.00000000E+00   1.00000000E+00 
D    1    1.000000
   1.29200000E+00    1.00000000E+00 

9    0
S    6    1.000000
   6.29348000E+03    1.96979000E-03 
   9.49044000E+02    1.49613000E-02 
   2.18776000E+02    7.35006000E-02 
   6.36916000E+01    2.48937000E-01 
   1.88282000E+01    6.02460000E-01 
   2.72023000E+00    2.56202000E-01 
SP   3    1.000000
   3.06331000E+01    1.11906000E-01   3.83119000E-02 
   7.02614000E+00    9.21666000E-01   2.37403000E-01 
   2.11205000E+00   -2.56919000E-03   8.17592000E-01 
SP   1    1.000000
   6.84009000E-01    1.00000000E+00   1.00000000E+00 
SP   1    1.000000
   2.00878000E-01    1.00000000E+00   1.00000000E+00 
SP   1    1.000000
   6.39000000E-02    1.00000000E+00   1.00000000E+00 
D    1    1.000000
   9.13000000E-01    1.00000000E+00 

10    0
S    6    1.000000
   6.29348000E+03    1.96979000E-03 
   9.49044000E+02    1.49613000E-02 
   2.18776000E+02    7.35006000E-02 
   6.36916000E+01    2.48937000E-01 
   1.88282000E+01    6.02460000E-01 
   2.72023000E+00    2.56202000E-01 
SP   3    1.000000
   3.06331000E+01    1.11906000E-01   3.83119000E-02 
   7.02614000E+00    9.21666000E-01   2.37403000E-01 
   2.11205000E+00   -2.56919000E-03   8.17592000E-01 
SP   1    1.000000
   6.84009000E-01    1.00000000E+00   1.00000000E+00 
SP   1    1.000000
   2.00878000E-01    1.00000000E+00   1.00000000E+00 
SP   1    1.000000
   6.39000000E-02    1.00000000E+00   1.00000000E+00 
D    1    1.000000
   9.13000000E-01    1.00000000E+00 

11    0
S    6    1.000000
   4.56324000E+03    1.96665000E-03 
   6.82024000E+02    1.52306000E-02 
   1.54973000E+02    7.61269000E-02 
   4.44553000E+01    2.60801000E-01 
   1.30290000E+01    6.16462000E-01 
   1.82773000E+00    2.21006000E-01 
SP   3    1.000000
   2.09642000E+01    1.14660000E-01   4.02487000E-02 
   4.80331000E+00    9.19999000E-01   2.37594000E-01 
   1.45933000E+00   -3.03068000E-03   8.15854000E-01 
SP   1    1.000000
   4.83456000E-01    1.00000000E+00   1.00000000E+00 
SP   1    1.000000
   1.45585000E-01    1.00000000E+00   1.00000000E+00 
SP   1    1.000000
   4.38000000E-02    1.00000000E+00   1.00000000E+00 
D    1    1.000000
   6.26000000E-01    1.00000000E+00 

12    0
S    3    1.000000
   3.38650000E+01    2.54938000E-02 
   5.09479000E+00    1.90373000E-01 
   1.15879000E+00    8.52161000E-01 
S    1    1.000000
   3.25840000E-01    1.00000000E+00 
S    1    1.000000
   1.02741000E-01    1.00000000E+00 
S    1    1.000000
   3.60000000E-02    1.00000000E+00 
P    1    1.000000
   7.50000000E-01    1.00000000E+00 

[MO]
Sym=X
Ene= -0.007484
Spin=Alpha
Occup=1
     1    1.757972577843e-05
     2    2.747923217429e-05
     3   -1.583550482802e-05
     4    6.773347412188e-05
     5   -6.404618108162e-16
     6   -7.998085551388e-05
     7   -1.431139146496e-06
     8    1.258181281793e-04
     9    1.090579764730e-15
    10   -7.450621396426e-04
    11   -2.178608935044e-04
    12   -6.348297910853e-06
    13   -6.795672586242e-15
    14    2.670741223603e-05
    15   -7.429465203666e-05
    16    9.618509226069e-04
    17    1.208961972548e-14
    18    1.009804942572e-05
    19   -6.659133799884e-16
    20   -9.993217071189e-16
    21   -2.753322948756e-05
    22    2.086820927706e-05
    23    3.351986730340e-05
    24    1.678890983886e-04
    25    9.799685615497e-04
    26    2.401975561226e-03
    27   -3.408904975007e-05
    28   -2.108569601875e-05
    29   -1.231035575653e-15
    30   -3.213554494147e-06
    31    6.344223192891e-06
    32    2.817357832102e-04
    33    1.612923624298e-03
    34   -9.479361256176e-06
    35   -1.507817394744e-05
    36    1.602919686283e-15
    37    2.648910827082e-05
    38    1.227733679074e-04
    39    5.205839450080e-04
    40    6.564463870526e-04
    41   -2.386990613722e-06
    42    1.001302067605e-05
    43    7.840383219896e-16
    44   -7.208693580283e-06
    45   -1.133696363436e-05
    46    1.825490773594e-05
    47   -1.108523871529e-05
    48    1.171628813763e-15
    49   -1.310704911203e-05
    50    1.760584132088e-05
    51   -1.212369119433e-05
    52   -1.193008097895e-15
    53    1.757462170084e-04
    54   -9.342359903828e-05
    55   -2.270776120877e-05
    56   -6.106109379294e-16
    57    3.722229033594e-04
    58    3.422565300948e-04
    59    3.937116460907e-04
    60    5.893722555061e-15
    61    3.286618050218e-05
    62    4.653596470832e-16
    63   -6.172229258839e-16
    64    6.150205397705e-06
    65   -2.972378031865e-05
    66    2.372940103540e-05
    67    3.645761079761e-05
    68    2.277398563664e-05
    69    7.025454011539e-06
    70    2.085275934940e-16
    71   -1.049721034751e-04
    72    2.944846398332e-05
    73    9.910463229341e-06
    74   -1.548238278307e-15
    75   -2.136404572002e-04
    76    1.058874535691e-05
    77    4.783537047660e-05
    78    2.919894790957e-15
    79   -3.427693969409e-04
    80   -4.591821181585e-05
    81   -1.383688580228e-04
    82   -3.591108781365e-15
    83    5.677211229612e-06
    84   -5.197037211870e-16
    85   -2.791229077764e-16
    86   -1.060595454850e-07
    87    5.183458209758e-06
    88    7.363296475056e-06
    89   -3.650384197664e-05
    90   -6.288345662742e-07
    91    4.230428376579e-05
    92   -2.096032506887e-16
    93    9.525814260609e-05
    94    3.105338378503e-04
    95    2.799462856418e-04
    96    4.263128849864e-16
    97   -4.104156747538e-04
    98    3.227300939883e-05
    99    2.372455483433e-04
   100   -3.856813728943e-15
   101   -1.058560571733e-03
   102   -5.467366891118e-04
   103    4.928378304943e-04
   104    1.279661018852e-14
   105   -3.112427696795e-05
   106   -3.258738991927e-16
   107   -1.077330845728e-15
   108    9.636665681315e-05
   109    2.043277876434e-04
   110    5.515738706219e-01
   111    4.717279049610e-01
   112   -1.376853068383e-03
   113   -1.023439540286e-03
   114   -7.489705003207e-16
   115    5.113887633118e-03
   116    6.340623027560e-04
   117    4.094638859136e-04
   118   -2.673912506853e-16
   119   -8.644624126476e-04
   120   -2.039700537254e-04
   121   -2.414189064317e-04
   122    2.601073489547e-15
   123    1.184315744136e-03
   124   -1.003287980566e-04
   125   -8.327338810975e-05
   126   -2.951382592152e-15
   127   -4.887627253793e-05
   128   -3.364148026856e-16
   129   -4.153658618051e-17
   130   -4.663684983261e-05
   131   -1.736977809540e-04
   132    3.853943024520e-05
   133    6.539473916302e-05
   134    1.740465914790e-05
   135   -1.882007141962e-05
   136    8.956327095286e-16
   137   -2.254197074818e-04
   138    9.143234304110e-05
   139   -5.388156908681e-05
   140   -1.511223402405e-15
   141   -4.079803039012e-04
   142    2.475880439135e-05
   143   -1.898466241353e-04
   144    2.963896967500e-15
   145   -1.307413852152e-03
   146   -4.001249824749e-04
   147   -4.652054020861e-04
   148   -5.302502132880e-15
   149    2.807981019196e-06
   150    8.781779880090e-16
   151   -1.775102320800e-17
   152    1.205571283216e-05
   153   -1.964061710734e-05
   154    5.179224221361e-05
   155    8.896685074620e-05
   156    8.963473214354e-05
   157    3.836324113152e-05
   158    1.081118572279e-16
   159   -2.835786306253e-04
   160    1.454130446317e-04
   161    5.952718270941e-05
   162   -3.036414891012e-16
   163   -6.869676550972e-04
   164    2.914231602315e-04
   165    6.585828059622e-05
   166    3.328276172896e-15
   167   -1.811773025616e-03
   168    5.825448738724e-04
   169   -5.232348727811e-05
   170   -5.415886866548e-15
   171    5.694606743064e-06
   172   -4.439097820400e-16
   173    1.859808832387e-16
   174    9.293867579473e-06
   175    1.411753599210e-05
   176    1.054458262194e-05
   177    1.347986759053e-05
   178   -3.560228446908e-06
   179   -3.440660112492e-05
   180    1.116608336246e-15
   181   -5.088182355125e-05
   182    1.762319998840e-05
   183    8.071071705446e-05
   184   -2.751646502475e-15
   185    3.963512259202e-04
   186   -3.462936697262e-04
   187   -2.042999773498e-05
   188    8.847231143228e-15
   189    1.849472342768e-04
   190    8.138276996123e-04
   191    3.151328453831e-04
   192   -1.883865655145e-14
   193    1.050543133653e-06
   194   -3.927899303003e-16
   195    3.266908777629e-16
   196   -3.463914778124e-05
   197    1.960459186367e-05
   198    2.123107329463e-05
   199    1.431294915304e-04
   200    7.014734760373e-05
   201   -3.636587779276e-04
   202   -1.988172035923e-05
   203    1.434112024917e-05
   204   -3.129820901094e-16
Sym=X
Ene= 0.007484
Spin=Alpha
Occup=0
     1   -3.208752475656e-16
     2    1.541872638362e-15
     3   -2.393256218987e-15
     4    1.015286224419e-15
     5    2.611854111454e-02
     6   -1.667529496472e-14
     7   -1.897483449497e-15
     8   -8.043950658064e-15
     9    4.504335640490e-02
    10    2.158324933413e-13
    11   -3.542389221300e-14
    12    2.266465925178e-13
    13    4.262624635262e-02
    14    6.833013191529e-12
    15    1.472032646620e-12
    16    1.867231424689e-12
    17    2.908756023442e-02
    18   -2.001745763488e-15
    19    2.315920492334e-02
    20   -4.838619655783e-03
    21    2.268478111045e-15
    22    4.170124332624e-15
    23   -7.771615194882e-15
    24    1.448478699280e-14
    25   -5.423359307886e-13
    26   -5.645823872649e-14
    27    1.688519426702e-15
    28   -2.851137004026e-15
    29   -5.988456557209e-03
    30    3.052486271607e-16
    31    2.078355054617e-14
    32    1.669513705002e-13
    33    7.280949077949e-13
    34    4.316524456438e-15
    35    1.678224000056e-16
    36    2.690163891166e-03
    37    6.334181462344e-15
    38   -5.158727669193e-14
    39    2.243241636637e-13
    40   -7.877260722278e-14
    41   -2.165932226835e-15
    42    2.858689473507e-15
    43   -1.150632749299e-02
    44   -7.151611772246e-16
    45   -3.205189830335e-15
    46   -3.402775549391e-15
    47   -7.022690564360e-15
    48    2.717385469474e-02
    49    1.397988941207e-14
    50    4.419421996744e-16
    51   -6.670244300880e-16
    52    4.569280308157e-02
    53    2.061103228308e-13
    54    2.146665637925e-14
    55   -1.290829766204e-13
    56    6.696389601773e-02
    57   -1.108502463001e-12
    58   -2.157393388381e-13
    59    5.747617050360e-13
    60    1.789290915275e-02
    61   -5.808526778513e-15
    62   -5.456865986262e-02
    63    3.313013281290e-02
    64    3.865686661032e-16
    65    4.455855119616e-16
    66    3.053286435770e-16
    67    3.288927223802e-16
    68    1.765252333713e-17
    69   -5.839105808220e-16
    70    1.841366931600e-01
    71   -5.353436270933e-16
    72   -1.032064413600e-16
    73   -7.671123369317e-15
    74    2.795654717894e-01
    75    6.371114465924e-16
    76   -2.259309933581e-14
    77    1.822367212920e-14
    78    2.660577536568e-01
    79    1.209453248080e-14
    80    1.036484823055e-13
    81    2.978383482660e-14
    82    6.437843822420e-02
    83    1.116023463786e-15
    84    1.211822392312e-02
    85   -6.488606000889e-03
    86    1.826607494301e-16
    87   -7.977194192211e-17
    88    1.235029077806e-15
    89    3.807163102650e-16
    90   -6.067798299364e-16
    91    3.505115177607e-16
    92    1.575245779817e-02
    93   -1.851345535368e-15
    94   -8.773570276897e-15
    95   -1.698276006370e-15
    96    2.908827570200e-02
    97    4.407412417605e-14
    98   -4.923964631149e-14
    99   -1.616496648834e-13
   100    2.104494873228e-02
   101   -1.656348044518e-12
   102   -1.580802686202e-13
   103    7.787147560138e-13
   104   -1.692457484923e-02
   105    6.570092280221e-16
   106    2.852640397639e-02
   107   -1.846454373633e-02
   108   -1.132466681494e-15
   109    1.886318642925e-15
   110   -7.371230054380e-17
   111    4.778338845153e-16
   112   -1.918358576401e-16
   113    2.877888232979e-15
   114    7.492065431353e-02
   115   -5.641216495714e-15
   116   -4.790040629492e-15
   117    3.729252870272e-15
   118    9.592694382784e-02
   119    4.440314014474e-14
   120   -9.686592338747e-15
   121   -2.380544368476e-16
   122    7.443734034027e-02
   123   -2.874369481070e-14
   124   -5.237976696263e-14
   125   -1.375229742936e-14
   126    2.673874132792e-02
   127   -1.381580298441e-15
   128   -3.090200129429e-03
   129   -2.046144743717e-03
   130    1.719577876120e-16
   131   -1.298389235842e-15
   132    4.292777006044e-16
   133   -2.144437515461e-15
   134   -4.106947601191e-15
   135    1.006394829049e-15
   136   -1.458404580179e-01
   137    1.649325649209e-14
   138   -8.736714585258e-15
   139    2.452268970499e-15
   140   -2.283527263896e-01
   141   -8.710588956208e-14
   142    1.240722991638e-14
   143    5.876665416823e-14
   144   -2.692115735242e-01
   145    6.489661638057e-13
   146    9.606449690444e-14
   147   -7.176693595219e-13
   148   -5.099221932960e-02
   149    2.773968291410e-16
   150   -4.165667730590e-03
   151    3.431284659280e-03
   152   -3.841661806040e-15
   153   -1.086891393527e-17
   154    4.881987423764e-16
   155   -1.285352403372e-15
   156   -2.028036621570e-15
   157   -3.981764020977e-15
   158   -1.088198940505e-01
   159    8.251997123508e-15
   160    2.942380131201e-15
   161    2.676977853003e-15
   162   -1.702946057353e-01
   163   -8.409747043565e-14
   164   -8.360959422011e-14
   165   -7.907223482129e-14
   166   -2.055690650656e-01
   167   -5.221858563562e-13
   168   -9.976751988325e-13
   169   -3.592439194231e-13
   170   -7.187412066986e-02
   171    2.400978718504e-15
   172   -3.243741089316e-03
   173   -7.543564618303e-04
   174    1.619045610968e-15
   175   -1.234801359289e-15
   176    5.739592904111e-16
   177    1.165264690294e-15
   178   -3.653766715883e-15
   179    3.696308269871e-15
   180    8.285068569102e-02
   181    1.346518732799e-15
   182    3.755125883086e-15
   183    2.775365668027e-16
   184    1.390260726851e-01
   185   -2.186262786369e-13
   186    1.004908920971e-13
   187   -1.418397165666e-13
   188    1.485901550864e-01
   189   -4.065698439613e-12
   190    1.949776403404e-12
   191    8.242300572559e-13
   192    2.211750194491e-02
   193    4.456012209499e-15
   194   -1.712968708521e-03
   195    2.319264309358e-03
   196    1.058457872338e-15
   197   -1.144993723327e-15
   198    3.929604193847e-15
   199   -3.265493195353e-14
   200   -9.411005497981e-14
   201   -5.830068594655e-13
   202    5.809563618578e-15
   203   -1.652564491489e-15
   204    7.095341802858e-03
[5D]
