[Molden Format]
[Atoms] (Angs)
  C      1    6     -0.00754183     -1.75895763      0.00000000
  H      2    1     -2.09769850     -1.41880678     -0.00000000
  H      3    1     -0.13527422     -2.83956838     -0.00000000
  H      4    1      0.04053511      2.02026369      0.00000000
  C      5    6     -1.22066484      0.39918184     -0.00000000
  O      6    8     -2.25210141      1.05663720     -0.00000000
  C      7    6      1.24009552      0.27789184      0.00000000
  O      8    8      2.33767996      1.06122493      0.00000000
  N      9    7      0.03634586      1.00852936      0.00000000
  N     10    7     -1.18738304     -0.97903470     -0.00000000
  C     11    6      1.22288875     -1.12258096      0.00000000
  H     12    1      2.15640383     -1.68445878      0.00000000
[GTO]
1    0
S    6    1.000000
   4.56324000E+03    1.96665000E-03 
   6.82024000E+02    1.52306000E-02 
   1.54973000E+02    7.61269000E-02 
   4.44553000E+01    2.60801000E-01 
   1.30290000E+01    6.16462000E-01 
   1.82773000E+00    2.21006000E-01 
SP   3    1.000000
   2.09642000E+01    1.14660000E-01   4.02487000E-02 
   4.80331000E+00    9.19999000E-01   2.37594000E-01 
   1.45933000E+00   -3.03068000E-03   8.15854000E-01 
SP   1    1.000000
   4.83456000E-01    1.00000000E+00   1.00000000E+00 
SP   1    1.000000
   1.45585000E-01    1.00000000E+00   1.00000000E+00 
SP   1    1.000000
   4.38000000E-02    1.00000000E+00   1.00000000E+00 
D    1    1.000000
   6.26000000E-01    1.00000000E+00 

2    0
S    3    1.000000
   3.38650000E+01    2.54938000E-02 
   5.09479000E+00    1.90373000E-01 
   1.15879000E+00    8.52161000E-01 
S    1    1.000000
   3.25840000E-01    1.00000000E+00 
S    1    1.000000
   1.02741000E-01    1.00000000E+00 
S    1    1.000000
   3.60000000E-02    1.00000000E+00 
P    1    1.000000
   7.50000000E-01    1.00000000E+00 

3    0
S    3    1.000000
   3.38650000E+01    2.54938000E-02 
   5.09479000E+00    1.90373000E-01 
   1.15879000E+00    8.52161000E-01 
S    1    1.000000
   3.25840000E-01    1.00000000E+00 
S    1    1.000000
   1.02741000E-01    1.00000000E+00 
S    1    1.000000
   3.60000000E-02    1.00000000E+00 
P    1    1.000000
   7.50000000E-01    1.00000000E+00 

4    0
S    3    1.000000
   3.38650000E+01    2.54938000E-02 
   5.09479000E+00    1.90373000E-01 
   1.15879000E+00    8.52161000E-01 
S    1    1.000000
   3.25840000E-01    1.00000000E+00 
S    1    1.000000
   1.02741000E-01    1.00000000E+00 
S    1    1.000000
   3.60000000E-02    1.00000000E+00 
P    1    1.000000
   7.50000000E-01    1.00000000E+00 

5    0
S    6    1.000000
   4.56324000E+03    1.96665000E-03 
   6.82024000E+02    1.52306000E-02 
   1.54973000E+02    7.61269000E-02 
   4.44553000E+01    2.60801000E-01 
   1.30290000E+01    6.16462000E-01 
   1.82773000E+00    2.21006000E-01 
SP   3    1.000000
   2.09642000E+01    1.14660000E-01   4.02487000E-02 
   4.80331000E+00    9.19999000E-01   2.37594000E-01 
   1.45933000E+00   -3.03068000E-03   8.15854000E-01 
SP   1    1.000000
   4.83456000E-01    1.00000000E+00   1.00000000E+00 
SP   1    1.000000
   1.45585000E-01    1.00000000E+00   1.00000000E+00 
SP   1    1.000000
   4.38000000E-02    1.00000000E+00   1.00000000E+00 
D    1    1.000000
   6.26000000E-01    1.00000000E+00 

6    0
S    6    1.000000
   8.58850000E+03    1.89515000E-03 
   1.29723000E+03    1.43859000E-02 
   2.99296000E+02    7.07320000E-02 
   8.73771000E+01    2.40001000E-01 
   2.56789000E+01    5.94797000E-01 
   3.74004000E+00    2.80802000E-01 
SP   3    1.000000
   4.21175000E+01    1.13889000E-01   3.65114000E-02 
   9.62837000E+00    9.20811000E-01   2.37153000E-01 
   2.85332000E+00   -3.27447000E-03   8.19702000E-01 
SP   1    1.000000
   9.05661000E-01    1.00000000E+00   1.00000000E+00 
SP   1    1.000000
   2.55611000E-01    1.00000000E+00   1.00000000E+00 
SP   1    1.000000
   8.45000000E-02    1.00000000E+00   1.00000000E+00 
D    1    1.000000
   1.29200000E+00    1.00000000E+00 

7    0
S    6    1.000000
   4.56324000E+03    1.96665000E-03 
   6.82024000E+02    1.52306000E-02 
   1.54973000E+02    7.61269000E-02 
   4.44553000E+01    2.60801000E-01 
   1.30290000E+01    6.16462000E-01 
   1.82773000E+00    2.21006000E-01 
SP   3    1.000000
   2.09642000E+01    1.14660000E-01   4.02487000E-02 
   4.80331000E+00    9.19999000E-01   2.37594000E-01 
   1.45933000E+00   -3.03068000E-03   8.15854000E-01 
SP   1    1.000000
   4.83456000E-01    1.00000000E+00   1.00000000E+00 
SP   1    1.000000
   1.45585000E-01    1.00000000E+00   1.00000000E+00 
SP   1    1.000000
   4.38000000E-02    1.00000000E+00   1.00000000E+00 
D    1    1.000000
   6.26000000E-01    1.00000000E+00 

8    0
S    6    1.000000
   8.58850000E+03    1.89515000E-03 
   1.29723000E+03    1.43859000E-02 
   2.99296000E+02    7.07320000E-02 
   8.73771000E+01    2.40001000E-01 
   2.56789000E+01    5.94797000E-01 
   3.74004000E+00    2.80802000E-01 
SP   3    1.000000
   4.21175000E+01    1.13889000E-01   3.65114000E-02 
   9.62837000E+00    9.20811000E-01   2.37153000E-01 
   2.85332000E+00   -3.27447000E-03   8.19702000E-01 
SP   1    1.000000
   9.05661000E-01    1.00000000E+00   1.00000000E+00 
SP   1    1.000000
   2.55611000E-01    1.00000000E+00   1.00000000E+00 
SP   1    1.000000
   8.45000000E-02    1.00000000E+00   1.00000000E+00 
D    1    1.000000
   1.29200000E+00    1.00000000E+00 

9    0
S    6    1.000000
   6.29348000E+03    1.96979000E-03 
   9.49044000E+02    1.49613000E-02 
   2.18776000E+02    7.35006000E-02 
   6.36916000E+01    2.48937000E-01 
   1.88282000E+01    6.02460000E-01 
   2.72023000E+00    2.56202000E-01 
SP   3    1.000000
   3.06331000E+01    1.11906000E-01   3.83119000E-02 
   7.02614000E+00    9.21666000E-01   2.37403000E-01 
   2.11205000E+00   -2.56919000E-03   8.17592000E-01 
SP   1    1.000000
   6.84009000E-01    1.00000000E+00   1.00000000E+00 
SP   1    1.000000
   2.00878000E-01    1.00000000E+00   1.00000000E+00 
SP   1    1.000000
   6.39000000E-02    1.00000000E+00   1.00000000E+00 
D    1    1.000000
   9.13000000E-01    1.00000000E+00 

10    0
S    6    1.000000
   6.29348000E+03    1.96979000E-03 
   9.49044000E+02    1.49613000E-02 
   2.18776000E+02    7.35006000E-02 
   6.36916000E+01    2.48937000E-01 
   1.88282000E+01    6.02460000E-01 
   2.72023000E+00    2.56202000E-01 
SP   3    1.000000
   3.06331000E+01    1.11906000E-01   3.83119000E-02 
   7.02614000E+00    9.21666000E-01   2.37403000E-01 
   2.11205000E+00   -2.56919000E-03   8.17592000E-01 
SP   1    1.000000
   6.84009000E-01    1.00000000E+00   1.00000000E+00 
SP   1    1.000000
   2.00878000E-01    1.00000000E+00   1.00000000E+00 
SP   1    1.000000
   6.39000000E-02    1.00000000E+00   1.00000000E+00 
D    1    1.000000
   9.13000000E-01    1.00000000E+00 

11    0
S    6    1.000000
   4.56324000E+03    1.96665000E-03 
   6.82024000E+02    1.52306000E-02 
   1.54973000E+02    7.61269000E-02 
   4.44553000E+01    2.60801000E-01 
   1.30290000E+01    6.16462000E-01 
   1.82773000E+00    2.21006000E-01 
SP   3    1.000000
   2.09642000E+01    1.14660000E-01   4.02487000E-02 
   4.80331000E+00    9.19999000E-01   2.37594000E-01 
   1.45933000E+00   -3.03068000E-03   8.15854000E-01 
SP   1    1.000000
   4.83456000E-01    1.00000000E+00   1.00000000E+00 
SP   1    1.000000
   1.45585000E-01    1.00000000E+00   1.00000000E+00 
SP   1    1.000000
   4.38000000E-02    1.00000000E+00   1.00000000E+00 
D    1    1.000000
   6.26000000E-01    1.00000000E+00 

12    0
S    3    1.000000
   3.38650000E+01    2.54938000E-02 
   5.09479000E+00    1.90373000E-01 
   1.15879000E+00    8.52161000E-01 
S    1    1.000000
   3.25840000E-01    1.00000000E+00 
S    1    1.000000
   1.02741000E-01    1.00000000E+00 
S    1    1.000000
   3.60000000E-02    1.00000000E+00 
P    1    1.000000
   7.50000000E-01    1.00000000E+00 

[MO]
Sym=X
Ene= -0.063091
Spin=Alpha
Occup=1
     1   -3.490947772950e-06
     2   -6.919122097480e-06
     3    5.043512821328e-06
     4   -8.652538206005e-06
     5    4.576288187126e-16
     6    3.003702475853e-05
     7   -2.161492726711e-05
     8    1.123823552641e-05
     9   -8.603210676010e-16
    10    1.716335191469e-04
    11   -8.851961574653e-05
    12   -8.159443757398e-05
    13    1.651148677853e-16
    14   -4.517168657797e-04
    15   -9.342476706388e-04
    16   -3.893572255100e-04
    17   -6.696589349561e-15
    18   -1.132645662547e-05
    19   -1.373532349496e-16
    20    5.581215212024e-16
    21   -3.276413268936e-06
    22   -3.565150497276e-06
    23   -5.632421341867e-06
    24   -3.250359992722e-05
    25    3.478691535922e-05
    26    2.438521198336e-05
    27   -6.015898569571e-06
    28    9.004875612792e-06
    29   -7.094951301361e-16
    30    1.311530266059e-05
    31   -2.066501496366e-05
    32    2.049958511519e-05
    33   -3.292906116565e-04
    34   -4.242047937766e-07
    35   -2.928272072339e-06
    36    1.177033201261e-15
    37   -9.082622080570e-06
    38   -7.803322628218e-05
    39   -3.675974649541e-04
    40   -1.120306876455e-03
    41   -1.144904846065e-05
    42   -7.175326746629e-06
    43   -4.756148792748e-16
    44   -4.461659606570e-06
    45    7.587008178232e-05
    46    5.281466888341e-05
    47   -3.974563970704e-05
    48   -1.817828159729e-15
    49   -2.716626676434e-04
    50    3.531532008134e-04
    51   -2.368627536809e-04
    52    2.861511813231e-15
    53   -1.039046618086e-04
    54    3.963313378841e-04
    55   -2.215681613256e-04
    56   -4.520579696055e-15
    57   -1.427914771878e-03
    58   -7.107896129008e-04
    59    7.225108809399e-04
    60   -2.077253969460e-15
    61    4.397891040748e-05
    62   -8.297063389514e-16
    63    7.532520590653e-17
    64   -9.714540675385e-05
    65    1.857358051738e-04
    66   -5.514918353619e-01
    67   -4.716899613893e-01
    68   -1.514150601009e-03
    69    1.025598570621e-03
    70   -8.499468882131e-16
    71   -5.466713797323e-03
    72    6.318036385071e-04
    73   -4.068991331259e-04
    74    7.063483930693e-16
    75    1.324391875750e-03
    76   -1.176095325306e-04
    77    1.136421436006e-04
    78   -7.971212987556e-16
    79   -1.250171347350e-03
    80   -3.566439052341e-05
    81    2.595464453341e-05
    82    1.270728655622e-15
    83    8.246795341922e-05
    84   -1.276075274605e-16
    85    1.097201743584e-15
    86    3.237816045704e-05
    87   -8.293422377467e-05
    88    1.411026765476e-06
    89    6.402791970238e-07
    90    7.333737720025e-06
    91   -1.370333877275e-05
    92    7.528691182073e-16
    93    2.404623419444e-05
    94   -1.250572519862e-05
    95    1.300309550552e-06
    96    1.560189812401e-16
    97    2.804957303294e-05
    98   -2.598309799841e-05
    99   -1.662004118746e-05
   100   -6.772209684281e-16
   101   -7.928055527757e-04
   102   -5.927020040923e-04
   103    4.445480024912e-04
   104   -1.538530447978e-15
   105   -2.296495277856e-05
   106    3.155330388650e-16
   107    3.049995202506e-16
   108   -1.825766472596e-07
   109   -6.219868677134e-06
   110   -6.933089800330e-06
   111   -1.697814595897e-05
   112   -4.455858236750e-06
   113    9.405489932958e-06
   114   -8.724507684004e-16
   115    7.459958845436e-05
   116   -4.316933349431e-06
   117    1.177630214649e-05
   118    2.189638258079e-15
   119    6.967736929850e-05
   120   -2.936880209019e-05
   121    1.056867552700e-05
   122   -1.543839722013e-15
   123    4.929419285541e-04
   124   -1.527031091660e-05
   125   -2.164347533883e-05
   126    1.657467105164e-16
   127   -3.358630287142e-06
   128    2.651567393596e-16
   129   -1.612649411844e-16
   130   -1.213374892539e-07
   131    7.835147370400e-07
   132   -2.181901092444e-05
   133   -3.859747950459e-05
   134   -2.113361581961e-06
   135    2.241978463789e-05
   136    3.911674653695e-16
   137    1.426566106735e-04
   138    4.284668194273e-05
   139    3.391561865608e-05
   140   -1.816740946060e-15
   141    1.136054402105e-04
   142    7.378988067250e-06
   143    2.479674298612e-04
   144    3.533659303165e-15
   145    6.824693620740e-04
   146   -3.123722136394e-04
   147    3.589139611888e-04
   148    8.745195186618e-16
   149   -7.477927509604e-07
   150    2.338225415253e-16
   151    1.132739580489e-15
   152   -1.712926507819e-05
   153   -9.007844534199e-06
   154   -7.315501515477e-06
   155   -1.343748687664e-05
   156    1.375897170299e-06
   157    2.501094066886e-05
   158   -9.031360466483e-16
   159    6.709713245784e-05
   160    2.877384855977e-05
   161   -6.077951255159e-06
   162    2.027707197618e-16
   163   -1.856382518046e-04
   164   -1.597208314526e-04
   165    3.702704980364e-06
   166    8.607616354618e-16
   167    1.030272417316e-03
   168    5.239426807702e-05
   169    6.732703386221e-04
   170    5.579640226652e-15
   171    4.281754241617e-06
   172   -2.032870340037e-16
   173   -3.171485933845e-16
   174    1.879909801871e-05
   175    1.137850512947e-05
   176   -1.822836771242e-05
   177   -3.081923194881e-05
   178    1.634921924701e-05
   179    5.146319967112e-06
   180    1.032698681551e-16
   181    8.394917593111e-05
   182    3.377468377904e-05
   183    6.089218392548e-06
   184    1.316122628507e-15
   185    4.341447592213e-04
   186   -3.747363544113e-05
   187    4.802994100405e-05
   188   -2.791217461024e-15
   189    3.644423858556e-03
   190    6.902479064869e-04
   191   -2.306266325539e-04
   192    6.412074133542e-15
   193   -1.415583557881e-05
   194    4.810869153194e-16
   195    4.802698932782e-17
   196   -2.711185951119e-06
   197    7.125050403319e-06
   198    3.505387382336e-06
   199    2.648016039345e-05
   200   -1.635260905107e-04
   201   -1.632024903154e-03
   202   -6.086376712728e-06
   203    4.734559519555e-06
   204    9.807985222738e-16
Sym=X
Ene= 0.063091
Spin=Alpha
Occup=0
     1    6.699490922544e-16
     2    6.097866713736e-16
     3    3.057509589271e-15
     4    3.052485338217e-15
     5   -4.975183266662e-02
     6   -1.244934350384e-14
     7   -1.267236981151e-14
     8   -8.625244658961e-15
     9   -7.948414359772e-02
    10    2.776818302280e-13
    11    3.891805101997e-14
    12    3.634948155264e-13
    13   -1.020554565171e-01
    14    8.837730350067e-12
    15    1.871285659086e-12
    16    2.481690666081e-12
    17   -2.609316362630e-02
    18   -3.737594924210e-15
    19   -1.238961526785e-02
    20   -2.808753436992e-03
    21    1.307518458368e-15
    22   -4.366530923805e-15
    23   -1.001900325642e-15
    24   -2.314087219959e-14
    25   -2.388136860991e-13
    26    1.297841736571e-13
    27   -7.041913114163e-15
    28   -4.563031512108e-15
    29    7.870847967983e-03
    30    1.188423913468e-15
    31    3.122431772666e-14
    32    3.062549082102e-13
    33    9.975502950470e-13
    34    3.793112388202e-15
    35    3.842355038021e-15
    36   -3.913324305617e-03
    37    1.369006543009e-14
    38   -8.703020462898e-14
    39    7.343746932491e-13
    40   -1.351167812496e-13
    41   -1.490424001569e-16
    42    3.047410144518e-15
    43   -1.194251310779e-02
    44    1.791597548659e-16
    45    5.717533090649e-16
    46    2.674075706061e-15
    47    1.243716795055e-17
    48   -4.960735028942e-03
    49   -9.837389295346e-15
    50    6.863813666106e-15
    51    4.698441625488e-15
    52   -6.128112870874e-03
    53    1.292191722732e-13
    54    3.323884401401e-13
    55   -1.844592764251e-13
    56   -1.842436432326e-02
    57   -1.552711901744e-12
    58   -1.118801849085e-13
    59    6.505094758442e-13
    60   -1.194181997191e-02
    61   -6.150815603771e-15
    62   -3.496321894213e-02
    63   -1.717632600762e-02
    64    2.813296441715e-16
    65   -2.407086927230e-15
    66   -4.264479918251e-17
    67    1.292966016801e-16
    68    2.758399904107e-16
    69    9.911588737580e-16
    70    8.194479530467e-02
    71   -3.096873773894e-15
    72   -7.190862512357e-15
    73   -5.351182032622e-15
    74    1.029688439424e-01
    75    5.984041492642e-14
    76    3.784293061885e-14
    77    9.422592005638e-15
    78    8.296542235253e-02
    79    5.789725251556e-13
    80    1.291072697922e-13
    81   -2.945389110762e-13
    82    3.047278410506e-02
    83    1.325417824238e-15
    84    1.861265631932e-03
    85   -3.623514065291e-03
    86    5.843456675972e-16
    87    1.494058892308e-15
    88   -9.295813780332e-16
    89   -5.347871714256e-16
    90    5.802861832447e-15
    91    5.152508533211e-16
    92    5.417453662273e-02
    93   -5.439064525358e-15
    94   -1.532603380768e-14
    95    1.222462160990e-14
    96    9.505634923688e-02
    97    3.553327931807e-13
    98   -5.617046169456e-14
    99   -6.494062310632e-14
   100    1.242482707566e-01
   101    4.222806097391e-12
   102   -1.437847723215e-12
   103   -1.508618042930e-13
   104    3.774048031353e-02
   105    2.646702971777e-15
   106    4.798258702990e-02
   107    2.195731621907e-02
   108    1.873704168284e-15
   109   -3.197891703286e-15
   110   -6.524252995743e-16
   111   -7.527799446012e-17
   112   -1.124274849863e-16
   113    1.714767386999e-15
   114    1.979898298397e-01
   115   -1.692715897574e-15
   116   -4.022713221827e-15
   117    2.080795033009e-15
   118    3.010378953627e-01
   119    2.531922342101e-14
   120    3.069966487265e-15
   121   -7.243381983575e-15
   122    2.889116491660e-01
   123    3.365817309222e-14
   124    4.143840505334e-14
   125    1.049092706070e-13
   126    6.751826219139e-02
   127   -4.500657978403e-16
   128   -1.236374861049e-02
   129   -8.599682211577e-03
   130    1.421703853448e-15
   131    1.123995086109e-15
   132    1.280105018737e-15
   133   -2.172360408236e-15
   134    5.716079393318e-15
   135   -9.819940737798e-16
   136   -1.511950560496e-01
   137    2.381015757602e-14
   138   -2.580071335581e-15
   139    4.323376581593e-15
   140   -2.376575295599e-01
   141   -2.029988358155e-13
   142    6.487336763655e-14
   143    1.036352329108e-13
   144   -2.787415341228e-01
   145   -1.519045857915e-12
   146   -4.018277353865e-13
   147   -7.438633999692e-13
   148   -6.955682154239e-02
   149    9.992861086620e-16
   150    8.964373186851e-03
   151    2.966324776504e-03
   152   -4.551364518150e-15
   153    5.271749991555e-16
   154    1.697072469065e-15
   155   -1.229484279859e-16
   156    1.642619200229e-15
   157   -6.062838274144e-16
   158    6.529008809655e-02
   159    1.544993973202e-14
   160    1.929333919581e-14
   161    7.262982083112e-16
   162    1.027132075424e-01
   163   -2.335116972850e-13
   164   -1.962330504566e-13
   165   -6.934612668803e-14
   166    1.319559664448e-01
   167   -6.030130830278e-13
   168   -4.462468317614e-13
   169   -5.858994565680e-13
   170    5.486205209027e-02
   171    3.851964086248e-15
   172   -5.230715051582e-03
   173    2.950686256408e-03
   174    5.767142513043e-15
   175    3.093920435362e-15
   176   -9.694101432584e-16
   177   -1.927740132140e-15
   178    5.233910571403e-15
   179   -2.013242184267e-15
   180   -5.242720965829e-02
   181   -6.043307672767e-15
   182    1.989407925635e-14
   183    1.215663889104e-14
   184   -8.412228437544e-02
   185   -8.560774351033e-14
   186    2.820466172247e-13
   187   -2.043604926933e-13
   188   -1.119775759438e-01
   189   -1.074192424322e-11
   190    3.563223712291e-12
   191   -3.102587607472e-13
   192   -1.635388975193e-02
   193   -3.453740687615e-15
   194    9.842471375611e-03
   195    6.165336904498e-03
   196   -1.308184155459e-18
   197   -2.102134147589e-15
   198    6.484381113593e-15
   199   -7.463836903212e-14
   200   -3.106258899891e-13
   201   -9.281207028180e-13
   202    1.198241589682e-14
   203   -3.867291878155e-15
   204   -2.972865540675e-03
[5D]
