[Molden Format]
[Atoms] (Angs)
  C      1    6     -0.00754183     -1.75895763      0.00000000
  H      2    1     -2.09769850     -1.41880678     -0.00000000
  H      3    1     -0.13527422     -2.83956838     -0.00000000
  H      4    1      0.04053511      2.02026369      0.00000000
  C      5    6     -1.22066484      0.39918184     -0.00000000
  O      6    8     -2.25210141      1.05663720     -0.00000000
  C      7    6      1.24009552      0.27789184      0.00000000
  O      8    8      2.33767996      1.06122493      0.00000000
  N      9    7      0.03634586      1.00852936      0.00000000
  N     10    7     -1.18738304     -0.97903470     -0.00000000
  C     11    6      1.22288875     -1.12258096      0.00000000
  H     12    1      2.15640383     -1.68445878      0.00000000
[GTO]
1    0
S    6    1.000000
   4.56324000E+03    1.96665000E-03 
   6.82024000E+02    1.52306000E-02 
   1.54973000E+02    7.61269000E-02 
   4.44553000E+01    2.60801000E-01 
   1.30290000E+01    6.16462000E-01 
   1.82773000E+00    2.21006000E-01 
SP   3    1.000000
   2.09642000E+01    1.14660000E-01   4.02487000E-02 
   4.80331000E+00    9.19999000E-01   2.37594000E-01 
   1.45933000E+00   -3.03068000E-03   8.15854000E-01 
SP   1    1.000000
   4.83456000E-01    1.00000000E+00   1.00000000E+00 
SP   1    1.000000
   1.45585000E-01    1.00000000E+00   1.00000000E+00 
SP   1    1.000000
   4.38000000E-02    1.00000000E+00   1.00000000E+00 
D    1    1.000000
   6.26000000E-01    1.00000000E+00 

2    0
S    3    1.000000
   3.38650000E+01    2.54938000E-02 
   5.09479000E+00    1.90373000E-01 
   1.15879000E+00    8.52161000E-01 
S    1    1.000000
   3.25840000E-01    1.00000000E+00 
S    1    1.000000
   1.02741000E-01    1.00000000E+00 
S    1    1.000000
   3.60000000E-02    1.00000000E+00 
P    1    1.000000
   7.50000000E-01    1.00000000E+00 

3    0
S    3    1.000000
   3.38650000E+01    2.54938000E-02 
   5.09479000E+00    1.90373000E-01 
   1.15879000E+00    8.52161000E-01 
S    1    1.000000
   3.25840000E-01    1.00000000E+00 
S    1    1.000000
   1.02741000E-01    1.00000000E+00 
S    1    1.000000
   3.60000000E-02    1.00000000E+00 
P    1    1.000000
   7.50000000E-01    1.00000000E+00 

4    0
S    3    1.000000
   3.38650000E+01    2.54938000E-02 
   5.09479000E+00    1.90373000E-01 
   1.15879000E+00    8.52161000E-01 
S    1    1.000000
   3.25840000E-01    1.00000000E+00 
S    1    1.000000
   1.02741000E-01    1.00000000E+00 
S    1    1.000000
   3.60000000E-02    1.00000000E+00 
P    1    1.000000
   7.50000000E-01    1.00000000E+00 

5    0
S    6    1.000000
   4.56324000E+03    1.96665000E-03 
   6.82024000E+02    1.52306000E-02 
   1.54973000E+02    7.61269000E-02 
   4.44553000E+01    2.60801000E-01 
   1.30290000E+01    6.16462000E-01 
   1.82773000E+00    2.21006000E-01 
SP   3    1.000000
   2.09642000E+01    1.14660000E-01   4.02487000E-02 
   4.80331000E+00    9.19999000E-01   2.37594000E-01 
   1.45933000E+00   -3.03068000E-03   8.15854000E-01 
SP   1    1.000000
   4.83456000E-01    1.00000000E+00   1.00000000E+00 
SP   1    1.000000
   1.45585000E-01    1.00000000E+00   1.00000000E+00 
SP   1    1.000000
   4.38000000E-02    1.00000000E+00   1.00000000E+00 
D    1    1.000000
   6.26000000E-01    1.00000000E+00 

6    0
S    6    1.000000
   8.58850000E+03    1.89515000E-03 
   1.29723000E+03    1.43859000E-02 
   2.99296000E+02    7.07320000E-02 
   8.73771000E+01    2.40001000E-01 
   2.56789000E+01    5.94797000E-01 
   3.74004000E+00    2.80802000E-01 
SP   3    1.000000
   4.21175000E+01    1.13889000E-01   3.65114000E-02 
   9.62837000E+00    9.20811000E-01   2.37153000E-01 
   2.85332000E+00   -3.27447000E-03   8.19702000E-01 
SP   1    1.000000
   9.05661000E-01    1.00000000E+00   1.00000000E+00 
SP   1    1.000000
   2.55611000E-01    1.00000000E+00   1.00000000E+00 
SP   1    1.000000
   8.45000000E-02    1.00000000E+00   1.00000000E+00 
D    1    1.000000
   1.29200000E+00    1.00000000E+00 

7    0
S    6    1.000000
   4.56324000E+03    1.96665000E-03 
   6.82024000E+02    1.52306000E-02 
   1.54973000E+02    7.61269000E-02 
   4.44553000E+01    2.60801000E-01 
   1.30290000E+01    6.16462000E-01 
   1.82773000E+00    2.21006000E-01 
SP   3    1.000000
   2.09642000E+01    1.14660000E-01   4.02487000E-02 
   4.80331000E+00    9.19999000E-01   2.37594000E-01 
   1.45933000E+00   -3.03068000E-03   8.15854000E-01 
SP   1    1.000000
   4.83456000E-01    1.00000000E+00   1.00000000E+00 
SP   1    1.000000
   1.45585000E-01    1.00000000E+00   1.00000000E+00 
SP   1    1.000000
   4.38000000E-02    1.00000000E+00   1.00000000E+00 
D    1    1.000000
   6.26000000E-01    1.00000000E+00 

8    0
S    6    1.000000
   8.58850000E+03    1.89515000E-03 
   1.29723000E+03    1.43859000E-02 
   2.99296000E+02    7.07320000E-02 
   8.73771000E+01    2.40001000E-01 
   2.56789000E+01    5.94797000E-01 
   3.74004000E+00    2.80802000E-01 
SP   3    1.000000
   4.21175000E+01    1.13889000E-01   3.65114000E-02 
   9.62837000E+00    9.20811000E-01   2.37153000E-01 
   2.85332000E+00   -3.27447000E-03   8.19702000E-01 
SP   1    1.000000
   9.05661000E-01    1.00000000E+00   1.00000000E+00 
SP   1    1.000000
   2.55611000E-01    1.00000000E+00   1.00000000E+00 
SP   1    1.000000
   8.45000000E-02    1.00000000E+00   1.00000000E+00 
D    1    1.000000
   1.29200000E+00    1.00000000E+00 

9    0
S    6    1.000000
   6.29348000E+03    1.96979000E-03 
   9.49044000E+02    1.49613000E-02 
   2.18776000E+02    7.35006000E-02 
   6.36916000E+01    2.48937000E-01 
   1.88282000E+01    6.02460000E-01 
   2.72023000E+00    2.56202000E-01 
SP   3    1.000000
   3.06331000E+01    1.11906000E-01   3.83119000E-02 
   7.02614000E+00    9.21666000E-01   2.37403000E-01 
   2.11205000E+00   -2.56919000E-03   8.17592000E-01 
SP   1    1.000000
   6.84009000E-01    1.00000000E+00   1.00000000E+00 
SP   1    1.000000
   2.00878000E-01    1.00000000E+00   1.00000000E+00 
SP   1    1.000000
   6.39000000E-02    1.00000000E+00   1.00000000E+00 
D    1    1.000000
   9.13000000E-01    1.00000000E+00 

10    0
S    6    1.000000
   6.29348000E+03    1.96979000E-03 
   9.49044000E+02    1.49613000E-02 
   2.18776000E+02    7.35006000E-02 
   6.36916000E+01    2.48937000E-01 
   1.88282000E+01    6.02460000E-01 
   2.72023000E+00    2.56202000E-01 
SP   3    1.000000
   3.06331000E+01    1.11906000E-01   3.83119000E-02 
   7.02614000E+00    9.21666000E-01   2.37403000E-01 
   2.11205000E+00   -2.56919000E-03   8.17592000E-01 
SP   1    1.000000
   6.84009000E-01    1.00000000E+00   1.00000000E+00 
SP   1    1.000000
   2.00878000E-01    1.00000000E+00   1.00000000E+00 
SP   1    1.000000
   6.39000000E-02    1.00000000E+00   1.00000000E+00 
D    1    1.000000
   9.13000000E-01    1.00000000E+00 

11    0
S    6    1.000000
   4.56324000E+03    1.96665000E-03 
   6.82024000E+02    1.52306000E-02 
   1.54973000E+02    7.61269000E-02 
   4.44553000E+01    2.60801000E-01 
   1.30290000E+01    6.16462000E-01 
   1.82773000E+00    2.21006000E-01 
SP   3    1.000000
   2.09642000E+01    1.14660000E-01   4.02487000E-02 
   4.80331000E+00    9.19999000E-01   2.37594000E-01 
   1.45933000E+00   -3.03068000E-03   8.15854000E-01 
SP   1    1.000000
   4.83456000E-01    1.00000000E+00   1.00000000E+00 
SP   1    1.000000
   1.45585000E-01    1.00000000E+00   1.00000000E+00 
SP   1    1.000000
   4.38000000E-02    1.00000000E+00   1.00000000E+00 
D    1    1.000000
   6.26000000E-01    1.00000000E+00 

12    0
S    3    1.000000
   3.38650000E+01    2.54938000E-02 
   5.09479000E+00    1.90373000E-01 
   1.15879000E+00    8.52161000E-01 
S    1    1.000000
   3.25840000E-01    1.00000000E+00 
S    1    1.000000
   1.02741000E-01    1.00000000E+00 
S    1    1.000000
   3.60000000E-02    1.00000000E+00 
P    1    1.000000
   7.50000000E-01    1.00000000E+00 

[MO]
Sym=X
Ene= -0.015391
Spin=Alpha
Occup=1
     1    2.879139639835e-07
     2   -2.904185925504e-06
     3   -3.850236362879e-07
     4   -1.893266364126e-06
     5   -6.187700928909e-16
     6    2.027336799058e-05
     7    1.116556814628e-05
     8    1.436683598856e-05
     9    1.118745349152e-15
    10   -3.418098859398e-04
    11   -7.709775985726e-05
    12   -2.040032289218e-04
    13   -6.681026518492e-15
    14   -1.682514743616e-04
    15    2.345268723245e-04
    16   -6.134000091414e-04
    17    1.044064515924e-14
    18    1.176115342500e-06
    19   -6.784886152047e-16
    20   -1.001111031306e-15
    21   -2.736037997520e-06
    22    1.232159051653e-05
    23    4.828971801526e-07
    24    1.082130393156e-05
    25   -6.132328427973e-05
    26    5.606737277265e-05
    27   -2.070361339909e-06
    28    1.291636260799e-06
    29   -1.223151805235e-15
    30   -4.285521940555e-07
    31   -4.891427369889e-06
    32   -1.376548963677e-04
    33   -3.009762084639e-04
    34    4.755711393976e-06
    35   -4.134932941529e-09
    36    1.602695680933e-15
    37    4.551172058938e-06
    38    3.790199220267e-05
    39    5.144006813408e-05
    40    8.304839782362e-05
    41   -3.624959812471e-06
    42   -9.905017494164e-06
    43    7.847747233195e-16
    44   -2.377435135955e-07
    45   -4.557051912831e-07
    46    1.315789632194e-06
    47    1.088333162013e-08
    48    1.088410080052e-15
    49    2.404718818812e-06
    50   -4.681392258454e-07
    51    9.413226125399e-07
    52   -1.316477123371e-15
    53   -1.312739752893e-04
    54   -1.469661577640e-04
    55    1.497167020262e-05
    56   -9.846908638862e-16
    57   -1.650727345658e-04
    58    2.084050691447e-05
    59   -1.763262420685e-04
    60    6.960014962493e-15
    61    3.354885073686e-06
    62    4.604198003048e-16
    63   -6.092966984487e-16
    64    1.241575346051e-06
    65    3.622896539195e-06
    66   -1.633690842539e-05
    67   -1.384119770718e-05
    68   -5.845036970137e-07
    69    2.689849227260e-07
    70    2.624407984991e-16
    71   -1.714859618345e-06
    72    6.384903549485e-07
    73   -1.915329216889e-06
    74   -1.489209769403e-15
    75    6.553169754010e-07
    76    3.698500380950e-06
    77    1.045961034444e-05
    78    3.125387032860e-15
    79   -2.701173665265e-04
    80   -1.418336152007e-04
    81    4.221720847178e-05
    82   -3.977091409517e-15
    83    1.348921047267e-07
    84   -5.231349486053e-16
    85   -2.763338345001e-16
    86    1.133478477023e-06
    87   -4.691521771238e-07
    88   -6.751578688103e-07
    89   -5.118912911048e-05
    90    6.436504568671e-06
    91    8.565735327178e-06
    92   -1.975593793130e-16
    93    1.627537439237e-04
    94    3.165349221868e-04
    95    2.289782620250e-04
    96    4.518203760749e-16
    97   -3.389266892027e-04
    98    1.134368526767e-05
    99    1.449529604716e-04
   100   -3.853059052739e-15
   101   -1.983661079191e-03
   102   -7.661355763656e-04
   103    3.323483745014e-04
   104    1.033865395065e-14
   105   -4.487071217758e-05
   106   -3.296167218079e-16
   107   -1.063792458379e-15
   108    8.700830414642e-05
   109    1.967618590661e-04
   110    5.515673062861e-01
   111    4.717155954917e-01
   112   -1.386441618158e-03
   113   -9.926515862023e-04
   114   -7.538288840564e-16
   115    5.157233940668e-03
   116    6.218227490206e-04
   117    4.561406305153e-04
   118   -2.583395158157e-16
   119   -7.882460465242e-04
   120   -2.534380703216e-04
   121   -1.999053949714e-04
   122    2.504939229626e-15
   123    1.502406641820e-03
   124   -9.305151521604e-05
   125   -2.468496594699e-05
   126   -2.392290401344e-15
   127   -5.118996575123e-05
   128   -3.350907770486e-16
   129   -4.279838991200e-17
   130   -4.584428850195e-05
   131   -1.721192645873e-04
   132    6.198329352132e-07
   133   -2.789990421705e-07
   134   -1.391678232037e-05
   135    5.914136823001e-06
   136    9.342438738634e-16
   137   -1.183657956751e-05
   138    4.214972584642e-05
   139   -2.338880624282e-05
   140   -1.454309638440e-15
   141    1.403271646899e-04
   142   -6.722556774705e-05
   143   -1.218300077249e-04
   144    3.110161215884e-15
   145   -3.071599511159e-04
   146   -5.526333369460e-04
   147   -2.999101693405e-05
   148   -5.102382596805e-15
   149   -7.527547507223e-06
   150    8.871112943293e-16
   151   -1.523300872745e-17
   152    1.966625727220e-05
   153   -2.359841262622e-05
   154    6.405891962173e-08
   155   -2.312325293737e-07
   156   -8.173699621352e-07
   157   -1.436473864851e-07
   158    1.280093128247e-16
   159   -4.287175039744e-06
   160    3.784983058007e-06
   161    4.715645607829e-07
   162   -2.745751163519e-16
   163    1.114079552706e-04
   164    6.367124621290e-05
   165    4.645112555777e-06
   166    3.378410748079e-15
   167    2.053592517273e-04
   168   -5.980607385964e-05
   169   -2.263878833407e-05
   170   -5.125887594338e-15
   171   -3.404829977885e-08
   172   -4.436487028509e-16
   173    1.747306091230e-16
   174   -3.635234937447e-07
   175   -2.283258726822e-06
   176    1.754645466813e-06
   177   -1.867609359091e-06
   178   -6.553679467143e-06
   179   -1.919903063427e-05
   180    1.079976018589e-15
   181   -1.676937807468e-06
   182    1.798397051094e-05
   183    1.058460375970e-04
   184   -2.795955875080e-15
   185    3.962051122503e-04
   186   -3.247988977766e-04
   187    6.174515885052e-05
   188    8.605809244574e-15
   189    1.730947768239e-03
   190    4.394347801787e-05
   191    1.042948323503e-03
   192   -1.611948235519e-14
   193   -4.993916391006e-06
   194   -3.905270569097e-16
   195    3.240123127700e-16
   196   -5.058196893060e-05
   197    3.307009625065e-05
   198    1.998226603308e-06
   199    9.287505375535e-05
   200    8.214862041216e-05
   201    3.327591644521e-04
   202   -2.224664765091e-05
   203    1.309016389612e-05
   204   -3.074915728116e-16
Sym=X
Ene= 0.015391
Spin=Alpha
Occup=0
     1    5.544165079594e-03
     2    9.410575134529e-03
     3   -3.125684748021e-02
     4   -1.928918256864e-02
     5   -1.261632139023e-15
     6   -2.623849630221e-02
     7   -5.339300019729e-02
     8   -3.201529187512e-02
     9   -2.517881546244e-15
    10   -7.889347221309e-02
    11   -5.428346139162e-02
    12   -7.226082968835e-02
    13   -5.985614894167e-15
    14   -4.624926706228e-01
    15   -1.122265550871e-01
    16   -1.295273395358e-01
    17    1.590742274316e-14
    18   -1.432360875906e-03
    19   -3.001437831624e-15
    20    3.648812687832e-16
    21   -6.449185553849e-03
    22    1.677911035904e-03
    23   -8.474550083326e-04
    24    3.130062224502e-03
    25    2.167362046801e-02
    26    6.320806975316e-04
    27    1.614338650573e-04
    28    6.661025388196e-04
    29    3.994055394075e-15
    30    1.678507574381e-02
    31    1.943699630314e-02
    32    1.430271316610e-03
    33   -4.865354502960e-02
    34   -1.200657940628e-03
    35   -6.016987011436e-04
    36    4.945112260024e-15
    37    1.098257953256e-03
    38    4.857524550272e-03
    39    1.017243093012e-02
    40   -3.994278664010e-02
    41    1.092534127281e-03
    42    1.101894646595e-03
    43    4.353994938398e-15
    44   -6.366258510178e-03
    45   -1.086963683856e-02
    46    2.569478167213e-02
    47    4.846710124731e-03
    48   -1.723166262281e-15
    49    3.068402532115e-02
    50    4.252169719663e-02
    51    1.000625318546e-02
    52    9.999038886573e-15
    53    7.927300843749e-02
    54    2.760754256273e-02
    55   -2.425246446075e-02
    56   -1.616731563730e-14
    57    8.715844156920e-02
    58    5.136736234101e-03
    59   -1.146650837229e-02
    60   -8.115415885858e-15
    61   -4.380814968685e-04
    62    6.480935301104e-15
    63   -1.401165990419e-14
    64    1.317527242736e-02
    65    1.373486119992e-02
    66    6.375409700636e-04
    67    1.073549184556e-03
    68   -4.139505313588e-02
    69   -3.736721810966e-02
    70   -1.171334804661e-14
    71   -3.258175713087e-03
    72   -6.172055656716e-02
    73   -5.713232640716e-02
    74   -5.276791025139e-15
    75    1.039808277169e-03
    76   -6.070082753641e-02
    77   -6.184737640562e-02
    78    1.420602088598e-14
    79    2.218049935589e-02
    80    1.247353748141e-03
    81   -8.242481792442e-03
    82   -3.773319482958e-15
    83    6.172996506855e-04
    84   -9.177017102478e-16
    85   -9.941918495013e-16
    86   -2.674634712466e-03
    87   -3.008059396930e-04
    88   -5.994420676528e-03
    89   -1.019696574459e-02
    90    9.461386066950e-03
    91   -3.911882804258e-02
    92    1.699000806644e-15
    93    2.840187336579e-02
    94    1.285787925073e-02
    95   -6.477099734971e-02
    96    2.097332825668e-15
    97   -1.132007107124e-02
    98   -5.934512386265e-02
    99    1.065572027315e-01
   100   -1.921728651692e-14
   101   -4.351590805017e-01
   102   -4.859870712722e-02
   103    1.974943045882e-01
   104    4.137917750690e-14
   105   -2.204209291638e-03
   106   -3.042352980658e-15
   107    1.982112529393e-16
   108   -5.087286789812e-02
   109    2.457569568701e-02
   110    1.846137607244e-03
   111    3.282136304522e-03
   112   -1.888858519762e-01
   113    2.622441431726e-01
   114    5.638262434162e-15
   115   -1.294264500809e-02
   116   -2.412052010453e-01
   117    3.363150350638e-01
   118   -1.431098640154e-14
   119   -2.494555371820e-03
   120   -2.045574458956e-01
   121    2.732775172743e-01
   122    2.266214688131e-14
   123   -6.024393325653e-03
   124   -1.996218238300e-02
   125    3.784803624509e-02
   126   -1.827326584858e-14
   127   -5.764660339465e-04
   128    1.771052970084e-16
   129    5.974447764827e-16
   130    1.384049310966e-02
   131   -6.288775095467e-03
   132    1.144512562205e-02
   133    1.944714628721e-02
   134   -6.489163420569e-02
   135    1.183449001549e-02
   136   -2.336187413362e-16
   137   -5.579750905489e-02
   138   -1.037191228723e-01
   139    1.471178258667e-02
   140    1.048078838975e-15
   141   -1.410771474490e-01
   142   -1.002811476828e-01
   143    3.678653521915e-02
   144    1.363049959238e-14
   145   -1.777986906914e-01
   146    5.482361981252e-02
   147    4.258200054462e-02
   148   -3.470909221545e-15
   149   -1.115683226565e-03
   150    6.188019348999e-16
   151    2.440934180124e-15
   152   -1.811153400756e-03
   153    2.182363947545e-03
   154    4.614991918061e-03
   155    7.767610467300e-03
   156    2.438239248412e-03
   157   -1.252330309669e-02
   158    3.463744758757e-16
   159   -2.187274859098e-02
   160    4.250723288529e-03
   161   -1.781067198035e-02
   162   -2.558860940570e-15
   163   -5.356394254055e-02
   164    1.530177477602e-02
   165   -2.946786013158e-02
   166    8.998467529371e-15
   167    1.023852544418e-02
   168    2.450959775006e-02
   169    4.218394805008e-02
   170    2.064922731871e-15
   171   -4.756166628025e-04
   172    1.017149738240e-16
   173    1.255179120715e-15
   174   -3.318798289886e-03
   175   -5.197441585418e-05
   176   -1.101707866333e-02
   177   -1.798041078791e-02
   178    1.712859868362e-02
   179    5.983466861637e-02
   180    2.392293007407e-16
   181    4.362692539121e-02
   182    3.049426312406e-02
   183    8.170759129042e-02
   184   -3.159116522087e-15
   185    2.439666251124e-01
   186   -2.306027989787e-02
   187    1.202216624286e-01
   188    8.045226046180e-15
   189    9.409933237322e-01
   190   -1.505195786224e-01
   191    9.213374973346e-02
   192   -3.672112635689e-14
   193    2.776927670241e-03
   194   -3.878493672673e-16
   195    5.535777257864e-15
   196   -2.449427108756e-03
   197    1.351718896503e-03
   198   -2.906371218954e-03
   199   -8.107168474423e-03
   200    9.158063043373e-03
   201    4.777051935383e-02
   202    1.644581063093e-04
   203   -1.061433022236e-03
   204   -3.201208387423e-15
[5D]
