[Molden Format]
[Atoms] (Angs)
  C      1    6     -0.00754183     -1.75895763      0.00000000
  H      2    1     -2.09769850     -1.41880678     -0.00000000
  H      3    1     -0.13527422     -2.83956838     -0.00000000
  H      4    1      0.04053511      2.02026369      0.00000000
  C      5    6     -1.22066484      0.39918184     -0.00000000
  O      6    8     -2.25210141      1.05663720     -0.00000000
  C      7    6      1.24009552      0.27789184      0.00000000
  O      8    8      2.33767996      1.06122493      0.00000000
  N      9    7      0.03634586      1.00852936      0.00000000
  N     10    7     -1.18738304     -0.97903470     -0.00000000
  C     11    6      1.22288875     -1.12258096      0.00000000
  H     12    1      2.15640383     -1.68445878      0.00000000
[GTO]
1    0
S    6    1.000000
   4.56324000E+03    1.96665000E-03 
   6.82024000E+02    1.52306000E-02 
   1.54973000E+02    7.61269000E-02 
   4.44553000E+01    2.60801000E-01 
   1.30290000E+01    6.16462000E-01 
   1.82773000E+00    2.21006000E-01 
SP   3    1.000000
   2.09642000E+01    1.14660000E-01   4.02487000E-02 
   4.80331000E+00    9.19999000E-01   2.37594000E-01 
   1.45933000E+00   -3.03068000E-03   8.15854000E-01 
SP   1    1.000000
   4.83456000E-01    1.00000000E+00   1.00000000E+00 
SP   1    1.000000
   1.45585000E-01    1.00000000E+00   1.00000000E+00 
SP   1    1.000000
   4.38000000E-02    1.00000000E+00   1.00000000E+00 
D    1    1.000000
   6.26000000E-01    1.00000000E+00 

2    0
S    3    1.000000
   3.38650000E+01    2.54938000E-02 
   5.09479000E+00    1.90373000E-01 
   1.15879000E+00    8.52161000E-01 
S    1    1.000000
   3.25840000E-01    1.00000000E+00 
S    1    1.000000
   1.02741000E-01    1.00000000E+00 
S    1    1.000000
   3.60000000E-02    1.00000000E+00 
P    1    1.000000
   7.50000000E-01    1.00000000E+00 

3    0
S    3    1.000000
   3.38650000E+01    2.54938000E-02 
   5.09479000E+00    1.90373000E-01 
   1.15879000E+00    8.52161000E-01 
S    1    1.000000
   3.25840000E-01    1.00000000E+00 
S    1    1.000000
   1.02741000E-01    1.00000000E+00 
S    1    1.000000
   3.60000000E-02    1.00000000E+00 
P    1    1.000000
   7.50000000E-01    1.00000000E+00 

4    0
S    3    1.000000
   3.38650000E+01    2.54938000E-02 
   5.09479000E+00    1.90373000E-01 
   1.15879000E+00    8.52161000E-01 
S    1    1.000000
   3.25840000E-01    1.00000000E+00 
S    1    1.000000
   1.02741000E-01    1.00000000E+00 
S    1    1.000000
   3.60000000E-02    1.00000000E+00 
P    1    1.000000
   7.50000000E-01    1.00000000E+00 

5    0
S    6    1.000000
   4.56324000E+03    1.96665000E-03 
   6.82024000E+02    1.52306000E-02 
   1.54973000E+02    7.61269000E-02 
   4.44553000E+01    2.60801000E-01 
   1.30290000E+01    6.16462000E-01 
   1.82773000E+00    2.21006000E-01 
SP   3    1.000000
   2.09642000E+01    1.14660000E-01   4.02487000E-02 
   4.80331000E+00    9.19999000E-01   2.37594000E-01 
   1.45933000E+00   -3.03068000E-03   8.15854000E-01 
SP   1    1.000000
   4.83456000E-01    1.00000000E+00   1.00000000E+00 
SP   1    1.000000
   1.45585000E-01    1.00000000E+00   1.00000000E+00 
SP   1    1.000000
   4.38000000E-02    1.00000000E+00   1.00000000E+00 
D    1    1.000000
   6.26000000E-01    1.00000000E+00 

6    0
S    6    1.000000
   8.58850000E+03    1.89515000E-03 
   1.29723000E+03    1.43859000E-02 
   2.99296000E+02    7.07320000E-02 
   8.73771000E+01    2.40001000E-01 
   2.56789000E+01    5.94797000E-01 
   3.74004000E+00    2.80802000E-01 
SP   3    1.000000
   4.21175000E+01    1.13889000E-01   3.65114000E-02 
   9.62837000E+00    9.20811000E-01   2.37153000E-01 
   2.85332000E+00   -3.27447000E-03   8.19702000E-01 
SP   1    1.000000
   9.05661000E-01    1.00000000E+00   1.00000000E+00 
SP   1    1.000000
   2.55611000E-01    1.00000000E+00   1.00000000E+00 
SP   1    1.000000
   8.45000000E-02    1.00000000E+00   1.00000000E+00 
D    1    1.000000
   1.29200000E+00    1.00000000E+00 

7    0
S    6    1.000000
   4.56324000E+03    1.96665000E-03 
   6.82024000E+02    1.52306000E-02 
   1.54973000E+02    7.61269000E-02 
   4.44553000E+01    2.60801000E-01 
   1.30290000E+01    6.16462000E-01 
   1.82773000E+00    2.21006000E-01 
SP   3    1.000000
   2.09642000E+01    1.14660000E-01   4.02487000E-02 
   4.80331000E+00    9.19999000E-01   2.37594000E-01 
   1.45933000E+00   -3.03068000E-03   8.15854000E-01 
SP   1    1.000000
   4.83456000E-01    1.00000000E+00   1.00000000E+00 
SP   1    1.000000
   1.45585000E-01    1.00000000E+00   1.00000000E+00 
SP   1    1.000000
   4.38000000E-02    1.00000000E+00   1.00000000E+00 
D    1    1.000000
   6.26000000E-01    1.00000000E+00 

8    0
S    6    1.000000
   8.58850000E+03    1.89515000E-03 
   1.29723000E+03    1.43859000E-02 
   2.99296000E+02    7.07320000E-02 
   8.73771000E+01    2.40001000E-01 
   2.56789000E+01    5.94797000E-01 
   3.74004000E+00    2.80802000E-01 
SP   3    1.000000
   4.21175000E+01    1.13889000E-01   3.65114000E-02 
   9.62837000E+00    9.20811000E-01   2.37153000E-01 
   2.85332000E+00   -3.27447000E-03   8.19702000E-01 
SP   1    1.000000
   9.05661000E-01    1.00000000E+00   1.00000000E+00 
SP   1    1.000000
   2.55611000E-01    1.00000000E+00   1.00000000E+00 
SP   1    1.000000
   8.45000000E-02    1.00000000E+00   1.00000000E+00 
D    1    1.000000
   1.29200000E+00    1.00000000E+00 

9    0
S    6    1.000000
   6.29348000E+03    1.96979000E-03 
   9.49044000E+02    1.49613000E-02 
   2.18776000E+02    7.35006000E-02 
   6.36916000E+01    2.48937000E-01 
   1.88282000E+01    6.02460000E-01 
   2.72023000E+00    2.56202000E-01 
SP   3    1.000000
   3.06331000E+01    1.11906000E-01   3.83119000E-02 
   7.02614000E+00    9.21666000E-01   2.37403000E-01 
   2.11205000E+00   -2.56919000E-03   8.17592000E-01 
SP   1    1.000000
   6.84009000E-01    1.00000000E+00   1.00000000E+00 
SP   1    1.000000
   2.00878000E-01    1.00000000E+00   1.00000000E+00 
SP   1    1.000000
   6.39000000E-02    1.00000000E+00   1.00000000E+00 
D    1    1.000000
   9.13000000E-01    1.00000000E+00 

10    0
S    6    1.000000
   6.29348000E+03    1.96979000E-03 
   9.49044000E+02    1.49613000E-02 
   2.18776000E+02    7.35006000E-02 
   6.36916000E+01    2.48937000E-01 
   1.88282000E+01    6.02460000E-01 
   2.72023000E+00    2.56202000E-01 
SP   3    1.000000
   3.06331000E+01    1.11906000E-01   3.83119000E-02 
   7.02614000E+00    9.21666000E-01   2.37403000E-01 
   2.11205000E+00   -2.56919000E-03   8.17592000E-01 
SP   1    1.000000
   6.84009000E-01    1.00000000E+00   1.00000000E+00 
SP   1    1.000000
   2.00878000E-01    1.00000000E+00   1.00000000E+00 
SP   1    1.000000
   6.39000000E-02    1.00000000E+00   1.00000000E+00 
D    1    1.000000
   9.13000000E-01    1.00000000E+00 

11    0
S    6    1.000000
   4.56324000E+03    1.96665000E-03 
   6.82024000E+02    1.52306000E-02 
   1.54973000E+02    7.61269000E-02 
   4.44553000E+01    2.60801000E-01 
   1.30290000E+01    6.16462000E-01 
   1.82773000E+00    2.21006000E-01 
SP   3    1.000000
   2.09642000E+01    1.14660000E-01   4.02487000E-02 
   4.80331000E+00    9.19999000E-01   2.37594000E-01 
   1.45933000E+00   -3.03068000E-03   8.15854000E-01 
SP   1    1.000000
   4.83456000E-01    1.00000000E+00   1.00000000E+00 
SP   1    1.000000
   1.45585000E-01    1.00000000E+00   1.00000000E+00 
SP   1    1.000000
   4.38000000E-02    1.00000000E+00   1.00000000E+00 
D    1    1.000000
   6.26000000E-01    1.00000000E+00 

12    0
S    3    1.000000
   3.38650000E+01    2.54938000E-02 
   5.09479000E+00    1.90373000E-01 
   1.15879000E+00    8.52161000E-01 
S    1    1.000000
   3.25840000E-01    1.00000000E+00 
S    1    1.000000
   1.02741000E-01    1.00000000E+00 
S    1    1.000000
   3.60000000E-02    1.00000000E+00 
P    1    1.000000
   7.50000000E-01    1.00000000E+00 

[MO]
Sym=X
Ene= -0.004485
Spin=Alpha
Occup=1
     1   -6.825780596250e-05
     2   -1.232049952201e-04
     3    1.553789816138e-05
     4   -2.142847549041e-04
     5   -6.289212547698e-16
     6    4.341306836683e-04
     7    8.190323132363e-06
     8   -3.204174631783e-04
     9    1.105380235470e-15
    10    8.356081191873e-04
    11    2.662703832461e-05
    12   -9.563302514034e-04
    13   -6.699574171757e-15
    14    2.738405030826e-03
    15    7.735614399921e-04
    16   -4.987037074016e-03
    17    1.002856338700e-14
    18   -2.695791271744e-05
    19   -6.829741630163e-16
    20   -1.003545288455e-15
    21    7.189492268905e-05
    22   -6.827643184757e-06
    23   -6.472684011058e-05
    24   -3.031889317910e-04
    25   -1.528890483243e-03
    26   -3.078536052282e-03
    27    5.347086299355e-05
    28    4.408956453131e-05
    29   -1.221137333369e-15
    30    2.716096244720e-06
    31   -8.037917650813e-05
    32   -1.468009929091e-03
    33   -6.925936796538e-03
    34    2.707312363141e-05
    35    5.409122853921e-05
    36    1.604741254604e-15
    37   -3.221995624152e-05
    38   -3.314250349122e-05
    39   -2.449279964800e-04
    40    2.749587171790e-05
    41   -4.349452955617e-06
    42   -2.583530516752e-05
    43    7.839235979101e-16
    44   -7.603541917784e-07
    45   -4.142699125420e-06
    46   -1.662308600511e-05
    47   -2.754098235752e-06
    48    1.075857535615e-15
    49    1.032364779126e-04
    50   -1.566991652623e-05
    51   -2.315843399581e-05
    52   -1.361959219922e-15
    53   -6.346701958349e-04
    54   -4.182172435643e-04
    55    1.318240895350e-04
    56   -9.764430286235e-16
    57   -5.579364991405e-04
    58   -7.201928163107e-04
    59   -1.049984270518e-03
    60    7.789839057743e-15
    61   -2.975295519655e-05
    62    4.541508713688e-16
    63   -6.088306080313e-16
    64   -1.703605430420e-06
    65    5.856717331304e-05
    66   -4.525212581031e-05
    67   -5.449542946881e-05
    68   -3.960398612311e-05
    69   -1.045101749569e-05
    70    2.756042563872e-16
    71    1.024837440621e-04
    72   -4.817198349009e-05
    73   -1.926463889698e-05
    74   -1.497678187658e-15
    75    1.629698878029e-04
    76   -3.497855737841e-05
    77   -3.426032655939e-05
    78    3.190820201433e-15
    79   -4.445940149780e-04
    80   -2.820400529194e-04
    81    2.950916262124e-04
    82   -4.456639533732e-15
    83   -5.480335336634e-06
    84   -5.249610381608e-16
    85   -2.746006090647e-16
    86    1.847900415849e-06
    87   -7.986489822858e-06
    88   -1.945374810797e-05
    89   -8.471565893266e-05
    90    2.462731405806e-05
    91   -4.645419085159e-05
    92   -1.787261976490e-16
    93    3.067381465786e-04
    94    3.354760200053e-04
    95    1.449548665818e-04
    96    5.140118374233e-16
    97   -3.394039362583e-04
    98    2.757362642889e-04
    99    1.351785559642e-04
   100   -3.943077820457e-15
   101   -2.509416384744e-03
   102   -1.717186896338e-03
   103    5.396946411053e-05
   104    7.454366722727e-15
   105   -6.122453924537e-05
   106   -3.296243931765e-16
   107   -1.061389795713e-15
   108    7.859713060825e-05
   109    1.639443108895e-04
   110    5.515566788896e-01
   111    4.717009898657e-01
   112   -1.375581873210e-03
   113   -9.466423591887e-04
   114   -7.848958916499e-16
   115    5.196022261931e-03
   116    6.404762250512e-04
   117    5.253306711624e-04
   118   -2.718780361819e-16
   119   -7.891776841908e-04
   120   -2.623001575018e-04
   121   -1.230498598082e-04
   122    2.242103659526e-15
   123    1.563560295025e-03
   124    9.882059903714e-05
   125    1.684504867081e-04
   126   -1.193168492182e-15
   127   -5.410208276486e-05
   128   -3.316772010906e-16
   129   -4.090801530487e-17
   130   -4.646757341815e-05
   131   -1.690384648237e-04
   132   -4.629150246504e-05
   133   -8.114629868659e-05
   134   -4.564470529961e-05
   135   -2.001327598359e-05
   136    9.223396008934e-16
   137    2.392334863177e-04
   138   -8.419215705921e-06
   139   -7.066534593460e-05
   140   -1.464195984663e-15
   141    8.913822034875e-04
   142   -1.652076912589e-04
   143   -3.095700086297e-04
   144    3.006211119581e-15
   145    1.653382472223e-03
   146   -6.594581706867e-04
   147   -6.061022413073e-05
   148   -4.298761470613e-15
   149   -1.434176636700e-05
   150    8.860517410324e-16
   151   -1.519884617971e-17
   152    3.045684965846e-05
   153   -2.575017994335e-05
   154   -8.962164657865e-05
   155   -1.552216759075e-04
   156   -1.587915820966e-04
   157   -9.101639786865e-05
   158    1.180631091163e-16
   159    4.995488118820e-04
   160   -2.406533562318e-04
   161   -1.371825858980e-04
   162   -2.850200016761e-16
   163    1.517593599382e-03
   164   -3.060751716202e-04
   165   -1.686470291524e-04
   166    3.324328964225e-15
   167    3.316910033388e-03
   168   -7.089610364071e-04
   169    3.027487192833e-04
   170   -5.035118259769e-15
   171   -2.239774680904e-05
   172   -4.459418989404e-16
   173    1.771701967237e-16
   174   -3.002082409973e-05
   175   -3.982950125939e-05
   176   -4.073897386961e-05
   177   -7.540543795211e-05
   178    5.624416169162e-05
   179   -4.512941395902e-05
   180    1.090888775498e-15
   181    2.331413842275e-04
   182    1.175242353446e-04
   183    7.664361142432e-05
   184   -2.802139125863e-15
   185    1.222682636268e-03
   186   -2.656335394698e-04
   187    8.340336442270e-05
   188    8.626201641558e-15
   189    3.863871269157e-03
   190    1.088615986549e-03
   191    2.403722401424e-03
   192   -1.463457857457e-14
   193   -2.662359918278e-05
   194   -3.860113614862e-16
   195    3.347931936362e-16
   196   -8.902648919117e-05
   197    8.016064717824e-05
   198   -3.226129747612e-05
   199   -1.425794597930e-05
   200   -3.398080688727e-04
   201   -1.376361891552e-03
   202   -4.322392571416e-05
   203    3.106952536724e-05
   204   -3.056392580679e-16
Sym=X
Ene= 0.004485
Spin=Alpha
Occup=0
     1    7.332554537815e-16
     2    4.538511648525e-16
     3    7.157547679223e-16
     4    1.657626218935e-16
     5   -4.401012646066e-02
     6   -9.093531171098e-15
     7    3.758710369357e-15
     8   -8.290059492396e-15
     9   -7.506583452626e-02
    10    4.955928592285e-14
    11   -1.331886397781e-13
    12    1.036433874305e-13
    13   -8.943271042912e-02
    14    5.477543151787e-12
    15    1.250551900524e-12
    16    1.284176290530e-12
    17   -9.143652494690e-03
    18   -1.964136422244e-15
    19   -3.778629838593e-02
    20    5.308684738218e-03
    21    3.624117458078e-15
    22   -3.169568879011e-15
    23   -1.633114146501e-15
    24    3.149300484252e-16
    25   -2.597881775704e-13
    26   -2.084521892394e-13
    27   -3.426776415155e-15
    28   -1.989019067036e-15
    29    1.002427767626e-02
    30   -3.480974412640e-15
    31    2.618334890445e-14
    32    1.890037305219e-14
    33    4.587889711224e-13
    34    2.736491922447e-15
    35    3.072117138714e-15
    36   -3.316756348905e-03
    37   -1.293420822692e-15
    38   -1.834689330561e-14
    39   -1.043064779127e-13
    40    2.677052392691e-13
    41    6.334073911920e-16
    42   -4.046492020101e-15
    43    2.553356046674e-04
    44    2.695487010038e-17
    45    1.542320375072e-15
    46   -2.895240658675e-15
    47   -2.476363668420e-15
    48    7.345562195179e-03
    49   -1.749563760898e-14
    50    2.295327263066e-15
    51    3.357716906767e-15
    52    1.586493551422e-02
    53    2.152604103946e-13
    54   -5.210472635502e-14
    55   -1.633217715443e-13
    56   -1.595436699870e-02
    57   -3.736599046818e-13
    58   -1.988759076883e-13
    59   -2.128641744004e-13
    60   -2.300558408895e-02
    61   -5.621361798783e-15
    62    2.614560647689e-02
    63   -4.369531358073e-02
    64   -2.403966218047e-15
    65   -1.216920417609e-16
    66   -2.251387527597e-16
    67   -2.291029459960e-16
    68    1.713003006582e-15
    69    4.595697874893e-16
    70   -1.127880097998e-01
    71   -4.447461942990e-16
    72   -7.437395607905e-16
    73   -6.932015313620e-15
    74   -1.701906169089e-01
    75    2.772766358970e-15
    76   -1.458943939713e-14
    77    1.496794249450e-14
    78   -1.710892743748e-01
    79   -5.367330551020e-14
    80    6.806781028732e-15
    81    1.096803913004e-13
    82   -3.624392939036e-02
    83   -4.727131536356e-17
    84   -6.946039682679e-03
    85    2.122374989226e-03
    86   -1.533602765627e-16
    87    1.901178775044e-16
    88   -1.765342137090e-15
    89   -8.624505657633e-16
    90   -1.142317594054e-15
    91   -6.508271602852e-15
    92   -1.799135701272e-02
    93    9.067911788807e-15
    94   -1.452499672076e-14
    95   -1.226162796491e-15
    96   -3.598454635038e-02
    97    3.747171814352e-14
    98   -6.818350231040e-15
    99   -1.259124039412e-13
   100    1.560801096267e-02
   101   -6.570686865017e-13
   102    2.386345039448e-13
   103   -1.528719460947e-13
   104    4.534253411515e-02
   105    6.685124891036e-15
   106    1.143134464691e-02
   107    2.952753964666e-02
   108    2.677977149820e-15
   109    2.226286816867e-15
   110   -4.918456023283e-16
   111   -6.029336120923e-16
   112    7.308889265181e-15
   113   -5.352987176801e-15
   114    1.358136067643e-01
   115    5.446287892903e-16
   116    8.218203925183e-16
   117    8.545339116780e-15
   118    1.690813482702e-01
   119    2.040054985876e-14
   120    7.221909866438e-15
   121   -2.923821947464e-14
   122    1.330636810034e-01
   123    3.166267930564e-15
   124   -5.907844131063e-14
   125    2.062565030404e-14
   126    1.113387333142e-02
   127    3.179130159489e-16
   128   -5.538663378732e-03
   129   -2.591063881190e-03
   130    3.425851512044e-16
   131   -4.546160842861e-16
   132    1.506364042012e-15
   133    1.722803429302e-15
   134   -4.832436021008e-15
   135    2.693528089309e-15
   136    8.406616985935e-03
   137    1.243613583342e-15
   138    1.772050380352e-15
   139    3.608841771560e-15
   140    1.236710873658e-02
   141   -1.103868092375e-13
   142   -4.302879958448e-14
   143    2.345245504629e-14
   144    1.432575152528e-02
   145    1.691825521641e-12
   146   -1.990590137253e-15
   147   -3.718685800275e-13
   148   -2.081445630566e-03
   149    4.033337590209e-15
   150   -2.693014097826e-04
   151   -5.293563025819e-04
   152   -7.296351756565e-16
   153   -1.643489893045e-15
   154   -2.128829242126e-15
   155   -3.977488924187e-15
   156   -2.035178356966e-15
   157   -3.237845171636e-15
   158    1.829951906796e-01
   159    1.670134056107e-14
   160   -1.604470072296e-15
   161    1.367453490886e-15
   162    2.907868925323e-01
   163   -1.794456951128e-14
   164   -4.379792334046e-14
   165   -6.339087489838e-14
   166    3.380945199061e-01
   167   -1.366704215305e-12
   168   -7.545015643587e-13
   169   -3.992509892725e-13
   170    7.721103670571e-02
   171   -7.796977319154e-16
   172    4.195977460481e-03
   173    7.476432572916e-03
   174   -1.251739122435e-15
   175    1.452919596854e-15
   176    1.595725242698e-15
   177    3.074851598356e-15
   178   -9.298408668341e-15
   179   -6.399302191395e-15
   180   -1.267918125741e-01
   181   -1.512401181790e-14
   182   -5.006698468916e-15
   183    6.593563277381e-15
   184   -2.166126310785e-01
   185   -4.119810269807e-14
   186   -8.449572870091e-14
   187   -1.862885651075e-13
   188   -2.383788722004e-01
   189   -4.983283387916e-12
   190    1.192779686295e-12
   191    5.529279712942e-13
   192   -3.128574526724e-02
   193   -5.512308287502e-15
   194    7.420770302873e-03
   195   -3.969488387407e-03
   196   -1.879696661780e-15
   197   -2.781456059356e-15
   198    5.180159716335e-15
   199   -1.774159092722e-14
   200    1.486908828942e-13
   201   -2.027133298096e-13
   202    6.083334446115e-15
   203   -3.813626724679e-15
   204   -9.849794636586e-03
[5D]
