[Molden Format]
[Atoms] (Angs)
  C      1    6     -0.00754183     -1.75895763      0.00000000
  H      2    1     -2.09769850     -1.41880678     -0.00000000
  H      3    1     -0.13527422     -2.83956838     -0.00000000
  H      4    1      0.04053511      2.02026369      0.00000000
  C      5    6     -1.22066484      0.39918184     -0.00000000
  O      6    8     -2.25210141      1.05663720     -0.00000000
  C      7    6      1.24009552      0.27789184      0.00000000
  O      8    8      2.33767996      1.06122493      0.00000000
  N      9    7      0.03634586      1.00852936      0.00000000
  N     10    7     -1.18738304     -0.97903470     -0.00000000
  C     11    6      1.22288875     -1.12258096      0.00000000
  H     12    1      2.15640383     -1.68445878      0.00000000
[GTO]
1    0
S    6    1.000000
   4.56324000E+03    1.96665000E-03 
   6.82024000E+02    1.52306000E-02 
   1.54973000E+02    7.61269000E-02 
   4.44553000E+01    2.60801000E-01 
   1.30290000E+01    6.16462000E-01 
   1.82773000E+00    2.21006000E-01 
SP   3    1.000000
   2.09642000E+01    1.14660000E-01   4.02487000E-02 
   4.80331000E+00    9.19999000E-01   2.37594000E-01 
   1.45933000E+00   -3.03068000E-03   8.15854000E-01 
SP   1    1.000000
   4.83456000E-01    1.00000000E+00   1.00000000E+00 
SP   1    1.000000
   1.45585000E-01    1.00000000E+00   1.00000000E+00 
SP   1    1.000000
   4.38000000E-02    1.00000000E+00   1.00000000E+00 
D    1    1.000000
   6.26000000E-01    1.00000000E+00 

2    0
S    3    1.000000
   3.38650000E+01    2.54938000E-02 
   5.09479000E+00    1.90373000E-01 
   1.15879000E+00    8.52161000E-01 
S    1    1.000000
   3.25840000E-01    1.00000000E+00 
S    1    1.000000
   1.02741000E-01    1.00000000E+00 
S    1    1.000000
   3.60000000E-02    1.00000000E+00 
P    1    1.000000
   7.50000000E-01    1.00000000E+00 

3    0
S    3    1.000000
   3.38650000E+01    2.54938000E-02 
   5.09479000E+00    1.90373000E-01 
   1.15879000E+00    8.52161000E-01 
S    1    1.000000
   3.25840000E-01    1.00000000E+00 
S    1    1.000000
   1.02741000E-01    1.00000000E+00 
S    1    1.000000
   3.60000000E-02    1.00000000E+00 
P    1    1.000000
   7.50000000E-01    1.00000000E+00 

4    0
S    3    1.000000
   3.38650000E+01    2.54938000E-02 
   5.09479000E+00    1.90373000E-01 
   1.15879000E+00    8.52161000E-01 
S    1    1.000000
   3.25840000E-01    1.00000000E+00 
S    1    1.000000
   1.02741000E-01    1.00000000E+00 
S    1    1.000000
   3.60000000E-02    1.00000000E+00 
P    1    1.000000
   7.50000000E-01    1.00000000E+00 

5    0
S    6    1.000000
   4.56324000E+03    1.96665000E-03 
   6.82024000E+02    1.52306000E-02 
   1.54973000E+02    7.61269000E-02 
   4.44553000E+01    2.60801000E-01 
   1.30290000E+01    6.16462000E-01 
   1.82773000E+00    2.21006000E-01 
SP   3    1.000000
   2.09642000E+01    1.14660000E-01   4.02487000E-02 
   4.80331000E+00    9.19999000E-01   2.37594000E-01 
   1.45933000E+00   -3.03068000E-03   8.15854000E-01 
SP   1    1.000000
   4.83456000E-01    1.00000000E+00   1.00000000E+00 
SP   1    1.000000
   1.45585000E-01    1.00000000E+00   1.00000000E+00 
SP   1    1.000000
   4.38000000E-02    1.00000000E+00   1.00000000E+00 
D    1    1.000000
   6.26000000E-01    1.00000000E+00 

6    0
S    6    1.000000
   8.58850000E+03    1.89515000E-03 
   1.29723000E+03    1.43859000E-02 
   2.99296000E+02    7.07320000E-02 
   8.73771000E+01    2.40001000E-01 
   2.56789000E+01    5.94797000E-01 
   3.74004000E+00    2.80802000E-01 
SP   3    1.000000
   4.21175000E+01    1.13889000E-01   3.65114000E-02 
   9.62837000E+00    9.20811000E-01   2.37153000E-01 
   2.85332000E+00   -3.27447000E-03   8.19702000E-01 
SP   1    1.000000
   9.05661000E-01    1.00000000E+00   1.00000000E+00 
SP   1    1.000000
   2.55611000E-01    1.00000000E+00   1.00000000E+00 
SP   1    1.000000
   8.45000000E-02    1.00000000E+00   1.00000000E+00 
D    1    1.000000
   1.29200000E+00    1.00000000E+00 

7    0
S    6    1.000000
   4.56324000E+03    1.96665000E-03 
   6.82024000E+02    1.52306000E-02 
   1.54973000E+02    7.61269000E-02 
   4.44553000E+01    2.60801000E-01 
   1.30290000E+01    6.16462000E-01 
   1.82773000E+00    2.21006000E-01 
SP   3    1.000000
   2.09642000E+01    1.14660000E-01   4.02487000E-02 
   4.80331000E+00    9.19999000E-01   2.37594000E-01 
   1.45933000E+00   -3.03068000E-03   8.15854000E-01 
SP   1    1.000000
   4.83456000E-01    1.00000000E+00   1.00000000E+00 
SP   1    1.000000
   1.45585000E-01    1.00000000E+00   1.00000000E+00 
SP   1    1.000000
   4.38000000E-02    1.00000000E+00   1.00000000E+00 
D    1    1.000000
   6.26000000E-01    1.00000000E+00 

8    0
S    6    1.000000
   8.58850000E+03    1.89515000E-03 
   1.29723000E+03    1.43859000E-02 
   2.99296000E+02    7.07320000E-02 
   8.73771000E+01    2.40001000E-01 
   2.56789000E+01    5.94797000E-01 
   3.74004000E+00    2.80802000E-01 
SP   3    1.000000
   4.21175000E+01    1.13889000E-01   3.65114000E-02 
   9.62837000E+00    9.20811000E-01   2.37153000E-01 
   2.85332000E+00   -3.27447000E-03   8.19702000E-01 
SP   1    1.000000
   9.05661000E-01    1.00000000E+00   1.00000000E+00 
SP   1    1.000000
   2.55611000E-01    1.00000000E+00   1.00000000E+00 
SP   1    1.000000
   8.45000000E-02    1.00000000E+00   1.00000000E+00 
D    1    1.000000
   1.29200000E+00    1.00000000E+00 

9    0
S    6    1.000000
   6.29348000E+03    1.96979000E-03 
   9.49044000E+02    1.49613000E-02 
   2.18776000E+02    7.35006000E-02 
   6.36916000E+01    2.48937000E-01 
   1.88282000E+01    6.02460000E-01 
   2.72023000E+00    2.56202000E-01 
SP   3    1.000000
   3.06331000E+01    1.11906000E-01   3.83119000E-02 
   7.02614000E+00    9.21666000E-01   2.37403000E-01 
   2.11205000E+00   -2.56919000E-03   8.17592000E-01 
SP   1    1.000000
   6.84009000E-01    1.00000000E+00   1.00000000E+00 
SP   1    1.000000
   2.00878000E-01    1.00000000E+00   1.00000000E+00 
SP   1    1.000000
   6.39000000E-02    1.00000000E+00   1.00000000E+00 
D    1    1.000000
   9.13000000E-01    1.00000000E+00 

10    0
S    6    1.000000
   6.29348000E+03    1.96979000E-03 
   9.49044000E+02    1.49613000E-02 
   2.18776000E+02    7.35006000E-02 
   6.36916000E+01    2.48937000E-01 
   1.88282000E+01    6.02460000E-01 
   2.72023000E+00    2.56202000E-01 
SP   3    1.000000
   3.06331000E+01    1.11906000E-01   3.83119000E-02 
   7.02614000E+00    9.21666000E-01   2.37403000E-01 
   2.11205000E+00   -2.56919000E-03   8.17592000E-01 
SP   1    1.000000
   6.84009000E-01    1.00000000E+00   1.00000000E+00 
SP   1    1.000000
   2.00878000E-01    1.00000000E+00   1.00000000E+00 
SP   1    1.000000
   6.39000000E-02    1.00000000E+00   1.00000000E+00 
D    1    1.000000
   9.13000000E-01    1.00000000E+00 

11    0
S    6    1.000000
   4.56324000E+03    1.96665000E-03 
   6.82024000E+02    1.52306000E-02 
   1.54973000E+02    7.61269000E-02 
   4.44553000E+01    2.60801000E-01 
   1.30290000E+01    6.16462000E-01 
   1.82773000E+00    2.21006000E-01 
SP   3    1.000000
   2.09642000E+01    1.14660000E-01   4.02487000E-02 
   4.80331000E+00    9.19999000E-01   2.37594000E-01 
   1.45933000E+00   -3.03068000E-03   8.15854000E-01 
SP   1    1.000000
   4.83456000E-01    1.00000000E+00   1.00000000E+00 
SP   1    1.000000
   1.45585000E-01    1.00000000E+00   1.00000000E+00 
SP   1    1.000000
   4.38000000E-02    1.00000000E+00   1.00000000E+00 
D    1    1.000000
   6.26000000E-01    1.00000000E+00 

12    0
S    3    1.000000
   3.38650000E+01    2.54938000E-02 
   5.09479000E+00    1.90373000E-01 
   1.15879000E+00    8.52161000E-01 
S    1    1.000000
   3.25840000E-01    1.00000000E+00 
S    1    1.000000
   1.02741000E-01    1.00000000E+00 
S    1    1.000000
   3.60000000E-02    1.00000000E+00 
P    1    1.000000
   7.50000000E-01    1.00000000E+00 

[MO]
Sym=X
Ene= -0.002715
Spin=Alpha
Occup=1
     1   -2.878964524350e-07
     2    2.904183325249e-06
     3    3.852383159179e-07
     4    1.893015009466e-06
     5    6.187958880085e-16
     6   -2.027346526917e-05
     7   -1.116661671964e-05
     8   -1.436584904373e-05
     9   -1.118792585551e-15
    10    3.418222288191e-04
    11    7.709398687590e-05
    12    2.040028629189e-04
    13    6.681038508365e-15
    14    1.682259026509e-04
    15   -2.345580605176e-04
    16    6.133947332570e-04
    17   -1.044103431894e-14
    18   -1.176250267487e-06
    19    6.784807673131e-16
    20    1.001141869774e-15
    21    2.735853896043e-06
    22   -1.232184567732e-05
    23   -4.831210797130e-07
    24   -1.082376554558e-05
    25    6.131673956032e-05
    26   -5.608207035243e-05
    27    2.069854333584e-06
    28   -1.291162207206e-06
    29    1.223112371009e-15
    30    4.287919012176e-07
    31    4.889744426992e-06
    32    1.376552616226e-04
    33    3.009730509636e-04
    34   -4.755602363234e-06
    35    3.924992676516e-09
    36   -1.602630421603e-15
    37   -4.551344688303e-06
    38   -3.790528667212e-05
    39   -5.144355095062e-05
    40   -8.306585415687e-05
    41    3.624359412526e-06
    42    9.905408943139e-06
    43   -7.848008688673e-16
    44    2.374840235110e-07
    45    4.599366436293e-07
    46   -1.312648768319e-06
    47   -1.283442286575e-08
    48   -1.088512426833e-15
    49   -2.421202067578e-06
    50    4.880194306791e-07
    51   -9.538946983693e-07
    52    1.316633322432e-15
    53    1.312782334655e-04
    54    1.469886428935e-04
    55   -1.498799197913e-05
    56    9.844359203718e-16
    57    1.650490798166e-04
    58   -2.087356080340e-05
    59    1.763517393553e-04
    60   -6.960105129056e-15
    61   -3.351684731916e-06
    62   -4.604660076848e-16
    63    6.093010153206e-16
    64   -1.246633325689e-06
    65   -3.612677563865e-06
    66   -1.424837763992e-05
    67   -1.231804572540e-05
    68    5.001396049542e-07
    69   -2.125934062256e-07
    70   -2.624873052975e-16
    71    1.409710102756e-06
    72   -6.040347223718e-07
    73    1.891952249855e-06
    74    1.489249672422e-15
    75   -5.841889779958e-07
    76   -3.706199217322e-06
    77   -1.045336843320e-05
    78   -3.125428444504e-15
    79    2.700359013516e-04
    80    1.418295623419e-04
    81   -4.221658288929e-05
    82    3.977154532369e-15
    83   -1.302303565933e-07
    84    5.231278097339e-16
    85    2.763947370406e-16
    86   -1.131726570838e-06
    87    4.646145325616e-07
    88    6.751798187378e-07
    89    5.118909735242e-05
    90   -6.436291895512e-06
    91   -8.565882443639e-06
    92    1.976014917857e-16
    93   -1.627534769654e-04
    94   -3.165358391513e-04
    95   -2.289774616636e-04
    96   -4.518107171417e-16
    97    3.389365933644e-04
    98   -1.134682464892e-05
    99   -1.449501726955e-04
   100    3.853020783784e-15
   101    1.983603871936e-03
   102    7.661311090239e-04
   103   -3.323063327750e-04
   104   -1.033880965743e-14
   105    4.487058655800e-05
   106    3.296342281065e-16
   107    1.063809569476e-15
   108   -8.700796918582e-05
   109   -1.967618771266e-04
   110   -5.515673063482e-01
   111   -4.717155955952e-01
   112    1.386441599165e-03
   113    9.926516179155e-04
   114    7.537794012739e-16
   115   -5.157233450853e-03
   116   -6.218228001790e-04
   117   -4.561407432234e-04
   118    2.584604394518e-16
   119    7.882434250487e-04
   120    2.534389155680e-04
   121    1.999060616641e-04
   122   -2.505032158749e-15
   123   -1.502397745220e-03
   124    9.304665834089e-05
   125    2.468159413009e-05
   126    2.392327936245e-15
   127    5.118995214827e-05
   128    3.351054874157e-16
   129    4.278950265163e-17
   130    4.584423999088e-05
   131    1.721192264847e-04
   132   -6.198490174201e-07
   133    2.789230780508e-07
   134    1.391615253695e-05
   135   -5.914153672627e-06
   136   -9.342220822634e-16
   137    1.183791690008e-05
   138   -4.214803558570e-05
   139    2.338879849314e-05
   140    1.454209299496e-15
   141   -1.403400618371e-04
   142    6.722300601694e-05
   143    1.218428263592e-04
   144   -3.109966109572e-15
   145    3.071636363213e-04
   146    5.526037393763e-04
   147    2.999211474728e-05
   148    5.102448228978e-15
   149    7.527934964796e-06
   150   -8.870981094102e-16
   151    1.529592301792e-17
   152   -1.966741766266e-05
   153    2.359788214363e-05
   154   -6.408224235598e-08
   155    2.311562850001e-07
   156    8.170569757609e-07
   157    1.442042873123e-07
   158   -1.280586471456e-16
   159    4.288611013624e-06
   160   -3.783936614151e-06
   161   -4.731706303867e-07
   162    2.745869865068e-16
   163   -1.114232058328e-04
   164   -6.368325299465e-05
   165   -4.649361226929e-06
   166   -3.378359701646e-15
   167   -2.053561484434e-04
   168    5.978860725252e-05
   169    2.265757353970e-05
   170    5.126186164554e-15
   171    3.451048560351e-08
   172    4.436374990845e-16
   173   -1.747483369068e-16
   174    3.646583879305e-07
   175    2.283979491186e-06
   176   -1.754651774024e-06
   177    1.867642175415e-06
   178    6.553577687812e-06
   179    1.919906452812e-05
   180   -1.079971179359e-15
   181    1.676409315625e-06
   182   -1.798343431899e-05
   183   -1.058462192809e-04
   184    2.796027990548e-15
   185   -3.962027564508e-04
   186    3.247966156728e-04
   187   -6.174393281023e-05
   188   -8.605968508416e-15
   189   -1.730783990891e-03
   190   -4.396773348593e-05
   191   -1.042931399737e-03
   192    1.611989033575e-14
   193    4.993715753981e-06
   194    3.905538176507e-16
   195   -3.240096155673e-16
   196    5.058185663011e-05
   197   -3.306994891089e-05
   198   -1.998279572987e-06
   199   -9.287461268561e-05
   200   -8.214773843070e-05
   201   -3.327506155465e-04
   202    2.224665747368e-05
   203   -1.309018060476e-05
   204    3.075460143581e-16
Sym=X
Ene= 0.002715
Spin=Alpha
Occup=0
     1    5.233326348434e-03
     2    8.940196073296e-03
     3   -2.445542460459e-02
     4   -1.318366979479e-02
     5   -2.925894563774e-15
     6   -2.553791293300e-02
     7   -4.026328210398e-02
     8   -2.114047536494e-02
     9   -1.776931892340e-16
    10   -7.567584097578e-02
    11   -4.002228423168e-02
    12   -6.072234299496e-02
    13   -1.017023859348e-14
    14   -3.331872614839e-01
    15   -9.700894836128e-02
    16   -9.505982421996e-02
    17    6.873678203692e-14
    18    5.486471265581e-05
    19   -1.467828202875e-15
    20    1.541399158952e-15
    21   -4.904949051740e-03
    22    2.377262463214e-03
    23    2.067351351251e-04
    24    2.988306859719e-03
    25    2.214998223698e-02
    26    4.117239263200e-03
    27    6.479087250894e-05
    28    6.629140892737e-04
    29    3.331477977851e-15
    30    1.173167041168e-02
    31    1.320765718148e-02
    32    1.224028857464e-03
    33   -4.202258583525e-02
    34   -1.441787108722e-03
    35   -4.337592896123e-04
    36    4.571851959170e-15
    37   -3.176211868690e-04
    38    7.431110256915e-03
    39   -1.010345148690e-02
    40   -5.537729541157e-02
    41    1.424078863828e-03
    42    5.476134031700e-04
    43    2.403521773567e-15
    44   -6.873484609982e-03
    45   -1.178741607221e-02
    46    2.555851288743e-02
    47    5.950933985861e-03
    48   -2.084378176978e-16
    49    3.302502071639e-02
    50    4.301621921289e-02
    51    1.122491139007e-02
    52    4.168125451220e-15
    53    8.935678358497e-02
    54    3.857734303140e-02
    55   -2.249313835083e-02
    56    1.773768205837e-14
    57    5.720840583699e-02
    58    3.304185854937e-03
    59    1.586863981102e-03
    60   -9.744733902878e-15
    61   -2.501794982687e-04
    62    5.213092537208e-15
    63   -1.232609292829e-14
    64    8.823413131979e-03
    65    1.185023249278e-02
    66    1.047490959893e-03
    67    1.774338559319e-03
    68   -3.235303753314e-02
    69   -2.576277074782e-02
    70   -1.244550757557e-14
    71   -5.568764392814e-03
    72   -4.784594669640e-02
    73   -3.960477440417e-02
    74   -4.177869992211e-15
    75    5.913384090460e-04
    76   -4.767045529403e-02
    77   -4.430441286700e-02
    78    6.942232093667e-15
    79    2.064123608198e-02
    80    1.454532965836e-03
    81   -8.407507174193e-03
    82   -1.599914571030e-14
    83    4.554684247282e-04
    84   -9.291738782900e-16
    85   -1.759847889409e-15
    86   -1.697474312269e-03
    87    9.677830098096e-05
    88   -4.009762097112e-03
    89   -7.148158990646e-03
    90    7.301961201207e-03
    91   -2.448442132151e-02
    92    1.191466375763e-16
    93    2.283018830715e-02
    94    1.256854932811e-02
    95   -4.885024262463e-02
    96   -2.097736390475e-15
    97   -1.359423970742e-02
    98   -8.134126024855e-02
    99    1.561045494446e-01
   100   -1.105235964109e-14
   101   -3.589971840284e-01
   102   -6.717412107160e-02
   103    2.101135120601e-01
   104    8.499577822834e-14
   105    1.627168614697e-03
   106   -2.368534008205e-15
   107    1.545359648009e-16
   108   -4.983794439005e-02
   109    2.441073691042e-02
   110   -3.413177046565e-05
   111   -1.987623993044e-05
   112   -1.943971841239e-01
   113    2.657409945304e-01
   114    6.441642411363e-15
   115   -5.715630286355e-04
   116   -2.419456710238e-01
   117    3.308720998642e-01
   118   -1.393398597617e-14
   119   -2.247160191600e-03
   120   -2.109719471919e-01
   121    2.841741779168e-01
   122    2.004023408797e-14
   123   -1.030855190473e-02
   124   -2.426412544500e-02
   125    4.279954940718e-02
   126   -2.049815394235e-14
   127   -2.382898977425e-04
   128   -7.383365824453e-16
   129    2.064030577936e-15
   130    1.220429627692e-02
   131   -4.182102080283e-03
   132    1.382622623159e-02
   133    2.330931733521e-02
   134   -6.106247659470e-02
   135    1.372521257451e-02
   136   -1.435727157281e-15
   137   -6.407738186764e-02
   138   -9.282009392964e-02
   139    1.612007860808e-02
   140   -1.495418194902e-16
   141   -1.870852152009e-01
   142   -1.092189413136e-01
   143    4.529192167090e-02
   144    4.553241980773e-15
   145   -2.068062169460e-01
   146    4.014341342788e-02
   147    6.603342228702e-02
   148   -1.555712560994e-14
   149   -4.151055867219e-04
   150   -4.670148887572e-16
   151    1.828788074204e-15
   152    8.217937104248e-04
   153    1.710066339803e-03
   154    3.629323131893e-03
   155    6.107528887535e-03
   156    9.380595763228e-04
   157   -8.753565794945e-03
   158    1.538604780781e-16
   159   -1.706086779422e-02
   160    1.831736453408e-03
   161   -1.246247686491e-02
   162   -2.034410280691e-15
   163   -4.693751175299e-02
   164    1.150206074255e-02
   165   -2.799392755046e-02
   166    3.082841540334e-15
   167    2.371866187011e-02
   168    2.866088296540e-02
   169    4.632547030402e-02
   170   -2.097154048922e-14
   171   -5.418287190277e-04
   172    2.590336056067e-16
   173    1.787779752303e-15
   174   -2.656284296063e-03
   175    3.351587025440e-04
   176   -1.293937545826e-02
   177   -2.133666868923e-02
   178    1.408773399867e-02
   179    5.008244943279e-02
   180    3.014409484415e-15
   181    5.307166186733e-02
   182    2.589218190611e-02
   183    7.081111330615e-02
   184   -5.414801236819e-15
   185    2.885396434321e-01
   186   -1.628342652757e-02
   187    1.338693170801e-01
   188    1.617079805912e-14
   189    7.824024704098e-01
   190   -1.070830500256e-01
   191    7.438636850606e-02
   192   -1.094730549056e-13
   193    4.175702404078e-03
   194    8.293820306501e-16
   195    5.212091450690e-15
   196    1.333969147517e-04
   197   -4.067557907604e-04
   198    8.398404125038e-04
   199   -2.515245155753e-03
   200    1.472473228591e-02
   201    3.989598971865e-02
   202   -8.106823166689e-04
   203   -1.162234060120e-03
   204   -3.884476937483e-15
[5D]
