[Molden Format]
[Atoms] (Angs)
  C      1    6     -0.00754183     -1.75895763      0.00000000
  H      2    1     -2.09769850     -1.41880678     -0.00000000
  H      3    1     -0.13527422     -2.83956838     -0.00000000
  H      4    1      0.04053511      2.02026369      0.00000000
  C      5    6     -1.22066484      0.39918184     -0.00000000
  O      6    8     -2.25210141      1.05663720     -0.00000000
  C      7    6      1.24009552      0.27789184      0.00000000
  O      8    8      2.33767996      1.06122493      0.00000000
  N      9    7      0.03634586      1.00852936      0.00000000
  N     10    7     -1.18738304     -0.97903470     -0.00000000
  C     11    6      1.22288875     -1.12258096      0.00000000
  H     12    1      2.15640383     -1.68445878      0.00000000
[GTO]
1    0
S    6    1.000000
   4.56324000E+03    1.96665000E-03 
   6.82024000E+02    1.52306000E-02 
   1.54973000E+02    7.61269000E-02 
   4.44553000E+01    2.60801000E-01 
   1.30290000E+01    6.16462000E-01 
   1.82773000E+00    2.21006000E-01 
SP   3    1.000000
   2.09642000E+01    1.14660000E-01   4.02487000E-02 
   4.80331000E+00    9.19999000E-01   2.37594000E-01 
   1.45933000E+00   -3.03068000E-03   8.15854000E-01 
SP   1    1.000000
   4.83456000E-01    1.00000000E+00   1.00000000E+00 
SP   1    1.000000
   1.45585000E-01    1.00000000E+00   1.00000000E+00 
SP   1    1.000000
   4.38000000E-02    1.00000000E+00   1.00000000E+00 
D    1    1.000000
   6.26000000E-01    1.00000000E+00 

2    0
S    3    1.000000
   3.38650000E+01    2.54938000E-02 
   5.09479000E+00    1.90373000E-01 
   1.15879000E+00    8.52161000E-01 
S    1    1.000000
   3.25840000E-01    1.00000000E+00 
S    1    1.000000
   1.02741000E-01    1.00000000E+00 
S    1    1.000000
   3.60000000E-02    1.00000000E+00 
P    1    1.000000
   7.50000000E-01    1.00000000E+00 

3    0
S    3    1.000000
   3.38650000E+01    2.54938000E-02 
   5.09479000E+00    1.90373000E-01 
   1.15879000E+00    8.52161000E-01 
S    1    1.000000
   3.25840000E-01    1.00000000E+00 
S    1    1.000000
   1.02741000E-01    1.00000000E+00 
S    1    1.000000
   3.60000000E-02    1.00000000E+00 
P    1    1.000000
   7.50000000E-01    1.00000000E+00 

4    0
S    3    1.000000
   3.38650000E+01    2.54938000E-02 
   5.09479000E+00    1.90373000E-01 
   1.15879000E+00    8.52161000E-01 
S    1    1.000000
   3.25840000E-01    1.00000000E+00 
S    1    1.000000
   1.02741000E-01    1.00000000E+00 
S    1    1.000000
   3.60000000E-02    1.00000000E+00 
P    1    1.000000
   7.50000000E-01    1.00000000E+00 

5    0
S    6    1.000000
   4.56324000E+03    1.96665000E-03 
   6.82024000E+02    1.52306000E-02 
   1.54973000E+02    7.61269000E-02 
   4.44553000E+01    2.60801000E-01 
   1.30290000E+01    6.16462000E-01 
   1.82773000E+00    2.21006000E-01 
SP   3    1.000000
   2.09642000E+01    1.14660000E-01   4.02487000E-02 
   4.80331000E+00    9.19999000E-01   2.37594000E-01 
   1.45933000E+00   -3.03068000E-03   8.15854000E-01 
SP   1    1.000000
   4.83456000E-01    1.00000000E+00   1.00000000E+00 
SP   1    1.000000
   1.45585000E-01    1.00000000E+00   1.00000000E+00 
SP   1    1.000000
   4.38000000E-02    1.00000000E+00   1.00000000E+00 
D    1    1.000000
   6.26000000E-01    1.00000000E+00 

6    0
S    6    1.000000
   8.58850000E+03    1.89515000E-03 
   1.29723000E+03    1.43859000E-02 
   2.99296000E+02    7.07320000E-02 
   8.73771000E+01    2.40001000E-01 
   2.56789000E+01    5.94797000E-01 
   3.74004000E+00    2.80802000E-01 
SP   3    1.000000
   4.21175000E+01    1.13889000E-01   3.65114000E-02 
   9.62837000E+00    9.20811000E-01   2.37153000E-01 
   2.85332000E+00   -3.27447000E-03   8.19702000E-01 
SP   1    1.000000
   9.05661000E-01    1.00000000E+00   1.00000000E+00 
SP   1    1.000000
   2.55611000E-01    1.00000000E+00   1.00000000E+00 
SP   1    1.000000
   8.45000000E-02    1.00000000E+00   1.00000000E+00 
D    1    1.000000
   1.29200000E+00    1.00000000E+00 

7    0
S    6    1.000000
   4.56324000E+03    1.96665000E-03 
   6.82024000E+02    1.52306000E-02 
   1.54973000E+02    7.61269000E-02 
   4.44553000E+01    2.60801000E-01 
   1.30290000E+01    6.16462000E-01 
   1.82773000E+00    2.21006000E-01 
SP   3    1.000000
   2.09642000E+01    1.14660000E-01   4.02487000E-02 
   4.80331000E+00    9.19999000E-01   2.37594000E-01 
   1.45933000E+00   -3.03068000E-03   8.15854000E-01 
SP   1    1.000000
   4.83456000E-01    1.00000000E+00   1.00000000E+00 
SP   1    1.000000
   1.45585000E-01    1.00000000E+00   1.00000000E+00 
SP   1    1.000000
   4.38000000E-02    1.00000000E+00   1.00000000E+00 
D    1    1.000000
   6.26000000E-01    1.00000000E+00 

8    0
S    6    1.000000
   8.58850000E+03    1.89515000E-03 
   1.29723000E+03    1.43859000E-02 
   2.99296000E+02    7.07320000E-02 
   8.73771000E+01    2.40001000E-01 
   2.56789000E+01    5.94797000E-01 
   3.74004000E+00    2.80802000E-01 
SP   3    1.000000
   4.21175000E+01    1.13889000E-01   3.65114000E-02 
   9.62837000E+00    9.20811000E-01   2.37153000E-01 
   2.85332000E+00   -3.27447000E-03   8.19702000E-01 
SP   1    1.000000
   9.05661000E-01    1.00000000E+00   1.00000000E+00 
SP   1    1.000000
   2.55611000E-01    1.00000000E+00   1.00000000E+00 
SP   1    1.000000
   8.45000000E-02    1.00000000E+00   1.00000000E+00 
D    1    1.000000
   1.29200000E+00    1.00000000E+00 

9    0
S    6    1.000000
   6.29348000E+03    1.96979000E-03 
   9.49044000E+02    1.49613000E-02 
   2.18776000E+02    7.35006000E-02 
   6.36916000E+01    2.48937000E-01 
   1.88282000E+01    6.02460000E-01 
   2.72023000E+00    2.56202000E-01 
SP   3    1.000000
   3.06331000E+01    1.11906000E-01   3.83119000E-02 
   7.02614000E+00    9.21666000E-01   2.37403000E-01 
   2.11205000E+00   -2.56919000E-03   8.17592000E-01 
SP   1    1.000000
   6.84009000E-01    1.00000000E+00   1.00000000E+00 
SP   1    1.000000
   2.00878000E-01    1.00000000E+00   1.00000000E+00 
SP   1    1.000000
   6.39000000E-02    1.00000000E+00   1.00000000E+00 
D    1    1.000000
   9.13000000E-01    1.00000000E+00 

10    0
S    6    1.000000
   6.29348000E+03    1.96979000E-03 
   9.49044000E+02    1.49613000E-02 
   2.18776000E+02    7.35006000E-02 
   6.36916000E+01    2.48937000E-01 
   1.88282000E+01    6.02460000E-01 
   2.72023000E+00    2.56202000E-01 
SP   3    1.000000
   3.06331000E+01    1.11906000E-01   3.83119000E-02 
   7.02614000E+00    9.21666000E-01   2.37403000E-01 
   2.11205000E+00   -2.56919000E-03   8.17592000E-01 
SP   1    1.000000
   6.84009000E-01    1.00000000E+00   1.00000000E+00 
SP   1    1.000000
   2.00878000E-01    1.00000000E+00   1.00000000E+00 
SP   1    1.000000
   6.39000000E-02    1.00000000E+00   1.00000000E+00 
D    1    1.000000
   9.13000000E-01    1.00000000E+00 

11    0
S    6    1.000000
   4.56324000E+03    1.96665000E-03 
   6.82024000E+02    1.52306000E-02 
   1.54973000E+02    7.61269000E-02 
   4.44553000E+01    2.60801000E-01 
   1.30290000E+01    6.16462000E-01 
   1.82773000E+00    2.21006000E-01 
SP   3    1.000000
   2.09642000E+01    1.14660000E-01   4.02487000E-02 
   4.80331000E+00    9.19999000E-01   2.37594000E-01 
   1.45933000E+00   -3.03068000E-03   8.15854000E-01 
SP   1    1.000000
   4.83456000E-01    1.00000000E+00   1.00000000E+00 
SP   1    1.000000
   1.45585000E-01    1.00000000E+00   1.00000000E+00 
SP   1    1.000000
   4.38000000E-02    1.00000000E+00   1.00000000E+00 
D    1    1.000000
   6.26000000E-01    1.00000000E+00 

12    0
S    3    1.000000
   3.38650000E+01    2.54938000E-02 
   5.09479000E+00    1.90373000E-01 
   1.15879000E+00    8.52161000E-01 
S    1    1.000000
   3.25840000E-01    1.00000000E+00 
S    1    1.000000
   1.02741000E-01    1.00000000E+00 
S    1    1.000000
   3.60000000E-02    1.00000000E+00 
P    1    1.000000
   7.50000000E-01    1.00000000E+00 

[MO]
Sym=X
Ene= -0.002262
Spin=Alpha
Occup=1
     1    3.157387317457e-07
     2   -4.674828594055e-08
     3    3.870926175649e-06
     4   -4.532109402119e-06
     5    4.651433393922e-16
     6   -1.754996591153e-06
     7   -1.890744921887e-05
     8    1.779501389728e-05
     9   -8.517766429910e-16
    10    2.225717248846e-04
    11   -6.802733038699e-05
    12   -6.589798112228e-06
    13    2.165059982123e-16
    14   -4.610779043603e-04
    15   -5.623682298607e-04
    16   -9.510098658816e-05
    17   -7.017466952780e-15
    18   -2.432900291184e-06
    19   -1.414740087741e-16
    20    5.560985101500e-16
    21   -3.319421328367e-06
    22   -4.601409415273e-06
    23   -4.037176204739e-06
    24   -4.438609796397e-05
    25   -1.180055367984e-04
    26   -2.650160495951e-04
    27   -9.141779529818e-06
    28    8.547642590754e-06
    29   -7.109843791896e-16
    30    4.322201949048e-06
    31   -3.034506592369e-05
    32    6.592444921253e-06
    33   -5.691896288282e-05
    34    1.965718661889e-06
    35   -3.785451876768e-06
    36    1.176621253786e-15
    37   -3.112910739872e-06
    38   -5.940466903750e-05
    39   -6.280141187934e-05
    40   -3.147606592588e-04
    41   -1.082569500854e-05
    42    7.058719921306e-06
    43   -4.714698160213e-16
    44   -4.678878160919e-06
    45    7.629772483457e-05
    46    5.663314095368e-05
    47   -3.518030477494e-05
    48   -1.845475547215e-15
    49   -2.972110759231e-04
    50    3.584618092539e-04
    51   -2.266884710718e-04
    52    2.816501690506e-15
    53    7.678576176918e-05
    54    4.054383617739e-04
    55   -2.943001483120e-04
    56   -4.596863268654e-15
    57   -4.265131457308e-04
    58   -5.959986710511e-04
    59    4.597522323686e-04
    60   -1.626130188195e-15
    61    5.770549601450e-05
    62   -8.331912271948e-16
    63    7.786668263556e-17
    64   -9.120095095371e-05
    65    1.842591054346e-04
    66   -5.514860827519e-01
    67   -4.716797043446e-01
    68   -1.521176613366e-03
    69    1.016800566253e-03
    70   -8.385807172317e-16
    71   -5.502178675223e-03
    72    6.212726244342e-04
    73   -4.215121349720e-04
    74    7.195653062167e-16
    75    1.282515379690e-03
    76   -1.388185956814e-04
    77    1.125479769670e-04
    78   -7.468447190339e-16
    79   -1.468893245603e-03
    80   -7.307076845885e-05
    81    1.127794125017e-05
    82    1.138361720609e-15
    83    8.405639954129e-05
    84   -1.286969382535e-16
    85    1.098152313792e-15
    86    3.158872671961e-05
    87   -8.181866094160e-05
    88    3.958130286223e-07
    89   -5.702151366191e-07
    90    3.834425189356e-06
    91   -2.653074839072e-06
    92    7.593431677312e-16
    93    4.805864013016e-06
    94   -1.654881812131e-05
    95    1.442057768253e-05
    96    1.741397686305e-16
    97    1.785988486855e-04
    98   -5.660700534243e-05
    99    5.025979933847e-05
   100   -6.898490649106e-16
   101   -1.031415569664e-03
   102   -8.051486510826e-05
   103    7.580425108534e-04
   104   -2.808051301233e-15
   105   -2.262939148798e-06
   106    3.156732336303e-16
   107    3.085819772472e-16
   108    6.035596340317e-06
   109   -3.349433067825e-07
   110   -2.716607439247e-05
   111   -2.414268021809e-05
   112   -2.769959556785e-07
   113    6.186994545925e-07
   114   -8.921929671091e-16
   115    8.588352653052e-06
   116   -9.518061312114e-07
   117   -2.053790279816e-06
   118    2.180397314853e-15
   119   -4.723083993338e-05
   120    1.525268322863e-05
   121    1.203063681448e-05
   122   -1.675731794812e-15
   123    1.603444491505e-04
   124   -8.757036491378e-05
   125   -6.079637247785e-05
   126    6.769081855563e-16
   127   -2.428588664608e-07
   128    2.652597935983e-16
   129   -1.602449815066e-16
   130   -8.725427812930e-07
   131   -6.789031128165e-07
   132   -2.900090104046e-07
   133   -1.369702797822e-06
   134   -1.135502512901e-05
   135   -3.040964429813e-07
   136    3.928822098387e-16
   137    2.411412454151e-05
   138    3.047525479300e-05
   139   -1.386307235735e-07
   140   -1.809151985263e-15
   141   -2.325562651857e-04
   142   -4.618761469680e-05
   143    2.311397176245e-04
   144    3.517832849397e-15
   145    6.646278103305e-05
   146   -5.336503838582e-04
   147    1.979618688568e-05
   148    1.183660641510e-15
   149    6.986638319045e-06
   150    2.376965884514e-16
   151    1.134414030950e-15
   152   -2.092403482757e-05
   153   -9.564065471787e-06
   154   -4.205373741540e-07
   155   -1.374758336353e-06
   156   -5.643447272815e-06
   157    1.004153640801e-05
   158   -8.895576871454e-16
   159    2.589237848368e-05
   160    1.886834590153e-05
   161   -2.895920982608e-05
   162    2.140448125159e-16
   163   -2.749895393192e-04
   164   -2.164983839344e-04
   165   -7.660839652062e-05
   166    9.202633567887e-16
   167    5.594589744353e-05
   168   -3.149391623499e-04
   169    3.387188257657e-04
   170    5.383788857818e-15
   171    8.333716381085e-06
   172   -2.019951845456e-16
   173   -3.196595386328e-16
   174    2.046339777471e-05
   175    1.299627582432e-05
   176   -1.138087437605e-07
   177    5.918023230732e-07
   178   -1.834882919952e-06
   179    6.120497165915e-07
   180    8.720559907252e-17
   181   -9.529205440072e-06
   182    9.667276787143e-06
   183   -3.280957443634e-06
   184    1.300452624292e-15
   185    4.245892726132e-05
   186   -4.113348293159e-05
   187    2.210392850426e-05
   188   -2.872107250213e-15
   189    2.953002572688e-03
   190   -4.373546327777e-04
   191    3.051047228278e-04
   192    7.357095753436e-15
   193   -3.617468675561e-06
   194    4.825438049881e-16
   195    4.861820819311e-17
   196   -2.022511790399e-06
   197    2.655134963322e-06
   198   -9.551954814756e-07
   199    7.948582728566e-06
   200    1.589920878702e-05
   201    1.541303830043e-04
   202    1.781658933422e-07
   203   -3.018930595610e-07
   204    9.816550123441e-16
Sym=X
Ene= 0.002262
Spin=Alpha
Occup=0
     1    5.047545591872e-03
     2    8.793926253380e-03
     3   -1.335334271800e-02
     4   -3.434715427531e-03
     5   -4.670031559711e-15
     6   -2.593335528575e-02
     7   -2.452507547868e-02
     8   -7.738740320603e-03
     9    3.455585166842e-16
    10   -1.002944441356e-01
    11   -3.729241129516e-02
    12   -5.197961688498e-02
    13   -1.363786608500e-14
    14   -2.866522085268e-01
    15   -9.234567478516e-02
    16   -7.826916573604e-02
    17    1.782292285778e-13
    18    6.387005262084e-04
    19   -4.320970943149e-16
    20    4.136120413043e-15
    21   -3.589074810918e-03
    22    3.746350403428e-03
    23    1.639514600293e-03
    24    3.376263255897e-03
    25    2.636338422756e-02
    26    1.938976768650e-02
    27    1.097561042594e-05
    28    1.775424514212e-04
    29    1.406110632227e-15
    30    4.601770326965e-03
    31    4.107441495957e-03
    32    3.834509622442e-03
    33   -4.021556780904e-02
    34   -1.667477213807e-03
    35   -1.390725980499e-03
    36    1.705475650310e-16
    37   -2.517917274342e-03
    38    4.314119116068e-03
    39   -2.764862437509e-02
    40   -9.112440814066e-02
    41    1.779726848904e-03
    42    2.363860857686e-04
    43   -3.886449708514e-15
    44   -9.396563973307e-03
    45   -1.644645164261e-02
    46    2.790717870318e-02
    47    1.180392181148e-02
    48    2.649407260118e-15
    49    5.000553417720e-02
    50    4.635100275556e-02
    51    2.175804720449e-02
    52   -1.382551194691e-14
    53    1.269216858224e-01
    54    6.144677344086e-02
    55    9.692326211701e-03
    56    1.267591416904e-13
    57    4.199759078329e-02
    58    1.287126516179e-02
    59    4.014342410331e-02
    60    6.174471444608e-14
    61    7.558208452827e-04
    62    1.644497652731e-15
    63    3.559313652105e-15
    64   -1.463640151546e-03
    65    8.135463734049e-03
    66    2.616220859545e-03
    67    4.609639037849e-03
    68   -2.901532685493e-02
    69   -1.140231307840e-02
    70   -1.609691907779e-15
    71   -1.659681497691e-02
    72   -3.558851324778e-02
    73   -1.478701745227e-02
    74   -1.315410901900e-16
    75   -9.701058041822e-03
    76   -2.990668250800e-02
    77   -1.889758179165e-02
    78   -1.385719871670e-14
    79    2.810388501740e-02
    80    6.747202024800e-03
    81   -8.183245130258e-03
    82   -1.080450652378e-13
    83    1.095497384063e-04
    84    1.018107386323e-15
    85   -2.311782954748e-15
    86    4.584222308341e-04
    87    1.096179418417e-03
    88   -1.829691928629e-03
    89   -3.726193821177e-03
    90    2.009412858676e-03
    91   -3.897861999612e-03
    92   -5.760295580834e-15
    93    1.134144280658e-02
    94    2.978161752532e-03
    95   -2.111802724401e-02
    96   -9.448078034066e-15
    97    1.179906360598e-02
    98   -1.004661395153e-01
    99    1.777422816981e-01
   100    1.293208085323e-14
   101   -3.488733747786e-01
   102   -1.012786948845e-01
   103    2.631671173261e-01
   104    2.388618711330e-14
   105    4.977082237488e-03
   106   -5.904777741525e-16
   107    1.812981710122e-15
   108   -5.229232555588e-02
   109    2.449502552168e-02
   110   -1.386548806047e-03
   111   -2.354478305256e-03
   112   -1.581573900203e-01
   113    2.117501385610e-01
   114   -2.091257265792e-15
   115    7.353543274637e-03
   116   -2.367583705686e-01
   117    3.155039719995e-01
   118    2.097357254132e-15
   119    1.725885044100e-03
   120   -2.421339756992e-01
   121    3.291645807382e-01
   122   -3.320766672532e-14
   123   -2.934968742087e-02
   124   -3.232256815005e-02
   125    5.942926822287e-02
   126    7.811791422606e-14
   127   -1.814822950467e-04
   128   -1.958313203408e-15
   129    2.737522528936e-15
   130    1.129388842737e-02
   131   -2.925265740787e-03
   132    1.899281833797e-02
   133    3.191576420832e-02
   134   -5.481756327659e-02
   135    1.728112783151e-02
   136   -4.239833679705e-15
   137   -8.728024749833e-02
   138   -7.873262533004e-02
   139    1.894648699104e-02
   140   -3.576353444041e-15
   141   -2.607778491941e-01
   142   -1.013680192034e-01
   143    6.910314699403e-02
   144   -3.357184932838e-14
   145   -3.095202971503e-01
   146    7.459482419425e-02
   147    1.032446544467e-01
   148   -5.555740252873e-15
   149   -2.528446318498e-03
   150   -9.266654862318e-16
   151   -5.979948345342e-16
   152    6.144905795503e-03
   153    8.421840475295e-04
   154    2.336492243178e-03
   155    3.976378373936e-03
   156   -1.446813067471e-03
   157   -3.180360059231e-03
   158    7.839624604881e-16
   159   -1.118406217127e-02
   160   -2.046875030266e-03
   161   -5.402253035725e-03
   162    2.991637231124e-15
   163   -3.039378905701e-02
   164    5.393250872725e-03
   165   -1.624946292452e-02
   166   -1.686376228795e-14
   167    8.016448046224e-02
   168    3.816547342249e-02
   169    6.644956735519e-02
   170   -9.429285432480e-14
   171    4.259898457473e-05
   172    1.619760158294e-16
   173   -3.337585211492e-16
   174   -1.553432687568e-03
   175    1.294740026925e-03
   176   -1.625496916580e-02
   177   -2.687455491522e-02
   178    8.474522943980e-03
   179    3.674730041425e-02
   180    7.296128479842e-15
   181    6.668759477160e-02
   182    1.737964800347e-02
   183    4.601706961186e-02
   184   -5.694470308605e-15
   185    3.279909486189e-01
   186   -3.351549044286e-02
   187    1.329720289066e-01
   188    2.719394315786e-14
   189    7.640538331771e-01
   190   -1.056313638548e-01
   191    8.015509310078e-02
   192   -2.081526677066e-13
   193    2.887253579130e-03
   194    4.848683982889e-16
   195   -2.581797592740e-15
   196    5.677767723574e-03
   197   -3.109724712661e-03
   198    7.003581651942e-03
   199    9.090187431809e-03
   200    3.787419388113e-02
   201    5.657808770728e-02
   202   -1.156160917009e-03
   203   -1.543797814712e-03
   204   -2.156186803198e-15
[5D]
