[Molden Format]
[Atoms] (Angs)
  C      1    6     -0.00754183     -1.75895763      0.00000000
  H      2    1     -2.09769850     -1.41880678     -0.00000000
  H      3    1     -0.13527422     -2.83956838     -0.00000000
  H      4    1      0.04053511      2.02026369      0.00000000
  C      5    6     -1.22066484      0.39918184     -0.00000000
  O      6    8     -2.25210141      1.05663720     -0.00000000
  C      7    6      1.24009552      0.27789184      0.00000000
  O      8    8      2.33767996      1.06122493      0.00000000
  N      9    7      0.03634586      1.00852936      0.00000000
  N     10    7     -1.18738304     -0.97903470     -0.00000000
  C     11    6      1.22288875     -1.12258096      0.00000000
  H     12    1      2.15640383     -1.68445878      0.00000000
[GTO]
1    0
S    6    1.000000
   4.56324000E+03    1.96665000E-03 
   6.82024000E+02    1.52306000E-02 
   1.54973000E+02    7.61269000E-02 
   4.44553000E+01    2.60801000E-01 
   1.30290000E+01    6.16462000E-01 
   1.82773000E+00    2.21006000E-01 
SP   3    1.000000
   2.09642000E+01    1.14660000E-01   4.02487000E-02 
   4.80331000E+00    9.19999000E-01   2.37594000E-01 
   1.45933000E+00   -3.03068000E-03   8.15854000E-01 
SP   1    1.000000
   4.83456000E-01    1.00000000E+00   1.00000000E+00 
SP   1    1.000000
   1.45585000E-01    1.00000000E+00   1.00000000E+00 
SP   1    1.000000
   4.38000000E-02    1.00000000E+00   1.00000000E+00 
D    1    1.000000
   6.26000000E-01    1.00000000E+00 

2    0
S    3    1.000000
   3.38650000E+01    2.54938000E-02 
   5.09479000E+00    1.90373000E-01 
   1.15879000E+00    8.52161000E-01 
S    1    1.000000
   3.25840000E-01    1.00000000E+00 
S    1    1.000000
   1.02741000E-01    1.00000000E+00 
S    1    1.000000
   3.60000000E-02    1.00000000E+00 
P    1    1.000000
   7.50000000E-01    1.00000000E+00 

3    0
S    3    1.000000
   3.38650000E+01    2.54938000E-02 
   5.09479000E+00    1.90373000E-01 
   1.15879000E+00    8.52161000E-01 
S    1    1.000000
   3.25840000E-01    1.00000000E+00 
S    1    1.000000
   1.02741000E-01    1.00000000E+00 
S    1    1.000000
   3.60000000E-02    1.00000000E+00 
P    1    1.000000
   7.50000000E-01    1.00000000E+00 

4    0
S    3    1.000000
   3.38650000E+01    2.54938000E-02 
   5.09479000E+00    1.90373000E-01 
   1.15879000E+00    8.52161000E-01 
S    1    1.000000
   3.25840000E-01    1.00000000E+00 
S    1    1.000000
   1.02741000E-01    1.00000000E+00 
S    1    1.000000
   3.60000000E-02    1.00000000E+00 
P    1    1.000000
   7.50000000E-01    1.00000000E+00 

5    0
S    6    1.000000
   4.56324000E+03    1.96665000E-03 
   6.82024000E+02    1.52306000E-02 
   1.54973000E+02    7.61269000E-02 
   4.44553000E+01    2.60801000E-01 
   1.30290000E+01    6.16462000E-01 
   1.82773000E+00    2.21006000E-01 
SP   3    1.000000
   2.09642000E+01    1.14660000E-01   4.02487000E-02 
   4.80331000E+00    9.19999000E-01   2.37594000E-01 
   1.45933000E+00   -3.03068000E-03   8.15854000E-01 
SP   1    1.000000
   4.83456000E-01    1.00000000E+00   1.00000000E+00 
SP   1    1.000000
   1.45585000E-01    1.00000000E+00   1.00000000E+00 
SP   1    1.000000
   4.38000000E-02    1.00000000E+00   1.00000000E+00 
D    1    1.000000
   6.26000000E-01    1.00000000E+00 

6    0
S    6    1.000000
   8.58850000E+03    1.89515000E-03 
   1.29723000E+03    1.43859000E-02 
   2.99296000E+02    7.07320000E-02 
   8.73771000E+01    2.40001000E-01 
   2.56789000E+01    5.94797000E-01 
   3.74004000E+00    2.80802000E-01 
SP   3    1.000000
   4.21175000E+01    1.13889000E-01   3.65114000E-02 
   9.62837000E+00    9.20811000E-01   2.37153000E-01 
   2.85332000E+00   -3.27447000E-03   8.19702000E-01 
SP   1    1.000000
   9.05661000E-01    1.00000000E+00   1.00000000E+00 
SP   1    1.000000
   2.55611000E-01    1.00000000E+00   1.00000000E+00 
SP   1    1.000000
   8.45000000E-02    1.00000000E+00   1.00000000E+00 
D    1    1.000000
   1.29200000E+00    1.00000000E+00 

7    0
S    6    1.000000
   4.56324000E+03    1.96665000E-03 
   6.82024000E+02    1.52306000E-02 
   1.54973000E+02    7.61269000E-02 
   4.44553000E+01    2.60801000E-01 
   1.30290000E+01    6.16462000E-01 
   1.82773000E+00    2.21006000E-01 
SP   3    1.000000
   2.09642000E+01    1.14660000E-01   4.02487000E-02 
   4.80331000E+00    9.19999000E-01   2.37594000E-01 
   1.45933000E+00   -3.03068000E-03   8.15854000E-01 
SP   1    1.000000
   4.83456000E-01    1.00000000E+00   1.00000000E+00 
SP   1    1.000000
   1.45585000E-01    1.00000000E+00   1.00000000E+00 
SP   1    1.000000
   4.38000000E-02    1.00000000E+00   1.00000000E+00 
D    1    1.000000
   6.26000000E-01    1.00000000E+00 

8    0
S    6    1.000000
   8.58850000E+03    1.89515000E-03 
   1.29723000E+03    1.43859000E-02 
   2.99296000E+02    7.07320000E-02 
   8.73771000E+01    2.40001000E-01 
   2.56789000E+01    5.94797000E-01 
   3.74004000E+00    2.80802000E-01 
SP   3    1.000000
   4.21175000E+01    1.13889000E-01   3.65114000E-02 
   9.62837000E+00    9.20811000E-01   2.37153000E-01 
   2.85332000E+00   -3.27447000E-03   8.19702000E-01 
SP   1    1.000000
   9.05661000E-01    1.00000000E+00   1.00000000E+00 
SP   1    1.000000
   2.55611000E-01    1.00000000E+00   1.00000000E+00 
SP   1    1.000000
   8.45000000E-02    1.00000000E+00   1.00000000E+00 
D    1    1.000000
   1.29200000E+00    1.00000000E+00 

9    0
S    6    1.000000
   6.29348000E+03    1.96979000E-03 
   9.49044000E+02    1.49613000E-02 
   2.18776000E+02    7.35006000E-02 
   6.36916000E+01    2.48937000E-01 
   1.88282000E+01    6.02460000E-01 
   2.72023000E+00    2.56202000E-01 
SP   3    1.000000
   3.06331000E+01    1.11906000E-01   3.83119000E-02 
   7.02614000E+00    9.21666000E-01   2.37403000E-01 
   2.11205000E+00   -2.56919000E-03   8.17592000E-01 
SP   1    1.000000
   6.84009000E-01    1.00000000E+00   1.00000000E+00 
SP   1    1.000000
   2.00878000E-01    1.00000000E+00   1.00000000E+00 
SP   1    1.000000
   6.39000000E-02    1.00000000E+00   1.00000000E+00 
D    1    1.000000
   9.13000000E-01    1.00000000E+00 

10    0
S    6    1.000000
   6.29348000E+03    1.96979000E-03 
   9.49044000E+02    1.49613000E-02 
   2.18776000E+02    7.35006000E-02 
   6.36916000E+01    2.48937000E-01 
   1.88282000E+01    6.02460000E-01 
   2.72023000E+00    2.56202000E-01 
SP   3    1.000000
   3.06331000E+01    1.11906000E-01   3.83119000E-02 
   7.02614000E+00    9.21666000E-01   2.37403000E-01 
   2.11205000E+00   -2.56919000E-03   8.17592000E-01 
SP   1    1.000000
   6.84009000E-01    1.00000000E+00   1.00000000E+00 
SP   1    1.000000
   2.00878000E-01    1.00000000E+00   1.00000000E+00 
SP   1    1.000000
   6.39000000E-02    1.00000000E+00   1.00000000E+00 
D    1    1.000000
   9.13000000E-01    1.00000000E+00 

11    0
S    6    1.000000
   4.56324000E+03    1.96665000E-03 
   6.82024000E+02    1.52306000E-02 
   1.54973000E+02    7.61269000E-02 
   4.44553000E+01    2.60801000E-01 
   1.30290000E+01    6.16462000E-01 
   1.82773000E+00    2.21006000E-01 
SP   3    1.000000
   2.09642000E+01    1.14660000E-01   4.02487000E-02 
   4.80331000E+00    9.19999000E-01   2.37594000E-01 
   1.45933000E+00   -3.03068000E-03   8.15854000E-01 
SP   1    1.000000
   4.83456000E-01    1.00000000E+00   1.00000000E+00 
SP   1    1.000000
   1.45585000E-01    1.00000000E+00   1.00000000E+00 
SP   1    1.000000
   4.38000000E-02    1.00000000E+00   1.00000000E+00 
D    1    1.000000
   6.26000000E-01    1.00000000E+00 

12    0
S    3    1.000000
   3.38650000E+01    2.54938000E-02 
   5.09479000E+00    1.90373000E-01 
   1.15879000E+00    8.52161000E-01 
S    1    1.000000
   3.25840000E-01    1.00000000E+00 
S    1    1.000000
   1.02741000E-01    1.00000000E+00 
S    1    1.000000
   3.60000000E-02    1.00000000E+00 
P    1    1.000000
   7.50000000E-01    1.00000000E+00 

[MO]
Sym=X
Ene= -0.058679
Spin=Alpha
Occup=1
     1   -2.232496248346e-05
     2   -3.975656389537e-05
     3    9.289772214605e-06
     4   -7.493118740078e-05
     5    4.612362369824e-16
     6    1.350328975417e-04
     7   -1.899682801983e-05
     8   -9.322477141364e-05
     9   -8.576663972076e-16
    10    6.065230768822e-04
    11   -3.035296834087e-05
    12   -2.547570567857e-04
    13    2.065279194607e-16
    14    4.752733047904e-04
    15   -3.973009750715e-04
    16   -1.538188707884e-03
    17   -7.097955136957e-15
    18   -1.158954430080e-05
    19   -1.423664493301e-16
    20    5.553678742136e-16
    21    2.108566877196e-05
    22   -1.140149507491e-05
    23   -2.463287964132e-05
    24   -1.429970385547e-04
    25   -5.794182803755e-04
    26   -1.266400813131e-03
    27    8.195542824548e-06
    28    2.206757032510e-05
    29   -7.103558358302e-16
    30    5.122998214032e-06
    31   -5.534734528664e-05
    32   -4.348272145210e-04
    33   -2.243375517660e-03
    34    9.106795462308e-06
    35    1.418145540479e-05
    36    1.177323398402e-15
    37   -1.506221961682e-05
    38   -8.281980629843e-05
    39   -1.612837460855e-04
    40   -3.359838788605e-04
    41   -1.109630414340e-05
    42    1.803741432111e-06
    43   -4.719874455067e-16
    44   -4.868496985126e-06
    45    7.507347385744e-05
    46    5.099194482745e-05
    47   -3.619903911808e-05
    48   -1.847284840994e-15
    49   -2.648108370229e-04
    50    3.538182142563e-04
    51   -2.347170313986e-04
    52    2.807208198033e-15
    53   -8.627038427134e-05
    54    3.179615986214e-04
    55   -2.551512870615e-04
    56   -4.584915187690e-15
    57   -5.403734945886e-04
    58   -8.387009406340e-04
    59    1.714692744092e-04
    60   -1.420964294464e-15
    61    4.730881006321e-05
    62   -8.347848777897e-16
    63    7.777007866828e-17
    64   -9.231829877718e-05
    65    2.015344349810e-04
    66   -5.514912494537e-01
    67   -4.716891467249e-01
    68   -1.533271014527e-03
    69    1.013716766090e-03
    70   -8.368513285967e-16
    71   -5.469271413416e-03
    72    6.062033591509e-04
    73   -4.264805397758e-04
    74    7.140217832380e-16
    75    1.332978361426e-03
    76   -1.507798036759e-04
    77    9.868158368692e-05
    78   -7.376796920699e-16
    79   -1.528995234142e-03
    80   -1.176121198994e-04
    81    9.487634683396e-05
    82    1.016929340504e-15
    83    8.230991222016e-05
    84   -1.292482704872e-16
    85    1.098566980720e-15
    86    3.182592093269e-05
    87   -8.419470169046e-05
    88   -5.784970855483e-06
    89   -1.162009993041e-05
    90    1.008390455180e-05
    91   -2.069342774586e-05
    92    7.651410164716e-16
    93    5.263208652732e-05
    94   -9.975298181935e-06
    95   -1.316447767181e-05
    96    1.932185314319e-16
    97    1.797598433357e-04
    98    3.159409790759e-05
    99    4.524832272322e-05
   100   -7.179734426621e-16
   101   -1.178391533902e-03
   102   -3.977968037712e-04
   103    6.558706383478e-04
   104   -3.625722503785e-15
   105   -7.826271081965e-06
   106    3.158288084792e-16
   107    3.089285291416e-16
   108    3.294210984313e-06
   109   -1.146670769954e-05
   110   -3.287180728923e-05
   111   -3.090208409968e-05
   112    3.576531682704e-06
   113    1.580072732038e-05
   114   -9.006640416431e-16
   115    2.173247183569e-05
   116    5.560413632070e-06
   117    2.075202745285e-05
   118    2.176870902608e-15
   119   -4.649673117711e-05
   120    1.263584981904e-05
   121    3.737027093720e-05
   122   -1.750175099646e-15
   123    1.825031023841e-04
   124   -2.348917697179e-05
   125    3.725568113792e-06
   126    1.021666921554e-15
   127   -1.246282788328e-06
   128    2.662468207912e-16
   129   -1.596069073999e-16
   130   -1.080961916126e-06
   131    3.699672249674e-07
   132   -1.562084636621e-05
   133   -2.780397402769e-05
   134   -2.076872872243e-05
   135   -8.460198322741e-06
   136    3.880467716968e-16
   137    1.063210273219e-04
   138    1.533497997506e-05
   139   -1.513456877931e-05
   140   -1.813920500607e-15
   141    1.307291889076e-05
   142   -7.446610754920e-05
   143    1.710491292761e-04
   144    3.481206427626e-15
   145    7.039630702359e-04
   146   -5.651737072092e-04
   147    1.330376519982e-05
   148    1.430250578485e-15
   149    4.746996172944e-06
   150    2.370379934960e-16
   151    1.134379854652e-15
   152   -1.739333985490e-05
   153   -1.023288016405e-05
   154   -2.886867879532e-05
   155   -5.054901214215e-05
   156   -5.438863196485e-05
   157   -1.837846001552e-05
   158   -8.941354702707e-16
   159    1.853702705272e-04
   160   -5.671136768385e-05
   161   -7.197011530315e-05
   162    2.087406209101e-16
   163    1.726466232566e-04
   164   -3.285096916513e-04
   165   -1.317973565410e-04
   166    8.982079323989e-16
   167    1.087706149372e-03
   168   -5.139493451819e-04
   169    4.485178093861e-04
   170    5.421774933982e-15
   171    1.711306956174e-06
   172   -2.028511759108e-16
   173   -3.186830828825e-16
   174    1.098669917656e-05
   175    1.145508569645e-06
   176   -1.427566296863e-05
   177   -2.393471165797e-05
   178    1.992451713657e-05
   179   -8.281165879185e-06
   180    9.237871050708e-17
   181    6.909544661528e-05
   182    4.400921865966e-05
   183   -1.357861797093e-05
   184    1.300732247484e-15
   185    3.159289609664e-04
   186   -1.664461030678e-05
   187    2.719522470428e-05
   188   -2.858311153577e-15
   189    3.647938159883e-03
   190   -7.849763844534e-05
   191    7.347964937949e-04
   192    7.734656980819e-15
   193   -1.081526679609e-05
   194    4.837318294953e-16
   195    5.222781233469e-17
   196   -1.485961466538e-05
   197    1.847830199723e-05
   198   -1.209692154032e-05
   199   -2.774520616001e-05
   200   -1.287280438672e-04
   201   -4.323286652652e-04
   202   -6.902950918857e-06
   203    5.826618231963e-06
   204    9.820629714255e-16
Sym=X
Ene= 0.058679
Spin=Alpha
Occup=0
     1   -3.611970343395e-16
     2   -1.896061119663e-15
     3    3.623809151241e-17
     4    8.300634254196e-15
     5   -8.455543929273e-02
     6    1.520600117408e-15
     7   -5.785145633092e-15
     8   -6.908245533690e-16
     9   -1.399303368727e-01
    10    1.626294725987e-13
    11   -9.299615312810e-15
    12    1.757017366668e-13
    13   -1.588520236441e-01
    14    7.543365156805e-12
    15    1.348770573921e-12
    16    2.181547897347e-12
    17   -2.116853138008e-02
    18    2.482676677477e-15
    19   -3.209882914185e-02
    20   -2.619230585667e-03
    21    1.327556211364e-15
    22   -1.079377451489e-17
    23   -5.322971939444e-15
    24    4.566394532369e-14
    25   -6.349373455678e-13
    26    2.246826023051e-13
    27    1.583790668953e-15
    28   -7.459462164919e-16
    29    1.384231869985e-02
    30   -9.460143465715e-16
    31   -6.594743270612e-16
    32    2.354017408568e-13
    33    6.434926149757e-13
    34    5.315312010633e-15
    35   -5.747606123328e-16
    36   -5.621625205043e-03
    37    5.364470779810e-15
    38   -5.255350518256e-14
    39    1.957759604898e-13
    40   -7.472443228295e-14
    41   -4.275362347588e-15
    42   -4.618201110893e-16
    43   -1.176616262049e-03
    44   -8.724199978096e-16
    45   -2.299177608928e-16
    46   -3.964897754752e-15
    47   -4.119569641437e-15
    48    2.409058332305e-02
    49    8.973760115668e-16
    50   -5.618098139538e-16
    51   -5.258954096767e-15
    52    4.888492025998e-02
    53    9.267041185783e-14
    54    4.634998249629e-14
    55   -1.831603259091e-13
    56    6.457776725052e-03
    57   -1.980728616459e-12
    58   -1.567174708410e-13
    59    9.030456534263e-13
    60   -2.572951049944e-02
    61   -5.506535163029e-15
    62    1.165692815123e-02
    63   -3.915649041834e-02
    64    1.005107228332e-15
    65    2.995219936286e-15
    66   -3.914213267885e-16
    67   -7.930888227372e-16
    68    2.415954549883e-15
    69    2.797531948249e-15
    70   -1.331468061020e-01
    71    3.048173460947e-15
    72   -3.477397447438e-15
    73   -4.282569983366e-15
    74   -1.668442957051e-01
    75    2.414517573575e-14
    76    2.393400680268e-14
    77    2.366863531031e-14
    78   -1.325514643248e-01
    79    9.307113166994e-14
    80    9.797787097438e-14
    81    5.423116698211e-14
    82   -1.985047132668e-02
    83   -4.555961326860e-16
    84   -4.940736688942e-03
    85    1.103152367265e-03
    86   -4.494768105673e-16
    87   -1.862188001008e-16
    88    2.003477676352e-15
    89    5.768058539165e-15
    90    1.512791683260e-15
    91    2.036447728658e-15
    92   -2.724937762984e-03
    93   -1.406970797693e-14
    94   -1.765517816601e-14
    95    1.652579771997e-14
    96   -3.987930807347e-03
    97   -4.093769759477e-14
    98   -9.659265770998e-14
    99   -4.684295865265e-15
   100    3.194839447519e-02
   101    4.415474417651e-12
   102   -2.348204700541e-13
   103   -9.010537701933e-13
   104    3.949562576115e-02
   105   -1.806043461833e-15
   106    2.144593238355e-02
   107    3.157926644245e-02
   108    6.881541723796e-15
   109   -4.894581620074e-15
   110    4.863136459057e-16
   111    1.699615855284e-15
   112    5.805928471118e-15
   113   -9.632716449951e-15
   114    1.115234619535e-01
   115   -1.376708583445e-14
   116   -1.673344673460e-15
   117   -6.146169478413e-16
   118    1.682440698174e-01
   119    7.298010387638e-14
   120    2.275040583859e-15
   121   -4.339601853207e-14
   122    1.701358679166e-01
   123   -2.367212613511e-13
   124   -8.260107727370e-14
   125    1.365452278009e-13
   126    4.052681030720e-02
   127    2.287585720179e-16
   128   -6.164730802581e-03
   129   -3.096071333111e-03
   130   -1.050504756084e-15
   131    2.258779880859e-16
   132   -2.295663440054e-15
   133   -5.826342669985e-15
   134   -3.795056971333e-15
   135   -4.736053224462e-15
   136   -1.274033959241e-02
   137    2.675640069114e-14
   138   -1.277167249261e-15
   139   -1.507454672615e-14
   140   -1.927491353584e-02
   141   -8.022513205323e-15
   142   -5.271388119015e-14
   143    9.645305522284e-14
   144   -2.984581055994e-02
   145   -2.795208174334e-13
   146    1.227186693976e-13
   147   -3.048078645395e-13
   148   -1.784619043313e-02
   149   -2.158207027958e-15
   150   -8.586904860100e-05
   151   -1.092314939627e-04
   152   -3.021374877352e-15
   153   -1.093943040899e-15
   154    5.415740847562e-16
   155    2.753189878908e-16
   156   -9.334047921032e-15
   157   -6.665237123530e-15
   158    1.599110693685e-01
   159    1.394058711658e-14
   160   -1.343815503661e-14
   161   -5.784128493502e-15
   162    2.523798701836e-01
   163   -2.013996376178e-13
   164   -4.743632839192e-14
   165   -6.319769951176e-14
   166    2.977658231119e-01
   167    5.799314525395e-13
   168   -8.165780010828e-13
   169    9.789410525542e-14
   170    8.778085402380e-02
   171    4.106758573247e-15
   172   -5.199378465399e-03
   173    1.038141566032e-02
   174   -3.144323427165e-16
   175   -2.604185910616e-15
   176    9.154137122773e-16
   177    2.064749157627e-15
   178   -2.756557519339e-15
   179    1.994653738029e-15
   180   -1.376767669194e-01
   181   -2.334725395316e-14
   182   -6.366536391386e-15
   183    1.815109553654e-15
   184   -2.284399263721e-01
   185    5.124570612150e-14
   186    1.578654597206e-13
   187    5.262324329828e-14
   188   -2.411806928544e-01
   189   -9.509739501127e-12
   190    2.482835362025e-12
   191   -1.004709852110e-12
   192   -4.164391848269e-02
   193   -2.169626563872e-15
   194    1.454748782801e-02
   195   -2.890901163150e-04
   196    3.758153214964e-15
   197   -2.125083364921e-15
   198    1.903292012302e-15
   199   -3.700622371837e-14
   200   -1.859320609901e-13
   201   -1.186064513788e-12
   202    5.673883885557e-15
   203   -5.240067235998e-15
   204   -1.041049331192e-02
[5D]
