[Molden Format]
[Atoms] (Angs)
  C      1    6     -0.00754183     -1.75895763      0.00000000
  H      2    1     -2.09769850     -1.41880678     -0.00000000
  H      3    1     -0.13527422     -2.83956838     -0.00000000
  H      4    1      0.04053511      2.02026369      0.00000000
  C      5    6     -1.22066484      0.39918184     -0.00000000
  O      6    8     -2.25210141      1.05663720     -0.00000000
  C      7    6      1.24009552      0.27789184      0.00000000
  O      8    8      2.33767996      1.06122493      0.00000000
  N      9    7      0.03634586      1.00852936      0.00000000
  N     10    7     -1.18738304     -0.97903470     -0.00000000
  C     11    6      1.22288875     -1.12258096      0.00000000
  H     12    1      2.15640383     -1.68445878      0.00000000
[GTO]
1    0
S    6    1.000000
   4.56324000E+03    1.96665000E-03 
   6.82024000E+02    1.52306000E-02 
   1.54973000E+02    7.61269000E-02 
   4.44553000E+01    2.60801000E-01 
   1.30290000E+01    6.16462000E-01 
   1.82773000E+00    2.21006000E-01 
SP   3    1.000000
   2.09642000E+01    1.14660000E-01   4.02487000E-02 
   4.80331000E+00    9.19999000E-01   2.37594000E-01 
   1.45933000E+00   -3.03068000E-03   8.15854000E-01 
SP   1    1.000000
   4.83456000E-01    1.00000000E+00   1.00000000E+00 
SP   1    1.000000
   1.45585000E-01    1.00000000E+00   1.00000000E+00 
SP   1    1.000000
   4.38000000E-02    1.00000000E+00   1.00000000E+00 
D    1    1.000000
   6.26000000E-01    1.00000000E+00 

2    0
S    3    1.000000
   3.38650000E+01    2.54938000E-02 
   5.09479000E+00    1.90373000E-01 
   1.15879000E+00    8.52161000E-01 
S    1    1.000000
   3.25840000E-01    1.00000000E+00 
S    1    1.000000
   1.02741000E-01    1.00000000E+00 
S    1    1.000000
   3.60000000E-02    1.00000000E+00 
P    1    1.000000
   7.50000000E-01    1.00000000E+00 

3    0
S    3    1.000000
   3.38650000E+01    2.54938000E-02 
   5.09479000E+00    1.90373000E-01 
   1.15879000E+00    8.52161000E-01 
S    1    1.000000
   3.25840000E-01    1.00000000E+00 
S    1    1.000000
   1.02741000E-01    1.00000000E+00 
S    1    1.000000
   3.60000000E-02    1.00000000E+00 
P    1    1.000000
   7.50000000E-01    1.00000000E+00 

4    0
S    3    1.000000
   3.38650000E+01    2.54938000E-02 
   5.09479000E+00    1.90373000E-01 
   1.15879000E+00    8.52161000E-01 
S    1    1.000000
   3.25840000E-01    1.00000000E+00 
S    1    1.000000
   1.02741000E-01    1.00000000E+00 
S    1    1.000000
   3.60000000E-02    1.00000000E+00 
P    1    1.000000
   7.50000000E-01    1.00000000E+00 

5    0
S    6    1.000000
   4.56324000E+03    1.96665000E-03 
   6.82024000E+02    1.52306000E-02 
   1.54973000E+02    7.61269000E-02 
   4.44553000E+01    2.60801000E-01 
   1.30290000E+01    6.16462000E-01 
   1.82773000E+00    2.21006000E-01 
SP   3    1.000000
   2.09642000E+01    1.14660000E-01   4.02487000E-02 
   4.80331000E+00    9.19999000E-01   2.37594000E-01 
   1.45933000E+00   -3.03068000E-03   8.15854000E-01 
SP   1    1.000000
   4.83456000E-01    1.00000000E+00   1.00000000E+00 
SP   1    1.000000
   1.45585000E-01    1.00000000E+00   1.00000000E+00 
SP   1    1.000000
   4.38000000E-02    1.00000000E+00   1.00000000E+00 
D    1    1.000000
   6.26000000E-01    1.00000000E+00 

6    0
S    6    1.000000
   8.58850000E+03    1.89515000E-03 
   1.29723000E+03    1.43859000E-02 
   2.99296000E+02    7.07320000E-02 
   8.73771000E+01    2.40001000E-01 
   2.56789000E+01    5.94797000E-01 
   3.74004000E+00    2.80802000E-01 
SP   3    1.000000
   4.21175000E+01    1.13889000E-01   3.65114000E-02 
   9.62837000E+00    9.20811000E-01   2.37153000E-01 
   2.85332000E+00   -3.27447000E-03   8.19702000E-01 
SP   1    1.000000
   9.05661000E-01    1.00000000E+00   1.00000000E+00 
SP   1    1.000000
   2.55611000E-01    1.00000000E+00   1.00000000E+00 
SP   1    1.000000
   8.45000000E-02    1.00000000E+00   1.00000000E+00 
D    1    1.000000
   1.29200000E+00    1.00000000E+00 

7    0
S    6    1.000000
   4.56324000E+03    1.96665000E-03 
   6.82024000E+02    1.52306000E-02 
   1.54973000E+02    7.61269000E-02 
   4.44553000E+01    2.60801000E-01 
   1.30290000E+01    6.16462000E-01 
   1.82773000E+00    2.21006000E-01 
SP   3    1.000000
   2.09642000E+01    1.14660000E-01   4.02487000E-02 
   4.80331000E+00    9.19999000E-01   2.37594000E-01 
   1.45933000E+00   -3.03068000E-03   8.15854000E-01 
SP   1    1.000000
   4.83456000E-01    1.00000000E+00   1.00000000E+00 
SP   1    1.000000
   1.45585000E-01    1.00000000E+00   1.00000000E+00 
SP   1    1.000000
   4.38000000E-02    1.00000000E+00   1.00000000E+00 
D    1    1.000000
   6.26000000E-01    1.00000000E+00 

8    0
S    6    1.000000
   8.58850000E+03    1.89515000E-03 
   1.29723000E+03    1.43859000E-02 
   2.99296000E+02    7.07320000E-02 
   8.73771000E+01    2.40001000E-01 
   2.56789000E+01    5.94797000E-01 
   3.74004000E+00    2.80802000E-01 
SP   3    1.000000
   4.21175000E+01    1.13889000E-01   3.65114000E-02 
   9.62837000E+00    9.20811000E-01   2.37153000E-01 
   2.85332000E+00   -3.27447000E-03   8.19702000E-01 
SP   1    1.000000
   9.05661000E-01    1.00000000E+00   1.00000000E+00 
SP   1    1.000000
   2.55611000E-01    1.00000000E+00   1.00000000E+00 
SP   1    1.000000
   8.45000000E-02    1.00000000E+00   1.00000000E+00 
D    1    1.000000
   1.29200000E+00    1.00000000E+00 

9    0
S    6    1.000000
   6.29348000E+03    1.96979000E-03 
   9.49044000E+02    1.49613000E-02 
   2.18776000E+02    7.35006000E-02 
   6.36916000E+01    2.48937000E-01 
   1.88282000E+01    6.02460000E-01 
   2.72023000E+00    2.56202000E-01 
SP   3    1.000000
   3.06331000E+01    1.11906000E-01   3.83119000E-02 
   7.02614000E+00    9.21666000E-01   2.37403000E-01 
   2.11205000E+00   -2.56919000E-03   8.17592000E-01 
SP   1    1.000000
   6.84009000E-01    1.00000000E+00   1.00000000E+00 
SP   1    1.000000
   2.00878000E-01    1.00000000E+00   1.00000000E+00 
SP   1    1.000000
   6.39000000E-02    1.00000000E+00   1.00000000E+00 
D    1    1.000000
   9.13000000E-01    1.00000000E+00 

10    0
S    6    1.000000
   6.29348000E+03    1.96979000E-03 
   9.49044000E+02    1.49613000E-02 
   2.18776000E+02    7.35006000E-02 
   6.36916000E+01    2.48937000E-01 
   1.88282000E+01    6.02460000E-01 
   2.72023000E+00    2.56202000E-01 
SP   3    1.000000
   3.06331000E+01    1.11906000E-01   3.83119000E-02 
   7.02614000E+00    9.21666000E-01   2.37403000E-01 
   2.11205000E+00   -2.56919000E-03   8.17592000E-01 
SP   1    1.000000
   6.84009000E-01    1.00000000E+00   1.00000000E+00 
SP   1    1.000000
   2.00878000E-01    1.00000000E+00   1.00000000E+00 
SP   1    1.000000
   6.39000000E-02    1.00000000E+00   1.00000000E+00 
D    1    1.000000
   9.13000000E-01    1.00000000E+00 

11    0
S    6    1.000000
   4.56324000E+03    1.96665000E-03 
   6.82024000E+02    1.52306000E-02 
   1.54973000E+02    7.61269000E-02 
   4.44553000E+01    2.60801000E-01 
   1.30290000E+01    6.16462000E-01 
   1.82773000E+00    2.21006000E-01 
SP   3    1.000000
   2.09642000E+01    1.14660000E-01   4.02487000E-02 
   4.80331000E+00    9.19999000E-01   2.37594000E-01 
   1.45933000E+00   -3.03068000E-03   8.15854000E-01 
SP   1    1.000000
   4.83456000E-01    1.00000000E+00   1.00000000E+00 
SP   1    1.000000
   1.45585000E-01    1.00000000E+00   1.00000000E+00 
SP   1    1.000000
   4.38000000E-02    1.00000000E+00   1.00000000E+00 
D    1    1.000000
   6.26000000E-01    1.00000000E+00 

12    0
S    3    1.000000
   3.38650000E+01    2.54938000E-02 
   5.09479000E+00    1.90373000E-01 
   1.15879000E+00    8.52161000E-01 
S    1    1.000000
   3.25840000E-01    1.00000000E+00 
S    1    1.000000
   1.02741000E-01    1.00000000E+00 
S    1    1.000000
   3.60000000E-02    1.00000000E+00 
P    1    1.000000
   7.50000000E-01    1.00000000E+00 

[MO]
Sym=X
Ene= -0.196277
Spin=Alpha
Occup=1
     1    1.586226719803e-05
     2    2.440226329731e-05
     3   -4.132121114735e-06
     4    4.644600999820e-05
     5   -6.157579597895e-16
     6   -7.362811110792e-05
     7    1.101010831055e-05
     8    9.057778825330e-05
     9    1.123412953125e-15
    10   -6.051113757588e-04
    11   -1.041047363351e-04
    12   -3.346087028929e-05
    13   -6.671437545244e-15
    14   -8.127981395072e-04
    15    1.281170052044e-04
    16    3.902001619771e-04
    17    1.047060971718e-14
    18    7.459076004219e-06
    19   -6.781262355197e-16
    20   -1.000649228869e-15
    21   -1.934979875321e-05
    22    1.709522623281e-05
    23    1.427964038410e-05
    24    7.648064109582e-05
    25    2.465653241784e-04
    26    7.344759988026e-04
    27   -1.364950166881e-05
    28   -7.799784322987e-06
    29   -1.223570621388e-15
    30   -9.902656333305e-07
    31    1.197383393555e-05
    32    1.677091718005e-04
    33    1.220036276662e-03
    34   -5.909697914455e-08
    35   -1.238972959187e-05
    36    1.602142109782e-15
    37    1.278246444891e-05
    38    5.429686449985e-05
    39    1.216627041682e-04
    40    1.013454531476e-04
    41   -3.391316297019e-06
    42   -6.194995120999e-06
    43    7.852523686626e-16
    44   -1.016092366092e-07
    45    3.883372088803e-07
    46    5.131953014558e-06
    47    7.922641711057e-07
    48    1.088512182298e-15
    49   -1.966080161382e-05
    50    2.627148034668e-06
    51    6.568998831091e-06
    52   -1.313165038826e-15
    53   -1.868813775211e-05
    54   -8.714804652018e-05
    55   -1.302798846422e-05
    56   -9.955402916924e-16
    57   -9.036765675872e-05
    58    1.906573292868e-04
    59    2.357109411669e-05
    60    6.852850109890e-15
    61    1.032655907046e-05
    62    4.613049921864e-16
    63   -6.090720716015e-16
    64    2.128637684791e-06
    65   -7.959365492414e-06
    66    6.230349874729e-06
    67    8.823291683319e-06
    68    7.381081607165e-06
    69    2.057956078419e-06
    70    2.624164533147e-16
    71   -2.353351002193e-05
    72    1.042518726871e-05
    73    1.031897951634e-06
    74   -1.484212896557e-15
    75   -3.268119358375e-05
    76    1.150833941021e-05
    77    1.958372729887e-05
    78    3.124533578478e-15
    79   -2.276994111100e-04
    80   -1.121860526797e-04
    81   -1.583951572812e-05
    82   -3.911303948527e-15
    83    1.287163886339e-06
    84   -5.227651470744e-16
    85   -2.766062472194e-16
    86    9.655983092445e-07
    87    1.128045968045e-06
    88    3.611343357211e-06
    89   -4.351071689927e-05
    90    1.892772980411e-06
    91    2.108816368455e-05
    92   -2.012654531514e-16
    93    1.291766609518e-04
    94    3.115917428106e-04
    95    2.481021595828e-04
    96    4.396956671068e-16
    97   -3.398373989481e-04
    98   -5.096485256194e-05
    99    1.501386265444e-04
   100   -3.834388392091e-15
   101   -1.896563204746e-03
   102   -5.416138543900e-04
   103    4.113245658969e-04
   104    1.083044564864e-14
   105   -4.081996190791e-05
   106   -3.298144093279e-16
   107   -1.063850223317e-15
   108    8.888725472140e-05
   109    2.046786610349e-04
   110    5.515686309838e-01
   111    4.717181288755e-01
   112   -1.389258690487e-03
   113   -1.003412841223e-03
   114   -7.490307481524e-16
   115    5.147466180724e-03
   116    6.170778789657e-04
   117    4.400034514991e-04
   118   -2.565664385431e-16
   119   -7.901107662660e-04
   120   -2.515056715426e-04
   121   -2.176259514854e-04
   122    2.548910747617e-15
   123    1.484376488447e-03
   124   -1.385998094820e-04
   125   -7.037648428135e-05
   126   -2.600754069516e-15
   127   -5.044216965286e-05
   128   -3.357151065692e-16
   129   -4.321717357974e-17
   130   -4.569271723977e-05
   131   -1.728865506471e-04
   132    1.126920649701e-05
   133    1.808845024370e-05
   134   -7.950462913013e-06
   135    1.123416026458e-05
   136    9.378325702174e-16
   137   -6.901249043222e-05
   138    5.182855849744e-05
   139   -1.353676573562e-05
   140   -1.450397079245e-15
   141   -3.095164246440e-05
   142   -5.021149337108e-05
   143   -8.122965141795e-05
   144    3.135400801502e-15
   145   -7.490182691188e-04
   146   -5.333785014210e-04
   147   -2.863809408097e-05
   148   -5.260721590729e-15
   149   -5.946076825340e-06
   150    8.877219951598e-16
   151   -1.521279398690e-17
   152    1.720928132663e-05
   153   -2.315427189457e-05
   154    1.918559152692e-05
   155    3.282668147913e-05
   156    3.140598042684e-05
   157    1.869209206294e-05
   158    1.317536227391e-16
   159   -1.113763244052e-04
   160    5.382003000587e-05
   161    2.897877455135e-05
   162   -2.702140898256e-16
   163   -1.896471742306e-04
   164    1.366867772685e-04
   165    4.093687533684e-05
   166    3.395447260421e-15
   167   -5.135363174824e-04
   168    6.934567428936e-05
   169   -1.015239187649e-04
   170   -5.158140661500e-15
   171    4.263163327350e-06
   172   -4.429824378944e-16
   173    1.739481434654e-16
   174    6.043684372840e-06
   175    5.670785865846e-06
   176    1.166066632511e-05
   177    1.529507716422e-05
   178   -2.204046456852e-05
   179   -1.304206466335e-05
   180    1.075600073433e-15
   181   -5.678433430110e-05
   182   -6.451485198577e-06
   183    1.129645748520e-04
   184   -2.797218358946e-15
   185    2.066921863402e-04
   186   -3.439738162836e-04
   187    5.891520149044e-05
   188    8.592262719187e-15
   189    1.252303585992e-03
   190   -2.151191416503e-04
   191    7.578240627812e-04
   192   -1.632318376130e-14
   193    7.138568917389e-08
   194   -3.912690640000e-16
   195    3.215637230789e-16
   196   -4.171849227520e-05
   197    2.205645676113e-05
   198    9.556178766359e-06
   199    1.173472272877e-04
   200    1.847186643417e-04
   201    7.570453954229e-04
   202   -1.727095099242e-05
   203    8.794109329038e-06
   204   -3.077182029029e-16
Sym=X
Ene= 0.196277
Spin=Alpha
Occup=0
     1   -9.144298664741e-16
     2   -6.638671372511e-16
     3   -3.338922630960e-17
     4    1.467288701821e-16
     5    8.536195012254e-02
     6    1.065530243279e-14
     7    1.115603699627e-15
     8    9.694222097452e-15
     9    1.418262752061e-01
    10   -6.648695460444e-14
    11    1.069585900829e-13
    12   -1.229371077400e-13
    13    1.500103815017e-01
    14   -8.298358474428e-12
    15   -1.756769957557e-12
    16   -2.024695870811e-12
    17    2.380470671032e-02
    18    2.269475115008e-15
    19    3.165400128754e-02
    20    1.975033878638e-03
    21   -4.823212346498e-15
    22    2.923470512963e-15
    23    2.091281235250e-15
    24   -6.081552673221e-15
    25    3.200838425878e-13
    26    2.668332248428e-13
    27    3.546035445971e-15
    28    3.200353075624e-15
    29   -1.316785593804e-02
    30    2.094666248413e-15
    31   -3.357192487002e-14
    32   -1.002286206860e-14
    33   -7.074060563648e-13
    34   -3.753975342053e-15
    35   -3.532895372907e-15
    36    6.248325139715e-03
    37   -1.722298477483e-15
    38    4.065970391451e-14
    39    1.182123937107e-13
    40   -3.392969296942e-13
    41   -1.663433665494e-16
    42    1.693250695293e-15
    43    1.649589109811e-03
    44    8.547423262687e-16
    45   -4.258486566942e-16
    46    4.361092087415e-15
    47    5.970398883654e-15
    48   -1.106586521381e-02
    49    1.316609480458e-14
    50   -1.388867248949e-15
    51   -2.276971166673e-15
    52   -2.310349534047e-02
    53   -2.977958059257e-13
    54    7.044608426587e-14
    55    2.529611726172e-13
    56    1.013269461951e-02
    57    8.775252222426e-13
    58    3.698059204187e-13
    59    1.341687294097e-13
    60    2.559576684460e-02
    61    8.805373783139e-15
    62   -1.231457904349e-02
    63    3.214442143759e-02
    64    1.792102444066e-15
    65    2.555156256880e-15
    66    3.351240448123e-17
    67   -2.180051870813e-16
    68   -3.700746058415e-15
    69   -2.696441237700e-16
    70    7.176980388445e-02
    71    2.503713691010e-15
    72    4.914104125277e-17
    73    1.039245223535e-14
    74    1.084100147112e-01
    75   -5.100737855494e-16
    76    1.870953896745e-14
    77   -2.938035596490e-14
    78    1.106147075313e-01
    79    1.627770685052e-14
    80   -3.487441560786e-14
    81   -9.643742948023e-14
    82    1.903783661840e-02
    83    3.120181814620e-16
    84    3.828698918447e-03
    85   -1.347890941138e-03
    86   -6.755240987863e-17
    87   -3.546699095024e-16
    88    1.930448958408e-15
    89    1.286777417350e-15
    90   -1.951152137612e-16
    91    6.071583107355e-15
    92    5.004504658041e-03
    93   -7.779901205395e-15
    94    1.842883960541e-14
    95   -2.723914124810e-15
    96    9.615461854554e-03
    97   -6.911752509025e-14
    98    3.698786555613e-14
    99    1.620218718162e-13
   100   -2.598105355337e-02
   101   -5.599643548617e-13
   102   -1.493546300186e-13
   103    4.550041345335e-13
   104   -4.406658174529e-02
   105   -7.748052336135e-15
   106   -2.204644790212e-02
   107   -3.386781424191e-02
   108   -1.597417182287e-15
   109   -1.754864486178e-15
   110    3.328338645322e-16
   111   -3.404807409703e-16
   112   -8.464036026593e-15
   113    5.880107248047e-15
   114   -1.944157683789e-01
   115    3.729731939555e-15
   116    1.843265324150e-15
   117   -1.301870364431e-14
   118   -2.430922750365e-01
   119   -3.879053352926e-14
   120   -7.034737770812e-15
   121    4.383161799628e-14
   122   -1.919973684943e-01
   123    3.414123660697e-14
   124    7.455576892805e-14
   125   -5.742478822400e-14
   126   -3.807002827730e-02
   127   -1.599070923297e-15
   128    7.679997833701e-03
   129    4.133982761704e-03
   130   -7.705332744859e-16
   131   -1.934470420194e-16
   132   -2.037714696246e-15
   133   -1.775269807245e-15
   134    7.152437895916e-15
   135   -4.066216028472e-15
   136    1.601005996385e-02
   137   -2.566254646832e-15
   138    3.254969134565e-17
   139   -4.015576432979e-15
   140    2.555572590754e-02
   141    1.245759713669e-13
   142    6.310083716767e-14
   143   -6.762628718360e-14
   144    2.876041586297e-02
   145   -2.025905399878e-12
   146    3.819449112736e-14
   147    4.893043574795e-13
   148    1.690598071701e-02
   149   -4.488404249757e-15
   150   -5.982093794381e-05
   151   -2.585803337007e-04
   152    2.450084258702e-15
   153    2.222825438445e-15
   154    2.008137147086e-15
   155    4.539115495900e-15
   156    8.068293161393e-16
   157    4.476147062534e-15
   158   -1.414848768329e-01
   159   -2.099373282061e-14
   160    1.136450118539e-15
   161   -1.271274236073e-15
   162   -2.222600490340e-01
   163    4.299128871344e-14
   164    3.489134164863e-14
   165    1.012937537376e-13
   166   -2.715627722313e-01
   167    1.727920692030e-12
   168    9.241238366410e-13
   169    5.504155694421e-13
   170   -8.660716073597e-02
   171    3.453932787841e-16
   172    3.651363378199e-03
   173   -6.734828020412e-03
   174    3.993825536935e-16
   175   -8.167199282693e-16
   176   -1.825664555679e-15
   177   -3.262655190234e-15
   178    9.151250540162e-15
   179    5.436425438935e-15
   180    1.397207720156e-01
   181    1.678408171763e-14
   182    2.394675432946e-15
   183   -4.405346553352e-15
   184    2.325616584189e-01
   185    8.788736084178e-14
   186    7.544524541938e-14
   187    1.931565573621e-13
   188    2.410210259907e-01
   189    8.465317285075e-12
   190   -2.035725843230e-12
   191   -3.732478123012e-13
   192    4.316115384442e-02
   193    4.096626006991e-15
   194   -1.277587726710e-02
   195    2.149028954720e-03
   196    1.327749503992e-15
   197    3.582974148500e-15
   198   -6.491689359021e-15
   199    2.486118657716e-14
   200   -1.692170538961e-13
   201    4.791838075462e-13
   202   -7.460383193710e-15
   203    4.039798945020e-15
   204    1.031135564008e-02
[5D]
