[Molden Format]
[Atoms] (Angs)
  C      1    6     -0.00754183     -1.75895763      0.00000000
  H      2    1     -2.09769850     -1.41880678     -0.00000000
  H      3    1     -0.13527422     -2.83956838     -0.00000000
  H      4    1      0.04053511      2.02026369      0.00000000
  C      5    6     -1.22066484      0.39918184     -0.00000000
  O      6    8     -2.25210141      1.05663720     -0.00000000
  C      7    6      1.24009552      0.27789184      0.00000000
  O      8    8      2.33767996      1.06122493      0.00000000
  N      9    7      0.03634586      1.00852936      0.00000000
  N     10    7     -1.18738304     -0.97903470     -0.00000000
  C     11    6      1.22288875     -1.12258096      0.00000000
  H     12    1      2.15640383     -1.68445878      0.00000000
[GTO]
1    0
S    6    1.000000
   4.56324000E+03    1.96665000E-03 
   6.82024000E+02    1.52306000E-02 
   1.54973000E+02    7.61269000E-02 
   4.44553000E+01    2.60801000E-01 
   1.30290000E+01    6.16462000E-01 
   1.82773000E+00    2.21006000E-01 
SP   3    1.000000
   2.09642000E+01    1.14660000E-01   4.02487000E-02 
   4.80331000E+00    9.19999000E-01   2.37594000E-01 
   1.45933000E+00   -3.03068000E-03   8.15854000E-01 
SP   1    1.000000
   4.83456000E-01    1.00000000E+00   1.00000000E+00 
SP   1    1.000000
   1.45585000E-01    1.00000000E+00   1.00000000E+00 
SP   1    1.000000
   4.38000000E-02    1.00000000E+00   1.00000000E+00 
D    1    1.000000
   6.26000000E-01    1.00000000E+00 

2    0
S    3    1.000000
   3.38650000E+01    2.54938000E-02 
   5.09479000E+00    1.90373000E-01 
   1.15879000E+00    8.52161000E-01 
S    1    1.000000
   3.25840000E-01    1.00000000E+00 
S    1    1.000000
   1.02741000E-01    1.00000000E+00 
S    1    1.000000
   3.60000000E-02    1.00000000E+00 
P    1    1.000000
   7.50000000E-01    1.00000000E+00 

3    0
S    3    1.000000
   3.38650000E+01    2.54938000E-02 
   5.09479000E+00    1.90373000E-01 
   1.15879000E+00    8.52161000E-01 
S    1    1.000000
   3.25840000E-01    1.00000000E+00 
S    1    1.000000
   1.02741000E-01    1.00000000E+00 
S    1    1.000000
   3.60000000E-02    1.00000000E+00 
P    1    1.000000
   7.50000000E-01    1.00000000E+00 

4    0
S    3    1.000000
   3.38650000E+01    2.54938000E-02 
   5.09479000E+00    1.90373000E-01 
   1.15879000E+00    8.52161000E-01 
S    1    1.000000
   3.25840000E-01    1.00000000E+00 
S    1    1.000000
   1.02741000E-01    1.00000000E+00 
S    1    1.000000
   3.60000000E-02    1.00000000E+00 
P    1    1.000000
   7.50000000E-01    1.00000000E+00 

5    0
S    6    1.000000
   4.56324000E+03    1.96665000E-03 
   6.82024000E+02    1.52306000E-02 
   1.54973000E+02    7.61269000E-02 
   4.44553000E+01    2.60801000E-01 
   1.30290000E+01    6.16462000E-01 
   1.82773000E+00    2.21006000E-01 
SP   3    1.000000
   2.09642000E+01    1.14660000E-01   4.02487000E-02 
   4.80331000E+00    9.19999000E-01   2.37594000E-01 
   1.45933000E+00   -3.03068000E-03   8.15854000E-01 
SP   1    1.000000
   4.83456000E-01    1.00000000E+00   1.00000000E+00 
SP   1    1.000000
   1.45585000E-01    1.00000000E+00   1.00000000E+00 
SP   1    1.000000
   4.38000000E-02    1.00000000E+00   1.00000000E+00 
D    1    1.000000
   6.26000000E-01    1.00000000E+00 

6    0
S    6    1.000000
   8.58850000E+03    1.89515000E-03 
   1.29723000E+03    1.43859000E-02 
   2.99296000E+02    7.07320000E-02 
   8.73771000E+01    2.40001000E-01 
   2.56789000E+01    5.94797000E-01 
   3.74004000E+00    2.80802000E-01 
SP   3    1.000000
   4.21175000E+01    1.13889000E-01   3.65114000E-02 
   9.62837000E+00    9.20811000E-01   2.37153000E-01 
   2.85332000E+00   -3.27447000E-03   8.19702000E-01 
SP   1    1.000000
   9.05661000E-01    1.00000000E+00   1.00000000E+00 
SP   1    1.000000
   2.55611000E-01    1.00000000E+00   1.00000000E+00 
SP   1    1.000000
   8.45000000E-02    1.00000000E+00   1.00000000E+00 
D    1    1.000000
   1.29200000E+00    1.00000000E+00 

7    0
S    6    1.000000
   4.56324000E+03    1.96665000E-03 
   6.82024000E+02    1.52306000E-02 
   1.54973000E+02    7.61269000E-02 
   4.44553000E+01    2.60801000E-01 
   1.30290000E+01    6.16462000E-01 
   1.82773000E+00    2.21006000E-01 
SP   3    1.000000
   2.09642000E+01    1.14660000E-01   4.02487000E-02 
   4.80331000E+00    9.19999000E-01   2.37594000E-01 
   1.45933000E+00   -3.03068000E-03   8.15854000E-01 
SP   1    1.000000
   4.83456000E-01    1.00000000E+00   1.00000000E+00 
SP   1    1.000000
   1.45585000E-01    1.00000000E+00   1.00000000E+00 
SP   1    1.000000
   4.38000000E-02    1.00000000E+00   1.00000000E+00 
D    1    1.000000
   6.26000000E-01    1.00000000E+00 

8    0
S    6    1.000000
   8.58850000E+03    1.89515000E-03 
   1.29723000E+03    1.43859000E-02 
   2.99296000E+02    7.07320000E-02 
   8.73771000E+01    2.40001000E-01 
   2.56789000E+01    5.94797000E-01 
   3.74004000E+00    2.80802000E-01 
SP   3    1.000000
   4.21175000E+01    1.13889000E-01   3.65114000E-02 
   9.62837000E+00    9.20811000E-01   2.37153000E-01 
   2.85332000E+00   -3.27447000E-03   8.19702000E-01 
SP   1    1.000000
   9.05661000E-01    1.00000000E+00   1.00000000E+00 
SP   1    1.000000
   2.55611000E-01    1.00000000E+00   1.00000000E+00 
SP   1    1.000000
   8.45000000E-02    1.00000000E+00   1.00000000E+00 
D    1    1.000000
   1.29200000E+00    1.00000000E+00 

9    0
S    6    1.000000
   6.29348000E+03    1.96979000E-03 
   9.49044000E+02    1.49613000E-02 
   2.18776000E+02    7.35006000E-02 
   6.36916000E+01    2.48937000E-01 
   1.88282000E+01    6.02460000E-01 
   2.72023000E+00    2.56202000E-01 
SP   3    1.000000
   3.06331000E+01    1.11906000E-01   3.83119000E-02 
   7.02614000E+00    9.21666000E-01   2.37403000E-01 
   2.11205000E+00   -2.56919000E-03   8.17592000E-01 
SP   1    1.000000
   6.84009000E-01    1.00000000E+00   1.00000000E+00 
SP   1    1.000000
   2.00878000E-01    1.00000000E+00   1.00000000E+00 
SP   1    1.000000
   6.39000000E-02    1.00000000E+00   1.00000000E+00 
D    1    1.000000
   9.13000000E-01    1.00000000E+00 

10    0
S    6    1.000000
   6.29348000E+03    1.96979000E-03 
   9.49044000E+02    1.49613000E-02 
   2.18776000E+02    7.35006000E-02 
   6.36916000E+01    2.48937000E-01 
   1.88282000E+01    6.02460000E-01 
   2.72023000E+00    2.56202000E-01 
SP   3    1.000000
   3.06331000E+01    1.11906000E-01   3.83119000E-02 
   7.02614000E+00    9.21666000E-01   2.37403000E-01 
   2.11205000E+00   -2.56919000E-03   8.17592000E-01 
SP   1    1.000000
   6.84009000E-01    1.00000000E+00   1.00000000E+00 
SP   1    1.000000
   2.00878000E-01    1.00000000E+00   1.00000000E+00 
SP   1    1.000000
   6.39000000E-02    1.00000000E+00   1.00000000E+00 
D    1    1.000000
   9.13000000E-01    1.00000000E+00 

11    0
S    6    1.000000
   4.56324000E+03    1.96665000E-03 
   6.82024000E+02    1.52306000E-02 
   1.54973000E+02    7.61269000E-02 
   4.44553000E+01    2.60801000E-01 
   1.30290000E+01    6.16462000E-01 
   1.82773000E+00    2.21006000E-01 
SP   3    1.000000
   2.09642000E+01    1.14660000E-01   4.02487000E-02 
   4.80331000E+00    9.19999000E-01   2.37594000E-01 
   1.45933000E+00   -3.03068000E-03   8.15854000E-01 
SP   1    1.000000
   4.83456000E-01    1.00000000E+00   1.00000000E+00 
SP   1    1.000000
   1.45585000E-01    1.00000000E+00   1.00000000E+00 
SP   1    1.000000
   4.38000000E-02    1.00000000E+00   1.00000000E+00 
D    1    1.000000
   6.26000000E-01    1.00000000E+00 

12    0
S    3    1.000000
   3.38650000E+01    2.54938000E-02 
   5.09479000E+00    1.90373000E-01 
   1.15879000E+00    8.52161000E-01 
S    1    1.000000
   3.25840000E-01    1.00000000E+00 
S    1    1.000000
   1.02741000E-01    1.00000000E+00 
S    1    1.000000
   3.60000000E-02    1.00000000E+00 
P    1    1.000000
   7.50000000E-01    1.00000000E+00 

[MO]
Sym=X
Ene= -0.031899
Spin=Alpha
Occup=1
     1   -2.776180193343e-05
     2   -5.210745078263e-05
     3    6.242555273730e-06
     4   -8.881132168829e-05
     5   -6.234953857022e-16
     6    1.894509375032e-04
     7    1.066581598695e-05
     8   -1.226364513612e-04
     9    1.111798185145e-15
    10    1.363234230571e-04
    11   -3.162528429342e-05
    12   -5.114047370345e-04
    13   -6.693622114528e-15
    14    1.008328321259e-03
    15    4.395584976500e-04
    16   -2.416819201838e-03
    17    1.032835568580e-14
    18   -1.025155299727e-05
    19   -6.797493009082e-16
    20   -1.001966898552e-15
    21    2.746139821228e-05
    22    4.135967260449e-06
    23   -2.528323744108e-05
    24   -1.125207731979e-04
    25   -6.390482733655e-04
    26   -1.198442831568e-03
    27    1.974469357424e-05
    28    1.824610954620e-05
    29   -1.222402733853e-15
    30    7.595726311528e-07
    31   -3.534665914616e-05
    32   -6.851110429247e-04
    33   -3.032666437410e-03
    34    1.365687367667e-05
    35    2.220640177454e-05
    36    1.603715627206e-15
    37   -1.042117311031e-05
    38    8.427837073136e-06
    39   -7.336512696654e-05
    40    5.420483185424e-05
    41   -3.993264938777e-06
    42   -1.654484024031e-05
    43    7.841213197969e-16
    44   -4.596926758326e-07
    45   -1.952320794342e-06
    46   -5.826351202638e-06
    47   -1.264566866497e-06
    48    1.085605205099e-15
    49    4.293362898938e-05
    50   -6.402076786643e-06
    51   -9.076837979367e-06
    52   -1.328328445674e-15
    53   -3.364131120272e-04
    54   -2.564689429804e-04
    55    6.448339404548e-05
    56   -9.743409970725e-16
    57   -3.139066681847e-04
    58   -2.847718774029e-04
    59   -5.358930536357e-04
    60    7.225439995644e-15
    61   -9.733337045451e-06
    62    4.582916486264e-16
    63   -6.093966682248e-16
    64   -1.853738738179e-07
    65    2.534195058734e-05
    66   -9.026906330257e-05
    67   -8.337965059117e-05
    68   -1.587870936498e-05
    69   -3.432712811229e-06
    70    2.651212875467e-16
    71    3.889946429632e-05
    72   -1.811110159960e-05
    73   -8.128246340449e-06
    74   -1.495336974637e-15
    75    6.417773346368e-05
    76   -1.125803377961e-05
    77   -6.922573419084e-06
    78    3.139604414848e-15
    79   -3.441992445093e-04
    80   -1.972765139029e-04
    81    1.465956116392e-04
    82   -4.133980633880e-15
    83   -2.053315396638e-06
    84   -5.238528453050e-16
    85   -2.756383852523e-16
    86    1.433911260965e-06
    87   -3.460641859544e-06
    88   -8.386239849773e-06
    89   -6.498212813821e-05
    90    1.430316687769e-05
    91   -1.400433009838e-05
    92   -1.903283595622e-16
    93    2.226058580390e-04
    94    3.249567544760e-04
    95    1.945313467851e-04
    96    4.753692190821e-16
    97   -3.383350466605e-04
    98    1.218353527890e-04
    99    1.378842772128e-04
   100   -3.888310373947e-15
   101   -2.169092423315e-03
   102   -1.164485725892e-03
   103    2.027007150757e-04
   104    9.308936766039e-15
   105   -5.192073411851e-05
   106   -3.294210972835e-16
   107   -1.063204812107e-15
   108    8.359653798843e-05
   109    1.828776060072e-04
   110    5.515638803678e-01
   111    4.717102485089e-01
   112   -1.381677237538e-03
   113   -9.734809840533e-04
   114   -7.644764155552e-16
   115    5.174134217445e-03
   116    6.299306401132e-04
   117    4.849257755097e-04
   118   -2.624488965436e-16
   119   -7.863917023492e-04
   120   -2.571161758700e-04
   121   -1.681642991715e-04
   122    2.412073516061e-15
   123    1.532051216941e-03
   124   -1.243087633531e-05
   125    5.630939008365e-05
   126   -1.961368955232e-15
   127   -5.247238980026e-05
   128   -3.338101941228e-16
   129   -4.205167073139e-17
   130   -4.610961955508e-05
   131   -1.707869881910e-04
   132   -1.864419325072e-05
   133   -3.349665393811e-05
   134   -2.576914339011e-05
   135   -4.116882653112e-06
   136    9.286777559153e-16
   137    9.144854206461e-05
   138    2.310143750551e-05
   139   -4.182506776813e-05
   140   -1.459952354853e-15
   141    4.494989255806e-04
   142   -1.024188703159e-04
   143   -1.966875930826e-04
   144    3.066921719797e-15
   145    4.945707539020e-04
   146   -5.915921843678e-04
   147   -3.674653396611e-05
   148   -4.796605850643e-15
   149   -1.036734142142e-05
   150    8.863623278534e-16
   151   -1.514674030815e-17
   152    2.410460345772e-05
   153   -2.444479125236e-05
   154   -3.553097698609e-05
   155   -6.175540988630e-05
   156   -6.219363174199e-05
   157   -3.565833984106e-05
   158    1.225074391761e-16
   159    1.953530615300e-04
   160   -9.134504597852e-05
   161   -5.330680164201e-05
   162   -2.806318064682e-16
   163    6.705048437169e-04
   164   -7.784673731676e-05
   165   -6.312133870747e-05
   166    3.352094362912e-15
   167    1.493262935485e-03
   168   -3.084137196075e-04
   169    1.157077730940e-04
   170   -5.076913837879e-15
   171   -8.485346869255e-06
   172   -4.447332941771e-16
   173    1.759028050479e-16
   174   -1.219882353600e-05
   175   -1.713197390115e-05
   176   -1.588317908037e-05
   177   -3.240918422390e-05
   178    2.024457068212e-05
   179   -3.001806562887e-05
   180    1.086151850391e-15
   181    9.608242291576e-05
   182    6.037233680553e-05
   183    9.352500638754e-05
   184   -2.796045759053e-15
   185    7.362210942287e-04
   186   -2.953493942144e-04
   187    6.880891166650e-05
   188    8.622141259513e-15
   189    2.602491460811e-03
   190    4.925455256704e-04
   191    1.577244360007e-03
   192   -1.563273511484e-14
   193   -1.400993461781e-05
   194   -3.889196317787e-16
   195    3.284188182120e-16
   196   -6.641006966573e-05
   197    5.261082633932e-05
   198   -1.178776571216e-05
   199    4.904412341341e-05
   200   -9.676284475907e-05
   201   -4.029524366945e-04
   202   -3.102983336189e-05
   203    2.063425336793e-05
   204   -3.068142119975e-16
Sym=X
Ene= 0.031899
Spin=Alpha
Occup=0
     1   -9.433456383892e-16
     2   -6.952862198070e-16
     3   -5.532018040590e-16
     4   -4.762560637098e-16
     5    6.464982440350e-02
     6    1.034196664567e-14
     7   -2.613786837798e-16
     8    8.476441915199e-15
     9    1.059648209904e-01
    10   -4.638330791680e-14
    11    1.045945360272e-13
    12   -1.071993141133e-13
    13    1.189672871480e-01
    14   -7.072524004430e-12
    15   -1.552306616053e-12
    16   -1.654638397550e-12
    17    2.736588515980e-02
    18    2.198183084546e-15
    19    3.540272966492e-02
    20   -2.856900449867e-03
    21   -4.413711414089e-15
    22    3.133875441223e-15
    23    1.232220427477e-15
    24   -8.600002461886e-15
    25    2.770248866873e-13
    26    2.249894005010e-13
    27    3.173292882838e-15
    28    2.707209694240e-15
    29   -1.406968628186e-02
    30    2.131645330238e-15
    31   -3.113615417423e-14
    32   -2.964444089798e-15
    33   -5.736687422651e-13
    34   -2.848936580580e-15
    35   -3.427551154769e-15
    36    5.311364027576e-03
    37   -1.079717340484e-15
    38    3.466069292241e-14
    39    7.135585691285e-14
    40   -2.867703724622e-13
    41   -4.036105732558e-16
    42    2.468088455734e-15
    43    1.239981507267e-03
    44    4.590399596728e-16
    45   -9.632857755401e-16
    46    3.139827500703e-15
    47    3.799304839906e-15
    48   -5.708516423269e-03
    49    1.507854174601e-14
    50   -2.366275015042e-15
    51   -3.146685972690e-15
    52   -1.337167590972e-02
    53   -2.538355448312e-13
    54    6.890531629572e-14
    55    2.109625151003e-13
    56    2.016243576693e-02
    57    6.668560396689e-13
    58    2.919409713569e-13
    59    1.603165950272e-13
    60    2.396246615276e-02
    61    7.372578311394e-15
    62   -1.889827186981e-02
    63    3.825991716712e-02
    64    1.562230820046e-15
    65    2.359696120001e-15
    66    6.262269695602e-17
    67   -1.423468640620e-16
    68   -2.931136345127e-15
    69   -6.319601870163e-16
    70    9.543711642786e-02
    71    2.212121613387e-15
    72    4.523546542728e-16
    73    8.498615503328e-15
    74    1.442595470344e-01
    75    1.718299178174e-15
    76    1.632235913337e-14
    77   -2.555269356287e-14
    78    1.441217721290e-01
    79    2.648635708843e-14
    80   -1.815687462118e-14
    81   -8.587279332151e-14
    82    2.830186896337e-02
    83    4.750709031097e-16
    84    5.553608012750e-03
    85   -2.048361264983e-03
    86    4.109204139101e-19
    87   -4.953698162670e-16
    88    1.902098834460e-15
    89    1.131655271299e-15
    90   -1.868590500848e-16
    91    6.111962553538e-15
    92    9.397164660097e-03
    93   -8.365573603423e-15
    94    1.492845737690e-14
    95   -1.563317732853e-15
    96    1.759866443886e-02
    97   -6.387399011118e-14
    98    3.070020815025e-14
    99    1.346751832033e-13
   100   -2.049594872317e-02
   101   -2.149889016237e-13
   102   -8.926340798099e-14
   103    3.097442099703e-13
   104   -3.212289976388e-02
   105   -7.182852881607e-15
   106   -1.709946240693e-02
   107   -3.119085050539e-02
   108   -1.839001706755e-15
   109   -1.262945358834e-15
   110    3.934737018652e-16
   111    1.369106219354e-16
   112   -7.873784870224e-15
   113    5.768175849825e-15
   114   -1.693958811015e-01
   115    1.202573849825e-15
   116    8.338525691881e-16
   117   -1.091841505931e-14
   118   -2.118421565510e-01
   119   -2.819896859309e-14
   120   -6.843632968187e-15
   121    3.787762705051e-14
   122   -1.665551779972e-01
   123   -9.945250618154e-16
   124    6.359452770245e-14
   125   -4.242806482827e-14
   126   -3.469332234296e-02
   127   -2.060448587917e-15
   128    6.191135938344e-03
   129    3.456149385331e-03
   130   -7.205475570115e-16
   131   -4.047634196097e-16
   132   -1.775038554145e-15
   133   -1.816124536458e-15
   134    5.599932799861e-15
   135   -2.786281080543e-15
   136    7.153567251742e-03
   137   -1.182268123728e-15
   138   -1.869254600073e-15
   139   -3.068135633264e-15
   140    1.231738444566e-02
   141    1.099517843164e-13
   142    5.534480662213e-14
   143   -4.848787392270e-14
   144    9.544169920064e-03
   145   -1.699728796812e-12
   146    6.508877923299e-14
   147    4.353466795677e-13
   148    1.145338606733e-02
   149   -4.264637121230e-15
   150   -2.294911676667e-04
   151    2.604794783060e-04
   152    1.547731744812e-15
   153    2.125626465839e-15
   154    1.867713972881e-15
   155    3.940000890869e-15
   156    1.164084875672e-15
   157    3.642217118383e-15
   158   -1.662470253018e-01
   159   -1.803404084602e-14
   160    1.698667574370e-15
   161   -1.613497140814e-15
   162   -2.609972626546e-01
   163    3.630224473173e-14
   164    2.704761972037e-14
   165    8.246898777769e-14
   166   -3.098565878478e-01
   167    1.493118289922e-12
   168    7.960430586983e-13
   169    4.910506938916e-13
   170   -9.342888699042e-02
   171    3.799675684763e-16
   172    6.989810009849e-04
   173   -5.726798640004e-03
   174    3.580211730935e-16
   175   -9.311982771802e-16
   176   -1.512058016406e-15
   177   -2.711551583148e-15
   178    8.251693035090e-15
   179    6.093701259648e-15
   180    1.338188472915e-01
   181    1.515332710082e-14
   182    2.067124633690e-15
   183   -5.730069255707e-15
   184    2.210741754737e-01
   185    5.358710480440e-14
   186    7.153353065515e-14
   187    1.832788304811e-13
   188    2.395486860571e-01
   189    7.060522500004e-12
   190   -1.731926899137e-12
   191   -4.630074716036e-13
   192    3.470302153403e-02
   193    4.988236476855e-15
   194   -8.418824323112e-03
   195    1.444438668603e-03
   196    1.241433668019e-15
   197    3.708321112624e-15
   198   -5.674723183064e-15
   199    2.425847086937e-14
   200   -1.523399643194e-13
   201    3.521860707534e-13
   202   -7.033937006399e-15
   203    4.047560518880e-15
   204    1.047123545614e-02
[5D]
