[Molden Format]
[Atoms] (Angs)
  C      1    6     -0.00754183     -1.75895763      0.00000000
  H      2    1     -2.09769850     -1.41880678     -0.00000000
  H      3    1     -0.13527422     -2.83956838     -0.00000000
  H      4    1      0.04053511      2.02026369      0.00000000
  C      5    6     -1.22066484      0.39918184     -0.00000000
  O      6    8     -2.25210141      1.05663720     -0.00000000
  C      7    6      1.24009552      0.27789184      0.00000000
  O      8    8      2.33767996      1.06122493      0.00000000
  N      9    7      0.03634586      1.00852936      0.00000000
  N     10    7     -1.18738304     -0.97903470     -0.00000000
  C     11    6      1.22288875     -1.12258096      0.00000000
  H     12    1      2.15640383     -1.68445878      0.00000000
[GTO]
1    0
S    6    1.000000
   4.56324000E+03    1.96665000E-03 
   6.82024000E+02    1.52306000E-02 
   1.54973000E+02    7.61269000E-02 
   4.44553000E+01    2.60801000E-01 
   1.30290000E+01    6.16462000E-01 
   1.82773000E+00    2.21006000E-01 
SP   3    1.000000
   2.09642000E+01    1.14660000E-01   4.02487000E-02 
   4.80331000E+00    9.19999000E-01   2.37594000E-01 
   1.45933000E+00   -3.03068000E-03   8.15854000E-01 
SP   1    1.000000
   4.83456000E-01    1.00000000E+00   1.00000000E+00 
SP   1    1.000000
   1.45585000E-01    1.00000000E+00   1.00000000E+00 
SP   1    1.000000
   4.38000000E-02    1.00000000E+00   1.00000000E+00 
D    1    1.000000
   6.26000000E-01    1.00000000E+00 

2    0
S    3    1.000000
   3.38650000E+01    2.54938000E-02 
   5.09479000E+00    1.90373000E-01 
   1.15879000E+00    8.52161000E-01 
S    1    1.000000
   3.25840000E-01    1.00000000E+00 
S    1    1.000000
   1.02741000E-01    1.00000000E+00 
S    1    1.000000
   3.60000000E-02    1.00000000E+00 
P    1    1.000000
   7.50000000E-01    1.00000000E+00 

3    0
S    3    1.000000
   3.38650000E+01    2.54938000E-02 
   5.09479000E+00    1.90373000E-01 
   1.15879000E+00    8.52161000E-01 
S    1    1.000000
   3.25840000E-01    1.00000000E+00 
S    1    1.000000
   1.02741000E-01    1.00000000E+00 
S    1    1.000000
   3.60000000E-02    1.00000000E+00 
P    1    1.000000
   7.50000000E-01    1.00000000E+00 

4    0
S    3    1.000000
   3.38650000E+01    2.54938000E-02 
   5.09479000E+00    1.90373000E-01 
   1.15879000E+00    8.52161000E-01 
S    1    1.000000
   3.25840000E-01    1.00000000E+00 
S    1    1.000000
   1.02741000E-01    1.00000000E+00 
S    1    1.000000
   3.60000000E-02    1.00000000E+00 
P    1    1.000000
   7.50000000E-01    1.00000000E+00 

5    0
S    6    1.000000
   4.56324000E+03    1.96665000E-03 
   6.82024000E+02    1.52306000E-02 
   1.54973000E+02    7.61269000E-02 
   4.44553000E+01    2.60801000E-01 
   1.30290000E+01    6.16462000E-01 
   1.82773000E+00    2.21006000E-01 
SP   3    1.000000
   2.09642000E+01    1.14660000E-01   4.02487000E-02 
   4.80331000E+00    9.19999000E-01   2.37594000E-01 
   1.45933000E+00   -3.03068000E-03   8.15854000E-01 
SP   1    1.000000
   4.83456000E-01    1.00000000E+00   1.00000000E+00 
SP   1    1.000000
   1.45585000E-01    1.00000000E+00   1.00000000E+00 
SP   1    1.000000
   4.38000000E-02    1.00000000E+00   1.00000000E+00 
D    1    1.000000
   6.26000000E-01    1.00000000E+00 

6    0
S    6    1.000000
   8.58850000E+03    1.89515000E-03 
   1.29723000E+03    1.43859000E-02 
   2.99296000E+02    7.07320000E-02 
   8.73771000E+01    2.40001000E-01 
   2.56789000E+01    5.94797000E-01 
   3.74004000E+00    2.80802000E-01 
SP   3    1.000000
   4.21175000E+01    1.13889000E-01   3.65114000E-02 
   9.62837000E+00    9.20811000E-01   2.37153000E-01 
   2.85332000E+00   -3.27447000E-03   8.19702000E-01 
SP   1    1.000000
   9.05661000E-01    1.00000000E+00   1.00000000E+00 
SP   1    1.000000
   2.55611000E-01    1.00000000E+00   1.00000000E+00 
SP   1    1.000000
   8.45000000E-02    1.00000000E+00   1.00000000E+00 
D    1    1.000000
   1.29200000E+00    1.00000000E+00 

7    0
S    6    1.000000
   4.56324000E+03    1.96665000E-03 
   6.82024000E+02    1.52306000E-02 
   1.54973000E+02    7.61269000E-02 
   4.44553000E+01    2.60801000E-01 
   1.30290000E+01    6.16462000E-01 
   1.82773000E+00    2.21006000E-01 
SP   3    1.000000
   2.09642000E+01    1.14660000E-01   4.02487000E-02 
   4.80331000E+00    9.19999000E-01   2.37594000E-01 
   1.45933000E+00   -3.03068000E-03   8.15854000E-01 
SP   1    1.000000
   4.83456000E-01    1.00000000E+00   1.00000000E+00 
SP   1    1.000000
   1.45585000E-01    1.00000000E+00   1.00000000E+00 
SP   1    1.000000
   4.38000000E-02    1.00000000E+00   1.00000000E+00 
D    1    1.000000
   6.26000000E-01    1.00000000E+00 

8    0
S    6    1.000000
   8.58850000E+03    1.89515000E-03 
   1.29723000E+03    1.43859000E-02 
   2.99296000E+02    7.07320000E-02 
   8.73771000E+01    2.40001000E-01 
   2.56789000E+01    5.94797000E-01 
   3.74004000E+00    2.80802000E-01 
SP   3    1.000000
   4.21175000E+01    1.13889000E-01   3.65114000E-02 
   9.62837000E+00    9.20811000E-01   2.37153000E-01 
   2.85332000E+00   -3.27447000E-03   8.19702000E-01 
SP   1    1.000000
   9.05661000E-01    1.00000000E+00   1.00000000E+00 
SP   1    1.000000
   2.55611000E-01    1.00000000E+00   1.00000000E+00 
SP   1    1.000000
   8.45000000E-02    1.00000000E+00   1.00000000E+00 
D    1    1.000000
   1.29200000E+00    1.00000000E+00 

9    0
S    6    1.000000
   6.29348000E+03    1.96979000E-03 
   9.49044000E+02    1.49613000E-02 
   2.18776000E+02    7.35006000E-02 
   6.36916000E+01    2.48937000E-01 
   1.88282000E+01    6.02460000E-01 
   2.72023000E+00    2.56202000E-01 
SP   3    1.000000
   3.06331000E+01    1.11906000E-01   3.83119000E-02 
   7.02614000E+00    9.21666000E-01   2.37403000E-01 
   2.11205000E+00   -2.56919000E-03   8.17592000E-01 
SP   1    1.000000
   6.84009000E-01    1.00000000E+00   1.00000000E+00 
SP   1    1.000000
   2.00878000E-01    1.00000000E+00   1.00000000E+00 
SP   1    1.000000
   6.39000000E-02    1.00000000E+00   1.00000000E+00 
D    1    1.000000
   9.13000000E-01    1.00000000E+00 

10    0
S    6    1.000000
   6.29348000E+03    1.96979000E-03 
   9.49044000E+02    1.49613000E-02 
   2.18776000E+02    7.35006000E-02 
   6.36916000E+01    2.48937000E-01 
   1.88282000E+01    6.02460000E-01 
   2.72023000E+00    2.56202000E-01 
SP   3    1.000000
   3.06331000E+01    1.11906000E-01   3.83119000E-02 
   7.02614000E+00    9.21666000E-01   2.37403000E-01 
   2.11205000E+00   -2.56919000E-03   8.17592000E-01 
SP   1    1.000000
   6.84009000E-01    1.00000000E+00   1.00000000E+00 
SP   1    1.000000
   2.00878000E-01    1.00000000E+00   1.00000000E+00 
SP   1    1.000000
   6.39000000E-02    1.00000000E+00   1.00000000E+00 
D    1    1.000000
   9.13000000E-01    1.00000000E+00 

11    0
S    6    1.000000
   4.56324000E+03    1.96665000E-03 
   6.82024000E+02    1.52306000E-02 
   1.54973000E+02    7.61269000E-02 
   4.44553000E+01    2.60801000E-01 
   1.30290000E+01    6.16462000E-01 
   1.82773000E+00    2.21006000E-01 
SP   3    1.000000
   2.09642000E+01    1.14660000E-01   4.02487000E-02 
   4.80331000E+00    9.19999000E-01   2.37594000E-01 
   1.45933000E+00   -3.03068000E-03   8.15854000E-01 
SP   1    1.000000
   4.83456000E-01    1.00000000E+00   1.00000000E+00 
SP   1    1.000000
   1.45585000E-01    1.00000000E+00   1.00000000E+00 
SP   1    1.000000
   4.38000000E-02    1.00000000E+00   1.00000000E+00 
D    1    1.000000
   6.26000000E-01    1.00000000E+00 

12    0
S    3    1.000000
   3.38650000E+01    2.54938000E-02 
   5.09479000E+00    1.90373000E-01 
   1.15879000E+00    8.52161000E-01 
S    1    1.000000
   3.25840000E-01    1.00000000E+00 
S    1    1.000000
   1.02741000E-01    1.00000000E+00 
S    1    1.000000
   3.60000000E-02    1.00000000E+00 
P    1    1.000000
   7.50000000E-01    1.00000000E+00 

[MO]
Sym=X
Ene= -0.002126
Spin=Alpha
Occup=1
     1    3.157561085585e-07
     2   -4.692356774004e-08
     3    3.870902935093e-06
     4   -4.532223667084e-06
     5    4.651059932898e-16
     6   -1.753772993074e-06
     7   -1.890677531001e-05
     8    1.779588099465e-05
     9   -8.517091206863e-16
    10    2.225510948421e-04
    11   -6.803198357014e-05
    12   -6.602110700951e-06
    13    2.161027654347e-16
    14   -4.610880588626e-04
    15   -5.623540746538e-04
    16   -9.513800821851e-05
    17   -7.016836804237e-15
    18   -2.432829305300e-06
    19   -1.415149587904e-16
    20    5.560380878426e-16
    21   -3.319586459506e-06
    22   -4.600665744033e-06
    23   -4.037147056928e-06
    24   -4.438544481671e-05
    25   -1.180092378825e-04
    26   -2.650126654839e-04
    27   -9.141904480359e-06
    28    8.547720541810e-06
    29   -7.110582019269e-16
    30    4.322176081039e-06
    31   -3.034536112570e-05
    32    6.584136770515e-06
    33   -5.693712823286e-05
    34    1.966005691072e-06
    35   -3.785452123890e-06
    36    1.176717983553e-15
    37   -3.112636052364e-06
    38   -5.940238142853e-05
    39   -6.279830717906e-05
    40   -3.147556466787e-04
    41   -1.082591378562e-05
    42    7.058122100487e-06
    43   -4.714224507231e-16
    44   -4.678892506886e-06
    45    7.629769728133e-05
    46    5.663322033150e-05
    47   -3.518030409539e-05
    48   -1.845409855152e-15
    49   -2.972109305949e-04
    50    3.584617807683e-04
    51   -2.266884141122e-04
    52    2.816422232855e-15
    53    7.677783869298e-05
    54    4.054294913858e-04
    55   -2.942992445087e-04
    56   -4.596922696601e-15
    57   -4.265231084030e-04
    58   -5.959974128402e-04
    59    4.597415899207e-04
    60   -1.625710116190e-15
    61    5.770569846101e-05
    62   -8.331634380699e-16
    63    7.782990854855e-17
    64   -9.120087595975e-05
    65    1.842593239753e-04
    66   -5.514860833822e-01
    67   -4.716797048758e-01
    68   -1.521176647662e-03
    69    1.016800581832e-03
    70   -8.385648771047e-16
    71   -5.502178775175e-03
    72    6.212726625695e-04
    73   -4.215122502997e-04
    74    7.194754246570e-16
    75    1.282515418414e-03
    76   -1.388183723693e-04
    77    1.125486081830e-04
    78   -7.466560861536e-16
    79   -1.468909547561e-03
    80   -7.307932876434e-05
    81    1.128048925798e-05
    82    1.138121682950e-15
    83    8.405640762848e-05
    84   -1.287285119242e-16
    85    1.098135634985e-15
    86    3.158879511021e-05
    87   -8.181868920446e-05
    88    3.957722792864e-07
    89   -5.733046506414e-07
    90    3.834813661425e-06
    91   -2.652557853326e-06
    92    7.593312435664e-16
    93    4.815686994652e-06
    94   -1.652971367941e-05
    95    1.443439763164e-05
    96    1.741670380885e-16
    97    1.785783926864e-04
    98   -5.660632065902e-05
    99    5.026854792642e-05
   100   -6.900816154311e-16
   101   -1.031535292650e-03
   102   -8.056110508677e-05
   103    7.580625692151e-04
   104   -2.807427311074e-15
   105   -2.265647314353e-06
   106    3.156533394448e-16
   107    3.085177719686e-16
   108    6.040847713277e-06
   109   -3.230677656940e-07
   110    6.123711160006e-06
   111    4.327663903166e-06
   112   -3.606744904660e-07
   113    5.587880743148e-07
   114   -8.922384637951e-16
   115    8.899616948138e-06
   116   -9.142760853617e-07
   117   -2.026259959725e-06
   118    2.180381721393e-15
   119   -4.727841440841e-05
   120    1.523738699128e-05
   121    1.201857153807e-05
   122   -1.675580608393e-15
   123    1.604351266386e-04
   124   -8.757598097152e-05
   125   -6.079786229711e-05
   126    6.767637986896e-16
   127   -2.459484311896e-07
   128    2.652395690594e-16
   129   -1.602475644955e-16
   130   -8.753097078394e-07
   131   -6.892913521081e-07
   132   -2.899716002674e-07
   133   -1.369719635896e-06
   134   -1.135586506759e-05
   135   -3.037394956924e-07
   136    3.929385957740e-16
   137    2.411341013047e-05
   138    3.047779871552e-05
   139   -1.400423523731e-07
   140   -1.809239758798e-15
   141   -2.325477956048e-04
   142   -4.619167205894e-05
   143    2.311323644384e-04
   144    3.518020560574e-15
   145    6.644424238433e-05
   146   -5.336837376398e-04
   147    1.979437676831e-05
   148    1.183352686993e-15
   149    6.986183990218e-06
   150    2.377501298050e-16
   151    1.134413110832e-15
   152   -2.092284785923e-05
   153   -9.565489745279e-06
   154   -4.205335076136e-07
   155   -1.374772291481e-06
   156   -5.643496601452e-06
   157    1.004152773172e-05
   158   -8.895499605834e-16
   159    2.589211971499e-05
   160    1.886857433161e-05
   161   -2.895918134618e-05
   162    2.140282404262e-16
   163   -2.749828151267e-04
   164   -2.164945409235e-04
   165   -7.660811611595e-05
   166    9.204672598132e-16
   167    5.595829184304e-05
   168   -3.149427717360e-04
   169    3.387174591856e-04
   170    5.383479481951e-15
   171    8.333714320729e-06
   172   -2.020219607852e-16
   173   -3.196489925795e-16
   174    2.046337582109e-05
   175    1.299613801010e-05
   176   -1.137028422484e-07
   177    5.916896033293e-07
   178   -1.835278465389e-06
   179    6.108909607649e-07
   180    8.727078085291e-17
   181   -9.529306645328e-06
   182    9.668362201518e-06
   183   -3.274569115287e-06
   184    1.300283873837e-15
   185    4.248284015094e-05
   186   -4.115308610766e-05
   187    2.210765511244e-05
   188   -2.871587845668e-15
   189    2.953107041951e-03
   190   -4.373519802918e-04
   191    3.051676696651e-04
   192    7.356122859066e-15
   193   -3.617770080515e-06
   194    4.825202344584e-16
   195    4.863776389010e-17
   196   -2.025564658397e-06
   197    2.657130903718e-06
   198   -9.550748781077e-07
   199    7.954188187336e-06
   200    1.590416684793e-05
   201    1.541504665486e-04
   202    1.768231991975e-07
   203   -3.011030039303e-07
   204    9.816364530902e-16
Sym=X
Ene= 0.002126
Spin=Alpha
Occup=0
     1   -1.375016751293e-03
     2   -2.324189636820e-03
     3   -2.434704279795e-02
     4   -2.664385054723e-03
     5    3.442612649116e-15
     6    8.983965975756e-03
     7   -4.694443016541e-02
     8   -1.801625171174e-03
     9   -1.119692573616e-14
    10   -4.845739651972e-02
    11   -5.541915866730e-02
    12   -3.822624264914e-02
    13   -1.128505662591e-14
    14   -3.185535289789e-01
    15   -1.197891150437e-01
    16   -1.072564246815e-01
    17    2.087261153239e-14
    18   -1.989740359146e-03
    19   -6.158400595332e-15
    20    6.696810670899e-16
    21   -5.996343739536e-04
    22    8.309616360806e-04
    23   -1.643302016802e-03
    24   -7.047960297654e-05
    25    4.507417972813e-02
    26   -2.095144532103e-02
    27   -1.355260354018e-03
    28    1.500907544164e-03
    29    5.961930110562e-15
    30    6.201449220863e-03
    31    6.289814742449e-03
    32   -4.730396130565e-03
    33   -5.312413436397e-02
    34   -1.279724386176e-03
    35    6.590472509354e-04
    36    3.923895331023e-15
    37   -5.926680705837e-03
    38   -1.101359986594e-02
    39   -1.670696828858e-02
    40   -2.070852109552e-02
    41   -2.275453670012e-04
    42    2.363385139018e-03
    43   -7.515803446941e-15
    44   -5.511932852489e-03
    45   -9.738646349739e-03
    46    3.299366018168e-02
    47    2.141953221637e-03
    48   -9.010240390812e-15
    49    1.939194424915e-02
    50    6.625613971605e-02
    51    8.585477499257e-03
    52    3.943641752295e-14
    53    1.818894322082e-01
    54    6.886365685088e-02
    55   -1.001646365692e-01
    56   -2.672243065239e-14
    57    5.676480565953e-02
    58   -3.409879411660e-02
    59   -5.496509459282e-02
    60   -1.520149000237e-14
    61    7.243160993049e-03
    62    1.393269901725e-14
    63    2.337456823976e-15
    64    4.753550437522e-02
    65    3.259670180616e-02
    66   -5.069481213396e-04
    67   -9.539069962596e-04
    68   -1.722989762942e-01
    69   -1.967254792820e-01
    70   -5.256597219652e-15
    71   -1.182902990733e-03
    72   -2.165126538625e-01
    73   -2.541477880200e-01
    74    1.496715307000e-15
    75    3.514098829478e-02
    76   -1.727570544702e-01
    77   -2.164203586312e-01
    78   -8.123463019178e-15
    79    4.283904171966e-02
    80   -4.389599363545e-03
    81   -2.957047227847e-02
    82   -1.841751825455e-14
    83   -4.756356597732e-04
    84    1.949185946689e-15
    85   -2.556461603442e-15
    86   -1.104451752721e-02
    87   -3.318456260132e-03
    88    1.810222425867e-03
    89    2.759681850796e-03
    90    2.601197847314e-02
    91   -2.329321686083e-02
    92   -3.599093222744e-15
    93   -6.772236114961e-03
    94    3.968313238180e-02
    95   -3.914335986520e-02
    96    5.920699378861e-15
    97   -2.732242134977e-02
    98   -1.318928122930e-02
    99    1.218209251836e-01
   100   -2.907610138353e-14
   101   -3.463492634824e-01
   102   -5.577421887448e-02
   103    1.583802524107e-01
   104   -4.711209973381e-14
   105    6.597889845059e-04
   106   -5.650079023770e-15
   107   -1.115171721654e-15
   108   -3.345495012819e-02
   109    2.318449234836e-02
   110   -6.659806361354e-04
   111   -1.165007808384e-03
   112   -1.084793215589e-01
   113    1.261634503131e-01
   114    1.147578313730e-15
   115    5.442515439692e-03
   116   -1.629154449655e-01
   117    1.918584862824e-01
   118   -3.655579702146e-15
   119   -1.784428747924e-02
   120   -1.565046122826e-01
   121    1.950029403298e-01
   122   -1.256651166414e-14
   123   -3.475488601404e-02
   124   -8.209996351756e-03
   125    3.322179665288e-02
   126    5.130763675608e-14
   127   -3.214703833122e-04
   128   -1.181502500218e-15
   129    3.411993300838e-15
   130    7.231098250420e-03
   131   -2.326855522014e-03
   132    6.068231285781e-04
   133    1.002142208667e-03
   134   -8.502846261665e-02
   135   -2.131321813319e-03
   136   -2.665545486535e-15
   137    8.944882350118e-03
   138   -1.207802450023e-01
   139    2.970416872231e-03
   140    1.197561368323e-15
   141   -1.102506510328e-01
   142   -1.199692121094e-01
   143    3.377412349561e-02
   144   -5.824791156922e-15
   145   -1.006029044278e-01
   146    5.031286687615e-02
   147    4.508407258580e-02
   148    6.130193213417e-14
   149    3.404927628955e-03
   150    4.732848568522e-15
   151   -2.402371864988e-16
   152   -8.567295503152e-04
   153    5.947071574564e-04
   154    1.457819682196e-02
   155    2.416250575687e-02
   156    6.260279405727e-03
   157   -4.194709329224e-02
   158   -3.761927758968e-16
   159   -6.100344739739e-02
   160    1.258683408780e-02
   161   -6.116681603639e-02
   162    1.017590452216e-15
   163   -1.937237275781e-01
   164   -5.419766671872e-05
   165   -1.063285813353e-01
   166   -7.380553598237e-15
   167   -1.355454986160e-01
   168    4.881500094692e-03
   169    5.288523284667e-02
   170    3.177965228228e-14
   171    2.300414230855e-03
   172   -2.130566826517e-15
   173   -5.686105861995e-15
   174   -3.568107018816e-03
   175    4.653473543987e-04
   176   -9.610378803802e-03
   177   -1.576133171020e-02
   178    8.264794166804e-03
   179    3.521406324420e-02
   180    5.183920616447e-15
   181    3.376876603049e-02
   182    1.349938824216e-02
   183    4.912705715909e-02
   184   -6.916698255981e-15
   185    2.501942154954e-01
   186   -4.481124623800e-02
   187    9.358391933287e-02
   188    2.202439616018e-14
   189    7.848805162668e-01
   190   -1.173141502193e-01
   191    8.347233290655e-02
   192   -3.073470395342e-14
   193   -5.048240028943e-04
   194   -6.110387882880e-16
   195   -4.297236140312e-15
   196    1.345328727088e-03
   197    2.202129435576e-03
   198    6.991988920441e-04
   199    8.847363490007e-05
   200    1.468910666646e-02
   201    4.184052216146e-02
   202   -5.967319287141e-04
   203   -5.606083982352e-05
   204   -1.432568419604e-16
[5D]
