[Molden Format]
[Atoms] (Angs)
  C      1    6     -0.00754183     -1.75895763      0.00000000
  H      2    1     -2.09769850     -1.41880678     -0.00000000
  H      3    1     -0.13527422     -2.83956838     -0.00000000
  H      4    1      0.04053511      2.02026369      0.00000000
  C      5    6     -1.22066484      0.39918184     -0.00000000
  O      6    8     -2.25210141      1.05663720     -0.00000000
  C      7    6      1.24009552      0.27789184      0.00000000
  O      8    8      2.33767996      1.06122493      0.00000000
  N      9    7      0.03634586      1.00852936      0.00000000
  N     10    7     -1.18738304     -0.97903470     -0.00000000
  C     11    6      1.22288875     -1.12258096      0.00000000
  H     12    1      2.15640383     -1.68445878      0.00000000
[GTO]
1    0
S    6    1.000000
   4.56324000E+03    1.96665000E-03 
   6.82024000E+02    1.52306000E-02 
   1.54973000E+02    7.61269000E-02 
   4.44553000E+01    2.60801000E-01 
   1.30290000E+01    6.16462000E-01 
   1.82773000E+00    2.21006000E-01 
SP   3    1.000000
   2.09642000E+01    1.14660000E-01   4.02487000E-02 
   4.80331000E+00    9.19999000E-01   2.37594000E-01 
   1.45933000E+00   -3.03068000E-03   8.15854000E-01 
SP   1    1.000000
   4.83456000E-01    1.00000000E+00   1.00000000E+00 
SP   1    1.000000
   1.45585000E-01    1.00000000E+00   1.00000000E+00 
SP   1    1.000000
   4.38000000E-02    1.00000000E+00   1.00000000E+00 
D    1    1.000000
   6.26000000E-01    1.00000000E+00 

2    0
S    3    1.000000
   3.38650000E+01    2.54938000E-02 
   5.09479000E+00    1.90373000E-01 
   1.15879000E+00    8.52161000E-01 
S    1    1.000000
   3.25840000E-01    1.00000000E+00 
S    1    1.000000
   1.02741000E-01    1.00000000E+00 
S    1    1.000000
   3.60000000E-02    1.00000000E+00 
P    1    1.000000
   7.50000000E-01    1.00000000E+00 

3    0
S    3    1.000000
   3.38650000E+01    2.54938000E-02 
   5.09479000E+00    1.90373000E-01 
   1.15879000E+00    8.52161000E-01 
S    1    1.000000
   3.25840000E-01    1.00000000E+00 
S    1    1.000000
   1.02741000E-01    1.00000000E+00 
S    1    1.000000
   3.60000000E-02    1.00000000E+00 
P    1    1.000000
   7.50000000E-01    1.00000000E+00 

4    0
S    3    1.000000
   3.38650000E+01    2.54938000E-02 
   5.09479000E+00    1.90373000E-01 
   1.15879000E+00    8.52161000E-01 
S    1    1.000000
   3.25840000E-01    1.00000000E+00 
S    1    1.000000
   1.02741000E-01    1.00000000E+00 
S    1    1.000000
   3.60000000E-02    1.00000000E+00 
P    1    1.000000
   7.50000000E-01    1.00000000E+00 

5    0
S    6    1.000000
   4.56324000E+03    1.96665000E-03 
   6.82024000E+02    1.52306000E-02 
   1.54973000E+02    7.61269000E-02 
   4.44553000E+01    2.60801000E-01 
   1.30290000E+01    6.16462000E-01 
   1.82773000E+00    2.21006000E-01 
SP   3    1.000000
   2.09642000E+01    1.14660000E-01   4.02487000E-02 
   4.80331000E+00    9.19999000E-01   2.37594000E-01 
   1.45933000E+00   -3.03068000E-03   8.15854000E-01 
SP   1    1.000000
   4.83456000E-01    1.00000000E+00   1.00000000E+00 
SP   1    1.000000
   1.45585000E-01    1.00000000E+00   1.00000000E+00 
SP   1    1.000000
   4.38000000E-02    1.00000000E+00   1.00000000E+00 
D    1    1.000000
   6.26000000E-01    1.00000000E+00 

6    0
S    6    1.000000
   8.58850000E+03    1.89515000E-03 
   1.29723000E+03    1.43859000E-02 
   2.99296000E+02    7.07320000E-02 
   8.73771000E+01    2.40001000E-01 
   2.56789000E+01    5.94797000E-01 
   3.74004000E+00    2.80802000E-01 
SP   3    1.000000
   4.21175000E+01    1.13889000E-01   3.65114000E-02 
   9.62837000E+00    9.20811000E-01   2.37153000E-01 
   2.85332000E+00   -3.27447000E-03   8.19702000E-01 
SP   1    1.000000
   9.05661000E-01    1.00000000E+00   1.00000000E+00 
SP   1    1.000000
   2.55611000E-01    1.00000000E+00   1.00000000E+00 
SP   1    1.000000
   8.45000000E-02    1.00000000E+00   1.00000000E+00 
D    1    1.000000
   1.29200000E+00    1.00000000E+00 

7    0
S    6    1.000000
   4.56324000E+03    1.96665000E-03 
   6.82024000E+02    1.52306000E-02 
   1.54973000E+02    7.61269000E-02 
   4.44553000E+01    2.60801000E-01 
   1.30290000E+01    6.16462000E-01 
   1.82773000E+00    2.21006000E-01 
SP   3    1.000000
   2.09642000E+01    1.14660000E-01   4.02487000E-02 
   4.80331000E+00    9.19999000E-01   2.37594000E-01 
   1.45933000E+00   -3.03068000E-03   8.15854000E-01 
SP   1    1.000000
   4.83456000E-01    1.00000000E+00   1.00000000E+00 
SP   1    1.000000
   1.45585000E-01    1.00000000E+00   1.00000000E+00 
SP   1    1.000000
   4.38000000E-02    1.00000000E+00   1.00000000E+00 
D    1    1.000000
   6.26000000E-01    1.00000000E+00 

8    0
S    6    1.000000
   8.58850000E+03    1.89515000E-03 
   1.29723000E+03    1.43859000E-02 
   2.99296000E+02    7.07320000E-02 
   8.73771000E+01    2.40001000E-01 
   2.56789000E+01    5.94797000E-01 
   3.74004000E+00    2.80802000E-01 
SP   3    1.000000
   4.21175000E+01    1.13889000E-01   3.65114000E-02 
   9.62837000E+00    9.20811000E-01   2.37153000E-01 
   2.85332000E+00   -3.27447000E-03   8.19702000E-01 
SP   1    1.000000
   9.05661000E-01    1.00000000E+00   1.00000000E+00 
SP   1    1.000000
   2.55611000E-01    1.00000000E+00   1.00000000E+00 
SP   1    1.000000
   8.45000000E-02    1.00000000E+00   1.00000000E+00 
D    1    1.000000
   1.29200000E+00    1.00000000E+00 

9    0
S    6    1.000000
   6.29348000E+03    1.96979000E-03 
   9.49044000E+02    1.49613000E-02 
   2.18776000E+02    7.35006000E-02 
   6.36916000E+01    2.48937000E-01 
   1.88282000E+01    6.02460000E-01 
   2.72023000E+00    2.56202000E-01 
SP   3    1.000000
   3.06331000E+01    1.11906000E-01   3.83119000E-02 
   7.02614000E+00    9.21666000E-01   2.37403000E-01 
   2.11205000E+00   -2.56919000E-03   8.17592000E-01 
SP   1    1.000000
   6.84009000E-01    1.00000000E+00   1.00000000E+00 
SP   1    1.000000
   2.00878000E-01    1.00000000E+00   1.00000000E+00 
SP   1    1.000000
   6.39000000E-02    1.00000000E+00   1.00000000E+00 
D    1    1.000000
   9.13000000E-01    1.00000000E+00 

10    0
S    6    1.000000
   6.29348000E+03    1.96979000E-03 
   9.49044000E+02    1.49613000E-02 
   2.18776000E+02    7.35006000E-02 
   6.36916000E+01    2.48937000E-01 
   1.88282000E+01    6.02460000E-01 
   2.72023000E+00    2.56202000E-01 
SP   3    1.000000
   3.06331000E+01    1.11906000E-01   3.83119000E-02 
   7.02614000E+00    9.21666000E-01   2.37403000E-01 
   2.11205000E+00   -2.56919000E-03   8.17592000E-01 
SP   1    1.000000
   6.84009000E-01    1.00000000E+00   1.00000000E+00 
SP   1    1.000000
   2.00878000E-01    1.00000000E+00   1.00000000E+00 
SP   1    1.000000
   6.39000000E-02    1.00000000E+00   1.00000000E+00 
D    1    1.000000
   9.13000000E-01    1.00000000E+00 

11    0
S    6    1.000000
   4.56324000E+03    1.96665000E-03 
   6.82024000E+02    1.52306000E-02 
   1.54973000E+02    7.61269000E-02 
   4.44553000E+01    2.60801000E-01 
   1.30290000E+01    6.16462000E-01 
   1.82773000E+00    2.21006000E-01 
SP   3    1.000000
   2.09642000E+01    1.14660000E-01   4.02487000E-02 
   4.80331000E+00    9.19999000E-01   2.37594000E-01 
   1.45933000E+00   -3.03068000E-03   8.15854000E-01 
SP   1    1.000000
   4.83456000E-01    1.00000000E+00   1.00000000E+00 
SP   1    1.000000
   1.45585000E-01    1.00000000E+00   1.00000000E+00 
SP   1    1.000000
   4.38000000E-02    1.00000000E+00   1.00000000E+00 
D    1    1.000000
   6.26000000E-01    1.00000000E+00 

12    0
S    3    1.000000
   3.38650000E+01    2.54938000E-02 
   5.09479000E+00    1.90373000E-01 
   1.15879000E+00    8.52161000E-01 
S    1    1.000000
   3.25840000E-01    1.00000000E+00 
S    1    1.000000
   1.02741000E-01    1.00000000E+00 
S    1    1.000000
   3.60000000E-02    1.00000000E+00 
P    1    1.000000
   7.50000000E-01    1.00000000E+00 

[MO]
Sym=X
Ene= -0.206373
Spin=Alpha
Occup=1
     1    1.772303911029e-05
     2    3.048008003948e-05
     3   -2.866415273971e-07
     4    4.943734244342e-05
     5    4.681734974174e-16
     6   -1.067681825167e-04
     7   -1.881326118630e-05
     8    1.028713195540e-04
     9   -8.471580316170e-16
    10   -7.267649042534e-05
    11   -9.704498054373e-05
    12    1.838997759550e-04
    13    2.247919905094e-16
    14   -1.184338173277e-03
    15   -6.859302738739e-04
    16    1.025509701211e-03
    17   -6.959074798742e-15
    18    4.629120631646e-06
    19   -1.408559912122e-16
    20    5.566004429386e-16
    21   -2.198580049090e-05
    22    5.785595478034e-07
    23    1.172273312708e-05
    24    3.094676249193e-05
    25    2.352652951216e-04
    26    5.070772370570e-04
    27   -2.245636419281e-05
    28   -1.828535151844e-06
    29   -7.115815850789e-16
    30    3.622017561712e-06
    31   -1.154784174557e-05
    32    3.467147494169e-04
    33    1.639751259502e-03
    34   -3.503030334292e-06
    35   -1.757839844320e-05
    36    1.176161604264e-15
    37    6.143104096392e-06
    38   -4.103654320247e-05
    39    1.515007072778e-05
    40   -2.958909420652e-04
    41   -1.058973819278e-05
    42    1.119217041533e-05
    43   -4.709965508832e-16
    44   -4.548148829814e-06
    45    7.721684043184e-05
    46    6.103534777795e-05
    47   -3.437339715546e-05
    48   -1.844295044352e-15
    49   -3.221786044322e-04
    50    3.621413164253e-04
    51   -2.204906938368e-04
    52    2.822617196087e-15
    53    2.036785315011e-04
    54    4.729574825069e-04
    55   -3.253800220634e-04
    56   -4.605218530580e-15
    57   -3.374332096973e-04
    58   -4.068470167918e-04
    59    6.832830502720e-04
    60   -1.775609265635e-15
    61    6.574043939699e-05
    62   -8.320262618582e-16
    63    7.794115393580e-17
    64   -9.028643064353e-05
    65    1.709733992567e-04
    66   -5.514814371733e-01
    67   -4.716718520598e-01
    68   -1.511943921086e-03
    69    1.019084016137e-03
    70   -8.397466874974e-16
    71   -5.527579703378e-03
    72    6.327550185111e-04
    73   -4.178391160314e-04
    74    7.239010583994e-16
    75    1.243676781928e-03
    76   -1.297117438685e-04
    77    1.231774759505e-04
    78   -7.529376521544e-16
    79   -1.422449770579e-03
    80   -3.894971773059e-05
    81   -5.374567266530e-05
    82    1.227445287787e-15
    83    8.540603352677e-05
    84   -1.283042668397e-16
    85    1.097824487532e-15
    86    3.140498511598e-05
    87   -7.998469468101e-05
    88    5.172306395053e-06
    89    7.975301824740e-06
    90   -1.127827833959e-06
    91    1.130507587606e-05
    92    7.549842227671e-16
    93   -3.240397002916e-05
    94   -2.187320803125e-05
    95    3.573199218445e-05
    96    1.598701648571e-16
    97    1.780247595384e-04
    98   -1.253562095410e-04
    99    5.523490493434e-05
   100   -6.685951528668e-16
   101   -9.222387210137e-04
   102    1.676492128422e-04
   103    8.414398285139e-04
   104   -2.199147257360e-15
   105    2.163794753296e-06
   106    3.155287494375e-16
   107    3.082668232953e-16
   108    8.139463596916e-06
   109    8.365305967781e-06
   110    6.697957574291e-06
   111    6.337098260551e-06
   112   -3.359261528683e-06
   113   -1.128877268048e-05
   114   -8.861232737960e-16
   115   -1.698639187350e-06
   116   -6.014659026460e-06
   117   -1.982606897183e-05
   118    2.182859259156e-15
   119   -4.884145201210e-05
   120    1.751669539034e-05
   121   -7.620902893574e-06
   122   -1.621011567556e-15
   123    1.411855080173e-04
   124   -1.378556985468e-04
   125   -1.113281407658e-04
   126    4.214313501134e-16
   127    5.632162936438e-07
   128    2.645004571425e-16
   129   -1.607281759350e-16
   130   -7.103921275781e-07
   131   -1.525621748278e-06
   132    1.166199263300e-05
   133    1.924090031128e-05
   134   -4.244950577533e-06
   135    5.790499142244e-06
   136    3.965866127234e-16
   137   -4.001873667996e-05
   138    4.194898333597e-05
   139    1.109613836007e-05
   140   -1.805555918976e-15
   141   -4.243405500290e-04
   142   -2.531368255547e-05
   143    2.770477734305e-04
   144    3.545330584490e-15
   145   -4.296866977803e-04
   146   -5.104746036964e-04
   147    2.282935904622e-05
   148    9.984787776733e-16
   149    8.754896567420e-06
   150    2.382855127324e-16
   151    1.134448284390e-15
   152   -2.368033625698e-05
   153   -9.045840739610e-06
   154    2.141674527280e-05
   155    3.637097450141e-05
   156    3.167538545866e-05
   157    3.169060314431e-05
   158   -8.859318875419e-16
   159   -9.646958665764e-05
   160    7.675492124618e-05
   161    3.803858876262e-06
   162    2.181894616794e-16
   163   -6.183376182834e-04
   164   -1.309346635736e-04
   165   -3.521378084501e-05
   166    9.376735039151e-16
   167   -7.461127697555e-04
   168   -1.644245692549e-04
   169    2.522960910481e-04
   170    5.351438442340e-15
   171    1.339567026595e-05
   172   -2.013363155899e-16
   173   -3.204202461282e-16
   174    2.772851100170e-05
   175    2.208509355571e-05
   176    1.084839968045e-05
   177    1.957861219817e-05
   178   -1.866616246882e-05
   179    7.398119526777e-06
   180    8.311088945255e-17
   181   -7.033798742388e-05
   182   -1.691329256850e-05
   183    4.518875489434e-06
   184    1.299970982192e-15
   185   -1.684916966768e-04
   186   -6.056653994071e-05
   187    1.814369231881e-05
   188   -2.883431436465e-15
   189    2.411339772362e-03
   190   -7.187238305357e-04
   191   -2.140946253501e-05
   192    7.078963215950e-15
   193    1.994768053858e-06
   194    4.816141673634e-16
   195    4.591427494671e-17
   196    7.808987130826e-06
   197   -9.504538039340e-06
   198    7.524078554251e-06
   199    3.511218093380e-05
   200    1.280381441086e-04
   201    6.167103515593e-04
   202    5.659586967077e-06
   203   -5.019028027557e-06
   204    9.813280386176e-16
Sym=X
Ene= 0.206373
Spin=Alpha
Occup=0
     1   -2.353174243083e-16
     2   -1.917652420116e-15
     3    1.588847363738e-16
     4    8.196639336017e-15
     5   -8.224466180429e-02
     6    1.324575726161e-15
     7   -7.204061534112e-15
     8   -1.027574184814e-15
     9   -1.350052869245e-01
    10    1.622691313782e-13
    11   -9.427809145649e-15
    12    1.931875872240e-13
    13   -1.587782757632e-01
    14    7.383262722006e-12
    15    1.405180271715e-12
    16    2.120514356413e-12
    17   -2.322088208513e-02
    18    2.164660211727e-15
    19   -3.162330566829e-02
    20   -1.503223881915e-03
    21    1.373212352560e-15
    22   -6.903831555853e-16
    23   -4.191369338091e-15
    24    4.217932726874e-14
    25   -5.998418160012e-13
    26    2.154224553437e-13
    27    5.754402644999e-16
    28   -1.125773532083e-15
    29    1.483188325160e-02
    30   -2.383573287024e-16
    31    3.543464609086e-15
    32    2.464963985636e-13
    33    6.594408666094e-13
    34    4.844619289993e-15
    35    1.774546887319e-16
    36   -5.935617786956e-03
    37    6.005888990780e-15
    38   -6.247469340294e-14
    39    2.575272006433e-13
    40   -8.087732226086e-14
    41   -3.884866112753e-15
    42   -6.916223714983e-17
    43   -2.035849486980e-03
    44   -7.403582204456e-16
    45    2.639225323310e-17
    46   -3.072901999112e-15
    47   -3.021902009491e-15
    48    1.296370413381e-02
    49   -1.792913440584e-15
    50    2.866000526381e-16
    51   -3.007197792374e-15
    52    2.876885189389e-02
    53    1.056242236471e-13
    54    7.358143686379e-14
    55   -1.880558852245e-13
    56   -8.442428504518e-03
    57   -1.793917792030e-12
    58   -1.105108092885e-13
    59    8.330079944980e-13
    60   -2.756736259688e-02
    61   -5.549632394633e-15
    62    1.012713908323e-02
    63   -3.904806989433e-02
    64    1.030310579939e-15
    65    2.061778568881e-15
    66   -3.380513926324e-16
    67   -6.447908571394e-16
    68    2.335584281607e-15
    69    2.745635652213e-15
    70   -1.300825562760e-01
    71    2.277511487045e-15
    72   -4.488485919866e-15
    73   -4.493819518405e-15
    74   -1.634388507253e-01
    75    2.535183339311e-14
    76    2.574242972934e-14
    77    2.274130992122e-14
    78   -1.283231651785e-01
    79    1.532608278590e-13
    80    1.029002422798e-13
    81    2.415667135780e-14
    82   -1.603410024514e-02
    83   -3.563599186684e-16
    84   -5.576913376046e-03
    85    1.812013762472e-03
    86   -4.495053563147e-16
    87   -6.005540413015e-17
    88    1.747346455089e-15
    89    5.346245486607e-15
    90    2.901081445251e-15
    91    1.232445594857e-15
    92    7.797339175171e-03
    93   -1.294292633188e-14
    94   -1.618812272999e-14
    95    1.544009451142e-14
    96    1.408843104613e-02
    97    8.829680773572e-16
    98   -1.004851485603e-13
    99   -2.481794537629e-14
   100    4.906129256061e-02
   101    4.296247576291e-12
   102   -3.663970306292e-13
   103   -8.202872573988e-13
   104    4.187488487839e-02
   105   -1.646993219341e-15
   106    2.470830710594e-02
   107    3.121755151576e-02
   108    6.526752931482e-15
   109   -5.430063630853e-15
   110    3.675930154129e-16
   111    1.513627428898e-15
   112    5.540728339826e-15
   113   -9.436555940292e-15
   114    1.259508201338e-01
   115   -1.251659350110e-14
   116   -2.212794608352e-15
   117   -6.698516387297e-16
   118    1.904546707204e-01
   119    7.056489827871e-14
   120   -1.994449855738e-16
   121   -4.128222596422e-14
   122    1.900086143886e-01
   123   -1.822669071479e-13
   124   -7.304686998644e-14
   125    1.259425075435e-13
   126    4.430452753630e-02
   127    7.119660722919e-16
   128   -7.124782389038e-03
   129   -4.128827636339e-03
   130   -7.523979054456e-16
   131    5.404308345749e-16
   132   -2.020344321386e-15
   133   -5.519688267207e-15
   134   -2.385578414395e-15
   135   -4.764226862229e-15
   136   -2.447696063480e-02
   137    2.606101086606e-14
   138   -5.979660032515e-17
   139   -1.424686482157e-14
   140   -3.796011821318e-02
   141   -1.847521231878e-14
   142   -3.949211308837e-14
   143    1.049858382447e-13
   144   -4.964500809080e-02
   145   -4.808756582267e-13
   146    8.508572898346e-14
   147   -3.315688402567e-13
   148   -2.353594178824e-02
   149   -1.746584482909e-15
   150    1.547444844439e-03
   151    2.144769460102e-04
   152   -3.061663643629e-15
   153   -1.232133334529e-15
   154    7.555102133838e-16
   155    3.796630461221e-16
   156   -8.423516891811e-15
   157   -5.552623076171e-15
   158    1.586556036866e-01
   159    1.422468460074e-14
   160   -1.174006738705e-14
   161   -4.647456703597e-15
   162    2.494524574165e-01
   163   -2.139663222579e-13
   164   -5.485996674444e-14
   165   -6.091299479521e-14
   166    2.978327505483e-01
   167    4.966589145020e-13
   168   -7.688100734664e-13
   169    6.390849822214e-15
   170    9.247037932163e-02
   171    3.990369377630e-15
   172   -5.441979224492e-03
   173    8.583074893746e-03
   174   -6.612079698282e-19
   175   -2.066408080622e-15
   176    5.988222532014e-16
   177    1.268273967227e-15
   178   -1.739970038873e-15
   179    1.059540600403e-15
   180   -1.318663670700e-01
   181   -2.023423604961e-14
   182   -3.794425966147e-15
   183    3.497416743191e-15
   184   -2.179141490461e-01
   185    3.697600720066e-14
   186    1.686057073218e-13
   187    1.328801214903e-14
   188   -2.336409418708e-01
   189   -9.462628958737e-12
   190    2.499853971967e-12
   191   -8.799263664891e-13
   192   -4.165019922392e-02
   193   -3.097012426230e-15
   194    1.403499109649e-02
   195    1.527266008116e-03
   196    3.954515976447e-15
   197   -2.819810258798e-15
   198    2.537835527415e-15
   199   -4.230113265391e-14
   200   -1.849646821004e-13
   201   -1.078626254424e-12
   202    6.659102770839e-15
   203   -5.595753277717e-15
   204   -1.005225778391e-02
[5D]
