[Molden Format]
[Atoms] (Angs)
  C      1    6     -0.00754183     -1.75895763      0.00000000
  H      2    1     -2.09769850     -1.41880678     -0.00000000
  H      3    1     -0.13527422     -2.83956838     -0.00000000
  H      4    1      0.04053511      2.02026369      0.00000000
  C      5    6     -1.22066484      0.39918184     -0.00000000
  O      6    8     -2.25210141      1.05663720     -0.00000000
  C      7    6      1.24009552      0.27789184      0.00000000
  O      8    8      2.33767996      1.06122493      0.00000000
  N      9    7      0.03634586      1.00852936      0.00000000
  N     10    7     -1.18738304     -0.97903470     -0.00000000
  C     11    6      1.22288875     -1.12258096      0.00000000
  H     12    1      2.15640383     -1.68445878      0.00000000
[GTO]
1    0
S    6    1.000000
   4.56324000E+03    1.96665000E-03 
   6.82024000E+02    1.52306000E-02 
   1.54973000E+02    7.61269000E-02 
   4.44553000E+01    2.60801000E-01 
   1.30290000E+01    6.16462000E-01 
   1.82773000E+00    2.21006000E-01 
SP   3    1.000000
   2.09642000E+01    1.14660000E-01   4.02487000E-02 
   4.80331000E+00    9.19999000E-01   2.37594000E-01 
   1.45933000E+00   -3.03068000E-03   8.15854000E-01 
SP   1    1.000000
   4.83456000E-01    1.00000000E+00   1.00000000E+00 
SP   1    1.000000
   1.45585000E-01    1.00000000E+00   1.00000000E+00 
SP   1    1.000000
   4.38000000E-02    1.00000000E+00   1.00000000E+00 
D    1    1.000000
   6.26000000E-01    1.00000000E+00 

2    0
S    3    1.000000
   3.38650000E+01    2.54938000E-02 
   5.09479000E+00    1.90373000E-01 
   1.15879000E+00    8.52161000E-01 
S    1    1.000000
   3.25840000E-01    1.00000000E+00 
S    1    1.000000
   1.02741000E-01    1.00000000E+00 
S    1    1.000000
   3.60000000E-02    1.00000000E+00 
P    1    1.000000
   7.50000000E-01    1.00000000E+00 

3    0
S    3    1.000000
   3.38650000E+01    2.54938000E-02 
   5.09479000E+00    1.90373000E-01 
   1.15879000E+00    8.52161000E-01 
S    1    1.000000
   3.25840000E-01    1.00000000E+00 
S    1    1.000000
   1.02741000E-01    1.00000000E+00 
S    1    1.000000
   3.60000000E-02    1.00000000E+00 
P    1    1.000000
   7.50000000E-01    1.00000000E+00 

4    0
S    3    1.000000
   3.38650000E+01    2.54938000E-02 
   5.09479000E+00    1.90373000E-01 
   1.15879000E+00    8.52161000E-01 
S    1    1.000000
   3.25840000E-01    1.00000000E+00 
S    1    1.000000
   1.02741000E-01    1.00000000E+00 
S    1    1.000000
   3.60000000E-02    1.00000000E+00 
P    1    1.000000
   7.50000000E-01    1.00000000E+00 

5    0
S    6    1.000000
   4.56324000E+03    1.96665000E-03 
   6.82024000E+02    1.52306000E-02 
   1.54973000E+02    7.61269000E-02 
   4.44553000E+01    2.60801000E-01 
   1.30290000E+01    6.16462000E-01 
   1.82773000E+00    2.21006000E-01 
SP   3    1.000000
   2.09642000E+01    1.14660000E-01   4.02487000E-02 
   4.80331000E+00    9.19999000E-01   2.37594000E-01 
   1.45933000E+00   -3.03068000E-03   8.15854000E-01 
SP   1    1.000000
   4.83456000E-01    1.00000000E+00   1.00000000E+00 
SP   1    1.000000
   1.45585000E-01    1.00000000E+00   1.00000000E+00 
SP   1    1.000000
   4.38000000E-02    1.00000000E+00   1.00000000E+00 
D    1    1.000000
   6.26000000E-01    1.00000000E+00 

6    0
S    6    1.000000
   8.58850000E+03    1.89515000E-03 
   1.29723000E+03    1.43859000E-02 
   2.99296000E+02    7.07320000E-02 
   8.73771000E+01    2.40001000E-01 
   2.56789000E+01    5.94797000E-01 
   3.74004000E+00    2.80802000E-01 
SP   3    1.000000
   4.21175000E+01    1.13889000E-01   3.65114000E-02 
   9.62837000E+00    9.20811000E-01   2.37153000E-01 
   2.85332000E+00   -3.27447000E-03   8.19702000E-01 
SP   1    1.000000
   9.05661000E-01    1.00000000E+00   1.00000000E+00 
SP   1    1.000000
   2.55611000E-01    1.00000000E+00   1.00000000E+00 
SP   1    1.000000
   8.45000000E-02    1.00000000E+00   1.00000000E+00 
D    1    1.000000
   1.29200000E+00    1.00000000E+00 

7    0
S    6    1.000000
   4.56324000E+03    1.96665000E-03 
   6.82024000E+02    1.52306000E-02 
   1.54973000E+02    7.61269000E-02 
   4.44553000E+01    2.60801000E-01 
   1.30290000E+01    6.16462000E-01 
   1.82773000E+00    2.21006000E-01 
SP   3    1.000000
   2.09642000E+01    1.14660000E-01   4.02487000E-02 
   4.80331000E+00    9.19999000E-01   2.37594000E-01 
   1.45933000E+00   -3.03068000E-03   8.15854000E-01 
SP   1    1.000000
   4.83456000E-01    1.00000000E+00   1.00000000E+00 
SP   1    1.000000
   1.45585000E-01    1.00000000E+00   1.00000000E+00 
SP   1    1.000000
   4.38000000E-02    1.00000000E+00   1.00000000E+00 
D    1    1.000000
   6.26000000E-01    1.00000000E+00 

8    0
S    6    1.000000
   8.58850000E+03    1.89515000E-03 
   1.29723000E+03    1.43859000E-02 
   2.99296000E+02    7.07320000E-02 
   8.73771000E+01    2.40001000E-01 
   2.56789000E+01    5.94797000E-01 
   3.74004000E+00    2.80802000E-01 
SP   3    1.000000
   4.21175000E+01    1.13889000E-01   3.65114000E-02 
   9.62837000E+00    9.20811000E-01   2.37153000E-01 
   2.85332000E+00   -3.27447000E-03   8.19702000E-01 
SP   1    1.000000
   9.05661000E-01    1.00000000E+00   1.00000000E+00 
SP   1    1.000000
   2.55611000E-01    1.00000000E+00   1.00000000E+00 
SP   1    1.000000
   8.45000000E-02    1.00000000E+00   1.00000000E+00 
D    1    1.000000
   1.29200000E+00    1.00000000E+00 

9    0
S    6    1.000000
   6.29348000E+03    1.96979000E-03 
   9.49044000E+02    1.49613000E-02 
   2.18776000E+02    7.35006000E-02 
   6.36916000E+01    2.48937000E-01 
   1.88282000E+01    6.02460000E-01 
   2.72023000E+00    2.56202000E-01 
SP   3    1.000000
   3.06331000E+01    1.11906000E-01   3.83119000E-02 
   7.02614000E+00    9.21666000E-01   2.37403000E-01 
   2.11205000E+00   -2.56919000E-03   8.17592000E-01 
SP   1    1.000000
   6.84009000E-01    1.00000000E+00   1.00000000E+00 
SP   1    1.000000
   2.00878000E-01    1.00000000E+00   1.00000000E+00 
SP   1    1.000000
   6.39000000E-02    1.00000000E+00   1.00000000E+00 
D    1    1.000000
   9.13000000E-01    1.00000000E+00 

10    0
S    6    1.000000
   6.29348000E+03    1.96979000E-03 
   9.49044000E+02    1.49613000E-02 
   2.18776000E+02    7.35006000E-02 
   6.36916000E+01    2.48937000E-01 
   1.88282000E+01    6.02460000E-01 
   2.72023000E+00    2.56202000E-01 
SP   3    1.000000
   3.06331000E+01    1.11906000E-01   3.83119000E-02 
   7.02614000E+00    9.21666000E-01   2.37403000E-01 
   2.11205000E+00   -2.56919000E-03   8.17592000E-01 
SP   1    1.000000
   6.84009000E-01    1.00000000E+00   1.00000000E+00 
SP   1    1.000000
   2.00878000E-01    1.00000000E+00   1.00000000E+00 
SP   1    1.000000
   6.39000000E-02    1.00000000E+00   1.00000000E+00 
D    1    1.000000
   9.13000000E-01    1.00000000E+00 

11    0
S    6    1.000000
   4.56324000E+03    1.96665000E-03 
   6.82024000E+02    1.52306000E-02 
   1.54973000E+02    7.61269000E-02 
   4.44553000E+01    2.60801000E-01 
   1.30290000E+01    6.16462000E-01 
   1.82773000E+00    2.21006000E-01 
SP   3    1.000000
   2.09642000E+01    1.14660000E-01   4.02487000E-02 
   4.80331000E+00    9.19999000E-01   2.37594000E-01 
   1.45933000E+00   -3.03068000E-03   8.15854000E-01 
SP   1    1.000000
   4.83456000E-01    1.00000000E+00   1.00000000E+00 
SP   1    1.000000
   1.45585000E-01    1.00000000E+00   1.00000000E+00 
SP   1    1.000000
   4.38000000E-02    1.00000000E+00   1.00000000E+00 
D    1    1.000000
   6.26000000E-01    1.00000000E+00 

12    0
S    3    1.000000
   3.38650000E+01    2.54938000E-02 
   5.09479000E+00    1.90373000E-01 
   1.15879000E+00    8.52161000E-01 
S    1    1.000000
   3.25840000E-01    1.00000000E+00 
S    1    1.000000
   1.02741000E-01    1.00000000E+00 
S    1    1.000000
   3.60000000E-02    1.00000000E+00 
P    1    1.000000
   7.50000000E-01    1.00000000E+00 

[MO]
Sym=X
Ene= -0.448563
Spin=Alpha
Occup=1
     1    2.879045138577e-07
     2   -2.904184523367e-06
     3   -3.851394898756e-07
     4   -1.893130719459e-06
     5   -6.187840136522e-16
     6    2.027342049543e-05
     7    1.116613402087e-05
     8    1.436630338202e-05
     9    1.118770841049e-15
    10   -3.418165469960e-04
    11   -7.709572376958e-05
    12   -2.040030314836e-04
    13   -6.681032991468e-15
    14   -1.682376744642e-04
    15    2.345437033518e-04
    16   -6.133971622059e-04
    17    1.044085517612e-14
    18    1.176188156210e-06
    19   -6.784843802915e-16
    20   -1.001127673895e-15
    21   -2.735938646850e-06
    22    1.232172822063e-05
    23    4.830180093809e-07
    24    1.082263236380e-05
    25   -6.131975239721e-05
    26    5.607530445104e-05
    27   -2.070087731010e-06
    28    1.291380434785e-06
    29   -1.223130524732e-15
    30   -4.286815539514e-07
    31   -4.890519159252e-06
    32   -1.376550935328e-04
    33   -3.009745046106e-04
    34    4.755652556551e-06
    35   -4.021637135728e-09
    36    1.602660463868e-15
    37    4.551265221383e-06
    38    3.790377010181e-05
    39    5.144194768128e-05
    40    8.305781829392e-05
    41   -3.624635803611e-06
    42   -9.905228746265e-06
    43    7.847888332564e-16
    44   -2.376034779546e-07
    45   -4.579887258235e-07
    46    1.314094642417e-06
    47    1.193625235844e-08
    48    1.088465312660e-15
    49    2.413614126104e-06
    50   -4.788677247127e-07
    51    9.481072314415e-07
    52   -1.316561417846e-15
    53   -1.312762732956e-04
    54   -1.469782920856e-04
    55    1.498047837502e-05
    56   -9.845532821206e-16
    57   -1.650599691696e-04
    58    2.085834469659e-05
    59   -1.763400019341e-04
    60    6.960063624200e-15
    61    3.353157987004e-06
    62    4.604447366330e-16
    63   -6.092990283131e-16
    64    1.244304922421e-06
    65    3.617381795417e-06
    66    1.686660420766e-07
    67    2.758303163245e-07
    68   -5.389759947522e-07
    69    2.385528263855e-07
    70    2.624658963350e-16
    71   -1.550183439598e-06
    72    6.198961197708e-07
    73   -1.902713665505e-06
    74   -1.489231303930e-15
    75    6.169322289536e-07
    76    3.702655116010e-06
    77    1.045624185515e-05
    78    3.125409382152e-15
    79   -2.700734033491e-04
    80   -1.418314280998e-04
    81    4.221687088772e-05
    82   -3.977125475747e-15
    83    1.323763581271e-07
    84   -5.231310962608e-16
    85   -2.763667011094e-16
    86    1.132533048404e-06
    87   -4.667034040564e-07
    88   -6.751697145080e-07
    89   -5.118911199157e-05
    90    6.436389800496e-06
    91    8.565814722930e-06
    92   -1.975821056939e-16
    93    1.627535999199e-04
    94    3.165354171544e-04
    95    2.289778301916e-04
    96    4.518151637332e-16
    97   -3.389320341858e-04
    98    1.134537946218e-05
    99    1.449514560831e-04
   100   -3.853038402088e-15
   101   -1.983630207633e-03
   102   -7.661331658245e-04
   103    3.323256865017e-04
   104    1.033873798291e-14
   105   -4.487064440319e-05
   106   -3.296261693366e-16
   107   -1.063801692914e-15
   108    8.700812341572e-05
   109    1.967618688878e-04
   110    5.515673065304e-01
   111    4.717155957277e-01
   112   -1.386441608438e-03
   113   -9.926516036958e-04
   114   -7.538021805971e-16
   115    5.157233678306e-03
   116    6.218227768662e-04
   117    4.561406915133e-04
   118   -2.584047732436e-16
   119   -7.882446321268e-04
   120   -2.534385265619e-04
   121   -1.999057548334e-04
   122    2.504989380467e-15
   123    1.502401841278e-03
   124   -9.304889420321e-05
   125   -2.468314633064e-05
   126   -2.392310658243e-15
   127   -5.118995842985e-05
   128   -3.350987157344e-16
   129   -4.279359385296e-17
   130   -4.584426234011e-05
   131   -1.721192440907e-04
   132    6.198416143312e-07
   133   -2.789580476814e-07
   134   -1.391644245843e-05
   135    5.914145918285e-06
   136    9.342321142232e-16
   137   -1.183730127338e-05
   138    4.214881370090e-05
   139   -2.338880206958e-05
   140   -1.454255490347e-15
   141    1.403341247838e-04
   142   -6.722418531625e-05
   143   -1.218369254416e-04
   144    3.110055926517e-15
   145   -3.071619399814e-04
   146   -5.526173646111e-04
   147   -2.999160938849e-05
   148   -5.102418017639e-15
   149   -7.527756604426e-06
   150    8.871041793297e-16
   151   -1.526696089264e-17
   152    1.966688349295e-05
   153   -2.359812635641e-05
   154    6.407150593128e-08
   155   -2.311913836253e-07
   156   -8.172010570497e-07
   157   -1.439479221655e-07
   158    1.280359365026e-16
   159   -4.287949975243e-06
   160    3.784418338333e-06
   161    4.724312882319e-07
   162   -2.745815222731e-16
   163    1.114161853911e-04
   164    6.367772578526e-05
   165    4.647405384173e-06
   166    3.378383201787e-15
   167    2.053575770958e-04
   168   -5.979664789955e-05
   169   -2.264892591704e-05
   170   -5.126048721908e-15
   171   -3.429772176993e-08
   172   -4.436426568255e-16
   173    1.747401761186e-16
   174   -3.641359478741e-07
   175   -2.283647693482e-06
   176    1.754648871216e-06
   177   -1.867627069375e-06
   178   -6.553624543682e-06
   179   -1.919904893267e-05
   180    1.079973407475e-15
   181   -1.676652603600e-06
   182    1.798368115788e-05
   183    1.058461356845e-04
   184   -2.795994793791e-15
   185    3.962038410772e-04
   186   -3.247976663466e-04
   187    6.174449723246e-05
   188    8.605895195765e-15
   189    1.730859385251e-03
   190    4.395656767631e-05
   191    1.042939190867e-03
   192   -1.611970253106e-14
   193   -4.993808117668e-06
   194   -3.905414986895e-16
   195    3.240108573285e-16
   196   -5.058190834614e-05
   197    3.307001675030e-05
   198    1.998255189548e-06
   199    9.287481576431e-05
   200    8.214814447576e-05
   201    3.327545510995e-04
   202   -2.224665296034e-05
   203    1.309017291806e-05
   204   -3.075209527099e-16
Sym=X
Ene= 0.448563
Spin=Alpha
Occup=0
     1   -4.367679994675e-03
     2   -7.538952711003e-03
     3    1.787524923159e-02
     4    9.445501270603e-03
     5    3.182958557504e-15
     6    2.113502922828e-02
     7    3.226433182852e-02
     8    1.650736210612e-02
     9    1.162495974025e-15
    10    8.033551128943e-02
    11    4.227083201085e-02
    12    5.554906719846e-02
    13    6.490745783389e-15
    14    4.375569680590e-01
    15    1.008817283975e-01
    16    1.196985827138e-01
    17   -2.818977434394e-14
    18    1.454369560687e-04
    19    1.036155582519e-15
    20   -5.760932531552e-16
    21    4.863521234143e-03
    22   -1.875971898238e-03
    23   -6.883440593680e-04
    24   -4.104079736642e-03
    25   -1.568413879708e-02
    26   -4.005547638140e-03
    27   -1.264394442499e-04
    28   -4.336656246150e-04
    29   -3.160786126152e-15
    30   -8.752933903200e-03
    31   -8.908033037583e-03
    32   -7.021384639472e-05
    33    4.305487846659e-02
    34    1.014451443989e-03
    35    1.046948181856e-03
    36   -4.733351610866e-15
    37    3.761012181859e-04
    38   -1.584266078704e-03
    39   -1.664038647218e-02
    40    4.497603885524e-02
    41   -1.264375242224e-03
    42   -9.091633813446e-04
    43   -3.070965405004e-15
    44    6.392634342881e-03
    45    1.102593900654e-02
    46   -2.289414663828e-02
    47   -6.414059604032e-03
    48    5.451131536111e-17
    49   -3.201329908167e-02
    50   -3.948797627079e-02
    51   -1.234560177697e-02
    52   -1.051912065514e-14
    53   -8.331021330377e-02
    54   -3.776949841943e-02
    55    4.972697289005e-03
    56    2.032097512622e-14
    57   -8.067337494197e-02
    58   -1.230725790748e-02
    59   -3.723273466922e-03
    60    2.305036411287e-14
    61   -2.062575323613e-04
    62   -4.920784522893e-15
    63    1.336098418803e-14
    64   -5.624122946994e-03
    65   -9.582703184086e-03
    66   -1.122688901596e-03
    67   -1.893612800596e-03
    68    2.421967193312e-02
    69    1.703390005758e-02
    70    1.279346763992e-14
    71    5.748640080726e-03
    72    3.555755528735e-02
    73    2.626278776193e-02
    74    6.182956020099e-15
    75    3.159009788403e-03
    76    3.741096201117e-02
    77    3.172205557618e-02
    78   -8.706669748566e-15
    79   -1.858984506811e-02
    80   -2.991318057341e-03
    81    4.679971194644e-03
    82   -1.377689038882e-14
    83   -3.058017876748e-04
    84    1.325756108640e-15
    85    1.801764462249e-15
    86    1.017690446098e-03
    87   -2.094549808672e-04
    88    3.561217734263e-03
    89    6.313442588296e-03
    90   -4.667075451111e-03
    91    1.811004285933e-02
    92   -1.590290912305e-15
    93   -1.882637112085e-02
    94   -6.849976443166e-03
    95    3.658766576785e-02
    96   -1.543452160592e-15
    97   -6.290388797264e-04
    98    6.148476310330e-02
    99   -1.052424766362e-01
   100    1.834936284683e-14
   101    4.293799699967e-01
   102    5.481049103372e-02
   103   -2.076775381670e-01
   104   -6.426134635180e-14
   105   -7.741242928550e-04
   106    2.650591011208e-15
   107    5.651857303378e-17
   108    5.142824610048e-02
   109   -2.447866731282e-02
   110   -4.177108446137e-04
   111   -7.498461468874e-04
   112    1.993371176550e-01
   113   -2.693831584183e-01
   114   -6.231045669413e-15
   115    2.911176198369e-03
   116    2.543061404667e-01
   117   -3.441411878094e-01
   118    1.389349158495e-14
   119    3.008712091037e-03
   120    2.143003221555e-01
   121   -2.884125983967e-01
   122   -2.379586567361e-14
   123    6.054571640069e-03
   124    2.276025908159e-02
   125   -3.744333362486e-02
   126    2.639323791523e-14
   127    2.265243003687e-04
   128    7.128563371849e-16
   129   -1.921302852441e-15
   130   -1.280181188382e-02
   131    4.611540945536e-03
   132   -1.371482162034e-02
   133   -2.313793070789e-02
   134    5.311565010011e-02
   135   -1.290461301727e-02
   136    7.717603074099e-16
   137    6.509737831764e-02
   138    8.249083783326e-02
   139   -1.472085494769e-02
   140    1.524155480347e-16
   141    1.665715328597e-01
   142    8.326861815341e-02
   143   -4.467206998032e-02
   144   -1.444011741442e-14
   145    2.127769930920e-01
   146   -4.978031919728e-02
   147   -3.806447480742e-02
   148    8.315315541132e-15
   149    1.480499118003e-03
   150    1.055151043822e-15
   151   -1.879860113913e-15
   152   -6.978514297853e-04
   153   -9.718806147527e-04
   154   -2.843296009052e-03
   155   -4.805931335229e-03
   156    5.917081920094e-06
   157    6.387423030997e-03
   158    5.923170028918e-18
   159    1.373650743032e-02
   160   -3.401216330364e-04
   161    9.252624691525e-03
   162    3.159029929706e-15
   163    3.269785223054e-02
   164   -8.001937095749e-03
   165    1.704721639709e-02
   166   -1.000400008749e-14
   167   -3.569767271562e-02
   168   -1.954027433028e-02
   169   -3.905354793449e-02
   170    8.984973792768e-17
   171    3.956826745583e-04
   172   -4.121796609535e-16
   173   -1.457268845817e-15
   174    2.111337646533e-03
   175   -6.463865540353e-04
   176    1.241453494481e-02
   177    2.036870288372e-02
   178   -1.085269989837e-02
   179   -4.266859451603e-02
   180   -2.016000127865e-15
   181   -5.115118448747e-02
   182   -2.158923738677e-02
   183   -5.394901124005e-02
   184    5.100249332039e-15
   185   -2.293979831027e-01
   186    2.934466591876e-02
   187   -9.800414980380e-02
   188   -9.178975256496e-15
   189   -9.168580601076e-01
   190    1.400282219781e-01
   191   -9.655899596125e-02
   192    5.592334320521e-14
   193   -9.867062049669e-04
   194   -1.215256251207e-15
   195   -5.711173737899e-15
   196   -2.042755696216e-03
   197   -6.682080450210e-04
   198   -1.852358856482e-03
   199   -1.693852690175e-03
   200   -1.167044941737e-02
   201   -4.645458402093e-02
   202    2.081178269472e-04
   203    1.203649867824e-03
   204    3.303847099540e-15
[5D]
