[Molden Format]
[Atoms] (Angs)
  C      1    6     -0.00754183     -1.75895763      0.00000000
  H      2    1     -2.09769850     -1.41880678     -0.00000000
  H      3    1     -0.13527422     -2.83956838     -0.00000000
  H      4    1      0.04053511      2.02026369      0.00000000
  C      5    6     -1.22066484      0.39918184     -0.00000000
  O      6    8     -2.25210141      1.05663720     -0.00000000
  C      7    6      1.24009552      0.27789184      0.00000000
  O      8    8      2.33767996      1.06122493      0.00000000
  N      9    7      0.03634586      1.00852936      0.00000000
  N     10    7     -1.18738304     -0.97903470     -0.00000000
  C     11    6      1.22288875     -1.12258096      0.00000000
  H     12    1      2.15640383     -1.68445878      0.00000000
[GTO]
1    0
S    6    1.000000
   4.56324000E+03    1.96665000E-03 
   6.82024000E+02    1.52306000E-02 
   1.54973000E+02    7.61269000E-02 
   4.44553000E+01    2.60801000E-01 
   1.30290000E+01    6.16462000E-01 
   1.82773000E+00    2.21006000E-01 
SP   3    1.000000
   2.09642000E+01    1.14660000E-01   4.02487000E-02 
   4.80331000E+00    9.19999000E-01   2.37594000E-01 
   1.45933000E+00   -3.03068000E-03   8.15854000E-01 
SP   1    1.000000
   4.83456000E-01    1.00000000E+00   1.00000000E+00 
SP   1    1.000000
   1.45585000E-01    1.00000000E+00   1.00000000E+00 
SP   1    1.000000
   4.38000000E-02    1.00000000E+00   1.00000000E+00 
D    1    1.000000
   6.26000000E-01    1.00000000E+00 

2    0
S    3    1.000000
   3.38650000E+01    2.54938000E-02 
   5.09479000E+00    1.90373000E-01 
   1.15879000E+00    8.52161000E-01 
S    1    1.000000
   3.25840000E-01    1.00000000E+00 
S    1    1.000000
   1.02741000E-01    1.00000000E+00 
S    1    1.000000
   3.60000000E-02    1.00000000E+00 
P    1    1.000000
   7.50000000E-01    1.00000000E+00 

3    0
S    3    1.000000
   3.38650000E+01    2.54938000E-02 
   5.09479000E+00    1.90373000E-01 
   1.15879000E+00    8.52161000E-01 
S    1    1.000000
   3.25840000E-01    1.00000000E+00 
S    1    1.000000
   1.02741000E-01    1.00000000E+00 
S    1    1.000000
   3.60000000E-02    1.00000000E+00 
P    1    1.000000
   7.50000000E-01    1.00000000E+00 

4    0
S    3    1.000000
   3.38650000E+01    2.54938000E-02 
   5.09479000E+00    1.90373000E-01 
   1.15879000E+00    8.52161000E-01 
S    1    1.000000
   3.25840000E-01    1.00000000E+00 
S    1    1.000000
   1.02741000E-01    1.00000000E+00 
S    1    1.000000
   3.60000000E-02    1.00000000E+00 
P    1    1.000000
   7.50000000E-01    1.00000000E+00 

5    0
S    6    1.000000
   4.56324000E+03    1.96665000E-03 
   6.82024000E+02    1.52306000E-02 
   1.54973000E+02    7.61269000E-02 
   4.44553000E+01    2.60801000E-01 
   1.30290000E+01    6.16462000E-01 
   1.82773000E+00    2.21006000E-01 
SP   3    1.000000
   2.09642000E+01    1.14660000E-01   4.02487000E-02 
   4.80331000E+00    9.19999000E-01   2.37594000E-01 
   1.45933000E+00   -3.03068000E-03   8.15854000E-01 
SP   1    1.000000
   4.83456000E-01    1.00000000E+00   1.00000000E+00 
SP   1    1.000000
   1.45585000E-01    1.00000000E+00   1.00000000E+00 
SP   1    1.000000
   4.38000000E-02    1.00000000E+00   1.00000000E+00 
D    1    1.000000
   6.26000000E-01    1.00000000E+00 

6    0
S    6    1.000000
   8.58850000E+03    1.89515000E-03 
   1.29723000E+03    1.43859000E-02 
   2.99296000E+02    7.07320000E-02 
   8.73771000E+01    2.40001000E-01 
   2.56789000E+01    5.94797000E-01 
   3.74004000E+00    2.80802000E-01 
SP   3    1.000000
   4.21175000E+01    1.13889000E-01   3.65114000E-02 
   9.62837000E+00    9.20811000E-01   2.37153000E-01 
   2.85332000E+00   -3.27447000E-03   8.19702000E-01 
SP   1    1.000000
   9.05661000E-01    1.00000000E+00   1.00000000E+00 
SP   1    1.000000
   2.55611000E-01    1.00000000E+00   1.00000000E+00 
SP   1    1.000000
   8.45000000E-02    1.00000000E+00   1.00000000E+00 
D    1    1.000000
   1.29200000E+00    1.00000000E+00 

7    0
S    6    1.000000
   4.56324000E+03    1.96665000E-03 
   6.82024000E+02    1.52306000E-02 
   1.54973000E+02    7.61269000E-02 
   4.44553000E+01    2.60801000E-01 
   1.30290000E+01    6.16462000E-01 
   1.82773000E+00    2.21006000E-01 
SP   3    1.000000
   2.09642000E+01    1.14660000E-01   4.02487000E-02 
   4.80331000E+00    9.19999000E-01   2.37594000E-01 
   1.45933000E+00   -3.03068000E-03   8.15854000E-01 
SP   1    1.000000
   4.83456000E-01    1.00000000E+00   1.00000000E+00 
SP   1    1.000000
   1.45585000E-01    1.00000000E+00   1.00000000E+00 
SP   1    1.000000
   4.38000000E-02    1.00000000E+00   1.00000000E+00 
D    1    1.000000
   6.26000000E-01    1.00000000E+00 

8    0
S    6    1.000000
   8.58850000E+03    1.89515000E-03 
   1.29723000E+03    1.43859000E-02 
   2.99296000E+02    7.07320000E-02 
   8.73771000E+01    2.40001000E-01 
   2.56789000E+01    5.94797000E-01 
   3.74004000E+00    2.80802000E-01 
SP   3    1.000000
   4.21175000E+01    1.13889000E-01   3.65114000E-02 
   9.62837000E+00    9.20811000E-01   2.37153000E-01 
   2.85332000E+00   -3.27447000E-03   8.19702000E-01 
SP   1    1.000000
   9.05661000E-01    1.00000000E+00   1.00000000E+00 
SP   1    1.000000
   2.55611000E-01    1.00000000E+00   1.00000000E+00 
SP   1    1.000000
   8.45000000E-02    1.00000000E+00   1.00000000E+00 
D    1    1.000000
   1.29200000E+00    1.00000000E+00 

9    0
S    6    1.000000
   6.29348000E+03    1.96979000E-03 
   9.49044000E+02    1.49613000E-02 
   2.18776000E+02    7.35006000E-02 
   6.36916000E+01    2.48937000E-01 
   1.88282000E+01    6.02460000E-01 
   2.72023000E+00    2.56202000E-01 
SP   3    1.000000
   3.06331000E+01    1.11906000E-01   3.83119000E-02 
   7.02614000E+00    9.21666000E-01   2.37403000E-01 
   2.11205000E+00   -2.56919000E-03   8.17592000E-01 
SP   1    1.000000
   6.84009000E-01    1.00000000E+00   1.00000000E+00 
SP   1    1.000000
   2.00878000E-01    1.00000000E+00   1.00000000E+00 
SP   1    1.000000
   6.39000000E-02    1.00000000E+00   1.00000000E+00 
D    1    1.000000
   9.13000000E-01    1.00000000E+00 

10    0
S    6    1.000000
   6.29348000E+03    1.96979000E-03 
   9.49044000E+02    1.49613000E-02 
   2.18776000E+02    7.35006000E-02 
   6.36916000E+01    2.48937000E-01 
   1.88282000E+01    6.02460000E-01 
   2.72023000E+00    2.56202000E-01 
SP   3    1.000000
   3.06331000E+01    1.11906000E-01   3.83119000E-02 
   7.02614000E+00    9.21666000E-01   2.37403000E-01 
   2.11205000E+00   -2.56919000E-03   8.17592000E-01 
SP   1    1.000000
   6.84009000E-01    1.00000000E+00   1.00000000E+00 
SP   1    1.000000
   2.00878000E-01    1.00000000E+00   1.00000000E+00 
SP   1    1.000000
   6.39000000E-02    1.00000000E+00   1.00000000E+00 
D    1    1.000000
   9.13000000E-01    1.00000000E+00 

11    0
S    6    1.000000
   4.56324000E+03    1.96665000E-03 
   6.82024000E+02    1.52306000E-02 
   1.54973000E+02    7.61269000E-02 
   4.44553000E+01    2.60801000E-01 
   1.30290000E+01    6.16462000E-01 
   1.82773000E+00    2.21006000E-01 
SP   3    1.000000
   2.09642000E+01    1.14660000E-01   4.02487000E-02 
   4.80331000E+00    9.19999000E-01   2.37594000E-01 
   1.45933000E+00   -3.03068000E-03   8.15854000E-01 
SP   1    1.000000
   4.83456000E-01    1.00000000E+00   1.00000000E+00 
SP   1    1.000000
   1.45585000E-01    1.00000000E+00   1.00000000E+00 
SP   1    1.000000
   4.38000000E-02    1.00000000E+00   1.00000000E+00 
D    1    1.000000
   6.26000000E-01    1.00000000E+00 

12    0
S    3    1.000000
   3.38650000E+01    2.54938000E-02 
   5.09479000E+00    1.90373000E-01 
   1.15879000E+00    8.52161000E-01 
S    1    1.000000
   3.25840000E-01    1.00000000E+00 
S    1    1.000000
   1.02741000E-01    1.00000000E+00 
S    1    1.000000
   3.60000000E-02    1.00000000E+00 
P    1    1.000000
   7.50000000E-01    1.00000000E+00 

[MO]
Sym=X
Ene= -0.031106
Spin=Alpha
Occup=1
     1    2.668723608933e-05
     2    4.339949351935e-05
     3   -6.629958026889e-06
     4    7.985438747853e-05
     5   -6.141536358835e-16
     6   -1.388837255256e-04
     7    1.154777305131e-05
     8    1.432126411367e-04
     9    1.125424196305e-15
    10   -7.912154593416e-04
    11   -1.203053331780e-04
    12    8.517102951264e-05
    13   -6.668079994152e-15
    14   -1.275206210391e-03
    15    4.474331547229e-05
    16    1.089223294738e-03
    17    1.053611821984e-14
    18    1.192464872238e-05
    19   -6.774090540850e-16
    20   -1.000260639643e-15
    21   -3.107805000149e-05
    22    2.005964177807e-05
    23    2.457679356215e-05
    24    1.260039842522e-04
    25    4.785622014065e-04
    26    1.233014456808e-03
    27   -2.246608065304e-05
    28   -1.457949986281e-05
    29   -1.223939382855e-15
    30   -1.560009353802e-06
    31    2.357763959443e-05
    32    3.782185141203e-04
    33    2.277720021443e-03
    34   -3.580364126210e-06
    35   -2.091079465706e-05
    36    1.601837825479e-15
    37    1.865520306452e-05
    38    6.581146562035e-05
    39    1.701462194970e-04
    40    1.119577850189e-04
    41   -3.260826542410e-06
    42   -3.605313830739e-06
    43    7.853896974179e-16
    44   -3.217676412223e-08
    45    9.541045779797e-07
    46    8.034293274132e-06
    47    1.237735267320e-06
    48    1.090416038966e-15
    49   -3.568878617558e-05
    50    5.148796189668e-06
    51    1.037772200053e-05
    52   -1.306257072122e-15
    53    6.216053340412e-05
    54   -4.393954684792e-05
    55   -3.224255779978e-05
    56   -9.957231098313e-16
    57   -2.618109235944e-05
    58    3.097154105802e-04
    59    1.629241611774e-04
    60    6.723191177381e-15
    61    1.562347926921e-05
    62    4.622406488212e-16
    63   -6.091395487264e-16
    64    2.625865332746e-06
    65   -1.668765115326e-05
    66    7.234457308403e-08
    67    6.099676225860e-06
    68    1.351556879911e-05
    69    3.735694024570e-06
    70    2.602577460251e-16
    71   -4.028489003495e-05
    72    1.813983798629e-05
    73    3.701012625536e-06
    74   -1.482928887423e-15
    75   -5.850902365173e-05
    76    1.760877820831e-05
    77    2.667398424672e-05
    78    3.113960705077e-15
    79   -2.000535400786e-04
    80   -9.002235241711e-05
    81   -5.635853236873e-05
    82   -3.836192423636e-15
    83    2.188489938235e-06
    84   -5.224781928060e-16
    85   -2.768608038114e-16
    86    8.526920100395e-07
    87    2.325845663878e-06
    88    6.592974562268e-06
    89   -3.818212227773e-05
    90   -1.071957903698e-06
    91    2.984380962983e-05
    92   -2.041748471065e-16
    93    1.061566518147e-04
    94    3.084297442765e-04
    95    2.614393000351e-04
    96    4.300629455658e-16
    97   -3.394318476016e-04
    98   -9.325958610370e-05
    99    1.524134841621e-04
   100   -3.820237193242e-15
   101   -1.814963429848e-03
   102   -3.884864628508e-04
   103    4.583061691723e-04
   104    1.127918886623e-14
   105   -3.813430040053e-05
   106   -3.297957076502e-16
   107   -1.064246241517e-15
   108    9.021731159711e-05
   109    2.099330260232e-04
   110    5.515692122467e-01
   111    4.717195473079e-01
   112   -1.390980664270e-03
   113   -1.010798020215e-03
   114   -7.443271061189e-16
   115    5.141018646507e-03
   116    6.140974157276e-04
   117    4.288980985108e-04
   118   -2.544980744859e-16
   119   -7.906375040462e-04
   120   -2.498712430452e-04
   121   -2.298666482983e-04
   122    2.589199732241e-15
   123    1.473069400856e-03
   124   -1.695447349915e-04
   125   -1.014825106599e-04
   126   -2.786076056209e-15
   127   -4.995839377126e-05
   128   -3.362438741172e-16
   129   -4.351109051243e-17
   130   -4.559233328404e-05
   131   -1.733925142131e-04
   132    1.881428478014e-05
   133    3.109642035132e-05
   134   -2.969055307635e-06
   135    1.520960988755e-05
   136    9.396055723335e-16
   137   -1.094275412962e-04
   138    5.978621212575e-05
   139   -6.268781114917e-06
   140   -1.448970686874e-15
   141   -1.519077160311e-04
   142   -3.508549999981e-05
   143   -5.172638114694e-05
   144    3.151102810608e-15
   145   -1.063480134581e-03
   146   -5.170840392061e-04
   147   -2.511786091778e-05
   148   -5.385164276776e-15
   149   -4.828010087149e-06
   150    8.878979040935e-16
   151   -1.519286578437e-17
   152    1.546929146905e-05
   153   -2.280581112368e-05
   154    3.339179639831e-05
   155    5.737558623430e-05
   156    5.642402204303e-05
   157    3.297724495106e-05
   158    1.333157020002e-16
   159   -1.911462666840e-04
   160    9.253865824921e-05
   161    5.061668667986e-05
   162   -2.685845164310e-16
   163   -4.122073560873e-04
   164    1.952267999846e-04
   165    6.762326922305e-05
   166    3.403964643673e-15
   167   -1.011425192300e-03
   168    1.708120518058e-04
   169   -1.543132486242e-04
   170   -5.174009621218e-15
   171    7.815701438284e-06
   172   -4.426176216520e-16
   173    1.735588213580e-16
   174    1.072814569052e-05
   175    1.161339848407e-05
   176    1.841631336809e-05
   177    2.698677112053e-05
   178   -3.196876915238e-05
   179   -9.005797705370e-06
   180    1.073861062831e-15
   181   -9.405290234402e-05
   182   -2.220562566249e-05
   183    1.174548810108e-04
   184   -2.796127477775e-15
   185    7.563873407579e-05
   186   -3.534146597057e-04
   187    5.533110484070e-05
   188    8.588567724275e-15
   189    9.093599881759e-04
   190   -3.832930378283e-04
   191    5.446432531917e-04
   192   -1.655506222782e-14
   193    3.539846728223e-06
   194   -3.919580374154e-16
   195    3.198922768049e-16
   196   -3.568237871514e-05
   197    1.463941588397e-05
   198    1.491174521978e-05
   199    1.340308720609e-04
   200    2.517193642567e-04
   201    1.034259647735e-03
   202   -1.393928522380e-05
   203    5.960528358684e-06
   204   -3.080043107101e-16
Sym=X
Ene= 0.031106
Spin=Alpha
Occup=0
     1   -9.362697046642e-16
     2   -5.999969837955e-16
     3   -5.861631840724e-16
     4   -2.160875460460e-16
     5    6.658651999535e-02
     6    1.004552326768e-14
     7    4.478176443924e-16
     8    9.562629853176e-15
     9    1.093360451227e-01
    10   -5.336787043385e-14
    11    1.093017518305e-13
    12   -1.187092133710e-13
    13    1.229246979587e-01
    14   -7.249542534979e-12
    15   -1.620604241239e-12
    16   -1.716504663923e-12
    17    2.959794062907e-02
    18    2.227807106590e-15
    19    3.471576695457e-02
    20   -2.095610892346e-03
    21   -4.728572510110e-15
    22    2.854576091854e-15
    23    1.749262141627e-15
    24   -9.630573061205e-15
    25    2.899101549761e-13
    26    2.343795730432e-13
    27    2.698964546217e-15
    28    2.626275726117e-15
    29   -1.388060269843e-02
    30    1.760555117426e-15
    31   -3.190547734098e-14
    32   -1.354256425375e-14
    33   -6.147614868632e-13
    34   -3.341756644899e-15
    35   -3.354549487186e-15
    36    5.171257529556e-03
    37   -1.906814346946e-15
    38    4.058484179368e-14
    39    6.345436047544e-14
    40   -2.888498320575e-13
    41   -4.427565497143e-16
    42    2.259371177686e-15
    43    1.441294525385e-03
    44    5.340026779596e-16
    45   -8.545618517073e-16
    46    3.089673527779e-15
    47    4.077573497105e-15
    48   -3.500961603738e-03
    49    1.522502458263e-14
    50   -2.197236936287e-15
    51   -3.696003932618e-15
    52   -9.370153352728e-03
    53   -2.709505688283e-13
    54    5.858287400048e-14
    55    2.245601036126e-13
    56    2.170278846170e-02
    57    6.339540116391e-13
    58    2.859456241657e-13
    59    1.732177833723e-13
    60    2.646014404671e-02
    61    7.834297708596e-15
    62   -1.710737739909e-02
    63    3.690031623681e-02
    64    1.645393411629e-15
    65    2.395807391834e-15
    66    4.356846339270e-17
    67   -2.077021257769e-16
    68   -2.979078000437e-15
    69   -4.771748340572e-16
    70    9.171675849811e-02
    71    2.517738931045e-15
    72    8.700083715114e-16
    73    9.097042303607e-15
    74    1.386926066191e-01
    75   -1.364219143014e-16
    76    1.587425402143e-14
    77   -2.585298553987e-14
    78    1.382603021892e-01
    79    6.589586849062e-15
    80   -2.516926752502e-14
    81   -8.293934554918e-14
    82    2.498674057579e-02
    83    5.286554335742e-16
    84    5.360844241156e-03
    85   -2.221123471789e-03
    86    1.799104393480e-17
    87   -5.101251667963e-16
    88    1.942309756220e-15
    89    1.175155241905e-15
    90   -6.418824389763e-16
    91    6.449410231058e-15
    92    7.295553332485e-03
    93   -8.038086783437e-15
    94    1.545350654335e-14
    95   -1.588121171414e-15
    96    1.480771195290e-02
    97   -7.773513848698e-14
    98    3.568583556296e-14
    99    1.509699866474e-13
   100   -2.629916691564e-02
   101   -1.381008037470e-13
   102   -7.988432082833e-14
   103    2.915885817339e-13
   104   -4.005300530097e-02
   105   -7.140473043713e-15
   106   -1.930902543080e-02
   107   -3.099305537122e-02
   108   -2.082761919076e-15
   109   -1.050558193118e-15
   110    3.941255352462e-16
   111    7.604920959087e-17
   112   -7.985867046053e-15
   113    5.816818514142e-15
   114   -1.773475238881e-01
   115    1.640993304315e-15
   116    1.080989052655e-15
   117   -1.128835744128e-14
   118   -2.224895610378e-01
   119   -3.120367035452e-14
   120   -5.709822319124e-15
   121    3.887068888150e-14
   122   -1.758255335918e-01
   123   -1.026979628362e-14
   124    6.463036868915e-14
   125   -3.973411732181e-14
   126   -3.406663623597e-02
   127   -2.632591247867e-15
   128    6.168870553764e-03
   129    4.407559674988e-03
   130   -7.712104593419e-16
   131   -7.333648967665e-16
   132   -1.911515764840e-15
   133   -1.901766196350e-15
   134    5.669413882210e-15
   135   -2.798141325356e-15
   136    1.364318509618e-02
   137   -1.666097594635e-15
   138   -1.604676339611e-15
   139   -3.429375693091e-15
   140    2.235039844820e-02
   141    1.190535692656e-13
   142    5.243472714174e-14
   143   -5.680462233378e-14
   144    2.147481036645e-02
   145   -1.721373841653e-12
   146    5.889114428275e-14
   147    4.550150584288e-13
   148    1.783021672049e-02
   149   -4.441296361055e-15
   150   -4.328561818817e-04
   151   -2.699277884316e-04
   152    1.627079124299e-15
   153    2.442326005970e-15
   154    1.870859583154e-15
   155    4.064799937963e-15
   156    9.314077806161e-16
   157    3.591255397838e-15
   158   -1.621998895148e-01
   159   -1.899971498944e-14
   160    9.618782419502e-16
   161   -1.960068788750e-15
   162   -2.550316475413e-01
   163    4.573861318520e-14
   164    3.124383022160e-14
   165    8.627033965468e-14
   166   -3.043323800241e-01
   167    1.559837622980e-12
   168    8.263783629425e-13
   169    5.339692235407e-13
   170   -9.398973542999e-02
   171   -4.820222783749e-17
   172    1.106444179418e-03
   173   -5.651139707183e-03
   174    4.027665926478e-16
   175   -6.620816873981e-16
   176   -1.484698978536e-15
   177   -2.609970188313e-15
   178    7.922635668815e-15
   179    6.411365989629e-15
   180    1.328158929348e-01
   181    1.470342666755e-14
   182    1.834854671581e-15
   183   -6.154975416054e-15
   184    2.203606583764e-01
   185    6.613293807102e-14
   186    6.685582098088e-14
   187    2.016378297349e-13
   188    2.407712773454e-01
   189    7.242278576514e-12
   190   -1.778761214010e-12
   191   -5.077438612921e-13
   192    3.013462877662e-02
   193    5.373978175650e-15
   194   -9.182895137990e-03
   195    1.678187211440e-03
   196    1.365922154998e-15
   197    4.466615031777e-15
   198   -5.879369202444e-15
   199    2.699113822087e-14
   200   -1.552113321629e-13
   201    3.369324756110e-13
   202   -7.843959348822e-15
   203    4.421015645317e-15
   204    1.072786662669e-02
[5D]
