[Molden Format]
[Atoms] (Angs)
  C      1    6     -0.00754183     -1.75895763      0.00000000
  H      2    1     -2.09769850     -1.41880678     -0.00000000
  H      3    1     -0.13527422     -2.83956838     -0.00000000
  H      4    1      0.04053511      2.02026369      0.00000000
  C      5    6     -1.22066484      0.39918184     -0.00000000
  O      6    8     -2.25210141      1.05663720     -0.00000000
  C      7    6      1.24009552      0.27789184      0.00000000
  O      8    8      2.33767996      1.06122493      0.00000000
  N      9    7      0.03634586      1.00852936      0.00000000
  N     10    7     -1.18738304     -0.97903470     -0.00000000
  C     11    6      1.22288875     -1.12258096      0.00000000
  H     12    1      2.15640383     -1.68445878      0.00000000
[GTO]
1    0
S    6    1.000000
   4.56324000E+03    1.96665000E-03 
   6.82024000E+02    1.52306000E-02 
   1.54973000E+02    7.61269000E-02 
   4.44553000E+01    2.60801000E-01 
   1.30290000E+01    6.16462000E-01 
   1.82773000E+00    2.21006000E-01 
SP   3    1.000000
   2.09642000E+01    1.14660000E-01   4.02487000E-02 
   4.80331000E+00    9.19999000E-01   2.37594000E-01 
   1.45933000E+00   -3.03068000E-03   8.15854000E-01 
SP   1    1.000000
   4.83456000E-01    1.00000000E+00   1.00000000E+00 
SP   1    1.000000
   1.45585000E-01    1.00000000E+00   1.00000000E+00 
SP   1    1.000000
   4.38000000E-02    1.00000000E+00   1.00000000E+00 
D    1    1.000000
   6.26000000E-01    1.00000000E+00 

2    0
S    3    1.000000
   3.38650000E+01    2.54938000E-02 
   5.09479000E+00    1.90373000E-01 
   1.15879000E+00    8.52161000E-01 
S    1    1.000000
   3.25840000E-01    1.00000000E+00 
S    1    1.000000
   1.02741000E-01    1.00000000E+00 
S    1    1.000000
   3.60000000E-02    1.00000000E+00 
P    1    1.000000
   7.50000000E-01    1.00000000E+00 

3    0
S    3    1.000000
   3.38650000E+01    2.54938000E-02 
   5.09479000E+00    1.90373000E-01 
   1.15879000E+00    8.52161000E-01 
S    1    1.000000
   3.25840000E-01    1.00000000E+00 
S    1    1.000000
   1.02741000E-01    1.00000000E+00 
S    1    1.000000
   3.60000000E-02    1.00000000E+00 
P    1    1.000000
   7.50000000E-01    1.00000000E+00 

4    0
S    3    1.000000
   3.38650000E+01    2.54938000E-02 
   5.09479000E+00    1.90373000E-01 
   1.15879000E+00    8.52161000E-01 
S    1    1.000000
   3.25840000E-01    1.00000000E+00 
S    1    1.000000
   1.02741000E-01    1.00000000E+00 
S    1    1.000000
   3.60000000E-02    1.00000000E+00 
P    1    1.000000
   7.50000000E-01    1.00000000E+00 

5    0
S    6    1.000000
   4.56324000E+03    1.96665000E-03 
   6.82024000E+02    1.52306000E-02 
   1.54973000E+02    7.61269000E-02 
   4.44553000E+01    2.60801000E-01 
   1.30290000E+01    6.16462000E-01 
   1.82773000E+00    2.21006000E-01 
SP   3    1.000000
   2.09642000E+01    1.14660000E-01   4.02487000E-02 
   4.80331000E+00    9.19999000E-01   2.37594000E-01 
   1.45933000E+00   -3.03068000E-03   8.15854000E-01 
SP   1    1.000000
   4.83456000E-01    1.00000000E+00   1.00000000E+00 
SP   1    1.000000
   1.45585000E-01    1.00000000E+00   1.00000000E+00 
SP   1    1.000000
   4.38000000E-02    1.00000000E+00   1.00000000E+00 
D    1    1.000000
   6.26000000E-01    1.00000000E+00 

6    0
S    6    1.000000
   8.58850000E+03    1.89515000E-03 
   1.29723000E+03    1.43859000E-02 
   2.99296000E+02    7.07320000E-02 
   8.73771000E+01    2.40001000E-01 
   2.56789000E+01    5.94797000E-01 
   3.74004000E+00    2.80802000E-01 
SP   3    1.000000
   4.21175000E+01    1.13889000E-01   3.65114000E-02 
   9.62837000E+00    9.20811000E-01   2.37153000E-01 
   2.85332000E+00   -3.27447000E-03   8.19702000E-01 
SP   1    1.000000
   9.05661000E-01    1.00000000E+00   1.00000000E+00 
SP   1    1.000000
   2.55611000E-01    1.00000000E+00   1.00000000E+00 
SP   1    1.000000
   8.45000000E-02    1.00000000E+00   1.00000000E+00 
D    1    1.000000
   1.29200000E+00    1.00000000E+00 

7    0
S    6    1.000000
   4.56324000E+03    1.96665000E-03 
   6.82024000E+02    1.52306000E-02 
   1.54973000E+02    7.61269000E-02 
   4.44553000E+01    2.60801000E-01 
   1.30290000E+01    6.16462000E-01 
   1.82773000E+00    2.21006000E-01 
SP   3    1.000000
   2.09642000E+01    1.14660000E-01   4.02487000E-02 
   4.80331000E+00    9.19999000E-01   2.37594000E-01 
   1.45933000E+00   -3.03068000E-03   8.15854000E-01 
SP   1    1.000000
   4.83456000E-01    1.00000000E+00   1.00000000E+00 
SP   1    1.000000
   1.45585000E-01    1.00000000E+00   1.00000000E+00 
SP   1    1.000000
   4.38000000E-02    1.00000000E+00   1.00000000E+00 
D    1    1.000000
   6.26000000E-01    1.00000000E+00 

8    0
S    6    1.000000
   8.58850000E+03    1.89515000E-03 
   1.29723000E+03    1.43859000E-02 
   2.99296000E+02    7.07320000E-02 
   8.73771000E+01    2.40001000E-01 
   2.56789000E+01    5.94797000E-01 
   3.74004000E+00    2.80802000E-01 
SP   3    1.000000
   4.21175000E+01    1.13889000E-01   3.65114000E-02 
   9.62837000E+00    9.20811000E-01   2.37153000E-01 
   2.85332000E+00   -3.27447000E-03   8.19702000E-01 
SP   1    1.000000
   9.05661000E-01    1.00000000E+00   1.00000000E+00 
SP   1    1.000000
   2.55611000E-01    1.00000000E+00   1.00000000E+00 
SP   1    1.000000
   8.45000000E-02    1.00000000E+00   1.00000000E+00 
D    1    1.000000
   1.29200000E+00    1.00000000E+00 

9    0
S    6    1.000000
   6.29348000E+03    1.96979000E-03 
   9.49044000E+02    1.49613000E-02 
   2.18776000E+02    7.35006000E-02 
   6.36916000E+01    2.48937000E-01 
   1.88282000E+01    6.02460000E-01 
   2.72023000E+00    2.56202000E-01 
SP   3    1.000000
   3.06331000E+01    1.11906000E-01   3.83119000E-02 
   7.02614000E+00    9.21666000E-01   2.37403000E-01 
   2.11205000E+00   -2.56919000E-03   8.17592000E-01 
SP   1    1.000000
   6.84009000E-01    1.00000000E+00   1.00000000E+00 
SP   1    1.000000
   2.00878000E-01    1.00000000E+00   1.00000000E+00 
SP   1    1.000000
   6.39000000E-02    1.00000000E+00   1.00000000E+00 
D    1    1.000000
   9.13000000E-01    1.00000000E+00 

10    0
S    6    1.000000
   6.29348000E+03    1.96979000E-03 
   9.49044000E+02    1.49613000E-02 
   2.18776000E+02    7.35006000E-02 
   6.36916000E+01    2.48937000E-01 
   1.88282000E+01    6.02460000E-01 
   2.72023000E+00    2.56202000E-01 
SP   3    1.000000
   3.06331000E+01    1.11906000E-01   3.83119000E-02 
   7.02614000E+00    9.21666000E-01   2.37403000E-01 
   2.11205000E+00   -2.56919000E-03   8.17592000E-01 
SP   1    1.000000
   6.84009000E-01    1.00000000E+00   1.00000000E+00 
SP   1    1.000000
   2.00878000E-01    1.00000000E+00   1.00000000E+00 
SP   1    1.000000
   6.39000000E-02    1.00000000E+00   1.00000000E+00 
D    1    1.000000
   9.13000000E-01    1.00000000E+00 

11    0
S    6    1.000000
   4.56324000E+03    1.96665000E-03 
   6.82024000E+02    1.52306000E-02 
   1.54973000E+02    7.61269000E-02 
   4.44553000E+01    2.60801000E-01 
   1.30290000E+01    6.16462000E-01 
   1.82773000E+00    2.21006000E-01 
SP   3    1.000000
   2.09642000E+01    1.14660000E-01   4.02487000E-02 
   4.80331000E+00    9.19999000E-01   2.37594000E-01 
   1.45933000E+00   -3.03068000E-03   8.15854000E-01 
SP   1    1.000000
   4.83456000E-01    1.00000000E+00   1.00000000E+00 
SP   1    1.000000
   1.45585000E-01    1.00000000E+00   1.00000000E+00 
SP   1    1.000000
   4.38000000E-02    1.00000000E+00   1.00000000E+00 
D    1    1.000000
   6.26000000E-01    1.00000000E+00 

12    0
S    3    1.000000
   3.38650000E+01    2.54938000E-02 
   5.09479000E+00    1.90373000E-01 
   1.15879000E+00    8.52161000E-01 
S    1    1.000000
   3.25840000E-01    1.00000000E+00 
S    1    1.000000
   1.02741000E-01    1.00000000E+00 
S    1    1.000000
   3.60000000E-02    1.00000000E+00 
P    1    1.000000
   7.50000000E-01    1.00000000E+00 

[MO]
Sym=X
Ene= -0.022843
Spin=Alpha
Occup=1
     1    5.834884046692e-07
     2    5.630011842134e-07
     3    5.344735291443e-06
     4   -1.239783016428e-05
     5    4.742781768487e-16
     6   -1.093903264164e-05
     7   -1.480959298137e-05
     8    5.116908296066e-06
     9   -8.408678128213e-16
    10    3.266440218011e-04
    11   -2.850821233637e-05
    12    2.103578223542e-05
    13    2.738277091522e-16
    14   -4.882782693046e-04
    15   -2.136038173659e-04
    16   -1.060759997867e-04
    17   -7.526021881186e-15
    18    3.243177705435e-06
    19   -1.467091379187e-16
    20    5.540716547592e-16
    21    6.194381177352e-07
    22   -6.903309362589e-06
    23   -7.982683047422e-06
    24   -7.847203662371e-05
    25   -4.012199803610e-04
    26   -8.577467778069e-04
    27   -6.677578040032e-06
    28    1.172113138937e-05
    29   -7.110372478155e-16
    30   -2.342775205064e-06
    31   -4.021726517495e-05
    32   -7.186104555268e-05
    33   -1.423865687184e-04
    34    6.148773505036e-06
    35   -2.052318538602e-06
    36    1.176420741887e-15
    37   -1.798524307744e-06
    38   -5.797922704519e-05
    39    1.040900727508e-04
    40    2.325552769814e-04
    41   -1.057821565861e-05
    42    1.519055163835e-05
    43   -4.679756600417e-16
    44   -3.762952272901e-06
    45    7.833839628144e-05
    46    5.703104174765e-05
    47   -2.987856408088e-05
    48   -1.880167484868e-15
    49   -3.153090587017e-04
    50    3.599356986672e-04
    51   -2.166246629357e-04
    52    2.761793716901e-15
    53    1.743344978952e-04
    54    4.047962447825e-04
    55   -3.452673669041e-04
    56   -4.716650454369e-15
    57    2.859511563618e-04
    58   -5.594051728721e-04
    59    1.637557489540e-04
    60   -1.113528472130e-15
    61    6.421114426423e-05
    62   -8.366329926815e-16
    63    8.103454361511e-17
    64   -8.726676509521e-05
    65    1.882557044127e-04
    66   -5.514839406829e-01
    67   -4.716760368411e-01
    68   -1.530280057129e-03
    69    1.008859038155e-03
    70   -8.215382597598e-16
    71   -5.514811250668e-03
    72    6.085690821038e-04
    73   -4.347655052472e-04
    74    7.386993357035e-16
    75    1.280729105362e-03
    76   -1.568284720893e-04
    77    1.060217194212e-04
    78   -6.769275028259e-16
    79   -1.632291879847e-03
    80   -1.166711433702e-04
    81    2.732381959864e-05
    82    9.815713019277e-16
    83    8.451618760686e-05
    84   -1.301804280695e-16
    85    1.099345768109e-15
    86    3.115438146982e-05
    87   -8.178210495250e-05
    88   -1.717975013933e-06
    89   -3.930791920038e-06
    90    2.164957532688e-06
    91    6.274181655100e-07
    92    7.661475830992e-16
    93    6.693869968935e-07
    94   -1.875319233474e-05
    95    1.651753954965e-05
    96    1.922097633461e-16
    97    3.089652219652e-04
    98   -8.410205783616e-05
    99    8.675887199453e-05
   100   -7.003714938899e-16
   101   -1.353418708358e-03
   102    2.858607619910e-04
   103    9.727866115437e-04
   104   -4.183720615212e-15
   105    1.187340689490e-05
   106    3.152151027921e-16
   107    3.133739149655e-16
   108    9.460040513508e-06
   109    3.094004486326e-06
   110    1.538840550276e-05
   111    1.913988887981e-05
   112    1.379867949893e-06
   113   -1.477568168525e-06
   114   -9.083217384695e-16
   115   -3.578927828734e-05
   116   -1.514505905354e-07
   117   -5.453899562167e-06
   118    2.174789025060e-15
   119   -1.259752988787e-04
   120    4.242181258595e-05
   121    1.982008715941e-05
   122   -1.793056443459e-15
   123   -5.113339513948e-05
   124   -1.428972841596e-04
   125   -8.187051869244e-05
   126    1.162731595138e-15
   127    1.799070473867e-06
   128    2.655213230290e-16
   129   -1.596767344025e-16
   130   -1.336311226938e-06
   131   -1.587529769539e-06
   132    1.082493940983e-05
   133    1.782761217338e-05
   134   -2.331288553142e-05
   135   -1.431558006005e-05
   136    4.004121212360e-16
   137   -3.629695557862e-05
   138    1.336720493410e-05
   139   -2.219258633916e-05
   140   -1.794391123227e-15
   141   -4.207068190612e-04
   142   -1.007539877954e-04
   143    2.290412803287e-04
   144    3.528889583682e-15
   145   -2.671109911246e-04
   146   -7.319889946945e-04
   147   -1.778958388772e-04
   148    1.458505985399e-15
   149    1.148822468674e-05
   150    2.421886752608e-16
   151    1.136143096978e-15
   152   -2.274596293821e-05
   153   -1.063586644953e-05
   154   -2.989831748654e-06
   155   -5.666397402841e-06
   156   -2.514794102074e-05
   157   -7.973015889673e-06
   158   -8.757873547067e-16
   159    3.660129275540e-05
   160   -1.083905873158e-05
   161   -5.656238427383e-05
   162    2.274331624628e-16
   163   -2.215733393192e-04
   164   -2.960700316459e-04
   165   -1.506990977195e-04
   166    9.746044499465e-16
   167   -3.989650908774e-04
   168   -7.059811903283e-04
   169    8.007364339221e-05
   170    5.278880993710e-15
   171    1.069410297133e-05
   172   -2.009987694081e-16
   173   -3.233368157463e-16
   174    2.025572583841e-05
   175    1.170219051359e-05
   176    1.292378702728e-05
   177    2.317962981884e-05
   178   -1.674033315835e-05
   179   -4.590562288639e-07
   180    6.909441006121e-17
   181   -7.625758337986e-05
   182   -9.401543928517e-06
   183   -6.504018946464e-06
   184    1.281343776097e-15
   185   -2.704228453687e-04
   186   -3.976579177529e-05
   187    1.450335998409e-05
   188   -2.972067143472e-15
   189    2.621593913919e-03
   190   -1.448796351627e-03
   191    8.398952469355e-04
   192    8.520807636299e-15
   193    3.783783894898e-06
   194    4.839832818279e-16
   195    4.867140268161e-17
   196   -4.066882753821e-06
   197    1.284505607233e-06
   198   -7.543693505725e-06
   199   -1.487630701470e-05
   200    1.601489543810e-04
   201    1.679662540422e-03
   202    4.802638071322e-06
   203   -4.547165211057e-06
   204    9.831580170757e-16
Sym=X
Ene= 0.022843
Spin=Alpha
Occup=0
     1    7.836164113667e-17
     2   -1.050459852135e-15
     3    2.028101740347e-15
     4    7.045800979126e-15
     5   -8.316827547469e-02
     6   -4.975017222930e-15
     7   -8.785080753283e-15
     8   -4.204963885929e-15
     9   -1.362935661837e-01
    10    2.535027404467e-13
    11    2.582442183599e-14
    12    2.906493453785e-13
    13   -1.602993501304e-01
    14    8.785458029157e-12
    15    1.688558041442e-12
    16    2.560083673000e-12
    17   -1.868274967201e-02
    18    1.837088560967e-16
    19   -2.678134466511e-02
    20   -2.880528932748e-03
    21    1.902632282136e-15
    22   -1.364153352998e-15
    23   -4.572942115575e-15
    24    1.882950226190e-14
    25   -5.326716560478e-13
    26    2.297669539691e-13
    27   -1.393861352883e-15
    28   -2.602814588607e-15
    29    1.316113710362e-02
    30   -4.621934433608e-16
    31    1.112087332704e-14
    32    3.057489298369e-13
    33    8.810325720834e-13
    34    5.536340815205e-15
    35    9.382232121863e-16
    36   -5.776641915403e-03
    37    1.023199927478e-14
    38   -7.341402077381e-14
    39    4.658559340502e-13
    40   -1.256056595811e-13
    41   -3.411180475863e-15
    42    1.950156807017e-15
    43   -8.489400176052e-03
    44   -6.283509351490e-16
    45   -1.172998505921e-16
    46   -1.047504829399e-15
    47   -3.645837805603e-15
    48    1.623131389144e-02
    49   -1.926333485313e-15
    50    2.940471066124e-15
    51   -3.288303690394e-15
    52    3.479723211482e-02
    53    1.211454797792e-13
    54    1.777629143410e-13
    55   -1.977440162070e-13
    56   -6.233871549609e-03
    57   -1.996088969470e-12
    58   -1.373371813710e-13
    59    9.354638597608e-13
    60   -2.906821793769e-02
    61   -6.264999507501e-15
    62   -7.222620762274e-03
    63   -3.390745559415e-02
    64    8.527163941602e-16
    65   -1.667764649743e-16
    66   -3.298243970529e-16
    67   -5.933886300652e-16
    68    2.274511300289e-15
    69    2.630640403965e-15
    70   -5.103878376527e-02
    71    1.403943270251e-15
    72   -4.018330136435e-15
    73   -4.687983345780e-15
    74   -6.349751812413e-02
    75    3.923345521053e-14
    76    2.872093912621e-14
    77    2.140568967582e-14
    78   -4.991119961519e-02
    79    3.224855739936e-13
    80    1.289721456387e-13
    81   -1.032619297334e-13
    82    6.739630522186e-03
    83    3.767958965068e-16
    84   -2.087943210487e-03
    85   -4.542657697270e-04
    86    1.428392556608e-16
    87    6.651642979235e-16
    88    1.096806199595e-15
    89    3.888978027378e-15
    90    3.285931208061e-15
    91    2.422451019698e-15
    92    2.737759708730e-02
    93   -1.312279191413e-14
    94   -1.858657858862e-14
    95    1.775361478369e-14
    96    4.755155511492e-02
    97    1.259177001834e-13
    98   -9.852892321975e-14
    99   -1.860939991423e-14
   100    8.417975578584e-02
   101    5.058094560710e-12
   102   -7.982877552648e-13
   103   -7.195745444759e-13
   104    4.922917131704e-02
   105   -3.545997001417e-16
   106    3.582978481366e-02
   107    3.243789211494e-02
   108    5.346740862374e-15
   109   -4.830256720496e-15
   110    1.606394775309e-16
   111    1.335307488915e-15
   112    3.836706755445e-15
   113   -5.854732195604e-15
   114    1.707956490430e-01
   115   -1.097463480171e-14
   116   -3.363372822901e-15
   117    2.899337491557e-16
   118    2.590708663785e-01
   119    6.450847489267e-14
   120    4.714383179018e-15
   121   -3.421749929680e-14
   122    2.531857982715e-01
   123   -1.613508200671e-13
   124   -3.693532827613e-14
   125    1.502387792273e-13
   126    6.297151366169e-02
   127   -4.992323558939e-16
   128   -1.046972313649e-02
   129   -5.433678081737e-03
   130   -2.106657087185e-16
   131    4.530590927877e-16
   132   -1.007750267596e-15
   133   -4.991156792572e-15
   134    5.802099129677e-17
   135   -3.796391702626e-15
   136   -7.465514348982e-02
   137    2.748151862175e-14
   138   -2.182743104852e-15
   139   -8.494945156378e-15
   140   -1.158963016429e-01
   141   -8.651592868558e-14
   142   -8.591093332348e-15
   143    1.106106612431e-13
   144   -1.392173010858e-01
   145   -9.812277440615e-13
   146   -7.922791144193e-14
   147   -5.163362775848e-13
   148   -4.845823600273e-02
   149   -1.425742281877e-15
   150    4.041628674478e-03
   151   -8.083870943705e-04
   152   -4.523471207812e-15
   153   -1.549857811961e-16
   154    1.230235420434e-15
   155    2.714360159388e-16
   156   -5.818619218696e-15
   157   -5.521149395811e-15
   158    1.361042376770e-01
   159    1.689134399090e-14
   160   -2.832759023748e-17
   161   -4.837752201544e-15
   162    2.133523051598e-01
   163   -2.497748893750e-13
   164   -1.246368547917e-13
   165   -7.370321407253e-14
   166    2.646322764316e-01
   167    2.247824581781e-13
   168   -7.079940907732e-13
   169   -1.838858260180e-13
   170    7.567835512120e-02
   171    4.971015583313e-15
   172   -6.402583865029e-03
   173    8.482636474214e-03
   174    2.706281395519e-15
   175   -5.238593486525e-16
   176    1.242531197006e-16
   177    3.902826389161e-16
   178    9.250157533112e-16
   179    1.026648246287e-15
   180   -1.179523460192e-01
   181   -1.874019290864e-14
   182    5.614512423913e-15
   183    4.995325204265e-15
   184   -1.934922457057e-01
   185   -3.900455583549e-15
   186    2.588881923246e-13
   187   -3.415505421719e-14
   188   -2.129433987275e-01
   189   -1.109751203695e-11
   190    3.265306030016e-12
   191   -9.307174703104e-13
   192   -4.655705649534e-02
   193   -2.034598956513e-15
   194    1.425958101836e-02
   195    3.459522926557e-03
   196    2.404013210883e-15
   197   -1.934000533096e-15
   198    3.926690581179e-15
   199   -6.129810919304e-14
   200   -3.013137029234e-13
   201   -1.281126231387e-12
   202    8.828883892291e-15
   203   -5.062096248457e-15
   204   -8.477245151158e-03
[5D]
