[Molden Format]
[Atoms] (Angs)
  C      1    6     -0.00754183     -1.75895763      0.00000000
  H      2    1     -2.09769850     -1.41880678     -0.00000000
  H      3    1     -0.13527422     -2.83956838     -0.00000000
  H      4    1      0.04053511      2.02026369      0.00000000
  C      5    6     -1.22066484      0.39918184     -0.00000000
  O      6    8     -2.25210141      1.05663720     -0.00000000
  C      7    6      1.24009552      0.27789184      0.00000000
  O      8    8      2.33767996      1.06122493      0.00000000
  N      9    7      0.03634586      1.00852936      0.00000000
  N     10    7     -1.18738304     -0.97903470     -0.00000000
  C     11    6      1.22288875     -1.12258096      0.00000000
  H     12    1      2.15640383     -1.68445878      0.00000000
[GTO]
1    0
S    6    1.000000
   4.56324000E+03    1.96665000E-03 
   6.82024000E+02    1.52306000E-02 
   1.54973000E+02    7.61269000E-02 
   4.44553000E+01    2.60801000E-01 
   1.30290000E+01    6.16462000E-01 
   1.82773000E+00    2.21006000E-01 
SP   3    1.000000
   2.09642000E+01    1.14660000E-01   4.02487000E-02 
   4.80331000E+00    9.19999000E-01   2.37594000E-01 
   1.45933000E+00   -3.03068000E-03   8.15854000E-01 
SP   1    1.000000
   4.83456000E-01    1.00000000E+00   1.00000000E+00 
SP   1    1.000000
   1.45585000E-01    1.00000000E+00   1.00000000E+00 
SP   1    1.000000
   4.38000000E-02    1.00000000E+00   1.00000000E+00 
D    1    1.000000
   6.26000000E-01    1.00000000E+00 

2    0
S    3    1.000000
   3.38650000E+01    2.54938000E-02 
   5.09479000E+00    1.90373000E-01 
   1.15879000E+00    8.52161000E-01 
S    1    1.000000
   3.25840000E-01    1.00000000E+00 
S    1    1.000000
   1.02741000E-01    1.00000000E+00 
S    1    1.000000
   3.60000000E-02    1.00000000E+00 
P    1    1.000000
   7.50000000E-01    1.00000000E+00 

3    0
S    3    1.000000
   3.38650000E+01    2.54938000E-02 
   5.09479000E+00    1.90373000E-01 
   1.15879000E+00    8.52161000E-01 
S    1    1.000000
   3.25840000E-01    1.00000000E+00 
S    1    1.000000
   1.02741000E-01    1.00000000E+00 
S    1    1.000000
   3.60000000E-02    1.00000000E+00 
P    1    1.000000
   7.50000000E-01    1.00000000E+00 

4    0
S    3    1.000000
   3.38650000E+01    2.54938000E-02 
   5.09479000E+00    1.90373000E-01 
   1.15879000E+00    8.52161000E-01 
S    1    1.000000
   3.25840000E-01    1.00000000E+00 
S    1    1.000000
   1.02741000E-01    1.00000000E+00 
S    1    1.000000
   3.60000000E-02    1.00000000E+00 
P    1    1.000000
   7.50000000E-01    1.00000000E+00 

5    0
S    6    1.000000
   4.56324000E+03    1.96665000E-03 
   6.82024000E+02    1.52306000E-02 
   1.54973000E+02    7.61269000E-02 
   4.44553000E+01    2.60801000E-01 
   1.30290000E+01    6.16462000E-01 
   1.82773000E+00    2.21006000E-01 
SP   3    1.000000
   2.09642000E+01    1.14660000E-01   4.02487000E-02 
   4.80331000E+00    9.19999000E-01   2.37594000E-01 
   1.45933000E+00   -3.03068000E-03   8.15854000E-01 
SP   1    1.000000
   4.83456000E-01    1.00000000E+00   1.00000000E+00 
SP   1    1.000000
   1.45585000E-01    1.00000000E+00   1.00000000E+00 
SP   1    1.000000
   4.38000000E-02    1.00000000E+00   1.00000000E+00 
D    1    1.000000
   6.26000000E-01    1.00000000E+00 

6    0
S    6    1.000000
   8.58850000E+03    1.89515000E-03 
   1.29723000E+03    1.43859000E-02 
   2.99296000E+02    7.07320000E-02 
   8.73771000E+01    2.40001000E-01 
   2.56789000E+01    5.94797000E-01 
   3.74004000E+00    2.80802000E-01 
SP   3    1.000000
   4.21175000E+01    1.13889000E-01   3.65114000E-02 
   9.62837000E+00    9.20811000E-01   2.37153000E-01 
   2.85332000E+00   -3.27447000E-03   8.19702000E-01 
SP   1    1.000000
   9.05661000E-01    1.00000000E+00   1.00000000E+00 
SP   1    1.000000
   2.55611000E-01    1.00000000E+00   1.00000000E+00 
SP   1    1.000000
   8.45000000E-02    1.00000000E+00   1.00000000E+00 
D    1    1.000000
   1.29200000E+00    1.00000000E+00 

7    0
S    6    1.000000
   4.56324000E+03    1.96665000E-03 
   6.82024000E+02    1.52306000E-02 
   1.54973000E+02    7.61269000E-02 
   4.44553000E+01    2.60801000E-01 
   1.30290000E+01    6.16462000E-01 
   1.82773000E+00    2.21006000E-01 
SP   3    1.000000
   2.09642000E+01    1.14660000E-01   4.02487000E-02 
   4.80331000E+00    9.19999000E-01   2.37594000E-01 
   1.45933000E+00   -3.03068000E-03   8.15854000E-01 
SP   1    1.000000
   4.83456000E-01    1.00000000E+00   1.00000000E+00 
SP   1    1.000000
   1.45585000E-01    1.00000000E+00   1.00000000E+00 
SP   1    1.000000
   4.38000000E-02    1.00000000E+00   1.00000000E+00 
D    1    1.000000
   6.26000000E-01    1.00000000E+00 

8    0
S    6    1.000000
   8.58850000E+03    1.89515000E-03 
   1.29723000E+03    1.43859000E-02 
   2.99296000E+02    7.07320000E-02 
   8.73771000E+01    2.40001000E-01 
   2.56789000E+01    5.94797000E-01 
   3.74004000E+00    2.80802000E-01 
SP   3    1.000000
   4.21175000E+01    1.13889000E-01   3.65114000E-02 
   9.62837000E+00    9.20811000E-01   2.37153000E-01 
   2.85332000E+00   -3.27447000E-03   8.19702000E-01 
SP   1    1.000000
   9.05661000E-01    1.00000000E+00   1.00000000E+00 
SP   1    1.000000
   2.55611000E-01    1.00000000E+00   1.00000000E+00 
SP   1    1.000000
   8.45000000E-02    1.00000000E+00   1.00000000E+00 
D    1    1.000000
   1.29200000E+00    1.00000000E+00 

9    0
S    6    1.000000
   6.29348000E+03    1.96979000E-03 
   9.49044000E+02    1.49613000E-02 
   2.18776000E+02    7.35006000E-02 
   6.36916000E+01    2.48937000E-01 
   1.88282000E+01    6.02460000E-01 
   2.72023000E+00    2.56202000E-01 
SP   3    1.000000
   3.06331000E+01    1.11906000E-01   3.83119000E-02 
   7.02614000E+00    9.21666000E-01   2.37403000E-01 
   2.11205000E+00   -2.56919000E-03   8.17592000E-01 
SP   1    1.000000
   6.84009000E-01    1.00000000E+00   1.00000000E+00 
SP   1    1.000000
   2.00878000E-01    1.00000000E+00   1.00000000E+00 
SP   1    1.000000
   6.39000000E-02    1.00000000E+00   1.00000000E+00 
D    1    1.000000
   9.13000000E-01    1.00000000E+00 

10    0
S    6    1.000000
   6.29348000E+03    1.96979000E-03 
   9.49044000E+02    1.49613000E-02 
   2.18776000E+02    7.35006000E-02 
   6.36916000E+01    2.48937000E-01 
   1.88282000E+01    6.02460000E-01 
   2.72023000E+00    2.56202000E-01 
SP   3    1.000000
   3.06331000E+01    1.11906000E-01   3.83119000E-02 
   7.02614000E+00    9.21666000E-01   2.37403000E-01 
   2.11205000E+00   -2.56919000E-03   8.17592000E-01 
SP   1    1.000000
   6.84009000E-01    1.00000000E+00   1.00000000E+00 
SP   1    1.000000
   2.00878000E-01    1.00000000E+00   1.00000000E+00 
SP   1    1.000000
   6.39000000E-02    1.00000000E+00   1.00000000E+00 
D    1    1.000000
   9.13000000E-01    1.00000000E+00 

11    0
S    6    1.000000
   4.56324000E+03    1.96665000E-03 
   6.82024000E+02    1.52306000E-02 
   1.54973000E+02    7.61269000E-02 
   4.44553000E+01    2.60801000E-01 
   1.30290000E+01    6.16462000E-01 
   1.82773000E+00    2.21006000E-01 
SP   3    1.000000
   2.09642000E+01    1.14660000E-01   4.02487000E-02 
   4.80331000E+00    9.19999000E-01   2.37594000E-01 
   1.45933000E+00   -3.03068000E-03   8.15854000E-01 
SP   1    1.000000
   4.83456000E-01    1.00000000E+00   1.00000000E+00 
SP   1    1.000000
   1.45585000E-01    1.00000000E+00   1.00000000E+00 
SP   1    1.000000
   4.38000000E-02    1.00000000E+00   1.00000000E+00 
D    1    1.000000
   6.26000000E-01    1.00000000E+00 

12    0
S    3    1.000000
   3.38650000E+01    2.54938000E-02 
   5.09479000E+00    1.90373000E-01 
   1.15879000E+00    8.52161000E-01 
S    1    1.000000
   3.25840000E-01    1.00000000E+00 
S    1    1.000000
   1.02741000E-01    1.00000000E+00 
S    1    1.000000
   3.60000000E-02    1.00000000E+00 
P    1    1.000000
   7.50000000E-01    1.00000000E+00 

[MO]
Sym=X
Ene= -0.345178
Spin=Alpha
Occup=1
     1    3.157543717017e-07
     2   -4.690604736290e-08
     3    3.870905258749e-06
     4   -4.532212246412e-06
     5    4.651097263154e-16
     6   -1.753895298753e-06
     7   -1.890684267403e-05
     8    1.779579432639e-05
     9   -8.517158700535e-16
    10    2.225531569654e-04
    11   -6.803151846991e-05
    12   -6.600879990722e-06
    13    2.161430708154e-16
    14   -4.610870439396e-04
    15   -5.623554896371e-04
    16   -9.513430771748e-05
    17   -7.016899792218e-15
    18   -2.432836401131e-06
    19   -1.415108656331e-16
    20    5.560441274773e-16
    21   -3.319569954280e-06
    22   -4.600740078839e-06
    23   -4.037149971075e-06
    24   -4.438551010966e-05
    25   -1.180088679580e-04
    26   -2.650130037880e-04
    27   -9.141891992359e-06
    28    8.547712751571e-06
    29   -7.110508230527e-16
    30    4.322178667397e-06
    31   -3.034533162360e-05
    32    6.584967217190e-06
    33   -5.693531251503e-05
    34    1.965977001240e-06
    35   -3.785452099810e-06
    36    1.176708315071e-15
    37   -3.112663509409e-06
    38   -5.940261009743e-05
    39   -6.279861752130e-05
    40   -3.147561477654e-04
    41   -1.082589191942e-05
    42    7.058181857139e-06
    43   -4.714271852238e-16
    44   -4.678891073694e-06
    45    7.629770004794e-05
    46    5.663321240653e-05
    47   -3.518030416908e-05
    48   -1.845416421739e-15
    49   -2.972109451700e-04
    50    3.584617836743e-04
    51   -2.266884198427e-04
    52    2.816430175548e-15
    53    7.677863066082e-05
    54    4.054303780966e-04
    55   -2.942993348970e-04
    56   -4.596916757202e-15
    57   -4.265221126487e-04
    58   -5.959975387030e-04
    59    4.597426537675e-04
    60   -1.625752104976e-15
    61    5.770567823482e-05
    62   -8.331662158831e-16
    63    7.783358433460e-17
    64   -9.120088347075e-05
    65    1.842593021611e-04
    66   -5.514860834096e-01
    67   -4.716797049000e-01
    68   -1.521176644483e-03
    69    1.016800580441e-03
    70   -8.385664605504e-16
    71   -5.502178766086e-03
    72    6.212726588595e-04
    73   -4.215122388411e-04
    74    7.194844089337e-16
    75    1.282515414754e-03
    76   -1.388183947133e-04
    77    1.125485451079e-04
    78   -7.466749411751e-16
    79   -1.468907918330e-03
    80   -7.307847312646e-05
    81    1.128023457236e-05
    82    1.138145676227e-15
    83    8.405640683390e-05
    84   -1.287253559823e-16
    85    1.098137302304e-15
    86    3.158878827936e-05
    87   -8.181868639284e-05
    88    3.957763524726e-07
    89   -5.729958367291e-07
    90    3.834774832123e-06
    91   -2.652609529344e-06
    92    7.593324355770e-16
    93    4.814705134122e-06
    94   -1.653162327670e-05
    95    1.443301625369e-05
    96    1.741643123839e-16
    97    1.785804374058e-04
    98   -5.660638910619e-05
    99    5.026767346493e-05
   100   -6.900583708341e-16
   101   -1.031523325845e-03
   102   -8.055648315849e-05
   103    7.580605643952e-04
   104   -2.807489682800e-15
   105   -2.265376618606e-06
   106    3.156553280304e-16
   107    3.085241896917e-16
   108    6.040322810508e-06
   109   -3.242547917302e-07
   110    2.796213058917e-06
   111    1.481895616181e-06
   112   -3.523103583724e-07
   113    5.647765480736e-07
   114   -8.922339162960e-16
   115    8.868504362538e-06
   116   -9.180274210717e-07
   117   -2.029011767746e-06
   118    2.180383280403e-15
   119   -4.727365908437e-05
   120    1.523891593726e-05
   121    1.201977753112e-05
   122   -1.675595720586e-15
   123    1.604260629487e-04
   124   -8.757541962985e-05
   125   -6.079771339140e-05
   126    6.767782310660e-16
   127   -2.456396121552e-07
   128    2.652415906573e-16
   129   -1.602473063377e-16
   130   -8.750331383781e-07
   131   -6.882529902744e-07
   132   -2.899753396648e-07
   133   -1.369717953062e-06
   134   -1.135578111295e-05
   135   -3.037751745970e-07
   136    3.929329597525e-16
   137    2.411348154376e-05
   138    3.047754444139e-05
   139   -1.399012522939e-07
   140   -1.809230985645e-15
   141   -2.325486422243e-04
   142   -4.619126651073e-05
   143    2.311330994679e-04
   144    3.518001798381e-15
   145    6.644609543564e-05
   146   -5.336804038324e-04
   147    1.979455770279e-05
   148    1.183383468944e-15
   149    6.986229404041e-06
   150    2.377447780897e-16
   151    1.134413202989e-15
   152   -2.092296650671e-05
   153   -9.565347382837e-06
   154   -4.205338941646e-07
   155   -1.374770896814e-06
   156   -5.643491671706e-06
   157    1.004152860061e-05
   158   -8.895507330417e-16
   159    2.589214558460e-05
   160    1.886855150185e-05
   161   -2.895918419765e-05
   162    2.140298969333e-16
   163   -2.749834872919e-04
   164   -2.164949250892e-04
   165   -7.660814415650e-05
   166    9.204468787295e-16
   167    5.595705296346e-05
   168   -3.149424110095e-04
   169    3.387175958384e-04
   170    5.383510406662e-15
   171    8.333714528039e-06
   172   -2.020192843851e-16
   173   -3.196500467682e-16
   174    2.046337801883e-05
   175    1.299615178753e-05
   176   -1.137134277087e-07
   177    5.917008703877e-07
   178   -1.835238928737e-06
   179    6.110067849158e-07
   180    8.726426558791e-17
   181   -9.529296530864e-06
   182    9.668253709935e-06
   183   -3.275207664558e-06
   184    1.300300741591e-15
   185    4.248044993238e-05
   186   -4.115112666858e-05
   187    2.210728262097e-05
   188   -2.871639763494e-15
   189    2.953096600154e-03
   190   -4.373522454941e-04
   191    3.051613778307e-04
   192    7.356220106442e-15
   193   -3.617739954017e-06
   194    4.825225905422e-16
   195    4.863580919805e-17
   196   -2.025259507695e-06
   197    2.656931398876e-06
   198   -9.550869332375e-07
   199    7.953627892046e-06
   200    1.590367126494e-05
   201    1.541484591126e-04
   202    1.769574089291e-07
   203   -3.011819744076e-07
   204    9.816383083511e-16
Sym=X
Ene= 0.345178
Spin=Alpha
Occup=0
     1    5.377151201501e-03
     2    9.256676966929e-03
     3   -2.228455049319e-02
     4   -1.191534231011e-02
     5   -2.248838080117e-15
     6   -2.567054723484e-02
     7   -3.954089204352e-02
     8   -2.082139752191e-02
     9   -2.983645895204e-15
    10   -9.716042078027e-02
    11   -5.319480862743e-02
    12   -6.871311364328e-02
    13   -7.425903446218e-15
    14   -5.537973505580e-01
    15   -1.193415626365e-01
    16   -1.602684055143e-01
    17    8.835673091273e-14
    18   -5.719734097546e-04
    19   -2.395895369285e-15
    20    2.634458416692e-15
    21   -5.199986835794e-03
    22    2.423233727996e-03
    23    6.999295755805e-04
    24    3.646133268137e-03
    25    2.060539874561e-02
    26    9.905121564829e-03
    27    6.344697185279e-05
    28    3.161013203035e-04
    29    2.106501090388e-15
    30    1.111130159041e-02
    31    1.164548784471e-02
    32    1.901166558926e-04
    33   -5.800324985830e-02
    34   -1.309523311394e-03
    35   -1.100747938274e-03
    36    4.563413048845e-16
    37   -8.597117083260e-04
    38   -1.215749046763e-03
    39    2.597947842590e-02
    40   -5.785307776987e-02
    41    1.185628568287e-03
    42    1.267428395146e-03
    43   -2.297610238672e-15
    44   -8.633695286905e-03
    45   -1.505200343515e-02
    46    2.913112656545e-02
    47    1.022994083526e-02
    48   -2.110278207793e-15
    49    4.505346100307e-02
    50    4.960312563743e-02
    51    2.107674081814e-02
    52   -9.961567787946e-15
    53    1.242338574648e-01
    54    5.576824141421e-02
    55    1.144234675429e-02
    56    7.676601203526e-14
    57    1.251880656970e-01
    58    2.888990391208e-02
    59    7.628092350997e-03
    60    4.514424620952e-14
    61    4.346334444797e-04
    62    3.272514843262e-15
    63    2.112924211731e-15
    64    4.334799799621e-03
    65    1.167460886498e-02
    66    1.905231708222e-03
    67    3.355575594596e-03
    68   -4.392517872684e-02
    69   -3.003903729540e-02
    70   -1.883902208991e-15
    71   -1.187157523688e-02
    72   -5.478477867694e-02
    73   -3.830275597045e-02
    74   -2.324424941979e-16
    75   -7.465932053740e-03
    76   -4.653905130802e-02
    77   -3.996341445493e-02
    78   -9.254960388420e-15
    79    2.153758783608e-02
    80    1.571698946677e-03
    81   -5.307135820480e-03
    82   -6.975447302381e-14
    83    3.881678528927e-04
    84    1.071915145467e-15
    85   -1.233186675083e-15
    86   -1.127089409847e-03
    87    5.660444593326e-04
    88   -4.550552631003e-03
    89   -8.014217786973e-03
    90    2.240348074184e-03
    91   -1.842291569856e-02
    92   -3.738728656273e-15
    93    2.209916216568e-02
    94    1.007899215413e-03
    95   -3.762988011251e-02
    96   -5.275786015035e-15
    97   -9.293327914159e-04
    98   -8.866896122719e-02
    99    1.312166485648e-01
   100    3.291136998924e-15
   101   -5.621504346289e-01
   102   -6.914857054911e-02
   103    2.589141726458e-01
   104   -4.080261080974e-14
   105    6.629478219718e-05
   106   -1.465383471571e-15
   107    1.231796417245e-15
   108   -5.838313162335e-02
   109    2.698441611689e-02
   110    7.281746031896e-04
   111    1.324512341712e-03
   112   -1.574089556055e-01
   113    2.130836023807e-01
   114   -1.614438510650e-15
   115   -6.025540640860e-03
   116   -2.375064574032e-01
   117    3.231272790684e-01
   118    1.007283044498e-15
   119   -3.729306895550e-04
   120   -2.432917408807e-01
   121    3.222220010035e-01
   122   -2.749241337611e-14
   123    5.261125759746e-03
   124   -3.155695501861e-02
   125    4.688284528867e-02
   126    7.467304215235e-14
   127   -7.695110436796e-04
   128   -5.517225062331e-16
   129    7.686527144790e-16
   130    1.302256225936e-02
   131   -5.350196531552e-03
   132    1.676964557460e-02
   133    2.841668177833e-02
   134   -6.147378084316e-02
   135    1.574291874089e-02
   136   -2.222767217359e-15
   137   -8.100586568799e-02
   138   -9.576629187938e-02
   139    1.880229942058e-02
   140   -1.129430203826e-15
   141   -2.218593915822e-01
   142   -8.669680275375e-02
   143    6.256588764360e-02
   144   -1.970536439707e-14
   145   -3.041659666911e-01
   146    6.826704266365e-02
   147    5.357457523075e-02
   148    1.549924931059e-14
   149   -2.821029241560e-03
   150    5.991450904514e-16
   151    1.376519984027e-16
   152    2.853925595033e-03
   153    1.224558056600e-03
   154    3.433534005516e-03
   155    5.840052901674e-03
   156    1.520808474890e-04
   157   -7.885158950639e-03
   158    1.355917997155e-15
   159   -1.713920053813e-02
   160    7.650211818619e-04
   161   -1.225508689287e-02
   162    3.021796206616e-15
   163   -3.385415259072e-02
   164    8.111766856676e-03
   165   -1.721216596836e-02
   166   -9.166767861742e-15
   167    6.008630177814e-02
   168    2.608019121874e-02
   169    5.200949478276e-02
   170   -5.050813210919e-14
   171   -4.146832320648e-04
   172   -2.487663047995e-16
   173   -1.516674316285e-15
   174   -2.421101657073e-03
   175    9.023198656409e-04
   176   -1.417161156486e-02
   177   -2.329146598853e-02
   178    1.286757887358e-02
   179    5.028413555496e-02
   180    2.896697384809e-15
   181    5.811733014356e-02
   182    2.474875869581e-02
   183    6.366725008056e-02
   184   -3.514938041205e-15
   185    2.826367762319e-01
   186   -3.311401688628e-02
   187    1.217882736459e-01
   188    1.307518198709e-14
   189    1.156952368873e+00
   190   -1.755684447749e-01
   191    1.350470319795e-01
   192   -8.488833781548e-14
   193    1.862866675530e-03
   194   -1.019577430634e-15
   195   -2.140777464857e-15
   196    2.302048941834e-03
   197   -1.192939475956e-03
   198    2.192233620637e-03
   199    6.043996884194e-04
   200    1.664638590648e-02
   201    6.178521182658e-02
   202    4.988576532919e-05
   203   -1.581296106514e-03
   204   -9.978483982387e-16
[5D]
