[Molden Format]
[Atoms] (Angs)
  C      1    6     -0.00754183     -1.75895763      0.00000000
  H      2    1     -2.09769850     -1.41880678     -0.00000000
  H      3    1     -0.13527422     -2.83956838     -0.00000000
  H      4    1      0.04053511      2.02026369      0.00000000
  C      5    6     -1.22066484      0.39918184     -0.00000000
  O      6    8     -2.25210141      1.05663720     -0.00000000
  C      7    6      1.24009552      0.27789184      0.00000000
  O      8    8      2.33767996      1.06122493      0.00000000
  N      9    7      0.03634586      1.00852936      0.00000000
  N     10    7     -1.18738304     -0.97903470     -0.00000000
  C     11    6      1.22288875     -1.12258096      0.00000000
  H     12    1      2.15640383     -1.68445878      0.00000000
[GTO]
1    0
S    6    1.000000
   4.56324000E+03    1.96665000E-03 
   6.82024000E+02    1.52306000E-02 
   1.54973000E+02    7.61269000E-02 
   4.44553000E+01    2.60801000E-01 
   1.30290000E+01    6.16462000E-01 
   1.82773000E+00    2.21006000E-01 
SP   3    1.000000
   2.09642000E+01    1.14660000E-01   4.02487000E-02 
   4.80331000E+00    9.19999000E-01   2.37594000E-01 
   1.45933000E+00   -3.03068000E-03   8.15854000E-01 
SP   1    1.000000
   4.83456000E-01    1.00000000E+00   1.00000000E+00 
SP   1    1.000000
   1.45585000E-01    1.00000000E+00   1.00000000E+00 
SP   1    1.000000
   4.38000000E-02    1.00000000E+00   1.00000000E+00 
D    1    1.000000
   6.26000000E-01    1.00000000E+00 

2    0
S    3    1.000000
   3.38650000E+01    2.54938000E-02 
   5.09479000E+00    1.90373000E-01 
   1.15879000E+00    8.52161000E-01 
S    1    1.000000
   3.25840000E-01    1.00000000E+00 
S    1    1.000000
   1.02741000E-01    1.00000000E+00 
S    1    1.000000
   3.60000000E-02    1.00000000E+00 
P    1    1.000000
   7.50000000E-01    1.00000000E+00 

3    0
S    3    1.000000
   3.38650000E+01    2.54938000E-02 
   5.09479000E+00    1.90373000E-01 
   1.15879000E+00    8.52161000E-01 
S    1    1.000000
   3.25840000E-01    1.00000000E+00 
S    1    1.000000
   1.02741000E-01    1.00000000E+00 
S    1    1.000000
   3.60000000E-02    1.00000000E+00 
P    1    1.000000
   7.50000000E-01    1.00000000E+00 

4    0
S    3    1.000000
   3.38650000E+01    2.54938000E-02 
   5.09479000E+00    1.90373000E-01 
   1.15879000E+00    8.52161000E-01 
S    1    1.000000
   3.25840000E-01    1.00000000E+00 
S    1    1.000000
   1.02741000E-01    1.00000000E+00 
S    1    1.000000
   3.60000000E-02    1.00000000E+00 
P    1    1.000000
   7.50000000E-01    1.00000000E+00 

5    0
S    6    1.000000
   4.56324000E+03    1.96665000E-03 
   6.82024000E+02    1.52306000E-02 
   1.54973000E+02    7.61269000E-02 
   4.44553000E+01    2.60801000E-01 
   1.30290000E+01    6.16462000E-01 
   1.82773000E+00    2.21006000E-01 
SP   3    1.000000
   2.09642000E+01    1.14660000E-01   4.02487000E-02 
   4.80331000E+00    9.19999000E-01   2.37594000E-01 
   1.45933000E+00   -3.03068000E-03   8.15854000E-01 
SP   1    1.000000
   4.83456000E-01    1.00000000E+00   1.00000000E+00 
SP   1    1.000000
   1.45585000E-01    1.00000000E+00   1.00000000E+00 
SP   1    1.000000
   4.38000000E-02    1.00000000E+00   1.00000000E+00 
D    1    1.000000
   6.26000000E-01    1.00000000E+00 

6    0
S    6    1.000000
   8.58850000E+03    1.89515000E-03 
   1.29723000E+03    1.43859000E-02 
   2.99296000E+02    7.07320000E-02 
   8.73771000E+01    2.40001000E-01 
   2.56789000E+01    5.94797000E-01 
   3.74004000E+00    2.80802000E-01 
SP   3    1.000000
   4.21175000E+01    1.13889000E-01   3.65114000E-02 
   9.62837000E+00    9.20811000E-01   2.37153000E-01 
   2.85332000E+00   -3.27447000E-03   8.19702000E-01 
SP   1    1.000000
   9.05661000E-01    1.00000000E+00   1.00000000E+00 
SP   1    1.000000
   2.55611000E-01    1.00000000E+00   1.00000000E+00 
SP   1    1.000000
   8.45000000E-02    1.00000000E+00   1.00000000E+00 
D    1    1.000000
   1.29200000E+00    1.00000000E+00 

7    0
S    6    1.000000
   4.56324000E+03    1.96665000E-03 
   6.82024000E+02    1.52306000E-02 
   1.54973000E+02    7.61269000E-02 
   4.44553000E+01    2.60801000E-01 
   1.30290000E+01    6.16462000E-01 
   1.82773000E+00    2.21006000E-01 
SP   3    1.000000
   2.09642000E+01    1.14660000E-01   4.02487000E-02 
   4.80331000E+00    9.19999000E-01   2.37594000E-01 
   1.45933000E+00   -3.03068000E-03   8.15854000E-01 
SP   1    1.000000
   4.83456000E-01    1.00000000E+00   1.00000000E+00 
SP   1    1.000000
   1.45585000E-01    1.00000000E+00   1.00000000E+00 
SP   1    1.000000
   4.38000000E-02    1.00000000E+00   1.00000000E+00 
D    1    1.000000
   6.26000000E-01    1.00000000E+00 

8    0
S    6    1.000000
   8.58850000E+03    1.89515000E-03 
   1.29723000E+03    1.43859000E-02 
   2.99296000E+02    7.07320000E-02 
   8.73771000E+01    2.40001000E-01 
   2.56789000E+01    5.94797000E-01 
   3.74004000E+00    2.80802000E-01 
SP   3    1.000000
   4.21175000E+01    1.13889000E-01   3.65114000E-02 
   9.62837000E+00    9.20811000E-01   2.37153000E-01 
   2.85332000E+00   -3.27447000E-03   8.19702000E-01 
SP   1    1.000000
   9.05661000E-01    1.00000000E+00   1.00000000E+00 
SP   1    1.000000
   2.55611000E-01    1.00000000E+00   1.00000000E+00 
SP   1    1.000000
   8.45000000E-02    1.00000000E+00   1.00000000E+00 
D    1    1.000000
   1.29200000E+00    1.00000000E+00 

9    0
S    6    1.000000
   6.29348000E+03    1.96979000E-03 
   9.49044000E+02    1.49613000E-02 
   2.18776000E+02    7.35006000E-02 
   6.36916000E+01    2.48937000E-01 
   1.88282000E+01    6.02460000E-01 
   2.72023000E+00    2.56202000E-01 
SP   3    1.000000
   3.06331000E+01    1.11906000E-01   3.83119000E-02 
   7.02614000E+00    9.21666000E-01   2.37403000E-01 
   2.11205000E+00   -2.56919000E-03   8.17592000E-01 
SP   1    1.000000
   6.84009000E-01    1.00000000E+00   1.00000000E+00 
SP   1    1.000000
   2.00878000E-01    1.00000000E+00   1.00000000E+00 
SP   1    1.000000
   6.39000000E-02    1.00000000E+00   1.00000000E+00 
D    1    1.000000
   9.13000000E-01    1.00000000E+00 

10    0
S    6    1.000000
   6.29348000E+03    1.96979000E-03 
   9.49044000E+02    1.49613000E-02 
   2.18776000E+02    7.35006000E-02 
   6.36916000E+01    2.48937000E-01 
   1.88282000E+01    6.02460000E-01 
   2.72023000E+00    2.56202000E-01 
SP   3    1.000000
   3.06331000E+01    1.11906000E-01   3.83119000E-02 
   7.02614000E+00    9.21666000E-01   2.37403000E-01 
   2.11205000E+00   -2.56919000E-03   8.17592000E-01 
SP   1    1.000000
   6.84009000E-01    1.00000000E+00   1.00000000E+00 
SP   1    1.000000
   2.00878000E-01    1.00000000E+00   1.00000000E+00 
SP   1    1.000000
   6.39000000E-02    1.00000000E+00   1.00000000E+00 
D    1    1.000000
   9.13000000E-01    1.00000000E+00 

11    0
S    6    1.000000
   4.56324000E+03    1.96665000E-03 
   6.82024000E+02    1.52306000E-02 
   1.54973000E+02    7.61269000E-02 
   4.44553000E+01    2.60801000E-01 
   1.30290000E+01    6.16462000E-01 
   1.82773000E+00    2.21006000E-01 
SP   3    1.000000
   2.09642000E+01    1.14660000E-01   4.02487000E-02 
   4.80331000E+00    9.19999000E-01   2.37594000E-01 
   1.45933000E+00   -3.03068000E-03   8.15854000E-01 
SP   1    1.000000
   4.83456000E-01    1.00000000E+00   1.00000000E+00 
SP   1    1.000000
   1.45585000E-01    1.00000000E+00   1.00000000E+00 
SP   1    1.000000
   4.38000000E-02    1.00000000E+00   1.00000000E+00 
D    1    1.000000
   6.26000000E-01    1.00000000E+00 

12    0
S    3    1.000000
   3.38650000E+01    2.54938000E-02 
   5.09479000E+00    1.90373000E-01 
   1.15879000E+00    8.52161000E-01 
S    1    1.000000
   3.25840000E-01    1.00000000E+00 
S    1    1.000000
   1.02741000E-01    1.00000000E+00 
S    1    1.000000
   3.60000000E-02    1.00000000E+00 
P    1    1.000000
   7.50000000E-01    1.00000000E+00 

[MO]
Sym=X
Ene= -0.021869
Spin=Alpha
Occup=1
     1    1.250639820195e-05
     2    1.844168982374e-05
     3   -1.267135144800e-05
     4    5.566072216532e-05
     5   -6.422241994608e-16
     6   -4.344665077135e-05
     7   -1.465782420785e-06
     8    1.066504063436e-04
     9    1.089748550328e-15
    10   -7.317371898303e-04
    11   -2.155553247576e-04
    12   -8.869000816029e-05
    13   -6.813271368760e-15
    14   -8.625712991462e-05
    15   -3.218466773563e-04
    16    5.037762519115e-04
    17    1.206595196213e-14
    18    2.251062900431e-06
    19   -6.649633253258e-16
    20   -9.978972705851e-16
    21   -2.437716791615e-05
    22    2.067127774123e-05
    23    2.804126566714e-05
    24    1.562549192069e-04
    25    9.478040515704e-04
    26    2.278835998499e-03
    27   -2.733818339669e-05
    28   -1.780156141186e-05
    29   -1.228647722710e-15
    30    3.878538008826e-06
    31    1.286700999393e-05
    32    2.359322846561e-04
    33    1.143643607211e-03
    34   -9.375237680236e-06
    35   -1.249752977253e-05
    36    1.603129967460e-15
    37    1.887199256754e-05
    38    9.705053760123e-05
    39    2.330264871119e-04
    40   -9.896624224831e-06
    41   -2.835462016570e-06
    42   -3.360225154978e-06
    43    7.810806232152e-16
    44   -6.057347265401e-06
    45   -1.011060792544e-05
    46    1.310529605959e-05
    47   -1.269243229814e-05
    48    1.178767998199e-15
    49    8.571069225557e-06
    50    1.104066842245e-05
    51   -1.760429267337e-05
    52   -1.180388463808e-15
    53   -5.915108575001e-06
    54   -1.100023543432e-04
    55    3.433676340418e-05
    56   -6.086809460532e-16
    57   -4.355615387647e-04
    58    2.249982300231e-04
    59    4.980219695342e-04
    60    5.752576912486e-15
    61    1.787365827627e-05
    62    4.670404296249e-16
    63   -6.178198429829e-16
    64    1.016086813831e-06
    65   -2.394720553640e-05
    66    9.371839160504e-06
    67    1.769553726028e-05
    68    2.448474707023e-05
    69    1.236381488503e-05
    70    2.094144511288e-16
    71   -6.242784864677e-05
    72    3.289421935398e-05
    73    1.863774305591e-05
    74   -1.547740500246e-15
    75   -1.478000402024e-04
    76    2.579901518341e-05
    77    4.307521525266e-05
    78    2.919851615740e-15
    79   -1.667092043062e-04
    80   -3.400755562779e-05
    81   -1.003167889208e-04
    82   -3.572482741090e-15
    83    3.569509947690e-06
    84   -5.193568389246e-16
    85   -2.795273011745e-16
    86    6.681562246234e-07
    87    3.492134267032e-06
    88    7.077262644297e-06
    89   -3.747235026966e-05
    90    2.930087685436e-06
    91    3.006317597750e-05
    92   -2.118583335521e-16
    93    1.172825482545e-04
    94    3.142337848539e-04
    95    2.641863592118e-04
    96    4.176396263784e-16
    97   -5.087385543779e-04
    98    5.202396018683e-05
    99    1.821135788761e-04
   100   -3.842682768157e-15
   101   -1.074785478074e-03
   102   -9.239285820867e-04
   103    2.736471004714e-04
   104    1.332546114873e-14
   105   -4.772778405911e-05
   106   -3.267495625472e-16
   107   -1.077726566341e-15
   108    9.056403299566e-05
   109    1.992430056565e-04
   110    5.515652425858e-01
   111    4.717125857765e-01
   112   -1.381270775268e-03
   113   -1.012930983414e-03
   114   -7.362673319226e-16
   115    5.165547988842e-03
   116    6.298162286347e-04
   117    4.257866875714e-04
   118   -2.603858156200e-16
   119   -7.766585257343e-04
   120   -2.421835041654e-04
   121   -2.364849484558e-04
   122    2.677742821316e-15
   123    1.464281958373e-03
   124   -5.103848073866e-05
   125   -4.910333159580e-05
   126   -3.227250392001e-15
   127   -5.123572939788e-05
   128   -3.363358002287e-16
   129   -4.234680476157e-17
   130   -4.600667020129e-05
   131   -1.724954597766e-04
   132    1.736083358593e-05
   133    2.876521223903e-05
   134    1.885860817177e-05
   135    1.491735514734e-06
   136    9.001297529127e-16
   137   -1.079726594515e-04
   138    9.213791597560e-05
   139   -2.436841789355e-05
   140   -1.508059502798e-15
   141   -7.618131066556e-05
   142    4.355489231692e-05
   143   -1.688383166373e-04
   144    2.996357711244e-15
   145   -7.182707159949e-04
   146   -2.625253448204e-04
   147   -1.628926680948e-04
   148   -5.499383703335e-15
   149   -4.521836148411e-06
   150    8.768960974360e-16
   151   -1.862835806310e-17
   152    1.600153928867e-05
   153   -1.978236249602e-05
   154    3.943470905231e-05
   155    6.752332688790e-05
   156    8.236683696125e-05
   157    4.482130970444e-05
   158    1.015313074021e-16
   159   -2.140630175872e-04
   160    1.332570282495e-04
   161    6.949286604080e-05
   162   -3.073805387534e-16
   163   -5.071880619559e-04
   164    3.013892283688e-04
   165    1.191756688241e-04
   166    3.295211486822e-15
   167   -8.175263895398e-04
   168    7.588610654885e-04
   169    1.883783386994e-04
   170   -5.242550438706e-15
   171    1.894906353277e-06
   172   -4.447715294843e-16
   173    1.858840664102e-16
   174    6.828886705579e-06
   175    1.074779822866e-05
   176   -3.878811162331e-06
   177   -1.152828588168e-05
   178    9.029814207834e-06
   179   -2.919236591417e-05
   180    1.121920234908e-15
   181    2.398333889594e-05
   182    3.480823816840e-05
   183    9.048985824724e-05
   184   -2.748453340574e-15
   185    6.874923386825e-04
   186   -3.468398127351e-04
   187    1.099141661966e-05
   188    8.864859526370e-15
   189    1.045486045611e-03
   190    1.489648495942e-03
   191    4.629915760596e-05
   192   -1.909453673671e-14
   193   -7.441197743862e-06
   194   -3.934849883175e-16
   195    3.259748793175e-16
   196   -3.712159474250e-05
   197    2.459266217636e-05
   198    2.175610837031e-05
   199    1.504309201055e-04
   200   -5.611215996042e-05
   201   -1.548044679653e-03
   202   -2.476062883721e-05
   203    1.794394329482e-05
   204   -3.128519933110e-16
Sym=X
Ene= 0.021869
Spin=Alpha
Occup=0
     1   -4.406569653770e-16
     2    9.018250097135e-16
     3   -1.834959408766e-15
     4    5.959945292671e-16
     5    4.524227474693e-02
     6   -8.079702853818e-15
     7   -2.667760691726e-15
     8   -3.011777564690e-15
     9    7.684712888032e-02
    10    1.194591906870e-13
    11    1.539509874979e-14
    12    1.228473640975e-13
    13    8.334438285075e-02
    14    1.855904195731e-12
    15    3.893810211402e-13
    16    6.971527399226e-13
    17    7.450854989705e-03
    18   -3.126633373699e-16
    19    3.018988392660e-02
    20   -4.000935116802e-03
    21   -3.091774331514e-16
    22    2.896210975823e-15
    23   -3.911244044471e-15
    24    1.542766495603e-15
    25   -2.498237844110e-13
    26    2.633125114944e-14
    27    1.165767824277e-15
    28   -1.483351649560e-15
    29   -1.084258892415e-02
    30    1.485141214910e-15
    31    3.579470826138e-15
    32    1.369922136712e-13
    33    3.335884807417e-13
    34    1.718896485516e-15
    35   -5.190997691718e-16
    36    3.400752629996e-03
    37    3.564848537548e-15
    38   -2.149173112634e-14
    39    1.787757857015e-13
    40   -1.447770288033e-13
    41   -1.500508120056e-15
    42    3.118661161317e-15
    43   -9.132038984560e-03
    44   -2.086244116171e-16
    45   -2.353878064004e-15
    46   -8.175122138375e-16
    47   -3.121289094709e-15
    48    1.272415859127e-02
    49    1.433404161671e-14
    50   -1.503298471326e-15
    51    1.623342226622e-17
    52    2.022171568931e-02
    53    5.198068819174e-14
    54    4.406761217078e-14
    55   -1.644547018320e-14
    56    4.892071372432e-02
    57   -4.672011224668e-13
    58   -3.711580501338e-14
    59    4.136686195964e-13
    60    2.631341071643e-02
    61   -1.454876316996e-15
    62   -4.650683412743e-02
    63    3.811681116610e-02
    64    8.996807567693e-16
    65    3.937823637272e-16
    66    2.800349656213e-16
    67    3.054948933784e-16
    68   -6.000765137400e-16
    69   -5.690216370567e-16
    70    1.705820492405e-01
    71    6.453463607819e-18
    72    2.834219656449e-16
    73   -2.699008598565e-15
    74    2.586914856114e-01
    75   -1.098130715985e-15
    76   -1.317240418955e-14
    77    4.427921541099e-15
    78    2.526933820941e-01
    79    3.674340573354e-14
    80    6.778458984756e-14
    81   -1.968545704921e-14
    82    5.269170382564e-02
    83    1.154587679929e-15
    84    1.062247751271e-02
    85   -5.538991597457e-03
    86    1.490906212199e-16
    87   -2.334966354539e-16
    88    1.456669115548e-15
    89    3.466727455049e-16
    90   -3.257547799004e-16
    91    2.517744422710e-15
    92    2.777329305850e-02
    93   -3.457646991655e-15
    94   -1.321002825322e-15
    95   -1.933375478322e-15
    96    4.972702444462e-02
    97    1.652402840685e-14
    98   -1.221976183704e-14
    99   -6.006911437392e-14
   100    2.814369838460e-02
   101   -1.096844231286e-12
   102   -1.214594637454e-13
   103    5.978699708113e-13
   104   -1.729331521948e-02
   105   -1.788388856412e-15
   106    1.524621827637e-02
   107   -2.331824482294e-02
   108   -1.877007964955e-15
   109    1.208238844232e-15
   110    8.894549907548e-18
   111    2.580914595401e-16
   112   -2.775677599499e-15
   113    3.960282305680e-15
   114    1.111684388542e-02
   115   -2.594691102065e-15
   116   -4.089685990495e-15
   117   -4.548407726442e-16
   118    1.668229106746e-02
   119    1.650391576156e-14
   120   -7.682136806918e-15
   121    1.397676859361e-14
   122    1.249645700573e-02
   123   -2.117515950871e-14
   124   -1.067675607550e-14
   125   -2.299090870864e-14
   126    5.855429068514e-03
   127   -2.038587082004e-15
   128   -1.627318573499e-03
   129   -8.947203177336e-04
   130    4.357677821891e-17
   131   -1.260057596862e-15
   132   -1.489925181982e-16
   133   -1.831390282828e-15
   134   -9.206762849090e-16
   135   -1.700155452729e-16
   136   -1.067598232041e-01
   137    9.409938370238e-15
   138   -6.470722678653e-15
   139    9.064362110140e-16
   140   -1.671721511304e-01
   141   -1.906479864446e-14
   142    2.885060172371e-14
   143    1.892309956300e-14
   144   -2.021121765143e-01
   145   -1.685090514382e-13
   146    8.032377330506e-14
   147   -3.164431850177e-13
   148   -3.271937644399e-02
   149   -1.187493601686e-15
   150   -1.474102873876e-03
   151    1.460922945668e-03
   152   -2.303008164776e-15
   153    7.377883500054e-16
   154    1.083668986389e-15
   155    3.822914703801e-16
   156   -6.771776885978e-16
   157   -1.344279182552e-15
   158   -1.446252370596e-01
   159   -4.619211160275e-16
   160    2.519552136608e-15
   161    1.496494250232e-15
   162   -2.261814442337e-01
   163   -4.250213195552e-14
   164   -5.116727597082e-14
   165   -2.784143032258e-14
   166   -2.749132680455e-01
   167    1.160748761134e-13
   168   -3.695672619484e-13
   169   -8.513623027707e-14
   170   -7.398851352866e-02
   171    1.097938596070e-15
   172   -1.153309322989e-03
   173   -3.615621152805e-03
   174    1.404696659276e-15
   175   -7.907746842164e-16
   176   -1.821849089503e-16
   177   -3.123168110135e-16
   178    3.540002726530e-16
   179    4.640680519183e-15
   180    1.148385487074e-01
   181    6.437885584582e-15
   182    3.421954367290e-15
   183   -1.624043319885e-15
   184    1.916765249791e-01
   185   -1.269968087085e-13
   186    8.846860363122e-14
   187   -3.697694989588e-14
   188    1.992464914208e-01
   189   -1.899094958336e-13
   190    6.366449175402e-13
   191    3.202433197333e-13
   192    3.166363022499e-02
   193    4.669396457600e-15
   194   -4.995716047970e-03
   195    3.487824989509e-03
   196    1.783304117605e-15
   197    9.564877885531e-16
   198    1.002797330183e-15
   199   -1.291451456593e-14
   200   -1.154869183472e-13
   201   -2.488567417762e-13
   202    1.317221544235e-15
   203    1.863169003011e-16
   204    9.642586463216e-03
[5D]
