[Molden Format]
[Atoms] (Angs)
  C      1    6     -0.00754183     -1.75895763      0.00000000
  H      2    1     -2.09769850     -1.41880678     -0.00000000
  H      3    1     -0.13527422     -2.83956838     -0.00000000
  H      4    1      0.04053511      2.02026369      0.00000000
  C      5    6     -1.22066484      0.39918184     -0.00000000
  O      6    8     -2.25210141      1.05663720     -0.00000000
  C      7    6      1.24009552      0.27789184      0.00000000
  O      8    8      2.33767996      1.06122493      0.00000000
  N      9    7      0.03634586      1.00852936      0.00000000
  N     10    7     -1.18738304     -0.97903470     -0.00000000
  C     11    6      1.22288875     -1.12258096      0.00000000
  H     12    1      2.15640383     -1.68445878      0.00000000
[GTO]
1    0
S    6    1.000000
   4.56324000E+03    1.96665000E-03 
   6.82024000E+02    1.52306000E-02 
   1.54973000E+02    7.61269000E-02 
   4.44553000E+01    2.60801000E-01 
   1.30290000E+01    6.16462000E-01 
   1.82773000E+00    2.21006000E-01 
SP   3    1.000000
   2.09642000E+01    1.14660000E-01   4.02487000E-02 
   4.80331000E+00    9.19999000E-01   2.37594000E-01 
   1.45933000E+00   -3.03068000E-03   8.15854000E-01 
SP   1    1.000000
   4.83456000E-01    1.00000000E+00   1.00000000E+00 
SP   1    1.000000
   1.45585000E-01    1.00000000E+00   1.00000000E+00 
SP   1    1.000000
   4.38000000E-02    1.00000000E+00   1.00000000E+00 
D    1    1.000000
   6.26000000E-01    1.00000000E+00 

2    0
S    3    1.000000
   3.38650000E+01    2.54938000E-02 
   5.09479000E+00    1.90373000E-01 
   1.15879000E+00    8.52161000E-01 
S    1    1.000000
   3.25840000E-01    1.00000000E+00 
S    1    1.000000
   1.02741000E-01    1.00000000E+00 
S    1    1.000000
   3.60000000E-02    1.00000000E+00 
P    1    1.000000
   7.50000000E-01    1.00000000E+00 

3    0
S    3    1.000000
   3.38650000E+01    2.54938000E-02 
   5.09479000E+00    1.90373000E-01 
   1.15879000E+00    8.52161000E-01 
S    1    1.000000
   3.25840000E-01    1.00000000E+00 
S    1    1.000000
   1.02741000E-01    1.00000000E+00 
S    1    1.000000
   3.60000000E-02    1.00000000E+00 
P    1    1.000000
   7.50000000E-01    1.00000000E+00 

4    0
S    3    1.000000
   3.38650000E+01    2.54938000E-02 
   5.09479000E+00    1.90373000E-01 
   1.15879000E+00    8.52161000E-01 
S    1    1.000000
   3.25840000E-01    1.00000000E+00 
S    1    1.000000
   1.02741000E-01    1.00000000E+00 
S    1    1.000000
   3.60000000E-02    1.00000000E+00 
P    1    1.000000
   7.50000000E-01    1.00000000E+00 

5    0
S    6    1.000000
   4.56324000E+03    1.96665000E-03 
   6.82024000E+02    1.52306000E-02 
   1.54973000E+02    7.61269000E-02 
   4.44553000E+01    2.60801000E-01 
   1.30290000E+01    6.16462000E-01 
   1.82773000E+00    2.21006000E-01 
SP   3    1.000000
   2.09642000E+01    1.14660000E-01   4.02487000E-02 
   4.80331000E+00    9.19999000E-01   2.37594000E-01 
   1.45933000E+00   -3.03068000E-03   8.15854000E-01 
SP   1    1.000000
   4.83456000E-01    1.00000000E+00   1.00000000E+00 
SP   1    1.000000
   1.45585000E-01    1.00000000E+00   1.00000000E+00 
SP   1    1.000000
   4.38000000E-02    1.00000000E+00   1.00000000E+00 
D    1    1.000000
   6.26000000E-01    1.00000000E+00 

6    0
S    6    1.000000
   8.58850000E+03    1.89515000E-03 
   1.29723000E+03    1.43859000E-02 
   2.99296000E+02    7.07320000E-02 
   8.73771000E+01    2.40001000E-01 
   2.56789000E+01    5.94797000E-01 
   3.74004000E+00    2.80802000E-01 
SP   3    1.000000
   4.21175000E+01    1.13889000E-01   3.65114000E-02 
   9.62837000E+00    9.20811000E-01   2.37153000E-01 
   2.85332000E+00   -3.27447000E-03   8.19702000E-01 
SP   1    1.000000
   9.05661000E-01    1.00000000E+00   1.00000000E+00 
SP   1    1.000000
   2.55611000E-01    1.00000000E+00   1.00000000E+00 
SP   1    1.000000
   8.45000000E-02    1.00000000E+00   1.00000000E+00 
D    1    1.000000
   1.29200000E+00    1.00000000E+00 

7    0
S    6    1.000000
   4.56324000E+03    1.96665000E-03 
   6.82024000E+02    1.52306000E-02 
   1.54973000E+02    7.61269000E-02 
   4.44553000E+01    2.60801000E-01 
   1.30290000E+01    6.16462000E-01 
   1.82773000E+00    2.21006000E-01 
SP   3    1.000000
   2.09642000E+01    1.14660000E-01   4.02487000E-02 
   4.80331000E+00    9.19999000E-01   2.37594000E-01 
   1.45933000E+00   -3.03068000E-03   8.15854000E-01 
SP   1    1.000000
   4.83456000E-01    1.00000000E+00   1.00000000E+00 
SP   1    1.000000
   1.45585000E-01    1.00000000E+00   1.00000000E+00 
SP   1    1.000000
   4.38000000E-02    1.00000000E+00   1.00000000E+00 
D    1    1.000000
   6.26000000E-01    1.00000000E+00 

8    0
S    6    1.000000
   8.58850000E+03    1.89515000E-03 
   1.29723000E+03    1.43859000E-02 
   2.99296000E+02    7.07320000E-02 
   8.73771000E+01    2.40001000E-01 
   2.56789000E+01    5.94797000E-01 
   3.74004000E+00    2.80802000E-01 
SP   3    1.000000
   4.21175000E+01    1.13889000E-01   3.65114000E-02 
   9.62837000E+00    9.20811000E-01   2.37153000E-01 
   2.85332000E+00   -3.27447000E-03   8.19702000E-01 
SP   1    1.000000
   9.05661000E-01    1.00000000E+00   1.00000000E+00 
SP   1    1.000000
   2.55611000E-01    1.00000000E+00   1.00000000E+00 
SP   1    1.000000
   8.45000000E-02    1.00000000E+00   1.00000000E+00 
D    1    1.000000
   1.29200000E+00    1.00000000E+00 

9    0
S    6    1.000000
   6.29348000E+03    1.96979000E-03 
   9.49044000E+02    1.49613000E-02 
   2.18776000E+02    7.35006000E-02 
   6.36916000E+01    2.48937000E-01 
   1.88282000E+01    6.02460000E-01 
   2.72023000E+00    2.56202000E-01 
SP   3    1.000000
   3.06331000E+01    1.11906000E-01   3.83119000E-02 
   7.02614000E+00    9.21666000E-01   2.37403000E-01 
   2.11205000E+00   -2.56919000E-03   8.17592000E-01 
SP   1    1.000000
   6.84009000E-01    1.00000000E+00   1.00000000E+00 
SP   1    1.000000
   2.00878000E-01    1.00000000E+00   1.00000000E+00 
SP   1    1.000000
   6.39000000E-02    1.00000000E+00   1.00000000E+00 
D    1    1.000000
   9.13000000E-01    1.00000000E+00 

10    0
S    6    1.000000
   6.29348000E+03    1.96979000E-03 
   9.49044000E+02    1.49613000E-02 
   2.18776000E+02    7.35006000E-02 
   6.36916000E+01    2.48937000E-01 
   1.88282000E+01    6.02460000E-01 
   2.72023000E+00    2.56202000E-01 
SP   3    1.000000
   3.06331000E+01    1.11906000E-01   3.83119000E-02 
   7.02614000E+00    9.21666000E-01   2.37403000E-01 
   2.11205000E+00   -2.56919000E-03   8.17592000E-01 
SP   1    1.000000
   6.84009000E-01    1.00000000E+00   1.00000000E+00 
SP   1    1.000000
   2.00878000E-01    1.00000000E+00   1.00000000E+00 
SP   1    1.000000
   6.39000000E-02    1.00000000E+00   1.00000000E+00 
D    1    1.000000
   9.13000000E-01    1.00000000E+00 

11    0
S    6    1.000000
   4.56324000E+03    1.96665000E-03 
   6.82024000E+02    1.52306000E-02 
   1.54973000E+02    7.61269000E-02 
   4.44553000E+01    2.60801000E-01 
   1.30290000E+01    6.16462000E-01 
   1.82773000E+00    2.21006000E-01 
SP   3    1.000000
   2.09642000E+01    1.14660000E-01   4.02487000E-02 
   4.80331000E+00    9.19999000E-01   2.37594000E-01 
   1.45933000E+00   -3.03068000E-03   8.15854000E-01 
SP   1    1.000000
   4.83456000E-01    1.00000000E+00   1.00000000E+00 
SP   1    1.000000
   1.45585000E-01    1.00000000E+00   1.00000000E+00 
SP   1    1.000000
   4.38000000E-02    1.00000000E+00   1.00000000E+00 
D    1    1.000000
   6.26000000E-01    1.00000000E+00 

12    0
S    3    1.000000
   3.38650000E+01    2.54938000E-02 
   5.09479000E+00    1.90373000E-01 
   1.15879000E+00    8.52161000E-01 
S    1    1.000000
   3.25840000E-01    1.00000000E+00 
S    1    1.000000
   1.02741000E-01    1.00000000E+00 
S    1    1.000000
   3.60000000E-02    1.00000000E+00 
P    1    1.000000
   7.50000000E-01    1.00000000E+00 

[MO]
Sym=X
Ene= -0.048295
Spin=Alpha
Occup=1
     1    2.660318671350e-07
     2    3.673703112354e-06
     3   -2.554161110807e-06
     4    1.728160956228e-05
     5    6.042622832809e-16
     6   -1.220953382217e-05
     7   -1.781230040715e-05
     8    1.038570699391e-05
     9   -1.135925502201e-15
    10    1.653019957950e-04
    11    1.147150699839e-05
    12    1.734180592162e-04
    13    6.590929162588e-15
    14    1.915515026883e-04
    15   -7.673447439912e-04
    16    7.071182984532e-04
    17   -9.611714006248e-15
    18   -9.062616674608e-06
    19    6.867416014390e-16
    20    1.004156567356e-15
    21   -4.445364474297e-06
    22   -8.494108272742e-06
    23    7.177027711979e-06
    24    4.827158599294e-05
    25    5.352089011786e-04
    26    9.423325849003e-04
    27   -3.327778756295e-06
    28   -7.202196352890e-06
    29    1.222723251308e-15
    30    1.007745471454e-05
    31    2.004293919320e-05
    32    2.753270924841e-04
    33    5.270504760081e-04
    34   -1.168106467538e-05
    35   -3.381717878969e-06
    36   -1.602185720736e-15
    37   -5.379103491128e-06
    38   -3.556454313798e-05
    39   -2.727338580299e-04
    40   -8.581157955674e-04
    41    3.358638114642e-06
    42   -1.113512704430e-06
    43   -7.899316032517e-16
    44   -1.482579375569e-06
    45   -3.126909353301e-06
    46   -9.567989344872e-07
    47   -8.366931726146e-06
    48   -1.033340301075e-15
    49    2.351265264486e-05
    50   -6.883547425849e-07
    51   -1.642933477208e-05
    52    1.402511239529e-15
    53    3.260461056342e-06
    54    1.502924461076e-04
    55    5.803408602740e-05
    56    1.179765586916e-15
    57   -8.535312232929e-04
    58   -5.627507699154e-05
    59    6.406137469631e-04
    60   -7.764826014956e-15
    61   -1.148193255727e-05
    62   -4.551463732141e-16
    63    6.041779321347e-16
    64   -6.813856090768e-06
    65   -1.129950803443e-05
    66   -8.014501057191e-06
    67   -8.872335186024e-06
    68    1.519719612628e-05
    69    1.183155263000e-05
    70   -2.900814963307e-16
    71    1.484781515665e-05
    72    1.965763952204e-05
    73    2.204796802671e-05
    74    1.458214107309e-15
    75   -9.005483901588e-06
    76    2.335091814112e-05
    77    1.146549237957e-06
    78   -3.237673218910e-15
    79    5.080899827548e-04
    80    2.112150080304e-04
    81   -7.517236476029e-05
    82    4.225431651431e-15
    83   -5.254178509970e-07
    84    5.254230487156e-16
    85    2.744369296507e-16
    86   -5.513990784815e-07
    87    7.097820689069e-07
    88    4.237506446445e-06
    89    5.695861756956e-05
    90   -4.369199720835e-06
    91   -1.149926012300e-05
    92    1.870932256807e-16
    93   -1.605658064772e-04
    94   -3.136245034841e-04
    95   -2.291712469601e-04
    96   -4.795848503552e-16
    97    1.439705852589e-04
    98    3.056532359420e-05
    99   -1.924637263506e-04
   100    3.869130397276e-15
   101    2.493329322940e-03
   102    2.455017540081e-04
   103   -6.337492604304e-04
   104   -8.192035282223e-15
   105    2.489526645451e-05
   106    3.304158747421e-16
   107    1.055997031606e-15
   108   -9.155566053315e-05
   109   -2.013239359984e-04
   110   -5.515782221550e-01
   111   -4.717346578686e-01
   112    1.384340843995e-03
   113    9.940886460690e-04
   114    7.775735635865e-16
   115   -5.093915592593e-03
   116   -6.223226127695e-04
   117   -4.534482250384e-04
   118    2.660161123825e-16
   119    8.980523931954e-04
   120    2.163033873027e-04
   121    1.864601424356e-04
   122   -2.327789228561e-15
   123   -1.209560871845e-03
   124    1.729102493181e-04
   125    5.210879996694e-05
   126    1.649588434422e-15
   127    4.835335894479e-05
   128    3.346047517099e-16
   129    4.202897969953e-17
   130    4.647786758923e-05
   131    1.733363345171e-04
   132   -1.499982045151e-05
   133   -2.455533414592e-05
   134    3.302846113263e-05
   135    1.356659124251e-05
   136   -9.470993435044e-16
   137    8.967532703000e-05
   138   -1.458236467524e-05
   139    5.446755728975e-05
   140    1.429603580475e-15
   141    1.084816679692e-04
   142    1.511694631519e-04
   143    1.214198979523e-04
   144   -3.133231653555e-15
   145    7.423662368732e-04
   146    8.521990569104e-04
   147    2.975563159475e-04
   148    4.686086995102e-15
   149    1.345760663869e-06
   150   -8.940513483085e-16
   151    1.260173272223e-17
   152   -1.735195047447e-05
   153    2.538929999927e-05
   154    6.489404129133e-06
   155    1.132683325534e-05
   156    3.456643396362e-05
   157    2.893546809998e-05
   158   -1.492356563417e-16
   159   -2.646439924548e-05
   160    4.782408161074e-05
   161    4.366022793482e-05
   162    2.534186270862e-16
   163   -2.322601584348e-04
   164    6.650463718840e-05
   165    1.082547077637e-04
   166   -3.460148281703e-15
   167    3.575559483570e-04
   168    6.694142540218e-04
   169    4.002697606363e-04
   170    5.264527968478e-15
   171   -3.112401714146e-06
   172    4.421303026429e-16
   173   -1.687928422316e-16
   174    1.213790134300e-06
   175    5.097673996911e-06
   176   -2.041041762392e-05
   177   -3.044342714020e-05
   178    2.852886223448e-05
   179    1.998005639326e-05
   180   -1.051570805709e-15
   181    9.688973112983e-05
   182    9.889490168922e-06
   183   -1.024532391982e-04
   184    2.825830760800e-15
   185    6.433988213645e-05
   186    3.198097908963e-04
   187   -5.445069657466e-05
   188   -8.447314093230e-15
   189   -1.292122676985e-03
   190    1.472240071583e-03
   191   -1.863830433458e-03
   192    1.427392370084e-14
   193   -5.552839320025e-06
   194    3.882809669395e-16
   195   -3.238782798936e-16
   196    5.448566480982e-05
   197   -3.178987461654e-05
   198    8.665647948457e-06
   199   -5.646636903499e-05
   200   -2.937443862363e-04
   201   -2.605515511045e-03
   202    1.559973025126e-05
   203   -6.774820504640e-06
   204    3.049808093205e-16
Sym=X
Ene= 0.048295
Spin=Alpha
Occup=0
     1   -1.029177711624e-15
     2   -1.072538265348e-15
     3    2.017624009995e-16
     4   -1.246564023845e-16
     5    7.060509875106e-02
     6    1.437513556901e-14
     7    1.453958897210e-15
     8    1.178065812859e-14
     9    1.157163408146e-01
    10   -9.852552053932e-14
    11    1.257576200531e-13
    12   -1.731803300484e-13
    13    1.303140282559e-01
    14   -9.684334546034e-12
    15   -2.134667147298e-12
    16   -2.332532100330e-12
    17    2.004846586177e-02
    18    2.247581523603e-15
    19    3.141286983931e-02
    20   -2.053979052202e-04
    21   -5.906680915237e-15
    22    3.158333805591e-15
    23    3.102124411153e-15
    24   -8.687783481610e-15
    25    4.217518049619e-13
    26    2.869513220258e-13
    27    4.069873351265e-15
    28    3.982007372103e-15
    29   -1.292348343320e-02
    30    2.040164484245e-15
    31   -4.196265433705e-14
    32   -3.214991711255e-14
    33   -8.396192088893e-13
    34   -4.163908664046e-15
    35   -4.454033920977e-15
    36    5.322424287302e-03
    37   -2.907060649360e-15
    38    5.409253566494e-14
    39    4.214777076570e-14
    40   -3.261845715636e-13
    41    8.997509201140e-17
    42    1.947499846443e-15
    43    4.505034997736e-03
    44    9.080063270907e-16
    45    6.402332382250e-18
    46    4.287092909982e-15
    47    6.232836526797e-15
    48   -6.674599110835e-03
    49    1.316566184842e-14
    50   -2.428764182767e-15
    51   -3.657141786419e-15
    52   -1.474397718891e-02
    53   -3.523533600833e-13
    54    6.117826016394e-14
    55    2.792990504311e-13
    56    1.274999131153e-02
    57    9.514151346284e-13
    58    3.903250630623e-13
    59    8.742347249804e-14
    60    2.505289855019e-02
    61    9.862400782940e-15
    62   -5.971299571453e-03
    63    3.295225195192e-02
    64    1.834865038799e-15
    65    3.169757718997e-15
    66    3.805836625781e-20
    67   -2.748112963388e-16
    68   -3.509540124878e-15
    69   -2.029011026459e-16
    70    5.988085071537e-02
    71    2.474667035545e-15
    72    8.435032411090e-16
    73    1.195927080913e-14
    74    9.041193099367e-02
    75    1.502709840872e-15
    76    2.321011259306e-14
    77   -3.223269427896e-14
    78    9.213361364423e-02
    79   -3.438540997146e-15
    80   -5.490829289307e-14
    81   -9.631812400762e-14
    82    1.057163830343e-02
    83    2.868576478776e-16
    84    3.729355149423e-03
    85   -7.723329113171e-04
    86   -1.839053284030e-17
    87   -4.843375273879e-16
    88    1.999107651570e-15
    89    1.444145761467e-15
    90   -9.587805077289e-16
    91    7.054370094419e-15
    92    4.386318611402e-03
    93   -8.934947686990e-15
    94    1.903612213846e-14
    95   -9.292222699727e-16
    96    9.312441017028e-03
    97   -9.583900735736e-14
    98    4.714942046763e-14
    99    2.070687520481e-13
   100   -2.871654852289e-02
   101    1.064342586290e-13
   102   -6.668375629304e-14
   103    2.076428705104e-13
   104   -4.184484061587e-02
   105   -7.651669485919e-15
   106   -2.759235720250e-02
   107   -3.025574256431e-02
   108   -1.764375575238e-15
   109   -1.437742547594e-15
   110    4.411449752698e-16
   111   -2.646469958826e-16
   112   -8.737088347912e-15
   113    5.913489026544e-15
   114   -2.133541988007e-01
   115    4.523853716297e-15
   116    2.563919260285e-15
   117   -1.322734789729e-14
   118   -2.672968334805e-01
   119   -4.599370531291e-14
   120   -4.027527077794e-15
   121    4.292076599938e-14
   122   -2.116879873534e-01
   123    8.758660144523e-15
   124    8.020348621228e-14
   125   -4.662678381057e-14
   126   -4.629904798236e-02
   127   -2.376763905791e-15
   128    7.175517786788e-03
   129    4.605452268060e-03
   130   -9.975001714666e-16
   131   -3.551830085505e-16
   132   -2.250476366506e-15
   133   -1.739988447019e-15
   134    7.304972326912e-15
   135   -3.937379769126e-15
   136    4.731792372574e-02
   137   -5.387315248101e-15
   138    5.489668441701e-16
   139   -4.687265598165e-15
   140    7.478945169421e-02
   141    1.540336524145e-13
   142    5.443845798123e-14
   143   -7.756465105028e-14
   144    7.947099680319e-02
   145   -2.135692879826e-12
   146    3.358408501673e-14
   147    6.588436420033e-13
   148    3.331132600596e-02
   149   -5.065373180462e-15
   150    6.161138164224e-05
   151   -9.163087276725e-04
   152    2.765817239658e-15
   153    2.687689088519e-15
   154    1.998564748759e-15
   155    4.871361488450e-15
   156    9.820684262315e-16
   157    4.739268636951e-15
   158   -1.461806163190e-01
   159   -2.278037149472e-14
   160    3.202708886859e-16
   161   -2.332760769969e-15
   162   -2.299707248880e-01
   163    5.991754935671e-14
   164    5.259745786403e-14
   165    1.144826918750e-13
   166   -2.783434358623e-01
   167    1.902880466736e-12
   168    1.116827726257e-12
   169    6.885192728736e-13
   170   -8.328981040219e-02
   171    1.458864109834e-16
   172    2.390302805849e-03
   173   -5.645821853769e-03
   174    3.544888925625e-16
   175   -7.151582283661e-16
   176   -1.817751878301e-15
   177   -3.169479113886e-15
   178    9.785923720558e-15
   179    6.166675936326e-15
   180    1.274856834565e-01
   181    1.568270271199e-14
   182    1.393442818716e-15
   183   -6.048716081728e-15
   184    2.106343691146e-01
   185    1.265875351463e-13
   186    5.791718870874e-14
   187    2.534741845486e-13
   188    2.235293529095e-01
   189    9.145269646367e-12
   190   -2.446027057560e-12
   191   -7.125814910489e-13
   192    4.451683477629e-02
   193    4.437003782325e-15
   194   -1.064235594386e-02
   195    1.567920951929e-03
   196    5.219722256026e-16
   197    4.790164701534e-15
   198   -7.538240174977e-15
   199    3.583230388222e-14
   200   -1.532585552651e-13
   201    5.317587477230e-13
   202   -9.061926319419e-15
   203    5.505933200057e-15
   204    9.451047188122e-03
[5D]
