[Molden Format]
[Atoms] (Angs)
  C      1    6     -0.00754183     -1.75895763      0.00000000
  H      2    1     -2.09769850     -1.41880678     -0.00000000
  H      3    1     -0.13527422     -2.83956838     -0.00000000
  H      4    1      0.04053511      2.02026369      0.00000000
  C      5    6     -1.22066484      0.39918184     -0.00000000
  O      6    8     -2.25210141      1.05663720     -0.00000000
  C      7    6      1.24009552      0.27789184      0.00000000
  O      8    8      2.33767996      1.06122493      0.00000000
  N      9    7      0.03634586      1.00852936      0.00000000
  N     10    7     -1.18738304     -0.97903470     -0.00000000
  C     11    6      1.22288875     -1.12258096      0.00000000
  H     12    1      2.15640383     -1.68445878      0.00000000
[GTO]
1    0
S    6    1.000000
   4.56324000E+03    1.96665000E-03 
   6.82024000E+02    1.52306000E-02 
   1.54973000E+02    7.61269000E-02 
   4.44553000E+01    2.60801000E-01 
   1.30290000E+01    6.16462000E-01 
   1.82773000E+00    2.21006000E-01 
SP   3    1.000000
   2.09642000E+01    1.14660000E-01   4.02487000E-02 
   4.80331000E+00    9.19999000E-01   2.37594000E-01 
   1.45933000E+00   -3.03068000E-03   8.15854000E-01 
SP   1    1.000000
   4.83456000E-01    1.00000000E+00   1.00000000E+00 
SP   1    1.000000
   1.45585000E-01    1.00000000E+00   1.00000000E+00 
SP   1    1.000000
   4.38000000E-02    1.00000000E+00   1.00000000E+00 
D    1    1.000000
   6.26000000E-01    1.00000000E+00 

2    0
S    3    1.000000
   3.38650000E+01    2.54938000E-02 
   5.09479000E+00    1.90373000E-01 
   1.15879000E+00    8.52161000E-01 
S    1    1.000000
   3.25840000E-01    1.00000000E+00 
S    1    1.000000
   1.02741000E-01    1.00000000E+00 
S    1    1.000000
   3.60000000E-02    1.00000000E+00 
P    1    1.000000
   7.50000000E-01    1.00000000E+00 

3    0
S    3    1.000000
   3.38650000E+01    2.54938000E-02 
   5.09479000E+00    1.90373000E-01 
   1.15879000E+00    8.52161000E-01 
S    1    1.000000
   3.25840000E-01    1.00000000E+00 
S    1    1.000000
   1.02741000E-01    1.00000000E+00 
S    1    1.000000
   3.60000000E-02    1.00000000E+00 
P    1    1.000000
   7.50000000E-01    1.00000000E+00 

4    0
S    3    1.000000
   3.38650000E+01    2.54938000E-02 
   5.09479000E+00    1.90373000E-01 
   1.15879000E+00    8.52161000E-01 
S    1    1.000000
   3.25840000E-01    1.00000000E+00 
S    1    1.000000
   1.02741000E-01    1.00000000E+00 
S    1    1.000000
   3.60000000E-02    1.00000000E+00 
P    1    1.000000
   7.50000000E-01    1.00000000E+00 

5    0
S    6    1.000000
   4.56324000E+03    1.96665000E-03 
   6.82024000E+02    1.52306000E-02 
   1.54973000E+02    7.61269000E-02 
   4.44553000E+01    2.60801000E-01 
   1.30290000E+01    6.16462000E-01 
   1.82773000E+00    2.21006000E-01 
SP   3    1.000000
   2.09642000E+01    1.14660000E-01   4.02487000E-02 
   4.80331000E+00    9.19999000E-01   2.37594000E-01 
   1.45933000E+00   -3.03068000E-03   8.15854000E-01 
SP   1    1.000000
   4.83456000E-01    1.00000000E+00   1.00000000E+00 
SP   1    1.000000
   1.45585000E-01    1.00000000E+00   1.00000000E+00 
SP   1    1.000000
   4.38000000E-02    1.00000000E+00   1.00000000E+00 
D    1    1.000000
   6.26000000E-01    1.00000000E+00 

6    0
S    6    1.000000
   8.58850000E+03    1.89515000E-03 
   1.29723000E+03    1.43859000E-02 
   2.99296000E+02    7.07320000E-02 
   8.73771000E+01    2.40001000E-01 
   2.56789000E+01    5.94797000E-01 
   3.74004000E+00    2.80802000E-01 
SP   3    1.000000
   4.21175000E+01    1.13889000E-01   3.65114000E-02 
   9.62837000E+00    9.20811000E-01   2.37153000E-01 
   2.85332000E+00   -3.27447000E-03   8.19702000E-01 
SP   1    1.000000
   9.05661000E-01    1.00000000E+00   1.00000000E+00 
SP   1    1.000000
   2.55611000E-01    1.00000000E+00   1.00000000E+00 
SP   1    1.000000
   8.45000000E-02    1.00000000E+00   1.00000000E+00 
D    1    1.000000
   1.29200000E+00    1.00000000E+00 

7    0
S    6    1.000000
   4.56324000E+03    1.96665000E-03 
   6.82024000E+02    1.52306000E-02 
   1.54973000E+02    7.61269000E-02 
   4.44553000E+01    2.60801000E-01 
   1.30290000E+01    6.16462000E-01 
   1.82773000E+00    2.21006000E-01 
SP   3    1.000000
   2.09642000E+01    1.14660000E-01   4.02487000E-02 
   4.80331000E+00    9.19999000E-01   2.37594000E-01 
   1.45933000E+00   -3.03068000E-03   8.15854000E-01 
SP   1    1.000000
   4.83456000E-01    1.00000000E+00   1.00000000E+00 
SP   1    1.000000
   1.45585000E-01    1.00000000E+00   1.00000000E+00 
SP   1    1.000000
   4.38000000E-02    1.00000000E+00   1.00000000E+00 
D    1    1.000000
   6.26000000E-01    1.00000000E+00 

8    0
S    6    1.000000
   8.58850000E+03    1.89515000E-03 
   1.29723000E+03    1.43859000E-02 
   2.99296000E+02    7.07320000E-02 
   8.73771000E+01    2.40001000E-01 
   2.56789000E+01    5.94797000E-01 
   3.74004000E+00    2.80802000E-01 
SP   3    1.000000
   4.21175000E+01    1.13889000E-01   3.65114000E-02 
   9.62837000E+00    9.20811000E-01   2.37153000E-01 
   2.85332000E+00   -3.27447000E-03   8.19702000E-01 
SP   1    1.000000
   9.05661000E-01    1.00000000E+00   1.00000000E+00 
SP   1    1.000000
   2.55611000E-01    1.00000000E+00   1.00000000E+00 
SP   1    1.000000
   8.45000000E-02    1.00000000E+00   1.00000000E+00 
D    1    1.000000
   1.29200000E+00    1.00000000E+00 

9    0
S    6    1.000000
   6.29348000E+03    1.96979000E-03 
   9.49044000E+02    1.49613000E-02 
   2.18776000E+02    7.35006000E-02 
   6.36916000E+01    2.48937000E-01 
   1.88282000E+01    6.02460000E-01 
   2.72023000E+00    2.56202000E-01 
SP   3    1.000000
   3.06331000E+01    1.11906000E-01   3.83119000E-02 
   7.02614000E+00    9.21666000E-01   2.37403000E-01 
   2.11205000E+00   -2.56919000E-03   8.17592000E-01 
SP   1    1.000000
   6.84009000E-01    1.00000000E+00   1.00000000E+00 
SP   1    1.000000
   2.00878000E-01    1.00000000E+00   1.00000000E+00 
SP   1    1.000000
   6.39000000E-02    1.00000000E+00   1.00000000E+00 
D    1    1.000000
   9.13000000E-01    1.00000000E+00 

10    0
S    6    1.000000
   6.29348000E+03    1.96979000E-03 
   9.49044000E+02    1.49613000E-02 
   2.18776000E+02    7.35006000E-02 
   6.36916000E+01    2.48937000E-01 
   1.88282000E+01    6.02460000E-01 
   2.72023000E+00    2.56202000E-01 
SP   3    1.000000
   3.06331000E+01    1.11906000E-01   3.83119000E-02 
   7.02614000E+00    9.21666000E-01   2.37403000E-01 
   2.11205000E+00   -2.56919000E-03   8.17592000E-01 
SP   1    1.000000
   6.84009000E-01    1.00000000E+00   1.00000000E+00 
SP   1    1.000000
   2.00878000E-01    1.00000000E+00   1.00000000E+00 
SP   1    1.000000
   6.39000000E-02    1.00000000E+00   1.00000000E+00 
D    1    1.000000
   9.13000000E-01    1.00000000E+00 

11    0
S    6    1.000000
   4.56324000E+03    1.96665000E-03 
   6.82024000E+02    1.52306000E-02 
   1.54973000E+02    7.61269000E-02 
   4.44553000E+01    2.60801000E-01 
   1.30290000E+01    6.16462000E-01 
   1.82773000E+00    2.21006000E-01 
SP   3    1.000000
   2.09642000E+01    1.14660000E-01   4.02487000E-02 
   4.80331000E+00    9.19999000E-01   2.37594000E-01 
   1.45933000E+00   -3.03068000E-03   8.15854000E-01 
SP   1    1.000000
   4.83456000E-01    1.00000000E+00   1.00000000E+00 
SP   1    1.000000
   1.45585000E-01    1.00000000E+00   1.00000000E+00 
SP   1    1.000000
   4.38000000E-02    1.00000000E+00   1.00000000E+00 
D    1    1.000000
   6.26000000E-01    1.00000000E+00 

12    0
S    3    1.000000
   3.38650000E+01    2.54938000E-02 
   5.09479000E+00    1.90373000E-01 
   1.15879000E+00    8.52161000E-01 
S    1    1.000000
   3.25840000E-01    1.00000000E+00 
S    1    1.000000
   1.02741000E-01    1.00000000E+00 
S    1    1.000000
   3.60000000E-02    1.00000000E+00 
P    1    1.000000
   7.50000000E-01    1.00000000E+00 

[MO]
Sym=X
Ene= -0.002669
Spin=Alpha
Occup=1
     1    3.157616301131e-07
     2   -4.697926665537e-08
     3    3.870895547035e-06
     4   -4.532259973380e-06
     5    4.650941255379e-16
     6   -1.753384171392e-06
     7   -1.890656114891e-05
     8    1.779615651690e-05
     9   -8.516876636074e-16
    10    2.225445391045e-04
    11   -6.803346215107e-05
    12   -6.606023242903e-06
    13    2.159746307869e-16
    14   -4.610912852871e-04
    15   -5.623495761528e-04
    16   -9.514977243628e-05
    17   -7.016636557829e-15
    18   -2.432806746401e-06
    19   -1.415279712882e-16
    20    5.560188871413e-16
    21   -3.319638930370e-06
    22   -4.600429425584e-06
    23   -4.037137791607e-06
    24   -4.438523723354e-05
    25   -1.180104138787e-04
    26   -2.650115899195e-04
    27   -9.141944178673e-06
    28    8.547745305644e-06
    29   -7.110816598900e-16
    30    4.322167857716e-06
    31   -3.034545490831e-05
    32    6.581496700851e-06
    33   -5.694290055682e-05
    34    1.966096898269e-06
    35   -3.785452199531e-06
    36    1.176748720282e-15
    37   -3.112548763083e-06
    38   -5.940165445424e-05
    39   -6.279732055669e-05
    40   -3.147540536010e-04
    41   -1.082598329773e-05
    42    7.057932126763e-06
    43   -4.714073991864e-16
    44   -4.678897062007e-06
    45    7.629768846761e-05
    46    5.663324551204e-05
    47   -3.518030385262e-05
    48   -1.845388978907e-15
    49   -2.972108841876e-04
    50    3.584617714430e-04
    51   -2.266883958393e-04
    52    2.816396981606e-15
    53    7.677532093415e-05
    54    4.054266723509e-04
    55   -2.942989570844e-04
    56   -4.596941577396e-15
    57   -4.265262738963e-04
    58   -5.959970125665e-04
    59    4.597382077404e-04
    60   -1.625576629500e-15
    61    5.770576274803e-05
    62   -8.331546069391e-16
    63    7.781822286023e-17
    64   -9.120085205951e-05
    65    1.842593932800e-04
    66   -5.514860831620e-01
    67   -4.716797046849e-01
    68   -1.521176657401e-03
    69    1.016800586007e-03
    70   -8.385598429793e-16
    71   -5.502178802740e-03
    72    6.212726742139e-04
    73   -4.215122866257e-04
    74    7.194468626227e-16
    75    1.282515429742e-03
    76   -1.388183013020e-04
    77    1.125488086775e-04
    78   -7.465961440865e-16
    79   -1.468914726681e-03
    80   -7.308204889997e-05
    81    1.128129892478e-05
    82    1.138045405789e-15
    83    8.405641013423e-05
    84   -1.287385449289e-16
    85    1.098130334156e-15
    86    3.158881681846e-05
    87   -8.181869812310e-05
    88    3.957593301486e-07
    89   -5.742863989702e-07
    90    3.834937102502e-06
    91   -2.652393569764e-06
    92    7.593274538690e-16
    93    4.818808420444e-06
    94   -1.652364288605e-05
    95    1.443878915855e-05
    96    1.741757033174e-16
    97    1.785718922878e-04
    98   -5.660610304535e-05
    99    5.027132790959e-05
   100   -6.901555120242e-16
   101   -1.031573336000e-03
   102   -8.057579861193e-05
   103    7.580689425429e-04
   104   -2.807229024812e-15
   105   -2.266507881043e-06
   106    3.156470174681e-16
   107    3.084973693488e-16
   108    6.042516427079e-06
   109   -3.192940982221e-07
   110    1.670214052953e-05
   111    1.337462889370e-05
   112   -3.872648528410e-07
   113    5.397501529630e-07
   114   -8.922529205066e-16
   115    8.998526781340e-06
   116   -9.023502361543e-07
   117   -2.017511702764e-06
   118    2.180376764628e-15
   119   -4.729353201927e-05
   120    1.523252632454e-05
   121    1.201473756987e-05
   122   -1.675532564906e-15
   123    1.604639409225e-04
   124   -8.757776550830e-05
   125   -6.079833566767e-05
   126    6.767179166441e-16
   127   -2.469301958808e-07
   128    2.652331421453e-16
   129   -1.602483851645e-16
   130   -8.761889479531e-07
   131   -6.925924018548e-07
   132   -2.899597123008e-07
   133   -1.369724985453e-06
   134   -1.135613196456e-05
   135   -3.036260690261e-07
   136    3.929565131216e-16
   137    2.411318309510e-05
   138    3.047860706951e-05
   139   -1.404909227606e-07
   140   -1.809267649042e-15
   141   -2.325451040654e-04
   142   -4.619296132366e-05
   143    2.311300276547e-04
   144    3.518080206501e-15
   145    6.643835134388e-05
   146   -5.336943359980e-04
   147    1.979380155579e-05
   148    1.183254827993e-15
   149    6.986039613716e-06
   150    2.377671433538e-16
   151    1.134412817583e-15
   152   -2.092247066269e-05
   153   -9.565942326557e-06
   154   -4.205322786300e-07
   155   -1.374776724926e-06
   156   -5.643512272211e-06
   157    1.004152496701e-05
   158   -8.895475046506e-16
   159    2.589203746683e-05
   160    1.886864690499e-05
   161   -2.895917227409e-05
   162    2.140229741828e-16
   163   -2.749806781836e-04
   164   -2.164933195724e-04
   165   -7.660802695389e-05
   166    9.205320529723e-16
   167    5.596223034420e-05
   168   -3.149439184433e-04
   169    3.387170246718e-04
   170    5.383381168088e-15
   171    8.333713659658e-06
   172   -2.020304692638e-16
   173   -3.196456411372e-16
   174    2.046336882933e-05
   175    1.299609420724e-05
   176   -1.136691900474e-07
   177    5.916537841477e-07
   178   -1.835404155681e-06
   179    6.105227447496e-07
   180    8.729149347190e-17
   181   -9.529338797854e-06
   182    9.668707104125e-06
   183   -3.272539106314e-06
   184    1.300230249346e-15
   185    4.249043887022e-05
   186   -4.115931533879e-05
   187    2.210883929249e-05
   188   -2.871422793322e-15
   189    2.953140236689e-03
   190   -4.373511370830e-04
   191    3.051876719245e-04
   192    7.355813698734e-15
   193   -3.617865854613e-06
   194    4.825127441297e-16
   195    4.864397802820e-17
   196   -2.026534760683e-06
   197    2.657765147727e-06
   198   -9.550365534853e-07
   199    7.955969416826e-06
   200    1.590574234902e-05
   201    1.541568483392e-04
   202    1.763965337975e-07
   203   -3.008519492840e-07
   204    9.816305548041e-16
Sym=X
Ene= 0.002669
Spin=Alpha
Occup=0
     1   -4.979158145237e-03
     2   -8.627289963482e-03
     3    1.618255314347e-02
     4    7.040143880476e-03
     5    3.393127779756e-15
     6    2.248029136654e-02
     7    3.349145280272e-02
     8    1.632216082024e-02
     9    2.325977396921e-15
    10    1.202070595159e-01
    11    5.699645011082e-02
    12    6.793939695950e-02
    13    8.776031576002e-15
    14    7.459981894415e-01
    15    1.505782560155e-01
    16    1.846409144613e-01
    17   -8.477691493949e-14
    18    2.028763595982e-03
    19    7.446017117054e-16
    20   -3.200606915663e-15
    21    5.467091237814e-03
    22   -2.644320247635e-03
    23   -1.094720773382e-03
    24   -4.895852684478e-03
    25   -2.761535513372e-02
    26   -1.230171542421e-02
    27   -1.660492284660e-04
    28   -1.081455072228e-04
    29   -1.236223467779e-15
    30   -8.228927573849e-03
    31   -8.546153314337e-03
    32   -1.242462242317e-03
    33    5.547670894678e-02
    34    1.275960730788e-03
    35    2.275717508800e-03
    36   -3.467070675018e-16
    37    1.232295025103e-03
    38   -4.603613916837e-04
    39   -8.137708592560e-03
    40    6.389798867893e-02
    41   -1.350073827608e-03
    42   -9.244286357116e-04
    43    2.739586216534e-15
    44    8.864038242258e-03
    45    1.548551630091e-02
    46   -2.792173792962e-02
    47   -1.152682598972e-02
    48    2.852839405636e-15
    49   -4.715662769964e-02
    50   -4.736790547840e-02
    51   -2.280297385150e-02
    52    9.573772325045e-15
    53   -1.233608841160e-01
    54   -5.156384359128e-02
    55   -2.485163846420e-02
    56   -7.673042184705e-14
    57   -1.427837993466e-01
    58   -3.193884772231e-02
    59   -1.180889359511e-02
    60   -5.113110734070e-14
    61   -6.213650013460e-04
    62   -1.982842057522e-15
    63   -2.772740306696e-15
    64   -1.415926342562e-03
    65   -9.626840119284e-03
    66   -2.447163814888e-03
    67   -4.293509836169e-03
    68    3.457117527886e-02
    69    2.045494281397e-02
    70    1.505140102429e-15
    71    1.497122077453e-02
    72    4.300712575416e-02
    73    2.617722828079e-02
    74    1.248060786998e-16
    75    1.412474523389e-02
    76    3.935005499869e-02
    77    2.936317287078e-02
    78    9.451213489320e-15
    79   -1.218640485514e-02
    80   -1.864216726988e-04
    81    5.497865322254e-03
    82    7.636673647152e-14
    83   -1.718326290513e-04
    84   -1.032205021042e-15
    85    1.983424209392e-15
    86    2.033155149151e-04
    87   -9.004470215707e-04
    88    4.087749908808e-03
    89    7.365838609509e-03
    90   -1.116767379962e-03
    91    1.483936917123e-02
    92    4.575896020280e-15
    93   -2.128796675084e-02
    94    2.427077129389e-04
    95    3.361037695883e-02
    96    5.645611944039e-15
    97    1.555913717273e-03
    98    8.381804447639e-02
    99   -1.249890237084e-01
   100   -1.561142052310e-15
   101    6.753319923942e-01
   102    4.605889734509e-02
   103   -2.763314776609e-01
   104    6.402291678986e-14
   105   -1.489929782953e-03
   106    6.197830965423e-16
   107   -8.028931825434e-16
   108    5.763148849250e-02
   109   -2.720444512551e-02
   110    1.660031548387e-04
   111    2.261182280452e-04
   112    1.572789578504e-01
   113   -2.135518356270e-01
   114    1.986558046572e-15
   115    4.222839823329e-04
   116    2.375002971141e-01
   117   -3.230397911380e-01
   118   -1.724996409489e-15
   119   -1.751099531909e-03
   120    2.441886644490e-01
   121   -3.279749058136e-01
   122    3.182768151601e-14
   123   -9.147620521540e-04
   124    3.818523039609e-02
   125   -5.510809778213e-02
   126   -8.842127202783e-14
   127    2.303209753538e-04
   128    1.230539544668e-15
   129   -1.841488971521e-15
   130   -1.232449649496e-02
   131    4.287751634415e-03
   132   -1.794969444815e-02
   133   -3.034694547855e-02
   134    5.833174390041e-02
   135   -1.679733260721e-02
   136    2.423866582208e-15
   137    8.620136228574e-02
   138    8.862054684057e-02
   139   -1.950865367180e-02
   140    1.490233987051e-15
   141    2.265754743478e-01
   142    8.197120754118e-02
   143   -6.224397793916e-02
   144    2.051896379220e-14
   145    2.940788336342e-01
   146   -7.255375589318e-02
   147   -7.712296774246e-02
   148   -2.349472870298e-14
   149    2.699463823176e-03
   150   -3.491339137714e-16
   151   -2.634071054114e-16
   152   -4.047775350681e-03
   153   -1.058235706283e-03
   154   -2.893782019487e-03
   155   -4.964111780331e-03
   156    3.776934560961e-04
   157    5.853608609638e-03
   158   -1.350807290289e-15
   159    1.493617484664e-02
   160    3.733530093447e-04
   161    9.448992821556e-03
   162   -3.746932895334e-15
   163    2.472169568834e-02
   164   -9.903980866880e-03
   165    9.845341345865e-03
   166    1.133263297961e-14
   167   -7.926674401094e-02
   168   -3.772771959676e-02
   169   -5.719636129206e-02
   170    4.613347594257e-14
   171    1.985806193647e-04
   172    3.338584356150e-16
   173    1.972826836677e-15
   174    1.879496923900e-03
   175   -1.241624106972e-03
   176    1.508231514065e-02
   177    2.480418605473e-02
   178   -9.474609970027e-03
   179   -4.620344923959e-02
   180   -4.744534043630e-15
   181   -6.212142851633e-02
   182   -2.048944366422e-02
   183   -5.302034857001e-02
   184    3.970346076242e-15
   185   -2.848589882792e-01
   186    4.539383869633e-02
   187   -1.147017178521e-01
   188   -1.346724904503e-14
   189   -1.435563519762e+00
   190    2.495564378936e-01
   191   -1.496256562963e-01
   192    7.478230834004e-14
   193    2.029074985922e-03
   194    4.846905639802e-17
   195    2.485941215869e-15
   196   -3.946384530735e-03
   197    9.290647533673e-04
   198   -3.344114900305e-03
   199   -3.015726307970e-03
   200   -1.505533550214e-02
   201   -7.526503633119e-02
   202   -7.186660081149e-04
   203    1.839771251631e-03
   204    1.046749226437e-15
[5D]
