[Molden Format]
[Atoms] (Angs)
  C      1    6     -0.00754183     -1.75895763      0.00000000
  H      2    1     -2.09769850     -1.41880678     -0.00000000
  H      3    1     -0.13527422     -2.83956838     -0.00000000
  H      4    1      0.04053511      2.02026369      0.00000000
  C      5    6     -1.22066484      0.39918184     -0.00000000
  O      6    8     -2.25210141      1.05663720     -0.00000000
  C      7    6      1.24009552      0.27789184      0.00000000
  O      8    8      2.33767996      1.06122493      0.00000000
  N      9    7      0.03634586      1.00852936      0.00000000
  N     10    7     -1.18738304     -0.97903470     -0.00000000
  C     11    6      1.22288875     -1.12258096      0.00000000
  H     12    1      2.15640383     -1.68445878      0.00000000
[GTO]
1    0
S    6    1.000000
   4.56324000E+03    1.96665000E-03 
   6.82024000E+02    1.52306000E-02 
   1.54973000E+02    7.61269000E-02 
   4.44553000E+01    2.60801000E-01 
   1.30290000E+01    6.16462000E-01 
   1.82773000E+00    2.21006000E-01 
SP   3    1.000000
   2.09642000E+01    1.14660000E-01   4.02487000E-02 
   4.80331000E+00    9.19999000E-01   2.37594000E-01 
   1.45933000E+00   -3.03068000E-03   8.15854000E-01 
SP   1    1.000000
   4.83456000E-01    1.00000000E+00   1.00000000E+00 
SP   1    1.000000
   1.45585000E-01    1.00000000E+00   1.00000000E+00 
SP   1    1.000000
   4.38000000E-02    1.00000000E+00   1.00000000E+00 
D    1    1.000000
   6.26000000E-01    1.00000000E+00 

2    0
S    3    1.000000
   3.38650000E+01    2.54938000E-02 
   5.09479000E+00    1.90373000E-01 
   1.15879000E+00    8.52161000E-01 
S    1    1.000000
   3.25840000E-01    1.00000000E+00 
S    1    1.000000
   1.02741000E-01    1.00000000E+00 
S    1    1.000000
   3.60000000E-02    1.00000000E+00 
P    1    1.000000
   7.50000000E-01    1.00000000E+00 

3    0
S    3    1.000000
   3.38650000E+01    2.54938000E-02 
   5.09479000E+00    1.90373000E-01 
   1.15879000E+00    8.52161000E-01 
S    1    1.000000
   3.25840000E-01    1.00000000E+00 
S    1    1.000000
   1.02741000E-01    1.00000000E+00 
S    1    1.000000
   3.60000000E-02    1.00000000E+00 
P    1    1.000000
   7.50000000E-01    1.00000000E+00 

4    0
S    3    1.000000
   3.38650000E+01    2.54938000E-02 
   5.09479000E+00    1.90373000E-01 
   1.15879000E+00    8.52161000E-01 
S    1    1.000000
   3.25840000E-01    1.00000000E+00 
S    1    1.000000
   1.02741000E-01    1.00000000E+00 
S    1    1.000000
   3.60000000E-02    1.00000000E+00 
P    1    1.000000
   7.50000000E-01    1.00000000E+00 

5    0
S    6    1.000000
   4.56324000E+03    1.96665000E-03 
   6.82024000E+02    1.52306000E-02 
   1.54973000E+02    7.61269000E-02 
   4.44553000E+01    2.60801000E-01 
   1.30290000E+01    6.16462000E-01 
   1.82773000E+00    2.21006000E-01 
SP   3    1.000000
   2.09642000E+01    1.14660000E-01   4.02487000E-02 
   4.80331000E+00    9.19999000E-01   2.37594000E-01 
   1.45933000E+00   -3.03068000E-03   8.15854000E-01 
SP   1    1.000000
   4.83456000E-01    1.00000000E+00   1.00000000E+00 
SP   1    1.000000
   1.45585000E-01    1.00000000E+00   1.00000000E+00 
SP   1    1.000000
   4.38000000E-02    1.00000000E+00   1.00000000E+00 
D    1    1.000000
   6.26000000E-01    1.00000000E+00 

6    0
S    6    1.000000
   8.58850000E+03    1.89515000E-03 
   1.29723000E+03    1.43859000E-02 
   2.99296000E+02    7.07320000E-02 
   8.73771000E+01    2.40001000E-01 
   2.56789000E+01    5.94797000E-01 
   3.74004000E+00    2.80802000E-01 
SP   3    1.000000
   4.21175000E+01    1.13889000E-01   3.65114000E-02 
   9.62837000E+00    9.20811000E-01   2.37153000E-01 
   2.85332000E+00   -3.27447000E-03   8.19702000E-01 
SP   1    1.000000
   9.05661000E-01    1.00000000E+00   1.00000000E+00 
SP   1    1.000000
   2.55611000E-01    1.00000000E+00   1.00000000E+00 
SP   1    1.000000
   8.45000000E-02    1.00000000E+00   1.00000000E+00 
D    1    1.000000
   1.29200000E+00    1.00000000E+00 

7    0
S    6    1.000000
   4.56324000E+03    1.96665000E-03 
   6.82024000E+02    1.52306000E-02 
   1.54973000E+02    7.61269000E-02 
   4.44553000E+01    2.60801000E-01 
   1.30290000E+01    6.16462000E-01 
   1.82773000E+00    2.21006000E-01 
SP   3    1.000000
   2.09642000E+01    1.14660000E-01   4.02487000E-02 
   4.80331000E+00    9.19999000E-01   2.37594000E-01 
   1.45933000E+00   -3.03068000E-03   8.15854000E-01 
SP   1    1.000000
   4.83456000E-01    1.00000000E+00   1.00000000E+00 
SP   1    1.000000
   1.45585000E-01    1.00000000E+00   1.00000000E+00 
SP   1    1.000000
   4.38000000E-02    1.00000000E+00   1.00000000E+00 
D    1    1.000000
   6.26000000E-01    1.00000000E+00 

8    0
S    6    1.000000
   8.58850000E+03    1.89515000E-03 
   1.29723000E+03    1.43859000E-02 
   2.99296000E+02    7.07320000E-02 
   8.73771000E+01    2.40001000E-01 
   2.56789000E+01    5.94797000E-01 
   3.74004000E+00    2.80802000E-01 
SP   3    1.000000
   4.21175000E+01    1.13889000E-01   3.65114000E-02 
   9.62837000E+00    9.20811000E-01   2.37153000E-01 
   2.85332000E+00   -3.27447000E-03   8.19702000E-01 
SP   1    1.000000
   9.05661000E-01    1.00000000E+00   1.00000000E+00 
SP   1    1.000000
   2.55611000E-01    1.00000000E+00   1.00000000E+00 
SP   1    1.000000
   8.45000000E-02    1.00000000E+00   1.00000000E+00 
D    1    1.000000
   1.29200000E+00    1.00000000E+00 

9    0
S    6    1.000000
   6.29348000E+03    1.96979000E-03 
   9.49044000E+02    1.49613000E-02 
   2.18776000E+02    7.35006000E-02 
   6.36916000E+01    2.48937000E-01 
   1.88282000E+01    6.02460000E-01 
   2.72023000E+00    2.56202000E-01 
SP   3    1.000000
   3.06331000E+01    1.11906000E-01   3.83119000E-02 
   7.02614000E+00    9.21666000E-01   2.37403000E-01 
   2.11205000E+00   -2.56919000E-03   8.17592000E-01 
SP   1    1.000000
   6.84009000E-01    1.00000000E+00   1.00000000E+00 
SP   1    1.000000
   2.00878000E-01    1.00000000E+00   1.00000000E+00 
SP   1    1.000000
   6.39000000E-02    1.00000000E+00   1.00000000E+00 
D    1    1.000000
   9.13000000E-01    1.00000000E+00 

10    0
S    6    1.000000
   6.29348000E+03    1.96979000E-03 
   9.49044000E+02    1.49613000E-02 
   2.18776000E+02    7.35006000E-02 
   6.36916000E+01    2.48937000E-01 
   1.88282000E+01    6.02460000E-01 
   2.72023000E+00    2.56202000E-01 
SP   3    1.000000
   3.06331000E+01    1.11906000E-01   3.83119000E-02 
   7.02614000E+00    9.21666000E-01   2.37403000E-01 
   2.11205000E+00   -2.56919000E-03   8.17592000E-01 
SP   1    1.000000
   6.84009000E-01    1.00000000E+00   1.00000000E+00 
SP   1    1.000000
   2.00878000E-01    1.00000000E+00   1.00000000E+00 
SP   1    1.000000
   6.39000000E-02    1.00000000E+00   1.00000000E+00 
D    1    1.000000
   9.13000000E-01    1.00000000E+00 

11    0
S    6    1.000000
   4.56324000E+03    1.96665000E-03 
   6.82024000E+02    1.52306000E-02 
   1.54973000E+02    7.61269000E-02 
   4.44553000E+01    2.60801000E-01 
   1.30290000E+01    6.16462000E-01 
   1.82773000E+00    2.21006000E-01 
SP   3    1.000000
   2.09642000E+01    1.14660000E-01   4.02487000E-02 
   4.80331000E+00    9.19999000E-01   2.37594000E-01 
   1.45933000E+00   -3.03068000E-03   8.15854000E-01 
SP   1    1.000000
   4.83456000E-01    1.00000000E+00   1.00000000E+00 
SP   1    1.000000
   1.45585000E-01    1.00000000E+00   1.00000000E+00 
SP   1    1.000000
   4.38000000E-02    1.00000000E+00   1.00000000E+00 
D    1    1.000000
   6.26000000E-01    1.00000000E+00 

12    0
S    3    1.000000
   3.38650000E+01    2.54938000E-02 
   5.09479000E+00    1.90373000E-01 
   1.15879000E+00    8.52161000E-01 
S    1    1.000000
   3.25840000E-01    1.00000000E+00 
S    1    1.000000
   1.02741000E-01    1.00000000E+00 
S    1    1.000000
   3.60000000E-02    1.00000000E+00 
P    1    1.000000
   7.50000000E-01    1.00000000E+00 

[MO]
Sym=X
Ene= -0.002155
Spin=Alpha
Occup=1
     1    3.155057388727e-07
     2   -4.439916469593e-08
     3    3.871236281886e-06
     4   -4.530576444069e-06
     5    4.656436836801e-16
     6   -1.771394483014e-06
     7   -1.891647421453e-05
     8    1.778338691080e-05
     9   -8.526812690579e-16
    10    2.228481278966e-04
    11   -6.796494509232e-05
    12   -6.424784017542e-06
    13    2.219099974837e-16
    14   -4.609416528976e-04
    15   -5.625577384797e-04
    16   -9.460479388446e-05
    17   -7.025909657988e-15
    18   -2.433850779876e-06
    19   -1.409251520302e-16
    20    5.569080868828e-16
    21   -3.317207094520e-06
    22   -4.611374386856e-06
    23   -4.037565420819e-06
    24   -4.439483575839e-05
    25   -1.179558938463e-04
    26   -2.650613098659e-04
    27   -9.140101744514e-06
    28    8.546594895556e-06
    29   -7.099947661305e-16
    30    4.322547109431e-06
    31   -3.034109899562e-05
    32    6.703787403474e-06
    33   -5.667549311826e-05
    34    1.961871241551e-06
    35   -3.785447234112e-06
    36    1.175324479882e-15
    37   -3.116590973265e-06
    38   -5.943530640427e-05
    39   -6.284299860780e-05
    40   -3.148277265799e-04
    41   -1.082275917971e-05
    42    7.066729359893e-06
    43   -4.721044340963e-16
    44   -4.678684253227e-06
    45    7.629806727764e-05
    46    5.663205723297e-05
    47   -3.518030151474e-05
    48   -1.846355295290e-15
    49   -2.972129191108e-04
    50    3.584620649999e-04
    51   -2.266891547463e-04
    52    2.817565581917e-15
    53    7.689191885438e-05
    54    4.055570990795e-04
    55   -2.943121575120e-04
    56   -4.596065206721e-15
    57   -4.263794773037e-04
    58   -5.960153239167e-04
    59    4.598946995043e-04
    60   -1.631759369135e-15
    61    5.770276256552e-05
    62   -8.335633606765e-16
    63    7.835949698860e-17
    64   -9.120192395223e-05
    65    1.842561118040e-04
    66   -5.514858804319e-01
    67   -4.716795314091e-01
    68   -1.521175618965e-03
    69    1.016800000017e-03
    70   -8.387927098393e-16
    71   -5.502175401420e-03
    72    6.212718949438e-04
    73   -4.215104411848e-04
    74    7.207696347085e-16
    75    1.282514409848e-03
    76   -1.388215396816e-04
    77    1.125394779222e-04
    78   -7.493724908154e-16
    79   -1.468674252423e-03
    80   -7.295601862493e-05
    81    1.124378920265e-05
    82    1.141578275185e-15
    83    8.405626160820e-05
    84   -1.282737466156e-16
    85    1.098375455034e-15
    86    3.158779905247e-05
    87   -8.181825340331e-05
    88    3.963590069929e-07
    89   -5.288096546511e-07
    90    3.829217587175e-06
    91   -2.660002484882e-06
    92    7.595027069576e-16
    93    4.674215949060e-06
    94   -1.680484765083e-05
    95    1.423535937906e-05
    96    1.737742455387e-16
    97    1.788729346482e-04
    98   -5.661616148422e-05
    99    5.014253418559e-05
   100   -6.867322093334e-16
   101   -1.029810694549e-03
   102   -7.989513438013e-05
   103    7.577734247080e-04
   104   -2.816412952357e-15
   105   -2.226643856345e-06
   106    3.159397420483e-16
   107    3.094423399009e-16
   108    5.965215973228e-06
   109   -4.940977092411e-07
   110   -4.733116179465e-04
   111   -4.056986719946e-04
   112    8.444534260994e-07
   113    1.421624081685e-06
   114   -8.915829125539e-16
   115    4.416824381059e-06
   116   -1.454778789251e-06
   117   -2.422747473304e-06
   118    2.180605529950e-15
   119   -4.659323615023e-05
   120    1.545767613144e-05
   121    1.219232991439e-05
   122   -1.677757387243e-15
   123    1.591291443986e-04
   124   -8.749506842375e-05
   125   -6.077638473333e-05
   126    6.788430023695e-16
   127   -2.014528200112e-07
   128    2.655307470953e-16
   129   -1.602103082785e-16
   130   -8.354604701526e-07
   131   -5.396809870908e-07
   132   -2.905102744462e-07
   133   -1.369476654545e-06
   134   -1.134376438516e-05
   135   -3.088800991150e-07
   136    3.921263944523e-16
   137    2.412369051195e-05
   138    3.044115074728e-05
   139   -1.197122017670e-07
   140   -1.807975019295e-15
   141   -2.326696916988e-04
   142   -4.613322219861e-05
   143    2.312381828513e-04
   144    3.515315930937e-15
   145    6.671121032593e-05
   146   -5.332031930368e-04
   147    1.982043889366e-05
   148    1.187787393421e-15
   149    6.992724721193e-06
   150    2.369789503486e-16
   151    1.134425963462e-15
   152   -2.093993507345e-05
   153   -9.544974173931e-06
   154   -4.205890452087e-07
   155   -1.374570828181e-06
   156   -5.642784192654e-06
   157    1.004164915664e-05
   158   -8.896609248463e-16
   159    2.589583736702e-05
   160    1.886527787706e-05
   161   -2.895958132975e-05
   162    2.142668343484e-16
   163   -2.750795594373e-04
   164   -2.165498113775e-04
   165   -7.661212753782e-05
   166    9.175303503789e-16
   167    5.577976958009e-05
   168   -3.148906790930e-04
   169    3.387370214266e-04
   170    5.387933181955e-15
   171    8.333741064044e-06
   172   -2.016362617132e-16
   173   -3.198007631488e-16
   174    2.046368480057e-05
   175    1.299811822449e-05
   176   -1.152279826057e-07
   177    5.933127709750e-07
   178   -1.829581224305e-06
   179    6.275790024652e-07
   180    8.633201032661e-17
   181   -9.527845749917e-06
   182    9.652726800623e-06
   183   -3.366571869809e-06
   184    1.302713739674e-15
   185    4.213843477157e-05
   186   -4.087074915117e-05
   187    2.205397719586e-05
   188   -2.879067235455e-15
   189    2.951601450556e-03
   190   -4.373900273138e-04
   191    3.042610099090e-04
   192    7.370131776081e-15
   193   -3.613428012258e-06
   194    4.828595246521e-16
   195    4.835610809020e-17
   196   -1.981596923326e-06
   197    2.628384685738e-06
   198   -9.568114569754e-07
   199    7.873456275139e-06
   200    1.583275588395e-05
   201    1.538611716662e-04
   202    1.961604501361e-07
   203   -3.124811804378e-07
   204    9.819033960544e-16
Sym=X
Ene= 0.002155
Spin=Alpha
Occup=0
     1   -6.104355059036e-03
     2   -1.033559104079e-02
     3    3.508975690150e-02
     4    1.974714944905e-02
     5    4.024207791823e-17
     6    2.843768960237e-02
     7    5.845935641027e-02
     8    3.347953338662e-02
     9    6.758125721252e-15
    10    9.983563095064e-02
    11    6.564539760607e-02
    12    8.316683793304e-02
    13    4.059770430768e-15
    14    5.123758861101e-01
    15    1.218028233418e-01
    16    1.453994643601e-01
    17   -5.912500617276e-14
    18    1.831652911179e-03
    19    4.894397297605e-15
    20   -2.596688966616e-15
    21    5.770700659526e-03
    22   -3.119055742201e-03
    23    1.469603110367e-03
    24   -2.167962301191e-03
    25   -2.697496066359e-02
    26   -6.110348273034e-04
    27    4.950535371884e-05
    28   -5.422637884805e-04
    29   -4.242715332004e-15
    30   -1.797963747835e-02
    31   -2.013810596012e-02
    32   -1.145211732906e-03
    33    5.406976985518e-02
    34    1.590135564812e-03
    35    7.032046362998e-04
    36   -1.201407832840e-15
    37   -1.089100606718e-03
    38   -9.318145184478e-04
    39   -7.995615317198e-03
    40    4.829630762024e-02
    41   -8.761523953551e-04
    42   -1.360527810487e-03
    43    3.773422087521e-15
    44    9.061048651318e-03
    45    1.544916110147e-02
    46   -3.335789526849e-02
    47   -8.236340390734e-03
    48    7.877206008478e-15
    49   -4.336266358448e-02
    50   -5.304172012622e-02
    51   -1.521539559351e-02
    52    5.938025636239e-15
    53   -1.072740868456e-01
    54   -4.733913026251e-02
    55    3.853850580898e-02
    56   -6.552136671988e-14
    57   -9.572706563447e-02
    58   -5.628285945227e-03
    59    1.751076184887e-02
    60   -3.470483414682e-14
    61    1.847168383917e-03
    62   -7.390263903659e-15
    63   -5.385274418462e-16
    64   -1.535491917435e-02
    65   -1.655533436841e-02
    66   -1.429762774081e-03
    67   -2.590342639035e-03
    68    7.706014852352e-02
    69    7.610446866487e-02
    70    2.151531938726e-15
    71    1.035947214823e-02
    72    9.796964915951e-02
    73    9.716670839886e-02
    74   -2.319917467076e-15
    75   -5.893352300467e-03
    76    7.545462763983e-02
    77    8.786649774116e-02
    78    7.497399444179e-15
    79   -3.847472259284e-02
    80   -2.330603289180e-03
    81    1.325223007241e-02
    82    6.291136671193e-14
    83   -6.556029299250e-04
    84   -1.260865334293e-15
    85    1.228474376909e-15
    86    4.000491804089e-03
    87    1.794843206795e-04
    88    4.918641577079e-03
    89    8.404018601446e-03
    90   -9.414257725075e-03
    91    3.658559521819e-02
    92    3.705059873447e-15
    93   -2.206038807777e-02
    94   -1.172090490044e-02
    95    6.181096025663e-02
    96    3.450885498860e-15
    97    1.787156560598e-02
    98    6.009575312984e-02
    99   -1.302898689328e-01
   100    1.615373821485e-15
   101    4.954561014128e-01
   102    6.320663726367e-02
   103   -2.306021546366e-01
   104    3.913155565189e-14
   105    2.780488495486e-03
   106    3.046240331691e-15
   107   -9.286954018634e-16
   108    5.626071625017e-02
   109   -2.726059792758e-02
   110   -8.463931495280e-04
   111   -1.570212940326e-03
   112    1.475948202841e-01
   113   -2.027931617985e-01
   114   -1.161140609113e-16
   115    7.686713977317e-03
   116    2.210562406022e-01
   117   -3.070025243123e-01
   118    4.733789617586e-16
   119    4.013911837680e-03
   120    2.261846479663e-01
   121   -3.010456364858e-01
   122    1.833409664509e-14
   123    4.247902879703e-03
   124    2.235842956137e-02
   125   -4.160937403778e-02
   126   -5.653071946197e-14
   127    3.729287421054e-04
   128    2.456343962629e-16
   129   -1.096582291590e-15
   130   -1.170074900996e-02
   131    5.224654774699e-03
   132   -1.281590535994e-02
   133   -2.183732813690e-02
   134    7.560908031217e-02
   135   -1.285591642069e-02
   136    1.264615970545e-15
   137    6.268983671200e-02
   138    1.211411465431e-01
   139   -1.668096687889e-02
   140   -9.189959499062e-16
   141    1.642151921896e-01
   142    1.208451731027e-01
   143   -5.214555762328e-02
   144    1.597158499991e-14
   145    2.199633928906e-01
   146   -5.731160337717e-02
   147   -5.890822494818e-02
   148   -2.113563600082e-14
   149    4.784759071228e-03
   150   -2.698114990171e-15
   151   -1.186916139751e-15
   152   -5.625304457589e-04
   153   -2.938085198481e-03
   154   -6.223795130022e-03
   155   -1.050737646449e-02
   156   -3.390896132180e-03
   157    1.609234743393e-02
   158   -1.263111242823e-15
   159    2.949934052334e-02
   160   -6.483997506358e-03
   161    2.431562696229e-02
   162   -2.853992129845e-15
   163    7.553760521865e-02
   164   -1.604445228515e-02
   165    4.131388154926e-02
   166    9.388538970136e-15
   167   -2.971659196001e-03
   168   -2.672891486071e-02
   169   -4.558262538249e-02
   170    3.218302489510e-14
   171   -1.342547021984e-04
   172    4.057775753176e-16
   173    2.997192094529e-15
   174    3.697662372541e-03
   175   -3.352538076443e-04
   176    1.225184788057e-02
   177    1.999136238665e-02
   178   -1.693422148430e-02
   179   -6.458432753213e-02
   180   -3.060604316386e-15
   181   -4.651816676857e-02
   182   -3.003165165879e-02
   183   -8.865051130328e-02
   184    2.142426906190e-15
   185   -3.011275704933e-01
   186    3.824242040544e-02
   187   -1.447707772638e-01
   188   -9.061933995228e-15
   189   -1.065989883677e+00
   190    1.689097193562e-01
   191   -1.148115128892e-01
   192    5.640738430943e-14
   193   -6.492665700511e-03
   194    1.848827829559e-15
   195    1.695127955467e-15
   196    1.060688299871e-03
   197    8.979664568916e-04
   198    4.225136259283e-03
   199    1.050814355460e-02
   200   -1.611423414797e-02
   201   -5.675086267136e-02
   202   -4.356014452711e-04
   203    1.304196050658e-03
   204    7.993303894418e-16
[5D]
