[Molden Format]
[Atoms] (Angs)
  C      1    6     -0.00754183     -1.75895763      0.00000000
  H      2    1     -2.09769850     -1.41880678     -0.00000000
  H      3    1     -0.13527422     -2.83956838     -0.00000000
  H      4    1      0.04053511      2.02026369      0.00000000
  C      5    6     -1.22066484      0.39918184     -0.00000000
  O      6    8     -2.25210141      1.05663720     -0.00000000
  C      7    6      1.24009552      0.27789184      0.00000000
  O      8    8      2.33767996      1.06122493      0.00000000
  N      9    7      0.03634586      1.00852936      0.00000000
  N     10    7     -1.18738304     -0.97903470     -0.00000000
  C     11    6      1.22288875     -1.12258096      0.00000000
  H     12    1      2.15640383     -1.68445878      0.00000000
[GTO]
1    0
S    6    1.000000
   4.56324000E+03    1.96665000E-03 
   6.82024000E+02    1.52306000E-02 
   1.54973000E+02    7.61269000E-02 
   4.44553000E+01    2.60801000E-01 
   1.30290000E+01    6.16462000E-01 
   1.82773000E+00    2.21006000E-01 
SP   3    1.000000
   2.09642000E+01    1.14660000E-01   4.02487000E-02 
   4.80331000E+00    9.19999000E-01   2.37594000E-01 
   1.45933000E+00   -3.03068000E-03   8.15854000E-01 
SP   1    1.000000
   4.83456000E-01    1.00000000E+00   1.00000000E+00 
SP   1    1.000000
   1.45585000E-01    1.00000000E+00   1.00000000E+00 
SP   1    1.000000
   4.38000000E-02    1.00000000E+00   1.00000000E+00 
D    1    1.000000
   6.26000000E-01    1.00000000E+00 

2    0
S    3    1.000000
   3.38650000E+01    2.54938000E-02 
   5.09479000E+00    1.90373000E-01 
   1.15879000E+00    8.52161000E-01 
S    1    1.000000
   3.25840000E-01    1.00000000E+00 
S    1    1.000000
   1.02741000E-01    1.00000000E+00 
S    1    1.000000
   3.60000000E-02    1.00000000E+00 
P    1    1.000000
   7.50000000E-01    1.00000000E+00 

3    0
S    3    1.000000
   3.38650000E+01    2.54938000E-02 
   5.09479000E+00    1.90373000E-01 
   1.15879000E+00    8.52161000E-01 
S    1    1.000000
   3.25840000E-01    1.00000000E+00 
S    1    1.000000
   1.02741000E-01    1.00000000E+00 
S    1    1.000000
   3.60000000E-02    1.00000000E+00 
P    1    1.000000
   7.50000000E-01    1.00000000E+00 

4    0
S    3    1.000000
   3.38650000E+01    2.54938000E-02 
   5.09479000E+00    1.90373000E-01 
   1.15879000E+00    8.52161000E-01 
S    1    1.000000
   3.25840000E-01    1.00000000E+00 
S    1    1.000000
   1.02741000E-01    1.00000000E+00 
S    1    1.000000
   3.60000000E-02    1.00000000E+00 
P    1    1.000000
   7.50000000E-01    1.00000000E+00 

5    0
S    6    1.000000
   4.56324000E+03    1.96665000E-03 
   6.82024000E+02    1.52306000E-02 
   1.54973000E+02    7.61269000E-02 
   4.44553000E+01    2.60801000E-01 
   1.30290000E+01    6.16462000E-01 
   1.82773000E+00    2.21006000E-01 
SP   3    1.000000
   2.09642000E+01    1.14660000E-01   4.02487000E-02 
   4.80331000E+00    9.19999000E-01   2.37594000E-01 
   1.45933000E+00   -3.03068000E-03   8.15854000E-01 
SP   1    1.000000
   4.83456000E-01    1.00000000E+00   1.00000000E+00 
SP   1    1.000000
   1.45585000E-01    1.00000000E+00   1.00000000E+00 
SP   1    1.000000
   4.38000000E-02    1.00000000E+00   1.00000000E+00 
D    1    1.000000
   6.26000000E-01    1.00000000E+00 

6    0
S    6    1.000000
   8.58850000E+03    1.89515000E-03 
   1.29723000E+03    1.43859000E-02 
   2.99296000E+02    7.07320000E-02 
   8.73771000E+01    2.40001000E-01 
   2.56789000E+01    5.94797000E-01 
   3.74004000E+00    2.80802000E-01 
SP   3    1.000000
   4.21175000E+01    1.13889000E-01   3.65114000E-02 
   9.62837000E+00    9.20811000E-01   2.37153000E-01 
   2.85332000E+00   -3.27447000E-03   8.19702000E-01 
SP   1    1.000000
   9.05661000E-01    1.00000000E+00   1.00000000E+00 
SP   1    1.000000
   2.55611000E-01    1.00000000E+00   1.00000000E+00 
SP   1    1.000000
   8.45000000E-02    1.00000000E+00   1.00000000E+00 
D    1    1.000000
   1.29200000E+00    1.00000000E+00 

7    0
S    6    1.000000
   4.56324000E+03    1.96665000E-03 
   6.82024000E+02    1.52306000E-02 
   1.54973000E+02    7.61269000E-02 
   4.44553000E+01    2.60801000E-01 
   1.30290000E+01    6.16462000E-01 
   1.82773000E+00    2.21006000E-01 
SP   3    1.000000
   2.09642000E+01    1.14660000E-01   4.02487000E-02 
   4.80331000E+00    9.19999000E-01   2.37594000E-01 
   1.45933000E+00   -3.03068000E-03   8.15854000E-01 
SP   1    1.000000
   4.83456000E-01    1.00000000E+00   1.00000000E+00 
SP   1    1.000000
   1.45585000E-01    1.00000000E+00   1.00000000E+00 
SP   1    1.000000
   4.38000000E-02    1.00000000E+00   1.00000000E+00 
D    1    1.000000
   6.26000000E-01    1.00000000E+00 

8    0
S    6    1.000000
   8.58850000E+03    1.89515000E-03 
   1.29723000E+03    1.43859000E-02 
   2.99296000E+02    7.07320000E-02 
   8.73771000E+01    2.40001000E-01 
   2.56789000E+01    5.94797000E-01 
   3.74004000E+00    2.80802000E-01 
SP   3    1.000000
   4.21175000E+01    1.13889000E-01   3.65114000E-02 
   9.62837000E+00    9.20811000E-01   2.37153000E-01 
   2.85332000E+00   -3.27447000E-03   8.19702000E-01 
SP   1    1.000000
   9.05661000E-01    1.00000000E+00   1.00000000E+00 
SP   1    1.000000
   2.55611000E-01    1.00000000E+00   1.00000000E+00 
SP   1    1.000000
   8.45000000E-02    1.00000000E+00   1.00000000E+00 
D    1    1.000000
   1.29200000E+00    1.00000000E+00 

9    0
S    6    1.000000
   6.29348000E+03    1.96979000E-03 
   9.49044000E+02    1.49613000E-02 
   2.18776000E+02    7.35006000E-02 
   6.36916000E+01    2.48937000E-01 
   1.88282000E+01    6.02460000E-01 
   2.72023000E+00    2.56202000E-01 
SP   3    1.000000
   3.06331000E+01    1.11906000E-01   3.83119000E-02 
   7.02614000E+00    9.21666000E-01   2.37403000E-01 
   2.11205000E+00   -2.56919000E-03   8.17592000E-01 
SP   1    1.000000
   6.84009000E-01    1.00000000E+00   1.00000000E+00 
SP   1    1.000000
   2.00878000E-01    1.00000000E+00   1.00000000E+00 
SP   1    1.000000
   6.39000000E-02    1.00000000E+00   1.00000000E+00 
D    1    1.000000
   9.13000000E-01    1.00000000E+00 

10    0
S    6    1.000000
   6.29348000E+03    1.96979000E-03 
   9.49044000E+02    1.49613000E-02 
   2.18776000E+02    7.35006000E-02 
   6.36916000E+01    2.48937000E-01 
   1.88282000E+01    6.02460000E-01 
   2.72023000E+00    2.56202000E-01 
SP   3    1.000000
   3.06331000E+01    1.11906000E-01   3.83119000E-02 
   7.02614000E+00    9.21666000E-01   2.37403000E-01 
   2.11205000E+00   -2.56919000E-03   8.17592000E-01 
SP   1    1.000000
   6.84009000E-01    1.00000000E+00   1.00000000E+00 
SP   1    1.000000
   2.00878000E-01    1.00000000E+00   1.00000000E+00 
SP   1    1.000000
   6.39000000E-02    1.00000000E+00   1.00000000E+00 
D    1    1.000000
   9.13000000E-01    1.00000000E+00 

11    0
S    6    1.000000
   4.56324000E+03    1.96665000E-03 
   6.82024000E+02    1.52306000E-02 
   1.54973000E+02    7.61269000E-02 
   4.44553000E+01    2.60801000E-01 
   1.30290000E+01    6.16462000E-01 
   1.82773000E+00    2.21006000E-01 
SP   3    1.000000
   2.09642000E+01    1.14660000E-01   4.02487000E-02 
   4.80331000E+00    9.19999000E-01   2.37594000E-01 
   1.45933000E+00   -3.03068000E-03   8.15854000E-01 
SP   1    1.000000
   4.83456000E-01    1.00000000E+00   1.00000000E+00 
SP   1    1.000000
   1.45585000E-01    1.00000000E+00   1.00000000E+00 
SP   1    1.000000
   4.38000000E-02    1.00000000E+00   1.00000000E+00 
D    1    1.000000
   6.26000000E-01    1.00000000E+00 

12    0
S    3    1.000000
   3.38650000E+01    2.54938000E-02 
   5.09479000E+00    1.90373000E-01 
   1.15879000E+00    8.52161000E-01 
S    1    1.000000
   3.25840000E-01    1.00000000E+00 
S    1    1.000000
   1.02741000E-01    1.00000000E+00 
S    1    1.000000
   3.60000000E-02    1.00000000E+00 
P    1    1.000000
   7.50000000E-01    1.00000000E+00 

[MO]
Sym=X
Ene= -0.033184
Spin=Alpha
Occup=1
     1   -3.919911028641e-06
     2   -1.010598469655e-05
     3    5.811312012942e-06
     4   -3.156240560467e-05
     5   -5.998967799025e-16
     6    3.393630800734e-05
     7    2.034788440662e-05
     8   -3.322987437263e-05
     9    1.141491268412e-15
    10   -8.799099740031e-05
    11    1.687496131616e-05
    12   -2.178714412495e-04
    13   -6.568442504592e-15
    14   -2.681984628112e-04
    15    8.121345421459e-04
    16   -1.048015551315e-03
    17    9.279599311820e-15
    18    6.854626943700e-06
    19   -6.892236910609e-16
    20   -1.004347907800e-15
    21    9.415575731705e-06
    22    6.708076263584e-06
    23   -1.378987608395e-05
    24   -7.872331500333e-05
    25   -7.372935035337e-04
    26   -1.404017322297e-03
    27    9.811147602362e-06
    28    1.168864661761e-05
    29   -1.221043291397e-15
    30   -9.182486466025e-06
    31   -2.198958444635e-05
    32   -3.610507656539e-04
    33   -9.304652767425e-04
    34    1.447941082961e-05
    35    6.472008571440e-06
    36    1.602313269800e-15
    37    6.291533258650e-07
    38    1.740109341880e-05
    39    1.639518624458e-04
    40    7.081960473927e-04
    41   -3.615772033687e-06
    42   -3.619256900605e-06
    43    7.898743775914e-16
    44    2.909041264254e-06
    45    5.330764494516e-06
    46   -2.593734145715e-06
    47    1.045247474785e-05
    48    1.016786508576e-15
    49   -1.927465038570e-05
    50   -3.098760115636e-06
    51    1.863425562988e-05
    52   -1.426217362515e-15
    53   -7.305330954634e-05
    54   -1.620034638204e-04
    55   -4.714587084169e-05
    56   -1.255115593737e-15
    57    7.076818228340e-04
    58   -1.274402264551e-05
    59   -7.477215789636e-04
    60    7.964849486859e-15
    61    4.825891188549e-06
    62    4.541441719724e-16
    63   -6.026181553202e-16
    64    5.494979773477e-06
    65    1.806244608663e-05
    66   -6.876432706898e-05
    67   -6.028417566921e-05
    68   -1.972004532374e-05
    69   -1.265824282253e-05
    70    3.006712908303e-16
    71    6.996408677344e-06
    72   -2.484056916764e-05
    73   -2.380282821679e-05
    74   -1.446339477747e-15
    75    5.430272870187e-05
    76   -2.369184892266e-05
    77   -8.587532631693e-06
    78    3.277792812549e-15
    79   -4.835098184990e-04
    80   -2.288709001348e-04
    81    1.127586690607e-04
    82   -4.297347048709e-15
    83   -6.531504299466e-07
    84   -5.261200394514e-16
    85   -2.737809428034e-16
    86    8.473981494945e-07
    87   -1.906240668743e-06
    88   -5.854319659193e-06
    89   -5.993180991200e-05
    90    5.957067415155e-06
    91    4.195960992352e-06
    92   -1.845929667321e-16
    93    1.750469190624e-04
    94    3.150239760753e-04
    95    2.182967232095e-04
    96    4.842543469051e-16
    97   -1.348281511041e-04
    98   -3.341319807136e-05
    99    1.713952801392e-04
   100   -3.866535953113e-15
   101   -2.688383786708e-03
   102   -3.035317530088e-04
   103    5.934236331123e-04
   104    7.735424248321e-15
   105   -2.844819910466e-05
   106   -3.312013828932e-16
   107   -1.053274093681e-15
   108    8.936736591150e-05
   109    1.995913985091e-04
   110    5.515762319175e-01
   111    4.717312579324e-01
   112   -1.386490434550e-03
   113   -9.874109130951e-04
   114   -7.780072376111e-16
   115    5.104922231512e-03
   116    6.196602494832e-04
   117    4.635968891718e-04
   118   -2.636929372823e-16
   119   -8.791298497304e-04
   120   -2.280692416555e-04
   121   -1.777949074321e-04
   122    2.312652525588e-15
   123    1.286729727686e-03
   124   -1.695664759320e-04
   125   -3.887678642403e-05
   126   -1.555207862935e-15
   127   -4.891198210079e-05
   128   -3.343189509162e-16
   129   -4.233571576290e-17
   130   -4.628607285253e-05
   131   -1.729734952289e-04
   132    6.348103756559e-06
   133    9.572123657021e-06
   134   -3.910475891067e-05
   135   -7.342387315605e-06
   136    9.551019970933e-16
   137   -4.094093264105e-05
   138    4.919106747078e-06
   139   -4.650085320815e-05
   140   -1.418331552643e-15
   141    1.821760589076e-05
   142   -1.683726961223e-04
   143   -1.065241312993e-04
   144    3.164729400966e-15
   145   -5.158918458817e-04
   146   -8.741981647830e-04
   147   -1.948339055925e-04
   148   -4.658379096064e-15
   149   -3.866517540680e-06
   150    8.958415812799e-16
   151   -1.199612162048e-17
   152    1.908664396110e-05
   153   -2.617928207720e-05
   154   -1.719721164919e-05
   155   -2.980037756636e-05
   156   -5.207795526642e-05
   157   -3.576481819679e-05
   158    1.526882596791e-16
   159    8.436038630361e-05
   160   -7.531407601598e-05
   161   -5.412437956400e-05
   162   -2.478989674848e-16
   163    3.980967739930e-04
   164   -1.085303290784e-04
   165   -1.169018136613e-04
   166    3.468349371248e-15
   167    9.333856725559e-05
   168   -7.851501475998e-04
   169   -3.826641147549e-04
   170   -5.194851517823e-15
   171    1.851167705400e-06
   172   -4.421746179591e-16
   173    1.664573259030e-16
   174   -3.199958941334e-06
   175   -8.424396035067e-06
   176    1.801271530047e-05
   177    2.626839057722e-05
   178   -2.861053875933e-05
   179   -1.662315760588e-05
   180    1.044409448060e-15
   181   -8.391182642097e-05
   182   -9.166892300183e-06
   183    1.079935078014e-04
   184   -2.834475300295e-15
   185   -4.945923601792e-05
   186   -3.172211774552e-04
   187    7.272314548254e-05
   188    8.398476133777e-15
   189    1.676105787507e-03
   190   -1.600504724260e-03
   191    1.994967433174e-03
   192   -1.374485915748e-14
   193    3.918873582441e-06
   194   -3.878391487938e-16
   195    3.233324529465e-16
   196   -5.775920964852e-05
   197    3.471722499963e-05
   198   -1.247566955407e-05
   199    4.701739831746e-05
   200    2.907241210740e-04
   201    2.687218168508e-03
   202   -1.626734900547e-05
   203    6.686613912487e-06
   204   -3.037982944220e-16
Sym=X
Ene= 0.033184
Spin=Alpha
Occup=0
     1   -9.057875602185e-16
     2    4.122946864164e-18
     3   -7.748246476790e-16
     4    8.787742718298e-16
     5    7.395831430401e-02
     6    3.096704762353e-15
     7   -6.254745048406e-16
     8    6.384771951506e-15
     9    1.229896348367e-01
    10    2.175201612739e-14
    11    7.923381523986e-14
    12   -1.834727560057e-14
    13    1.328006875794e-01
    14   -4.165448528897e-12
    15   -8.944361637575e-13
    16   -9.660951653427e-13
    17    1.746740985982e-02
    18    1.117931269586e-15
    19    3.322435782513e-02
    20   -5.085807449841e-04
    21   -3.165605830811e-15
    22    4.395089876975e-15
    23   -1.545724406054e-15
    24    5.531220110191e-15
    25    6.087272080135e-14
    26    2.164609443948e-13
    27    4.579792935401e-15
    28    2.083923321032e-15
    29   -1.287547628777e-02
    30    1.850001217526e-15
    31   -1.840841116489e-14
    32    4.413396851214e-14
    33   -3.269464869197e-13
    34   -1.116833967047e-15
    35   -3.363507751908e-15
    36    5.955556442476e-03
    37    1.417020991525e-15
    38    9.345641400101e-15
    39    2.160595021227e-13
    40   -3.229237649629e-13
    41   -9.216107991320e-16
    42    3.015423813370e-15
    43   -3.915962029867e-03
    44    4.559225168586e-16
    45   -1.373393009654e-15
    46    2.598001299717e-15
    47    2.332463046462e-15
    48    6.324466001212e-03
    49    1.597937918422e-14
    50   -8.200410371164e-16
    51   -1.356251930570e-15
    52    6.972466570742e-03
    53   -1.737213137180e-13
    54    6.381012776336e-14
    55    1.626911885765e-13
    56    3.904411377403e-02
    57    2.247179700715e-13
    58    2.062931079566e-13
    59    3.605681682892e-13
    60    3.164736645278e-02
    61    5.118533902484e-15
    62   -2.922901913806e-02
    63    3.805927768624e-02
    64    1.627872926189e-15
    65    1.883566649150e-15
    66    1.330497634154e-16
    67   -8.295622298367e-17
    68   -2.735258500892e-15
    69   -2.069311409453e-16
    70    1.278754990095e-01
    71    1.927830376188e-15
    72    1.063130379593e-15
    73    6.281745286678e-15
    74    1.939773597959e-01
    75   -1.093577547985e-15
    76    4.660029860913e-15
    77   -1.648735973788e-14
    78    1.897292600880e-01
    79    1.308208288168e-14
    80    1.038233986420e-14
    81   -7.415611729260e-14
    82    3.638270575837e-02
    83    4.884497130782e-16
    84    8.100191984296e-03
    85   -3.544754550600e-03
    86    1.898412675594e-16
    87   -1.333291010126e-16
    88    2.193474108033e-15
    89    1.490388151154e-15
    90   -3.114809974941e-16
    91    5.451376709679e-15
    92    7.892740463760e-03
    93   -8.788342390321e-15
    94    1.360674091738e-14
    95   -2.601761005480e-15
    96    1.589952722537e-02
    97   -3.216119061350e-14
    98    1.141164386188e-14
    99    8.280964864462e-14
   100   -1.778346222861e-02
   101   -8.060835173689e-13
   102   -2.373458238299e-13
   103    6.469095934029e-13
   104   -4.775557733372e-02
   105   -6.412406380725e-15
   106   -9.899244135222e-03
   107   -3.369387522112e-02
   108   -1.592280544199e-15
   109   -9.513637475461e-16
   110    3.395960173120e-16
   111    4.083573876604e-17
   112   -6.956453006830e-15
   113    5.833133757083e-15
   114   -1.335419224656e-01
   115    5.245054653821e-16
   116   -2.304647503036e-16
   117   -9.487620011975e-15
   118   -1.668678969915e-01
   119   -1.690281111476e-14
   120   -7.800726836581e-15
   121    3.711244098734e-14
   122   -1.311942108041e-01
   123    1.107330979530e-14
   124    4.235592464574e-14
   125   -4.710551346712e-14
   126   -1.684213631402e-02
   127   -1.573472995490e-15
   128    5.399752504851e-03
   129    2.935277480845e-03
   130   -7.331074667340e-16
   131   -4.156022195887e-16
   132   -1.659993396364e-15
   133   -2.449173074198e-15
   134    4.599581141862e-15
   135   -3.433167142765e-15
   136   -3.562604990372e-02
   137    3.744937145382e-15
   138   -2.680261324493e-15
   139   -2.637060436546e-15
   140   -5.495478600618e-02
   141    7.919786835241e-14
   142    5.710126438475e-14
   143   -3.379866301227e-14
   144   -6.611218372696e-02
   145   -1.548959343202e-12
   146    3.960214968849e-14
   147    1.298427256426e-13
   148   -5.398135581453e-03
   149   -3.826525548640e-15
   150   -1.661440732602e-03
   151   -4.914835390485e-04
   152    5.796471752218e-16
   153    1.965245274156e-15
   154    1.897085316018e-15
   155    3.444809676979e-15
   156   -3.545194824825e-16
   157    2.172876806982e-15
   158   -1.524478546168e-01
   159   -1.417521565965e-14
   160    2.103213960787e-15
   161    2.014373294056e-16
   162   -2.396592594073e-01
   163   -5.347479268059e-15
   164   -2.904621718126e-16
   165    5.644163210236e-14
   166   -2.920700680843e-01
   167    1.308923109752e-12
   168    4.162622421827e-13
   169    3.391185267172e-13
   170   -9.277136541548e-02
   171    1.793402457360e-15
   172    1.555548661393e-03
   173   -5.028776080506e-03
   174    1.380804344677e-15
   175   -1.512241916916e-15
   176   -1.327880459927e-15
   177   -2.239748548203e-15
   178    6.564192477750e-15
   179    6.378577819820e-15
   180    1.381934015312e-01
   181    1.351697575217e-14
   182    3.405030142023e-15
   183   -2.801010223982e-15
   184    2.319668705328e-01
   185    9.554170515980e-16
   186    1.050706030805e-13
   187    1.100414898236e-13
   188    2.408401899433e-01
   189    5.260568541766e-12
   190   -8.589534673140e-13
   191   -5.576586654273e-14
   192    4.656811124462e-02
   193    5.310273606248e-15
   194   -1.138376882401e-02
   195    2.998247788257e-03
   196    1.144170501610e-15
   197    2.381566889824e-15
   198   -4.075400193586e-15
   199    8.074806474773e-15
   200   -1.959773862638e-13
   201    1.197750305293e-13
   202   -4.176849054377e-15
   203    2.808055203558e-15
   204    1.023899263591e-02
[5D]
