[Molden Format]
[Atoms] (Angs)
  C      1    6     -0.00754183     -1.75895763      0.00000000
  H      2    1     -2.09769850     -1.41880678     -0.00000000
  H      3    1     -0.13527422     -2.83956838     -0.00000000
  H      4    1      0.04053511      2.02026369      0.00000000
  C      5    6     -1.22066484      0.39918184     -0.00000000
  O      6    8     -2.25210141      1.05663720     -0.00000000
  C      7    6      1.24009552      0.27789184      0.00000000
  O      8    8      2.33767996      1.06122493      0.00000000
  N      9    7      0.03634586      1.00852936      0.00000000
  N     10    7     -1.18738304     -0.97903470     -0.00000000
  C     11    6      1.22288875     -1.12258096      0.00000000
  H     12    1      2.15640383     -1.68445878      0.00000000
[GTO]
1    0
S    6    1.000000
   4.56324000E+03    1.96665000E-03 
   6.82024000E+02    1.52306000E-02 
   1.54973000E+02    7.61269000E-02 
   4.44553000E+01    2.60801000E-01 
   1.30290000E+01    6.16462000E-01 
   1.82773000E+00    2.21006000E-01 
SP   3    1.000000
   2.09642000E+01    1.14660000E-01   4.02487000E-02 
   4.80331000E+00    9.19999000E-01   2.37594000E-01 
   1.45933000E+00   -3.03068000E-03   8.15854000E-01 
SP   1    1.000000
   4.83456000E-01    1.00000000E+00   1.00000000E+00 
SP   1    1.000000
   1.45585000E-01    1.00000000E+00   1.00000000E+00 
SP   1    1.000000
   4.38000000E-02    1.00000000E+00   1.00000000E+00 
D    1    1.000000
   6.26000000E-01    1.00000000E+00 

2    0
S    3    1.000000
   3.38650000E+01    2.54938000E-02 
   5.09479000E+00    1.90373000E-01 
   1.15879000E+00    8.52161000E-01 
S    1    1.000000
   3.25840000E-01    1.00000000E+00 
S    1    1.000000
   1.02741000E-01    1.00000000E+00 
S    1    1.000000
   3.60000000E-02    1.00000000E+00 
P    1    1.000000
   7.50000000E-01    1.00000000E+00 

3    0
S    3    1.000000
   3.38650000E+01    2.54938000E-02 
   5.09479000E+00    1.90373000E-01 
   1.15879000E+00    8.52161000E-01 
S    1    1.000000
   3.25840000E-01    1.00000000E+00 
S    1    1.000000
   1.02741000E-01    1.00000000E+00 
S    1    1.000000
   3.60000000E-02    1.00000000E+00 
P    1    1.000000
   7.50000000E-01    1.00000000E+00 

4    0
S    3    1.000000
   3.38650000E+01    2.54938000E-02 
   5.09479000E+00    1.90373000E-01 
   1.15879000E+00    8.52161000E-01 
S    1    1.000000
   3.25840000E-01    1.00000000E+00 
S    1    1.000000
   1.02741000E-01    1.00000000E+00 
S    1    1.000000
   3.60000000E-02    1.00000000E+00 
P    1    1.000000
   7.50000000E-01    1.00000000E+00 

5    0
S    6    1.000000
   4.56324000E+03    1.96665000E-03 
   6.82024000E+02    1.52306000E-02 
   1.54973000E+02    7.61269000E-02 
   4.44553000E+01    2.60801000E-01 
   1.30290000E+01    6.16462000E-01 
   1.82773000E+00    2.21006000E-01 
SP   3    1.000000
   2.09642000E+01    1.14660000E-01   4.02487000E-02 
   4.80331000E+00    9.19999000E-01   2.37594000E-01 
   1.45933000E+00   -3.03068000E-03   8.15854000E-01 
SP   1    1.000000
   4.83456000E-01    1.00000000E+00   1.00000000E+00 
SP   1    1.000000
   1.45585000E-01    1.00000000E+00   1.00000000E+00 
SP   1    1.000000
   4.38000000E-02    1.00000000E+00   1.00000000E+00 
D    1    1.000000
   6.26000000E-01    1.00000000E+00 

6    0
S    6    1.000000
   8.58850000E+03    1.89515000E-03 
   1.29723000E+03    1.43859000E-02 
   2.99296000E+02    7.07320000E-02 
   8.73771000E+01    2.40001000E-01 
   2.56789000E+01    5.94797000E-01 
   3.74004000E+00    2.80802000E-01 
SP   3    1.000000
   4.21175000E+01    1.13889000E-01   3.65114000E-02 
   9.62837000E+00    9.20811000E-01   2.37153000E-01 
   2.85332000E+00   -3.27447000E-03   8.19702000E-01 
SP   1    1.000000
   9.05661000E-01    1.00000000E+00   1.00000000E+00 
SP   1    1.000000
   2.55611000E-01    1.00000000E+00   1.00000000E+00 
SP   1    1.000000
   8.45000000E-02    1.00000000E+00   1.00000000E+00 
D    1    1.000000
   1.29200000E+00    1.00000000E+00 

7    0
S    6    1.000000
   4.56324000E+03    1.96665000E-03 
   6.82024000E+02    1.52306000E-02 
   1.54973000E+02    7.61269000E-02 
   4.44553000E+01    2.60801000E-01 
   1.30290000E+01    6.16462000E-01 
   1.82773000E+00    2.21006000E-01 
SP   3    1.000000
   2.09642000E+01    1.14660000E-01   4.02487000E-02 
   4.80331000E+00    9.19999000E-01   2.37594000E-01 
   1.45933000E+00   -3.03068000E-03   8.15854000E-01 
SP   1    1.000000
   4.83456000E-01    1.00000000E+00   1.00000000E+00 
SP   1    1.000000
   1.45585000E-01    1.00000000E+00   1.00000000E+00 
SP   1    1.000000
   4.38000000E-02    1.00000000E+00   1.00000000E+00 
D    1    1.000000
   6.26000000E-01    1.00000000E+00 

8    0
S    6    1.000000
   8.58850000E+03    1.89515000E-03 
   1.29723000E+03    1.43859000E-02 
   2.99296000E+02    7.07320000E-02 
   8.73771000E+01    2.40001000E-01 
   2.56789000E+01    5.94797000E-01 
   3.74004000E+00    2.80802000E-01 
SP   3    1.000000
   4.21175000E+01    1.13889000E-01   3.65114000E-02 
   9.62837000E+00    9.20811000E-01   2.37153000E-01 
   2.85332000E+00   -3.27447000E-03   8.19702000E-01 
SP   1    1.000000
   9.05661000E-01    1.00000000E+00   1.00000000E+00 
SP   1    1.000000
   2.55611000E-01    1.00000000E+00   1.00000000E+00 
SP   1    1.000000
   8.45000000E-02    1.00000000E+00   1.00000000E+00 
D    1    1.000000
   1.29200000E+00    1.00000000E+00 

9    0
S    6    1.000000
   6.29348000E+03    1.96979000E-03 
   9.49044000E+02    1.49613000E-02 
   2.18776000E+02    7.35006000E-02 
   6.36916000E+01    2.48937000E-01 
   1.88282000E+01    6.02460000E-01 
   2.72023000E+00    2.56202000E-01 
SP   3    1.000000
   3.06331000E+01    1.11906000E-01   3.83119000E-02 
   7.02614000E+00    9.21666000E-01   2.37403000E-01 
   2.11205000E+00   -2.56919000E-03   8.17592000E-01 
SP   1    1.000000
   6.84009000E-01    1.00000000E+00   1.00000000E+00 
SP   1    1.000000
   2.00878000E-01    1.00000000E+00   1.00000000E+00 
SP   1    1.000000
   6.39000000E-02    1.00000000E+00   1.00000000E+00 
D    1    1.000000
   9.13000000E-01    1.00000000E+00 

10    0
S    6    1.000000
   6.29348000E+03    1.96979000E-03 
   9.49044000E+02    1.49613000E-02 
   2.18776000E+02    7.35006000E-02 
   6.36916000E+01    2.48937000E-01 
   1.88282000E+01    6.02460000E-01 
   2.72023000E+00    2.56202000E-01 
SP   3    1.000000
   3.06331000E+01    1.11906000E-01   3.83119000E-02 
   7.02614000E+00    9.21666000E-01   2.37403000E-01 
   2.11205000E+00   -2.56919000E-03   8.17592000E-01 
SP   1    1.000000
   6.84009000E-01    1.00000000E+00   1.00000000E+00 
SP   1    1.000000
   2.00878000E-01    1.00000000E+00   1.00000000E+00 
SP   1    1.000000
   6.39000000E-02    1.00000000E+00   1.00000000E+00 
D    1    1.000000
   9.13000000E-01    1.00000000E+00 

11    0
S    6    1.000000
   4.56324000E+03    1.96665000E-03 
   6.82024000E+02    1.52306000E-02 
   1.54973000E+02    7.61269000E-02 
   4.44553000E+01    2.60801000E-01 
   1.30290000E+01    6.16462000E-01 
   1.82773000E+00    2.21006000E-01 
SP   3    1.000000
   2.09642000E+01    1.14660000E-01   4.02487000E-02 
   4.80331000E+00    9.19999000E-01   2.37594000E-01 
   1.45933000E+00   -3.03068000E-03   8.15854000E-01 
SP   1    1.000000
   4.83456000E-01    1.00000000E+00   1.00000000E+00 
SP   1    1.000000
   1.45585000E-01    1.00000000E+00   1.00000000E+00 
SP   1    1.000000
   4.38000000E-02    1.00000000E+00   1.00000000E+00 
D    1    1.000000
   6.26000000E-01    1.00000000E+00 

12    0
S    3    1.000000
   3.38650000E+01    2.54938000E-02 
   5.09479000E+00    1.90373000E-01 
   1.15879000E+00    8.52161000E-01 
S    1    1.000000
   3.25840000E-01    1.00000000E+00 
S    1    1.000000
   1.02741000E-01    1.00000000E+00 
S    1    1.000000
   3.60000000E-02    1.00000000E+00 
P    1    1.000000
   7.50000000E-01    1.00000000E+00 

[MO]
Sym=X
Ene= -0.002198
Spin=Alpha
Occup=1
     1    2.879070362236e-07
     2   -2.904184897867e-06
     3   -3.851085673340e-07
     4   -1.893166924654e-06
     5   -6.187802981047e-16
     6    2.027340648310e-05
     7    1.116598298380e-05
     8    1.436644554172e-05
     9    1.118764037084e-15
    10   -3.418147691180e-04
    11   -7.709626723016e-05
    12   -2.040030841999e-04
    13   -6.681031264346e-15
    14   -1.682413578208e-04
    15    2.345392109892e-04
    16   -6.133979221375e-04
    17    1.044079912126e-14
    18    1.176168721547e-06
    19   -6.784855106951e-16
    20   -1.001123231895e-15
    21   -2.735965164858e-06
    22    1.232169146700e-05
    23    4.829857587956e-07
    24    1.082227779182e-05
    25   -6.132069510022e-05
    26    5.607318740522e-05
    27   -2.070160760365e-06
    28    1.291448717628e-06
    29   -1.223136204836e-15
    30   -4.286470264339e-07
    31   -4.890761570920e-06
    32   -1.376550409194e-04
    33   -3.009749594139e-04
    34    4.755668261313e-06
    35   -4.051877011828e-09
    36    1.602669863824e-15
    37    4.551240355718e-06
    38    3.790329556463e-05
    39    5.144144601432e-05
    40    8.305530387580e-05
    41   -3.624722285397e-06
    42   -9.905172361663e-06
    43    7.847850672304e-16
    44   -2.376408550023e-07
    45   -4.573792258012e-07
    46    1.314547053633e-06
    47    1.165521642841e-08
    48    1.088450570575e-15
    49    2.411239872608e-06
    50   -4.760041723916e-07
    51    9.462963433725e-07
    52   -1.316538918854e-15
    53   -1.312756599443e-04
    54   -1.469750533168e-04
    55    1.497812737987e-05
    56   -9.845900042679e-16
    57   -1.650633764063e-04
    58    2.085358360148e-05
    59   -1.763363292926e-04
    60    6.960050636474e-15
    61    3.353618965409e-06
    62    4.604380808977e-16
    63   -6.092984065005e-16
    64    1.243576369080e-06
    65    3.618853740483e-06
    66   -4.236850270521e-06
    67   -3.492157121216e-06
    68   -5.511278308584e-07
    69    2.466754820049e-07
    70    2.624591974742e-16
    71   -1.594137292609e-06
    72    6.248591222676e-07
    73   -1.906080892757e-06
    74   -1.489225556262e-15
    75    6.271775329166e-07
    76    3.701546172618e-06
    77    1.045714094228e-05
    78    3.125403417158e-15
    79   -2.700851376202e-04
    80   -1.418320118731e-04
    81    4.221696099626e-05
    82   -3.977116383451e-15
    83    1.330478381108e-07
    84   -5.231321245390e-16
    85   -2.763579286801e-16
    86    1.132785393625e-06
    87   -4.673570081094e-07
    88   -6.751665528224e-07
    89   -5.118911656528e-05
    90    6.436420433927e-06
    91    8.565793532096e-06
    92   -1.975760397944e-16
    93    1.627536383703e-04
    94    3.165352850699e-04
    95    2.289779454727e-04
    96    4.518165550032e-16
    97   -3.389306075817e-04
    98    1.134492726434e-05
    99    1.449518576334e-04
   100   -3.853043914308e-15
   101   -1.983638447760e-03
   102   -7.661338092911e-04
   103    3.323317422033e-04
   104    1.033871555470e-14
   105   -4.487066249684e-05
   106   -3.296236477179e-16
   107   -1.063799228210e-15
   108    8.700817166232e-05
   109    1.967618662835e-04
   110    5.515673065135e-01
   111    4.717155957061e-01
   112   -1.386441611154e-03
   113   -9.926515991136e-04
   114   -7.538093081052e-16
   115    5.157233748785e-03
   116    6.218227694884e-04
   117    4.561406752722e-04
   118   -2.583873553531e-16
   119   -7.882450097139e-04
   120   -2.534384048086e-04
   121   -1.999056587999e-04
   122    2.504975994885e-15
   123    1.502403122726e-03
   124   -9.304959378803e-05
   125   -2.468363200809e-05
   126   -2.392305251668e-15
   127   -5.118996038849e-05
   128   -3.350965968427e-16
   129   -4.279487397673e-17
   130   -4.584426932701e-05
   131   -1.721192495765e-04
   132    6.198392978350e-07
   133   -2.789689895783e-07
   134   -1.391653317248e-05
   135    5.914143491174e-06
   136    9.342352530802e-16
   137   -1.183710864332e-05
   138    4.214905716610e-05
   139   -2.338880318551e-05
   140   -1.454269943186e-15
   141    1.403322670718e-04
   142   -6.722455430787e-05
   143   -1.218350790389e-04
   144    3.110084029660e-15
   145   -3.071614091586e-04
   146   -5.526216278484e-04
   147   -2.999145125862e-05
   148   -5.102408563882e-15
   149   -7.527700794781e-06
   150    8.871060784778e-16
   151   -1.525789869394e-17
   152    1.966671634959e-05
   153   -2.359820276698e-05
   154    6.406814651471e-08
   155   -2.312023658908e-07
   156   -8.172461397151e-07
   157   -1.438677059551e-07
   158    1.280288303662e-16
   159   -4.287743136954e-06
   160    3.784569068453e-06
   161    4.721999493445e-07
   162   -2.745798124875e-16
   163    1.114139886927e-04
   164    6.367599632291e-05
   165    4.646793403888e-06
   166    3.378390554486e-15
   167    2.053580240910e-04
   168   -5.979916379547e-05
   169   -2.264622008850e-05
   170   -5.126005715667e-15
   171   -3.423114834627e-08
   172   -4.436442706140e-16
   173    1.747376225993e-16
   174   -3.639724772760e-07
   175   -2.283543874275e-06
   176    1.754647962698e-06
   177   -1.867622342473e-06
   178   -6.553639203922e-06
   179   -1.919904405031e-05
   180    1.079974104504e-15
   181   -1.676728727743e-06
   182    1.798375839092e-05
   183    1.058461095131e-04
   184   -2.795984406211e-15
   185    3.962041804017e-04
   186   -3.247979950570e-04
   187    6.174467383088e-05
   188    8.605872255217e-15
   189    1.730882975778e-03
   190    4.395307390878e-05
   191    1.042941628557e-03
   192   -1.611964376515e-14
   193   -4.993837017430e-06
   194   -3.905376440565e-16
   195    3.240112458300e-16
   196   -5.058192452122e-05
   197    3.307003797270e-05
   198    1.998247559747e-06
   199    9.287487929483e-05
   200    8.214827151553e-05
   201    3.327557824823e-04
   202   -2.224665154515e-05
   203    1.309017051116e-05
   204   -3.075131109243e-16
Sym=X
Ene= 0.002198
Spin=Alpha
Occup=0
     1    1.211844100544e-03
     2    1.925029785877e-03
     3    2.538474683986e-02
     4    1.628717749024e-02
     5    5.613916678702e-15
     6   -1.407765257644e-02
     7    4.768449611671e-02
     8    2.598615728431e-02
     9   -2.558531680786e-15
    10    1.784497829446e-01
    11    8.287888034439e-02
    12    8.753044336870e-02
    13    2.204735234839e-14
    14    7.506857477158e-01
    15    1.724839264632e-01
    16    1.949458604063e-01
    17   -4.734488848050e-15
    18    3.455478785618e-03
    19    9.486545868371e-16
    20   -1.741523220839e-15
    21    3.279522342406e-03
    22   -1.883482737204e-03
    23    1.397260557308e-04
    24   -2.941616219057e-03
    25   -3.316450487377e-02
    26    1.704059894998e-02
    27    1.408775439364e-03
    28   -2.528259739770e-03
    29   -3.648079539304e-15
    30   -1.827480528371e-02
    31   -3.552096433575e-02
    32   -1.318725894766e-03
    33    6.144635021070e-02
    34   -9.590850741969e-05
    35   -2.895632911908e-03
    36   -3.687279015967e-15
    37    1.178083688406e-03
    38    1.365644144032e-04
    39    1.182477754058e-03
    40    1.941065499162e-02
    41   -1.082361710817e-03
    42   -1.256339030896e-03
    43   -3.600741842724e-15
    44    5.826397864631e-03
    45    9.810849341174e-03
    46   -2.917476338610e-02
    47    1.561518764079e-03
    48   -9.850627362019e-16
    49   -2.217617679124e-02
    50   -5.353881162209e-02
    51    8.075727302383e-04
    52   -8.713652368686e-15
    53   -8.676205938224e-02
    54   -4.629019026793e-02
    55    1.037457751985e-01
    56    2.729805017761e-14
    57   -9.079300674020e-02
    58    1.281054337304e-02
    59    6.052749994624e-02
    60    1.481605138818e-14
    61   -9.434229342111e-04
    62   -3.533010421492e-15
    63    1.073978445385e-14
    64   -3.485728099186e-02
    65   -2.608143418513e-02
    66    4.562511282591e-04
    67    6.944108865864e-04
    68    8.864604796323e-02
    69    9.683310303091e-02
    70    9.255991882909e-15
    71    1.412171005200e-03
    72    1.312613625174e-01
    73    1.485859594939e-01
    74    3.513498288086e-15
    75   -3.976793302466e-02
    76    1.209698044354e-01
    77    1.570125982691e-01
    78   -1.933083284265e-14
    79   -4.692769907556e-02
    80    3.786887232798e-03
    81    1.969564920602e-02
    82    2.102418154761e-14
    83    1.123388731680e-04
    84    1.916869549087e-15
    85    2.763130539050e-15
    86    6.949657793540e-03
    87    2.132405886240e-03
    88    4.407042718789e-04
    89    8.808571483363e-04
    90   -2.289367257814e-02
    91    3.166475531489e-02
    92    2.875013642583e-15
    93   -7.463003237629e-03
    94   -3.574355530369e-02
    95    5.376785620227e-02
    96    2.490329959744e-15
    97    8.199023548975e-02
    98   -1.231946799221e-02
    99   -1.221377748657e-01
   100    2.607280695131e-14
   101    4.649295133108e-01
   102    4.613408619872e-02
   103   -1.768634361816e-01
   104   -8.232399412152e-14
   105    1.685341882659e-03
   106    7.230638473042e-16
   107    1.510234044662e-15
   108    4.162839075302e-02
   109   -2.524564546795e-02
   110   -2.136770902491e-03
   111   -3.782787501997e-03
   112    1.835541383363e-01
   113   -2.249558544775e-01
   114   -7.331089331183e-15
   115    1.156010657094e-02
   116    2.303311734660e-01
   117   -2.876251030603e-01
   118    1.035212182986e-14
   119    2.339576309766e-02
   120    1.954223370213e-01
   121   -2.403253332732e-01
   122   -3.039631395001e-14
   123    2.742087309728e-02
   124    1.358613532040e-02
   125   -4.331078891718e-02
   126    4.557363499036e-14
   127   -1.932084605096e-03
   128    3.031000773059e-15
   129   -4.656412401469e-15
   130   -9.889334295754e-03
   131    3.557533258612e-03
   132   -4.550571021905e-03
   133   -7.725506177326e-03
   134    7.933343084876e-02
   135   -3.831535003653e-03
   136   -9.941737460615e-16
   137    1.904145760990e-02
   138    1.121814920023e-01
   139   -5.695709924813e-03
   140   -1.392944662792e-15
   141    6.139696453411e-02
   142    1.302281503598e-01
   143   -2.260585971246e-02
   144   -2.660273850383e-14
   145    1.196547682732e-01
   146   -4.385605849339e-02
   147   -4.092169464326e-02
   148    1.459466892139e-14
   149   -6.957269209626e-04
   150    9.976572348231e-16
   151   -2.745210662374e-15
   152    2.313085090899e-03
   153   -1.014763490692e-03
   154   -1.138789018175e-02
   155   -1.928959929054e-02
   156   -2.542967517553e-03
   157    2.726555484449e-02
   158   -4.410333055680e-16
   159    5.733654919820e-02
   160   -5.133021268405e-03
   161    3.852568056504e-02
   162    1.437805289952e-15
   163    1.197967769390e-01
   164   -2.060336390083e-02
   165    8.304086004297e-02
   166   -6.914079465179e-15
   167    4.281082514074e-02
   168   -1.206333095044e-02
   169   -5.196641022199e-02
   170   -3.801765621354e-14
   171    1.051822283555e-03
   172    6.166523093837e-16
   173   -1.891130471136e-15
   174    4.447377634615e-03
   175    5.144819222490e-04
   176    1.194740900799e-02
   177    1.944696350603e-02
   178   -1.229327730457e-02
   179   -4.458959288920e-02
   180   -7.302115709537e-15
   181   -3.611230297828e-02
   182   -1.483473897747e-02
   183   -6.328900439862e-02
   184    1.173399737861e-14
   185   -3.564670887138e-01
   186    9.548529633431e-02
   187   -9.930895297953e-02
   188   -2.768733513198e-14
   189   -1.259852067331e+00
   190    2.253873736883e-01
   191   -9.777286907697e-02
   192    5.987875401063e-14
   193    2.483498959342e-03
   194   -2.060833723590e-15
   195   -4.194395033050e-15
   196    7.868090700617e-04
   197   -3.762528737155e-03
   198   -1.919266013049e-03
   199   -2.779617275070e-03
   200   -1.287909496595e-02
   201   -5.633040539885e-02
   202    9.056436754705e-04
   203   -1.205107686183e-03
   204    3.782657749020e-15
[5D]
