[Molden Format]
[Atoms] (Angs)
  C      1    6     -0.00754183     -1.75895763      0.00000000
  H      2    1     -2.09769850     -1.41880678     -0.00000000
  H      3    1     -0.13527422     -2.83956838     -0.00000000
  H      4    1      0.04053511      2.02026369      0.00000000
  C      5    6     -1.22066484      0.39918184     -0.00000000
  O      6    8     -2.25210141      1.05663720     -0.00000000
  C      7    6      1.24009552      0.27789184      0.00000000
  O      8    8      2.33767996      1.06122493      0.00000000
  N      9    7      0.03634586      1.00852936      0.00000000
  N     10    7     -1.18738304     -0.97903470     -0.00000000
  C     11    6      1.22288875     -1.12258096      0.00000000
  H     12    1      2.15640383     -1.68445878      0.00000000
[GTO]
1    0
S    6    1.000000
   4.56324000E+03    1.96665000E-03 
   6.82024000E+02    1.52306000E-02 
   1.54973000E+02    7.61269000E-02 
   4.44553000E+01    2.60801000E-01 
   1.30290000E+01    6.16462000E-01 
   1.82773000E+00    2.21006000E-01 
SP   3    1.000000
   2.09642000E+01    1.14660000E-01   4.02487000E-02 
   4.80331000E+00    9.19999000E-01   2.37594000E-01 
   1.45933000E+00   -3.03068000E-03   8.15854000E-01 
SP   1    1.000000
   4.83456000E-01    1.00000000E+00   1.00000000E+00 
SP   1    1.000000
   1.45585000E-01    1.00000000E+00   1.00000000E+00 
SP   1    1.000000
   4.38000000E-02    1.00000000E+00   1.00000000E+00 
D    1    1.000000
   6.26000000E-01    1.00000000E+00 

2    0
S    3    1.000000
   3.38650000E+01    2.54938000E-02 
   5.09479000E+00    1.90373000E-01 
   1.15879000E+00    8.52161000E-01 
S    1    1.000000
   3.25840000E-01    1.00000000E+00 
S    1    1.000000
   1.02741000E-01    1.00000000E+00 
S    1    1.000000
   3.60000000E-02    1.00000000E+00 
P    1    1.000000
   7.50000000E-01    1.00000000E+00 

3    0
S    3    1.000000
   3.38650000E+01    2.54938000E-02 
   5.09479000E+00    1.90373000E-01 
   1.15879000E+00    8.52161000E-01 
S    1    1.000000
   3.25840000E-01    1.00000000E+00 
S    1    1.000000
   1.02741000E-01    1.00000000E+00 
S    1    1.000000
   3.60000000E-02    1.00000000E+00 
P    1    1.000000
   7.50000000E-01    1.00000000E+00 

4    0
S    3    1.000000
   3.38650000E+01    2.54938000E-02 
   5.09479000E+00    1.90373000E-01 
   1.15879000E+00    8.52161000E-01 
S    1    1.000000
   3.25840000E-01    1.00000000E+00 
S    1    1.000000
   1.02741000E-01    1.00000000E+00 
S    1    1.000000
   3.60000000E-02    1.00000000E+00 
P    1    1.000000
   7.50000000E-01    1.00000000E+00 

5    0
S    6    1.000000
   4.56324000E+03    1.96665000E-03 
   6.82024000E+02    1.52306000E-02 
   1.54973000E+02    7.61269000E-02 
   4.44553000E+01    2.60801000E-01 
   1.30290000E+01    6.16462000E-01 
   1.82773000E+00    2.21006000E-01 
SP   3    1.000000
   2.09642000E+01    1.14660000E-01   4.02487000E-02 
   4.80331000E+00    9.19999000E-01   2.37594000E-01 
   1.45933000E+00   -3.03068000E-03   8.15854000E-01 
SP   1    1.000000
   4.83456000E-01    1.00000000E+00   1.00000000E+00 
SP   1    1.000000
   1.45585000E-01    1.00000000E+00   1.00000000E+00 
SP   1    1.000000
   4.38000000E-02    1.00000000E+00   1.00000000E+00 
D    1    1.000000
   6.26000000E-01    1.00000000E+00 

6    0
S    6    1.000000
   8.58850000E+03    1.89515000E-03 
   1.29723000E+03    1.43859000E-02 
   2.99296000E+02    7.07320000E-02 
   8.73771000E+01    2.40001000E-01 
   2.56789000E+01    5.94797000E-01 
   3.74004000E+00    2.80802000E-01 
SP   3    1.000000
   4.21175000E+01    1.13889000E-01   3.65114000E-02 
   9.62837000E+00    9.20811000E-01   2.37153000E-01 
   2.85332000E+00   -3.27447000E-03   8.19702000E-01 
SP   1    1.000000
   9.05661000E-01    1.00000000E+00   1.00000000E+00 
SP   1    1.000000
   2.55611000E-01    1.00000000E+00   1.00000000E+00 
SP   1    1.000000
   8.45000000E-02    1.00000000E+00   1.00000000E+00 
D    1    1.000000
   1.29200000E+00    1.00000000E+00 

7    0
S    6    1.000000
   4.56324000E+03    1.96665000E-03 
   6.82024000E+02    1.52306000E-02 
   1.54973000E+02    7.61269000E-02 
   4.44553000E+01    2.60801000E-01 
   1.30290000E+01    6.16462000E-01 
   1.82773000E+00    2.21006000E-01 
SP   3    1.000000
   2.09642000E+01    1.14660000E-01   4.02487000E-02 
   4.80331000E+00    9.19999000E-01   2.37594000E-01 
   1.45933000E+00   -3.03068000E-03   8.15854000E-01 
SP   1    1.000000
   4.83456000E-01    1.00000000E+00   1.00000000E+00 
SP   1    1.000000
   1.45585000E-01    1.00000000E+00   1.00000000E+00 
SP   1    1.000000
   4.38000000E-02    1.00000000E+00   1.00000000E+00 
D    1    1.000000
   6.26000000E-01    1.00000000E+00 

8    0
S    6    1.000000
   8.58850000E+03    1.89515000E-03 
   1.29723000E+03    1.43859000E-02 
   2.99296000E+02    7.07320000E-02 
   8.73771000E+01    2.40001000E-01 
   2.56789000E+01    5.94797000E-01 
   3.74004000E+00    2.80802000E-01 
SP   3    1.000000
   4.21175000E+01    1.13889000E-01   3.65114000E-02 
   9.62837000E+00    9.20811000E-01   2.37153000E-01 
   2.85332000E+00   -3.27447000E-03   8.19702000E-01 
SP   1    1.000000
   9.05661000E-01    1.00000000E+00   1.00000000E+00 
SP   1    1.000000
   2.55611000E-01    1.00000000E+00   1.00000000E+00 
SP   1    1.000000
   8.45000000E-02    1.00000000E+00   1.00000000E+00 
D    1    1.000000
   1.29200000E+00    1.00000000E+00 

9    0
S    6    1.000000
   6.29348000E+03    1.96979000E-03 
   9.49044000E+02    1.49613000E-02 
   2.18776000E+02    7.35006000E-02 
   6.36916000E+01    2.48937000E-01 
   1.88282000E+01    6.02460000E-01 
   2.72023000E+00    2.56202000E-01 
SP   3    1.000000
   3.06331000E+01    1.11906000E-01   3.83119000E-02 
   7.02614000E+00    9.21666000E-01   2.37403000E-01 
   2.11205000E+00   -2.56919000E-03   8.17592000E-01 
SP   1    1.000000
   6.84009000E-01    1.00000000E+00   1.00000000E+00 
SP   1    1.000000
   2.00878000E-01    1.00000000E+00   1.00000000E+00 
SP   1    1.000000
   6.39000000E-02    1.00000000E+00   1.00000000E+00 
D    1    1.000000
   9.13000000E-01    1.00000000E+00 

10    0
S    6    1.000000
   6.29348000E+03    1.96979000E-03 
   9.49044000E+02    1.49613000E-02 
   2.18776000E+02    7.35006000E-02 
   6.36916000E+01    2.48937000E-01 
   1.88282000E+01    6.02460000E-01 
   2.72023000E+00    2.56202000E-01 
SP   3    1.000000
   3.06331000E+01    1.11906000E-01   3.83119000E-02 
   7.02614000E+00    9.21666000E-01   2.37403000E-01 
   2.11205000E+00   -2.56919000E-03   8.17592000E-01 
SP   1    1.000000
   6.84009000E-01    1.00000000E+00   1.00000000E+00 
SP   1    1.000000
   2.00878000E-01    1.00000000E+00   1.00000000E+00 
SP   1    1.000000
   6.39000000E-02    1.00000000E+00   1.00000000E+00 
D    1    1.000000
   9.13000000E-01    1.00000000E+00 

11    0
S    6    1.000000
   4.56324000E+03    1.96665000E-03 
   6.82024000E+02    1.52306000E-02 
   1.54973000E+02    7.61269000E-02 
   4.44553000E+01    2.60801000E-01 
   1.30290000E+01    6.16462000E-01 
   1.82773000E+00    2.21006000E-01 
SP   3    1.000000
   2.09642000E+01    1.14660000E-01   4.02487000E-02 
   4.80331000E+00    9.19999000E-01   2.37594000E-01 
   1.45933000E+00   -3.03068000E-03   8.15854000E-01 
SP   1    1.000000
   4.83456000E-01    1.00000000E+00   1.00000000E+00 
SP   1    1.000000
   1.45585000E-01    1.00000000E+00   1.00000000E+00 
SP   1    1.000000
   4.38000000E-02    1.00000000E+00   1.00000000E+00 
D    1    1.000000
   6.26000000E-01    1.00000000E+00 

12    0
S    3    1.000000
   3.38650000E+01    2.54938000E-02 
   5.09479000E+00    1.90373000E-01 
   1.15879000E+00    8.52161000E-01 
S    1    1.000000
   3.25840000E-01    1.00000000E+00 
S    1    1.000000
   1.02741000E-01    1.00000000E+00 
S    1    1.000000
   3.60000000E-02    1.00000000E+00 
P    1    1.000000
   7.50000000E-01    1.00000000E+00 

[MO]
Sym=X
Ene= -0.081293
Spin=Alpha
Occup=1
     1   -1.234671803098e-07
     2   -6.353661744402e-07
     3    6.412978708742e-06
     4   -1.784729971084e-05
     5    4.777860843230e-16
     6   -9.166558584698e-06
     7   -1.312410686205e-05
     8   -3.619354129622e-06
     9   -8.367899561798e-16
    10    3.773510662624e-04
    11   -1.111443499091e-05
    12    2.132479323285e-05
    13    2.950955364219e-16
    14   -4.717942359129e-04
    15   -9.657238811868e-05
    16   -1.721495542016e-04
    17   -7.738566066762e-15
    18    4.504929250074e-06
    19   -1.486625648593e-16
    20    5.534561357945e-16
    21    2.934205583086e-06
    22   -7.885159278401e-06
    23   -1.073300423414e-05
    24   -9.621262879621e-05
    25   -5.327989498972e-04
    26   -1.138141693249e-03
    27   -4.401093626062e-06
    28    1.370267244746e-05
    29   -7.107122611100e-16
    30   -4.123753054211e-06
    31   -4.351802833105e-05
    32   -1.124969841095e-04
    33   -2.500555062124e-04
    34    7.992221494439e-06
    35   -8.647088775966e-07
    36    1.176229508492e-15
    37   -2.331113960407e-06
    38   -6.116209731265e-05
    39    1.325901360545e-04
    40    3.658983888938e-04
    41   -1.058116286914e-05
    42    1.678362815623e-05
    43   -4.670083936338e-16
    44   -3.185196648788e-06
    45    7.941723980296e-05
    46    5.634889634661e-05
    47   -2.785704910365e-05
    48   -1.893469279257e-15
    49   -3.199015481571e-04
    50    3.594914864582e-04
    51   -2.131140420320e-04
    52    2.741478951658e-15
    53    1.888841932491e-04
    54    4.026298997397e-04
    55   -3.587217519175e-04
    56   -4.766213540872e-15
    57    4.646571767613e-04
    58   -5.635146094458e-04
    59    5.406678652445e-05
    60   -9.200958442045e-16
    61    6.484417379820e-05
    62   -8.378471556143e-16
    63    8.231989806424e-17
    64   -8.627581791721e-05
    65    1.909868221975e-04
    66   -5.514841033245e-01
    67   -4.716763668318e-01
    68   -1.534109755973e-03
    69    1.006165768310e-03
    70   -8.144670727218e-16
    71   -5.513804854969e-03
    72    6.033998584963e-04
    73   -4.392795730689e-04
    74    7.466112882003e-16
    75    1.290170608945e-03
    76   -1.625900736482e-04
    77    1.023284081149e-04
    78   -6.484757423543e-16
    79   -1.677660649828e-03
    80   -1.341725709046e-04
    81    3.995742628416e-05
    82    9.188832982185e-16
    83    8.438767882128e-05
    84   -1.306925180276e-16
    85    1.099837763815e-15
    86    3.107522696427e-05
    87   -8.203797744451e-05
    88   -2.668177380800e-06
    89   -5.523654638240e-06
    90    1.987555993075e-06
    91    5.532804492604e-08
    92    7.685055978288e-16
    93    2.493175966119e-06
    94   -1.915151928705e-05
    95    1.481305429829e-05
    96    1.984551705098e-16
    97    3.492897569138e-04
    98   -9.325468762293e-05
    99    9.264850432568e-05
   100   -7.042947298381e-16
   101   -1.473925350448e-03
   102    3.750003150339e-04
   103    1.023153936395e-03
   104   -4.686234705343e-15
   105    1.528619915377e-05
   106    3.150013349576e-16
   107    3.153659386419e-16
   108    1.006571631240e-05
   109    3.683163702429e-06
   110   -1.625744604566e-05
   111   -6.306997836910e-06
   112    1.582038900947e-06
   113   -6.846250914836e-07
   114   -9.130853338493e-16
   115   -4.661777483926e-05
   116   -4.705590188437e-07
   117   -4.481390342866e-06
   118    2.173673678038e-15
   119   -1.439058423031e-04
   120    4.801117428046e-05
   121    2.365918918716e-05
   122   -1.831201135400e-15
   123   -9.734980638943e-05
   124   -1.574089004129e-04
   125   -8.508022031803e-05
   126    1.328404057788e-15
   127    2.250440075490e-06
   128    2.656927861091e-16
   129   -1.595616089069e-16
   130   -1.432413676566e-06
   131   -1.747346066784e-06
   132    1.244282136413e-05
   133    2.061484070527e-05
   134   -2.810625508750e-05
   135   -1.760096553515e-05
   136    4.040172919669e-16
   137   -4.494090948993e-05
   138    6.333777348621e-06
   139   -2.767395238186e-05
   140   -1.787762646135e-15
   141   -4.520367399025e-04
   142   -1.200996267831e-04
   143    2.310455352783e-04
   144    3.537533378107e-15
   145   -3.150710134543e-04
   146   -7.962816423557e-04
   147   -2.163970462585e-04
   148    1.548676412097e-15
   149    1.246529412953e-05
   150    2.437310966222e-16
   151    1.136739731839e-15
   152   -2.297708837483e-05
   153   -1.111317894938e-05
   154   -6.126890988314e-06
   155   -1.103397712037e-05
   156   -3.532666982345e-05
   157   -1.523122299001e-05
   158   -8.710240057369e-16
   159    5.268828885185e-05
   160   -2.651268920610e-05
   161   -6.769198760688e-05
   162    2.325175299072e-16
   163   -1.702705777954e-04
   164   -3.311671838682e-04
   165   -1.754404842365e-04
   166    9.919576109489e-16
   167   -4.417341055812e-04
   168   -8.482252042582e-04
   169    7.803043437356e-06
   170    5.259549478529e-15
   171    1.107233962974e-05
   172   -2.006410480635e-16
   173   -3.248143456404e-16
   174    1.973085637124e-05
   175    1.053930153800e-05
   176    1.619318028134e-05
   177    2.883441897999e-05
   178   -2.099204426103e-05
   179   -1.731497402065e-07
   180    6.245429822130e-17
   181   -9.263556694227e-05
   182   -1.459121416866e-05
   183   -6.377245339945e-06
   184    1.274403107825e-15
   185   -3.603487450437e-04
   186   -3.639961231402e-05
   187    1.541471911716e-05
   188   -3.010081938755e-15
   189    2.559057150464e-03
   190   -1.759618716844e-03
   191    1.022375718755e-03
   192    8.967544840626e-15
   193    5.633749175079e-06
   194    4.845492540071e-16
   195    4.853885633395e-17
   196   -5.371002014175e-06
   197    1.486473719327e-06
   198   -1.023359308524e-05
   199   -2.376897659268e-05
   200    2.005854936213e-04
   201    2.139907344290e-03
   202    5.974652901410e-06
   203   -5.799654580393e-06
   204    9.838789684365e-16
Sym=X
Ene= 0.081293
Spin=Alpha
Occup=0
     1    3.475879995588e-17
     2   -1.236564438107e-15
     3    1.182834675028e-15
     4    7.270739941355e-15
     5   -7.650788490219e-02
     6   -3.254023473262e-15
     7   -8.581262796975e-15
     8   -4.239641102466e-15
     9   -1.249902236757e-01
    10    2.138570497884e-13
    11    4.131855956282e-15
    12    2.574495210634e-13
    13   -1.536399312318e-01
    14    8.674894831850e-12
    15    1.717296718325e-12
    16    2.442013688127e-12
    17   -1.878653944399e-02
    18    8.947605462078e-16
    19   -3.012466158670e-02
    20   -1.295725936740e-03
    21    1.907826107182e-15
    22   -1.842846461443e-15
    23   -3.965990634756e-15
    24    2.963965556700e-14
    25   -5.619913324330e-13
    26    2.111153759981e-13
    27   -1.477031671888e-15
    28   -2.329004792684e-15
    29    1.451311979744e-02
    30   -1.474940855189e-16
    31    1.172654666086e-14
    32    2.769980335791e-13
    33    8.172239517873e-13
    34    5.059993078959e-15
    35    1.371844721625e-15
    36   -5.381752174785e-03
    37    8.905809748069e-15
    38   -7.398037125290e-14
    39    4.115361699221e-13
    40   -1.037723613512e-13
    41   -3.487922788553e-15
    42    2.145708123890e-16
    43   -4.355596315167e-03
    44   -6.016096468496e-16
    45   -9.913489732799e-18
    46   -1.799138495796e-15
    47   -2.578623739562e-15
    48    8.102657900412e-03
    49   -3.640556105441e-15
    50    2.818854539053e-15
    51   -1.720552547454e-15
    52    2.007165588536e-02
    53    1.238182355005e-13
    54    1.485139198864e-13
    55   -2.103249768149e-13
    56   -1.561239392085e-02
    57   -1.904208643821e-12
    58   -1.238087165098e-13
    59    8.621501595915e-13
    60   -2.954498806215e-02
    61   -6.191629602636e-15
    62   -1.469074903377e-03
    63   -3.826973250356e-02
    64    8.600476214478e-16
    65    1.319876678862e-15
    66   -3.208819291319e-16
    67   -5.610952183732e-16
    68    1.720946848559e-15
    69    2.523939331882e-15
    70   -8.876624763199e-02
    71    1.379354810737e-15
    72   -6.463046733894e-15
    73   -5.585687761107e-15
    74   -1.123557438698e-01
    75    3.755554259841e-14
    76    3.445062219767e-14
    77    2.222429521983e-14
    78   -8.809546874456e-02
    79    2.853355158345e-13
    80    1.167843370936e-13
    81   -6.421127071567e-14
    82   -5.066848986073e-03
    83   -4.475505778366e-18
    84   -4.597536289812e-03
    85    2.282732900404e-04
    86   -2.620887224497e-16
    87    3.653209006420e-16
    88    1.023870479003e-15
    89    4.045605070639e-15
    90    3.817650511228e-15
    91    1.105031597282e-15
    92    1.626745335940e-02
    93   -1.138984608016e-14
    94   -1.808576003668e-14
    95    1.583317790144e-14
    96    2.855826823826e-02
    97    1.001747514254e-13
    98   -1.044889073521e-13
    99   -3.816386065622e-14
   100    6.751934951265e-02
   101    4.551318786695e-12
   102   -7.052887846707e-13
   103   -6.775778184907e-13
   104    4.693838798752e-02
   105   -8.506412148178e-16
   106    3.369427454836e-02
   107    3.005941715141e-02
   108    6.202655578287e-15
   109   -5.560152375814e-15
   110    2.083894863776e-16
   111    1.267277658600e-15
   112    4.676941863797e-15
   113   -7.271385349621e-15
   114    1.511724918504e-01
   115   -1.104173201755e-14
   116   -2.348526375025e-15
   117   -4.356828987387e-17
   118    2.289636276556e-01
   119    6.661228602615e-14
   120   -2.997749249584e-16
   121   -3.628278545763e-14
   122    2.258006338121e-01
   123   -1.342429066045e-13
   124   -4.690711463650e-14
   125    1.308170789852e-13
   126    5.365035209782e-02
   127    7.205398451845e-16
   128   -8.427989269567e-03
   129   -5.765522216135e-03
   130   -1.967360925961e-16
   131    8.725275487177e-16
   132   -1.221826706011e-15
   133   -5.007755900018e-15
   134   -5.762616205659e-16
   135   -4.141201120050e-15
   136   -6.338762283475e-02
   137    2.873197221676e-14
   138   -9.502692401899e-16
   139   -1.056701545574e-14
   140   -9.925301766889e-02
   141   -8.162676665864e-14
   142   -1.741951615014e-14
   143    1.157053318873e-13
   144   -1.171159776840e-01
   145   -7.617877980877e-13
   146   -4.776944550381e-14
   147   -4.950796694186e-13
   148   -4.094891828022e-02
   149   -1.112568942419e-15
   150    3.101478562282e-03
   151    1.829232739038e-03
   152   -3.624052708949e-15
   153   -1.114562648361e-15
   154    9.922973058866e-16
   155    1.959475484608e-16
   156   -6.275760845815e-15
   157   -4.921746646183e-15
   158    1.547992275180e-01
   159    1.585922190005e-14
   160   -4.145123825667e-15
   161   -3.781051101229e-15
   162    2.437655440097e-01
   163   -2.365896711679e-13
   164   -9.583322514585e-14
   165   -7.145250232472e-14
   166    2.934589876308e-01
   167    2.023517169120e-13
   168   -7.704285476448e-13
   169   -1.772072287621e-13
   170    9.051307184682e-02
   171    4.341886856907e-15
   172   -5.509219502183e-03
   173    7.861830738836e-03
   174    1.221865010561e-15
   175   -8.609693252517e-16
   176    2.353739154140e-16
   177    5.537124763542e-16
   178   -4.842802575149e-17
   179   -1.691507268302e-16
   180   -1.217551956947e-01
   181   -1.839458137715e-14
   182    2.467597351974e-15
   183    5.704791174651e-15
   184   -2.007429555588e-01
   185    6.025884720596e-15
   186    2.205055349469e-13
   187   -4.623561670480e-14
   188   -2.209421327027e-01
   189   -1.077261606846e-11
   190    3.077657304366e-12
   191   -7.425907543715e-13
   192   -4.196805573014e-02
   193   -3.631797663837e-15
   194    1.370402069626e-02
   195    2.546635299034e-03
   196    3.468347009888e-15
   197   -3.179267111896e-15
   198    3.890736750321e-15
   199   -5.795736684073e-14
   200   -2.351631732140e-13
   201   -1.139099882857e-12
   202    8.801678483832e-15
   203   -6.148861612427e-15
   204   -9.120121320386e-03
[5D]
