[Molden Format]
[Atoms] (Angs)
  C      1    6     -0.00754183     -1.75895763      0.00000000
  H      2    1     -2.09769850     -1.41880678     -0.00000000
  H      3    1     -0.13527422     -2.83956838     -0.00000000
  H      4    1      0.04053511      2.02026369      0.00000000
  C      5    6     -1.22066484      0.39918184     -0.00000000
  O      6    8     -2.25210141      1.05663720     -0.00000000
  C      7    6      1.24009552      0.27789184      0.00000000
  O      8    8      2.33767996      1.06122493      0.00000000
  N      9    7      0.03634586      1.00852936      0.00000000
  N     10    7     -1.18738304     -0.97903470     -0.00000000
  C     11    6      1.22288875     -1.12258096      0.00000000
  H     12    1      2.15640383     -1.68445878      0.00000000
[GTO]
1    0
S    6    1.000000
   4.56324000E+03    1.96665000E-03 
   6.82024000E+02    1.52306000E-02 
   1.54973000E+02    7.61269000E-02 
   4.44553000E+01    2.60801000E-01 
   1.30290000E+01    6.16462000E-01 
   1.82773000E+00    2.21006000E-01 
SP   3    1.000000
   2.09642000E+01    1.14660000E-01   4.02487000E-02 
   4.80331000E+00    9.19999000E-01   2.37594000E-01 
   1.45933000E+00   -3.03068000E-03   8.15854000E-01 
SP   1    1.000000
   4.83456000E-01    1.00000000E+00   1.00000000E+00 
SP   1    1.000000
   1.45585000E-01    1.00000000E+00   1.00000000E+00 
SP   1    1.000000
   4.38000000E-02    1.00000000E+00   1.00000000E+00 
D    1    1.000000
   6.26000000E-01    1.00000000E+00 

2    0
S    3    1.000000
   3.38650000E+01    2.54938000E-02 
   5.09479000E+00    1.90373000E-01 
   1.15879000E+00    8.52161000E-01 
S    1    1.000000
   3.25840000E-01    1.00000000E+00 
S    1    1.000000
   1.02741000E-01    1.00000000E+00 
S    1    1.000000
   3.60000000E-02    1.00000000E+00 
P    1    1.000000
   7.50000000E-01    1.00000000E+00 

3    0
S    3    1.000000
   3.38650000E+01    2.54938000E-02 
   5.09479000E+00    1.90373000E-01 
   1.15879000E+00    8.52161000E-01 
S    1    1.000000
   3.25840000E-01    1.00000000E+00 
S    1    1.000000
   1.02741000E-01    1.00000000E+00 
S    1    1.000000
   3.60000000E-02    1.00000000E+00 
P    1    1.000000
   7.50000000E-01    1.00000000E+00 

4    0
S    3    1.000000
   3.38650000E+01    2.54938000E-02 
   5.09479000E+00    1.90373000E-01 
   1.15879000E+00    8.52161000E-01 
S    1    1.000000
   3.25840000E-01    1.00000000E+00 
S    1    1.000000
   1.02741000E-01    1.00000000E+00 
S    1    1.000000
   3.60000000E-02    1.00000000E+00 
P    1    1.000000
   7.50000000E-01    1.00000000E+00 

5    0
S    6    1.000000
   4.56324000E+03    1.96665000E-03 
   6.82024000E+02    1.52306000E-02 
   1.54973000E+02    7.61269000E-02 
   4.44553000E+01    2.60801000E-01 
   1.30290000E+01    6.16462000E-01 
   1.82773000E+00    2.21006000E-01 
SP   3    1.000000
   2.09642000E+01    1.14660000E-01   4.02487000E-02 
   4.80331000E+00    9.19999000E-01   2.37594000E-01 
   1.45933000E+00   -3.03068000E-03   8.15854000E-01 
SP   1    1.000000
   4.83456000E-01    1.00000000E+00   1.00000000E+00 
SP   1    1.000000
   1.45585000E-01    1.00000000E+00   1.00000000E+00 
SP   1    1.000000
   4.38000000E-02    1.00000000E+00   1.00000000E+00 
D    1    1.000000
   6.26000000E-01    1.00000000E+00 

6    0
S    6    1.000000
   8.58850000E+03    1.89515000E-03 
   1.29723000E+03    1.43859000E-02 
   2.99296000E+02    7.07320000E-02 
   8.73771000E+01    2.40001000E-01 
   2.56789000E+01    5.94797000E-01 
   3.74004000E+00    2.80802000E-01 
SP   3    1.000000
   4.21175000E+01    1.13889000E-01   3.65114000E-02 
   9.62837000E+00    9.20811000E-01   2.37153000E-01 
   2.85332000E+00   -3.27447000E-03   8.19702000E-01 
SP   1    1.000000
   9.05661000E-01    1.00000000E+00   1.00000000E+00 
SP   1    1.000000
   2.55611000E-01    1.00000000E+00   1.00000000E+00 
SP   1    1.000000
   8.45000000E-02    1.00000000E+00   1.00000000E+00 
D    1    1.000000
   1.29200000E+00    1.00000000E+00 

7    0
S    6    1.000000
   4.56324000E+03    1.96665000E-03 
   6.82024000E+02    1.52306000E-02 
   1.54973000E+02    7.61269000E-02 
   4.44553000E+01    2.60801000E-01 
   1.30290000E+01    6.16462000E-01 
   1.82773000E+00    2.21006000E-01 
SP   3    1.000000
   2.09642000E+01    1.14660000E-01   4.02487000E-02 
   4.80331000E+00    9.19999000E-01   2.37594000E-01 
   1.45933000E+00   -3.03068000E-03   8.15854000E-01 
SP   1    1.000000
   4.83456000E-01    1.00000000E+00   1.00000000E+00 
SP   1    1.000000
   1.45585000E-01    1.00000000E+00   1.00000000E+00 
SP   1    1.000000
   4.38000000E-02    1.00000000E+00   1.00000000E+00 
D    1    1.000000
   6.26000000E-01    1.00000000E+00 

8    0
S    6    1.000000
   8.58850000E+03    1.89515000E-03 
   1.29723000E+03    1.43859000E-02 
   2.99296000E+02    7.07320000E-02 
   8.73771000E+01    2.40001000E-01 
   2.56789000E+01    5.94797000E-01 
   3.74004000E+00    2.80802000E-01 
SP   3    1.000000
   4.21175000E+01    1.13889000E-01   3.65114000E-02 
   9.62837000E+00    9.20811000E-01   2.37153000E-01 
   2.85332000E+00   -3.27447000E-03   8.19702000E-01 
SP   1    1.000000
   9.05661000E-01    1.00000000E+00   1.00000000E+00 
SP   1    1.000000
   2.55611000E-01    1.00000000E+00   1.00000000E+00 
SP   1    1.000000
   8.45000000E-02    1.00000000E+00   1.00000000E+00 
D    1    1.000000
   1.29200000E+00    1.00000000E+00 

9    0
S    6    1.000000
   6.29348000E+03    1.96979000E-03 
   9.49044000E+02    1.49613000E-02 
   2.18776000E+02    7.35006000E-02 
   6.36916000E+01    2.48937000E-01 
   1.88282000E+01    6.02460000E-01 
   2.72023000E+00    2.56202000E-01 
SP   3    1.000000
   3.06331000E+01    1.11906000E-01   3.83119000E-02 
   7.02614000E+00    9.21666000E-01   2.37403000E-01 
   2.11205000E+00   -2.56919000E-03   8.17592000E-01 
SP   1    1.000000
   6.84009000E-01    1.00000000E+00   1.00000000E+00 
SP   1    1.000000
   2.00878000E-01    1.00000000E+00   1.00000000E+00 
SP   1    1.000000
   6.39000000E-02    1.00000000E+00   1.00000000E+00 
D    1    1.000000
   9.13000000E-01    1.00000000E+00 

10    0
S    6    1.000000
   6.29348000E+03    1.96979000E-03 
   9.49044000E+02    1.49613000E-02 
   2.18776000E+02    7.35006000E-02 
   6.36916000E+01    2.48937000E-01 
   1.88282000E+01    6.02460000E-01 
   2.72023000E+00    2.56202000E-01 
SP   3    1.000000
   3.06331000E+01    1.11906000E-01   3.83119000E-02 
   7.02614000E+00    9.21666000E-01   2.37403000E-01 
   2.11205000E+00   -2.56919000E-03   8.17592000E-01 
SP   1    1.000000
   6.84009000E-01    1.00000000E+00   1.00000000E+00 
SP   1    1.000000
   2.00878000E-01    1.00000000E+00   1.00000000E+00 
SP   1    1.000000
   6.39000000E-02    1.00000000E+00   1.00000000E+00 
D    1    1.000000
   9.13000000E-01    1.00000000E+00 

11    0
S    6    1.000000
   4.56324000E+03    1.96665000E-03 
   6.82024000E+02    1.52306000E-02 
   1.54973000E+02    7.61269000E-02 
   4.44553000E+01    2.60801000E-01 
   1.30290000E+01    6.16462000E-01 
   1.82773000E+00    2.21006000E-01 
SP   3    1.000000
   2.09642000E+01    1.14660000E-01   4.02487000E-02 
   4.80331000E+00    9.19999000E-01   2.37594000E-01 
   1.45933000E+00   -3.03068000E-03   8.15854000E-01 
SP   1    1.000000
   4.83456000E-01    1.00000000E+00   1.00000000E+00 
SP   1    1.000000
   1.45585000E-01    1.00000000E+00   1.00000000E+00 
SP   1    1.000000
   4.38000000E-02    1.00000000E+00   1.00000000E+00 
D    1    1.000000
   6.26000000E-01    1.00000000E+00 

12    0
S    3    1.000000
   3.38650000E+01    2.54938000E-02 
   5.09479000E+00    1.90373000E-01 
   1.15879000E+00    8.52161000E-01 
S    1    1.000000
   3.25840000E-01    1.00000000E+00 
S    1    1.000000
   1.02741000E-01    1.00000000E+00 
S    1    1.000000
   3.60000000E-02    1.00000000E+00 
P    1    1.000000
   7.50000000E-01    1.00000000E+00 

[MO]
Sym=X
Ene= -0.102327
Spin=Alpha
Occup=1
     1   -1.536504129686e-05
     2   -2.753481478879e-05
     3    7.655101322938e-06
     4   -5.317287725968e-05
     5    4.619607118145e-16
     6    9.282356056425e-05
     7   -1.863373983896e-05
     8   -5.890167129368e-05
     9   -8.566185684351e-16
    10    4.863887957489e-04
    11   -4.042719381614e-05
    12   -1.780577825815e-04
    13    2.057457097797e-16
    14    1.847806710498e-04
    15   -4.579008038342e-04
    16   -1.105879004623e-03
    17   -7.037453492530e-15
    18   -8.735264900264e-06
    19   -1.417794639700e-16
    20    5.555802068370e-16
    21    1.334459353415e-05
    22   -9.469623216668e-06
    23   -1.775910989361e-05
    24   -1.095618293628e-04
    25   -4.235213036945e-04
    26   -9.415198374334e-04
    27    2.337727162961e-06
    28    1.759513723274e-05
    29   -7.105959967771e-16
    30    4.865529327806e-06
    31   -4.725949753326e-05
    32   -3.008730103356e-04
    33   -1.588851425139e-03
    34    6.766470666917e-06
    35    8.677392734886e-06
    36    1.177223502464e-15
    37   -1.136972626373e-05
    38   -7.594538363873e-05
    39   -1.339778214380e-04
    40   -3.342838475733e-04
    41   -1.106947549956e-05
    42    3.306269907714e-06
    43   -4.719288853094e-16
    44   -4.813488145357e-06
    45    7.545261290438e-05
    46    5.282097643544e-05
    47   -3.599482061050e-05
    48   -1.845027112438e-15
    49   -2.751489906554e-04
    50    3.553672687679e-04
    51   -2.323694415379e-04
    52    2.814001334378e-15
    53   -3.620711242798e-05
    54    3.453997267902e-04
    55   -2.658025438642e-04
    56   -4.584413409118e-15
    57   -4.995793670653e-04
    58   -7.672686099045e-04
    59    2.586083605138e-04
    60   -1.529750998189e-15
    61    5.077760736735e-05
    62   -8.339480857114e-16
    63    7.756722113247e-17
    64   -9.212873829057e-05
    65    1.957644139603e-04
    66   -5.514896099146e-01
    67   -4.716860637961e-01
    68   -1.528987818956e-03
    69    1.015068762925e-03
    70   -8.389312627314e-16
    71   -5.480296258441e-03
    72    6.116120804275e-04
    73   -4.242921257006e-04
    74    7.140036388786e-16
    75    1.315332625060e-03
    76   -1.465238506438e-04
    77    1.035560566751e-04
    78   -7.478261978014e-16
    79   -1.512060443099e-03
    80   -1.024899504328e-04
    81    6.975872217559e-05
    82    1.078120838353e-15
    83    8.291453036121e-05
    84   -1.290840184872e-16
    85    1.098352740270e-15
    86    3.175734558328e-05
    87   -8.340386973756e-05
    88   -3.909794176642e-06
    89   -8.289323532706e-06
    90    8.471801377815e-06
    91   -1.520959219748e-05
    92    7.629494905415e-16
    93    3.866951752580e-05
    94   -1.145923106709e-05
    95   -4.738260772595e-06
    96    1.860829483415e-16
    97    1.793986548237e-04
    98    6.279876068667e-06
    99    4.453236853904e-05
   100   -7.086058309841e-16
   101   -1.113983057111e-03
   102   -3.078371358663e-04
   103    6.759519062570e-04
   104   -3.277724681744e-15
   105   -6.395776174650e-06
   106    3.158638808760e-16
   107    3.085072718149e-16
   108    4.160841349242e-06
   109   -8.350611018681e-06
   110    5.845976560698e-07
   111   -1.838333370023e-06
   112    2.517951268800e-06
   113    1.134540694939e-05
   114   -8.966960341259e-16
   115    1.879269078105e-05
   116    3.907775622793e-06
   117    1.414066317950e-05
   118    2.178709294277e-15
   119   -4.498579939471e-05
   120    1.326055820300e-05
   121    2.978522167261e-05
   122   -1.717486231413e-15
   123    1.795450693258e-04
   124   -4.148182020147e-05
   125   -1.457900920232e-05
   126    8.770978696811e-16
   127   -1.010202859816e-06
   128    2.658374849079e-16
   129   -1.598227153583e-16
   130   -1.026658991553e-06
   131    9.310986316947e-08
   132   -1.100993090020e-05
   133   -1.985995399900e-05
   134   -1.714072649789e-05
   135   -5.537520702496e-06
   136    3.891839347481e-16
   137    8.170435927810e-05
   138    2.105185944069e-05
   139   -9.867931924105e-06
   140   -1.813339247381e-15
   141   -6.005222797065e-05
   142   -6.245076093622e-05
   143    1.906441050586e-04
   144    3.492295393845e-15
   145    5.103683967183e-04
   146   -5.521218152550e-04
   147    1.941408737279e-05
   148    1.338758493318e-15
   149    5.383864092505e-06
   150    2.370624636089e-16
   151    1.134347405967e-15
   152   -1.844741293678e-05
   153   -1.000517487671e-05
   154   -1.947108396480e-05
   155   -3.431037678207e-05
   156   -3.750383426734e-05
   157   -8.630044029052e-06
   158   -8.935052164811e-16
   159    1.325411867398e-04
   160   -3.063065221431e-05
   161   -5.720980394235e-05
   162    2.093422462187e-16
   163    2.503703548850e-05
   164   -2.881460626028e-04
   165   -1.125998083736e-04
   166    9.025407290508e-16
   167    7.804427377219e-04
   168   -4.417834257552e-04
   169    4.191221609202e-04
   170    5.417491512792e-15
   171    4.119892380948e-06
   172   -2.026986837443e-16
   173   -3.188154848547e-16
   174    1.407041940449e-05
   175    5.075156769154e-06
   176   -1.010051772574e-05
   177   -1.671440604339e-05
   178    1.390621764124e-05
   179   -5.638639191704e-06
   180    9.194323873231e-17
   181    4.604741575627e-05
   182    3.446516988292e-05
   183   -1.055253603489e-05
   184    1.301924268024e-15
   185    2.334721541691e-04
   186   -2.108741669816e-05
   187    2.469752348700e-05
   188   -2.856592675332e-15
   189    3.433436596615e-03
   190   -1.731731514042e-04
   191    5.879169066963e-04
   192    7.541044286822e-15
   193   -8.736019540517e-06
   194    4.832021707741e-16
   195    5.109746782245e-17
   196   -1.094289500826e-05
   197    1.376077624724e-05
   198   -8.487150107629e-06
   199   -1.658553983851e-05
   200   -8.812782205451e-05
   201   -2.785301636682e-04
   202   -4.855561869709e-06
   203    4.049004947007e-06
   204    9.818028948393e-16
Sym=X
Ene= 0.102327
Spin=Alpha
Occup=0
     1    1.542474909693e-16
     2    1.649654068357e-15
     3   -8.893424953469e-16
     4   -7.196421787596e-15
     5    1.000721497059e-01
     6   -3.884849047407e-16
     7    8.708810658960e-15
     8    1.987919065936e-15
     9    1.657679043777e-01
    10   -1.882046689958e-13
    11   -1.378857247615e-14
    12   -2.103242163317e-13
    13    1.828240316482e-01
    14   -8.230236520377e-12
    15   -1.495018710348e-12
    16   -2.378976821670e-12
    17    2.529556690339e-02
    18   -1.127950166560e-15
    19    2.814836877869e-02
    20    5.826564391828e-03
    21   -1.600998678345e-15
    22    5.327747914820e-17
    23    4.712952134067e-15
    24   -3.614535191433e-14
    25    5.444403505153e-13
    26   -2.088964370749e-13
    27   -8.015036356608e-16
    28    1.339733487536e-15
    29   -1.469593066710e-02
    30    1.315709158826e-16
    31   -4.492751761050e-15
    32   -2.486491318662e-13
    33   -7.531549439914e-13
    34   -5.853466939853e-15
    35    2.247521823408e-16
    36    6.567442328243e-03
    37   -8.314448112612e-15
    38    6.651063415069e-14
    39   -3.009527522891e-13
    40    6.624764429942e-14
    41    3.787007109020e-15
    42   -1.283762661602e-15
    43    2.770823503126e-03
    44    9.189676593528e-16
    45    1.703216383319e-16
    46    2.898436153645e-15
    47    4.297662237877e-15
    48   -2.046670599338e-02
    49    5.049468587976e-16
    50   -8.714825132804e-16
    51    3.876515704251e-15
    52   -4.216512374638e-02
    53   -1.034567979483e-13
    54   -1.103998130379e-13
    55    2.052464073554e-13
    56   -2.376238190626e-03
    57    2.030539895282e-12
    58    1.769610666936e-13
    59   -8.761758787821e-13
    60    2.706427349762e-02
    61    6.232424702776e-15
    62   -1.439055326542e-03
    63    3.366582854797e-02
    64   -7.547343623152e-16
    65   -1.634387390607e-15
    66    3.240256798027e-16
    67    5.768028002792e-16
    68   -2.478688648844e-15
    69   -2.440487528400e-15
    70    8.984580560735e-02
    71   -1.499883231136e-15
    72    4.319855775065e-15
    73    4.747320351186e-15
    74    1.128611501759e-01
    75   -3.450243927498e-14
    76   -3.110661395965e-14
    77   -2.321343294646e-14
    78    9.006443567382e-02
    79   -2.201357355967e-13
    80   -1.092099478455e-13
    81    2.966790319964e-14
    82    8.751401280237e-03
    83    2.188947572467e-16
    84    2.903520301354e-03
    85   -6.196936090090e-04
    86    3.585810516601e-17
    87   -2.750748734980e-16
    88   -1.400890579708e-15
    89   -4.639075199109e-15
    90   -2.880353915044e-15
    91   -2.200479252790e-15
    92   -1.286252583094e-02
    93    1.415144185980e-14
    94    1.852542133642e-14
    95   -1.827533604009e-14
    96   -2.425413209655e-02
    97   -5.151833756433e-14
    98    9.900061590247e-14
    99    1.286185429031e-14
   100   -5.620877022774e-02
   101   -5.179552568719e-12
   102    5.205240683515e-13
   103    9.578918176472e-13
   104   -4.163892593341e-02
   105    9.241074671840e-16
   106   -2.912453835351e-02
   107   -3.390427104523e-02
   108   -6.224083917307e-15
   109    4.982169096353e-15
   110   -3.650262613471e-16
   111   -1.737482063912e-15
   112   -4.853724961946e-15
   113    7.644778099881e-15
   114   -1.432981545576e-01
   115    1.307077278255e-14
   116    2.436909177691e-15
   117   -6.761749021624e-16
   118   -2.166970327702e-01
   119   -6.927807666466e-14
   120   -3.276950233125e-15
   121    4.130587632594e-14
   122   -2.154025446186e-01
   123    2.016705868336e-13
   124    5.849593551639e-14
   125   -1.506222047149e-13
   126   -5.184453073815e-02
   127   -3.369230832523e-16
   128    8.351677830455e-03
   129    4.784652424540e-03
   130    6.045625685045e-16
   131   -7.634946771990e-16
   132    1.568549150402e-15
   133    5.297727220944e-15
   134    2.016457135838e-15
   135    3.802118222984e-15
   136    3.599066436854e-02
   137   -2.699988499742e-14
   138    1.968252625574e-15
   139    1.150254796229e-14
   140    5.542811634546e-02
   141    4.547618937835e-14
   142    3.436804846330e-14
   143   -1.143907765002e-13
   144    7.342762582446e-02
   145    5.754560421029e-13
   146    2.953930961363e-15
   147    3.770699931226e-13
   148    2.712701468182e-02
   149    1.724712247887e-15
   150   -1.873708088996e-03
   151   -5.049532878808e-04
   152    3.886138327524e-15
   153    7.518580324480e-16
   154   -8.702762967916e-16
   155   -2.399292604270e-16
   156    6.747175832392e-15
   157    5.719411127527e-15
   158   -1.376864467137e-01
   159   -1.549242957519e-14
   160    6.123346814887e-15
   161    5.120471736361e-15
   162   -2.162756019690e-01
   163    2.240157504980e-13
   164    7.288897614727e-14
   165    6.877059023524e-14
   166   -2.644650498094e-01
   167   -3.291123842774e-13
   168    7.185400064997e-13
   169    4.354642971316e-14
   170   -8.683913159574e-02
   171   -4.947407439853e-15
   172    8.477058040521e-03
   173   -1.002121087089e-02
   174   -1.471488925779e-15
   175    1.941207025768e-15
   176   -5.545544403106e-16
   177   -1.253585495983e-15
   178    3.754337101895e-16
   179   -1.649630011931e-15
   180    1.377512841246e-01
   181    2.119881773929e-14
   182    8.901918690923e-17
   183   -3.241378423872e-15
   184    2.279463795653e-01
   185   -2.625653077274e-14
   186   -1.931119822540e-13
   187   -1.477598067293e-14
   188    2.381248167635e-01
   189    1.078312100616e-11
   190   -2.878719544828e-12
   191    1.081969725053e-12
   192    4.136966477508e-02
   193    2.226277259370e-15
   194   -1.678519248972e-02
   195   -1.710082215570e-03
   196   -2.554782921324e-15
   197    2.297034644114e-15
   198   -2.998923704344e-15
   199    4.608927084766e-14
   200    2.176917327814e-13
   201    1.226543668177e-12
   202   -7.199962847311e-15
   203    4.784637940035e-15
   204    1.012537639357e-02
[5D]
