[Molden Format]
[Atoms] (Angs)
  C      1    6     -0.00714236     -1.70213747     -0.00000000
  H      2    1     -2.06882847     -1.44022412      0.00000000
  H      3    1     -0.12337987     -2.77567521      0.00000000
  H      4    1      0.04651892      1.98813947     -0.00000000
  C      5    6     -1.21953563      0.40211669      0.00000000
  O      6    8     -2.25921553      1.03043814      0.00000000
  C      7    6      1.28797806      0.34644937     -0.00000000
  O      8    8      2.31273661      1.00537216     -0.00000000
  N      9    7      0.03446295      0.97739857     -0.00000000
  N     10    7     -1.17287765     -0.98229824      0.00000000
  C     11    6      1.20107039     -1.10433419     -0.00000000
  H     12    1      2.11220096     -1.67699125     -0.00000000
[GTO]
1    0
S    6    1.000000
   4.56324000E+03    1.96665000E-03 
   6.82024000E+02    1.52306000E-02 
   1.54973000E+02    7.61269000E-02 
   4.44553000E+01    2.60801000E-01 
   1.30290000E+01    6.16462000E-01 
   1.82773000E+00    2.21006000E-01 
SP   3    1.000000
   2.09642000E+01    1.14660000E-01   4.02487000E-02 
   4.80331000E+00    9.19999000E-01   2.37594000E-01 
   1.45933000E+00   -3.03068000E-03   8.15854000E-01 
SP   1    1.000000
   4.83456000E-01    1.00000000E+00   1.00000000E+00 
SP   1    1.000000
   1.45585000E-01    1.00000000E+00   1.00000000E+00 
SP   1    1.000000
   4.38000000E-02    1.00000000E+00   1.00000000E+00 
D    1    1.000000
   6.26000000E-01    1.00000000E+00 

2    0
S    3    1.000000
   3.38650000E+01    2.54938000E-02 
   5.09479000E+00    1.90373000E-01 
   1.15879000E+00    8.52161000E-01 
S    1    1.000000
   3.25840000E-01    1.00000000E+00 
S    1    1.000000
   1.02741000E-01    1.00000000E+00 
S    1    1.000000
   3.60000000E-02    1.00000000E+00 
P    1    1.000000
   7.50000000E-01    1.00000000E+00 

3    0
S    3    1.000000
   3.38650000E+01    2.54938000E-02 
   5.09479000E+00    1.90373000E-01 
   1.15879000E+00    8.52161000E-01 
S    1    1.000000
   3.25840000E-01    1.00000000E+00 
S    1    1.000000
   1.02741000E-01    1.00000000E+00 
S    1    1.000000
   3.60000000E-02    1.00000000E+00 
P    1    1.000000
   7.50000000E-01    1.00000000E+00 

4    0
S    3    1.000000
   3.38650000E+01    2.54938000E-02 
   5.09479000E+00    1.90373000E-01 
   1.15879000E+00    8.52161000E-01 
S    1    1.000000
   3.25840000E-01    1.00000000E+00 
S    1    1.000000
   1.02741000E-01    1.00000000E+00 
S    1    1.000000
   3.60000000E-02    1.00000000E+00 
P    1    1.000000
   7.50000000E-01    1.00000000E+00 

5    0
S    6    1.000000
   4.56324000E+03    1.96665000E-03 
   6.82024000E+02    1.52306000E-02 
   1.54973000E+02    7.61269000E-02 
   4.44553000E+01    2.60801000E-01 
   1.30290000E+01    6.16462000E-01 
   1.82773000E+00    2.21006000E-01 
SP   3    1.000000
   2.09642000E+01    1.14660000E-01   4.02487000E-02 
   4.80331000E+00    9.19999000E-01   2.37594000E-01 
   1.45933000E+00   -3.03068000E-03   8.15854000E-01 
SP   1    1.000000
   4.83456000E-01    1.00000000E+00   1.00000000E+00 
SP   1    1.000000
   1.45585000E-01    1.00000000E+00   1.00000000E+00 
SP   1    1.000000
   4.38000000E-02    1.00000000E+00   1.00000000E+00 
D    1    1.000000
   6.26000000E-01    1.00000000E+00 

6    0
S    6    1.000000
   8.58850000E+03    1.89515000E-03 
   1.29723000E+03    1.43859000E-02 
   2.99296000E+02    7.07320000E-02 
   8.73771000E+01    2.40001000E-01 
   2.56789000E+01    5.94797000E-01 
   3.74004000E+00    2.80802000E-01 
SP   3    1.000000
   4.21175000E+01    1.13889000E-01   3.65114000E-02 
   9.62837000E+00    9.20811000E-01   2.37153000E-01 
   2.85332000E+00   -3.27447000E-03   8.19702000E-01 
SP   1    1.000000
   9.05661000E-01    1.00000000E+00   1.00000000E+00 
SP   1    1.000000
   2.55611000E-01    1.00000000E+00   1.00000000E+00 
SP   1    1.000000
   8.45000000E-02    1.00000000E+00   1.00000000E+00 
D    1    1.000000
   1.29200000E+00    1.00000000E+00 

7    0
S    6    1.000000
   4.56324000E+03    1.96665000E-03 
   6.82024000E+02    1.52306000E-02 
   1.54973000E+02    7.61269000E-02 
   4.44553000E+01    2.60801000E-01 
   1.30290000E+01    6.16462000E-01 
   1.82773000E+00    2.21006000E-01 
SP   3    1.000000
   2.09642000E+01    1.14660000E-01   4.02487000E-02 
   4.80331000E+00    9.19999000E-01   2.37594000E-01 
   1.45933000E+00   -3.03068000E-03   8.15854000E-01 
SP   1    1.000000
   4.83456000E-01    1.00000000E+00   1.00000000E+00 
SP   1    1.000000
   1.45585000E-01    1.00000000E+00   1.00000000E+00 
SP   1    1.000000
   4.38000000E-02    1.00000000E+00   1.00000000E+00 
D    1    1.000000
   6.26000000E-01    1.00000000E+00 

8    0
S    6    1.000000
   8.58850000E+03    1.89515000E-03 
   1.29723000E+03    1.43859000E-02 
   2.99296000E+02    7.07320000E-02 
   8.73771000E+01    2.40001000E-01 
   2.56789000E+01    5.94797000E-01 
   3.74004000E+00    2.80802000E-01 
SP   3    1.000000
   4.21175000E+01    1.13889000E-01   3.65114000E-02 
   9.62837000E+00    9.20811000E-01   2.37153000E-01 
   2.85332000E+00   -3.27447000E-03   8.19702000E-01 
SP   1    1.000000
   9.05661000E-01    1.00000000E+00   1.00000000E+00 
SP   1    1.000000
   2.55611000E-01    1.00000000E+00   1.00000000E+00 
SP   1    1.000000
   8.45000000E-02    1.00000000E+00   1.00000000E+00 
D    1    1.000000
   1.29200000E+00    1.00000000E+00 

9    0
S    6    1.000000
   6.29348000E+03    1.96979000E-03 
   9.49044000E+02    1.49613000E-02 
   2.18776000E+02    7.35006000E-02 
   6.36916000E+01    2.48937000E-01 
   1.88282000E+01    6.02460000E-01 
   2.72023000E+00    2.56202000E-01 
SP   3    1.000000
   3.06331000E+01    1.11906000E-01   3.83119000E-02 
   7.02614000E+00    9.21666000E-01   2.37403000E-01 
   2.11205000E+00   -2.56919000E-03   8.17592000E-01 
SP   1    1.000000
   6.84009000E-01    1.00000000E+00   1.00000000E+00 
SP   1    1.000000
   2.00878000E-01    1.00000000E+00   1.00000000E+00 
SP   1    1.000000
   6.39000000E-02    1.00000000E+00   1.00000000E+00 
D    1    1.000000
   9.13000000E-01    1.00000000E+00 

10    0
S    6    1.000000
   6.29348000E+03    1.96979000E-03 
   9.49044000E+02    1.49613000E-02 
   2.18776000E+02    7.35006000E-02 
   6.36916000E+01    2.48937000E-01 
   1.88282000E+01    6.02460000E-01 
   2.72023000E+00    2.56202000E-01 
SP   3    1.000000
   3.06331000E+01    1.11906000E-01   3.83119000E-02 
   7.02614000E+00    9.21666000E-01   2.37403000E-01 
   2.11205000E+00   -2.56919000E-03   8.17592000E-01 
SP   1    1.000000
   6.84009000E-01    1.00000000E+00   1.00000000E+00 
SP   1    1.000000
   2.00878000E-01    1.00000000E+00   1.00000000E+00 
SP   1    1.000000
   6.39000000E-02    1.00000000E+00   1.00000000E+00 
D    1    1.000000
   9.13000000E-01    1.00000000E+00 

11    0
S    6    1.000000
   4.56324000E+03    1.96665000E-03 
   6.82024000E+02    1.52306000E-02 
   1.54973000E+02    7.61269000E-02 
   4.44553000E+01    2.60801000E-01 
   1.30290000E+01    6.16462000E-01 
   1.82773000E+00    2.21006000E-01 
SP   3    1.000000
   2.09642000E+01    1.14660000E-01   4.02487000E-02 
   4.80331000E+00    9.19999000E-01   2.37594000E-01 
   1.45933000E+00   -3.03068000E-03   8.15854000E-01 
SP   1    1.000000
   4.83456000E-01    1.00000000E+00   1.00000000E+00 
SP   1    1.000000
   1.45585000E-01    1.00000000E+00   1.00000000E+00 
SP   1    1.000000
   4.38000000E-02    1.00000000E+00   1.00000000E+00 
D    1    1.000000
   6.26000000E-01    1.00000000E+00 

12    0
S    3    1.000000
   3.38650000E+01    2.54938000E-02 
   5.09479000E+00    1.90373000E-01 
   1.15879000E+00    8.52161000E-01 
S    1    1.000000
   3.25840000E-01    1.00000000E+00 
S    1    1.000000
   1.02741000E-01    1.00000000E+00 
S    1    1.000000
   3.60000000E-02    1.00000000E+00 
P    1    1.000000
   7.50000000E-01    1.00000000E+00 

[MO]
Sym=X
Ene= 2.000000
Spin=Alpha
Occup=1
     1   -1.157214851504e-01
     2   -9.588184289791e-02
     3    4.021252374561e-04
     4    2.039767267317e-05
     5   -3.301250912234e-15
     6   -6.116900057012e-04
     7   -3.482983258231e-04
     8    3.536715500583e-05
     9   -1.748750655053e-15
    10   -1.690675169615e-04
    11    2.735320302749e-04
    12    1.331064674418e-04
    13   -5.242647774784e-15
    14   -1.254153946325e-03
    15   -5.254634434700e-05
    16   -5.480391598882e-04
    17    9.412388545704e-15
    18    1.821189036015e-04
    19   -1.412687112869e-15
    20   -8.863569462443e-16
    21   -7.969383635221e-06
    22   -1.283937721112e-04
    23    2.772341916313e-05
    24    2.755135989864e-05
    25    6.933944605460e-05
    26    8.143701522732e-05
    27    2.579568119190e-05
    28    2.155811209882e-05
    29   -1.970134806763e-16
    30   -8.752604535316e-05
    31    1.444593137768e-04
    32   -1.407048650735e-04
    33   -2.032202198385e-04
    34    3.365132502583e-06
    35    2.185799199332e-05
    36   -1.061659945592e-15
    37   -8.914149729143e-06
    38    4.290759086195e-05
    39   -1.352372607914e-04
    40    2.403816257790e-05
    41   -1.297163729109e-05
    42   -3.443405925106e-05
    43    6.453277847624e-17
    44    3.479161765194e-01
    45    2.880784995694e-01
    46    3.972222454588e-04
    47   -2.949484178751e-04
    48   -1.708380844839e-15
    49    2.222661472197e-03
    50   -4.805160866653e-04
    51    3.149104500315e-04
    52    9.414065882671e-16
    53    1.798150118532e-04
    54    8.006864021803e-05
    55   -1.132145954443e-05
    56    1.380818285767e-15
    57   -1.132110645108e-03
    58   -6.752494874482e-04
    59    2.604762383941e-04
    60   -3.768389906073e-16
    61   -2.544108383999e-04
    62    4.141279814747e-16
    63    4.254773983383e-16
    64    1.124564869463e-04
    65   -2.108275356872e-04
    66   -4.484730487071e-02
    67   -3.842772504415e-02
    68    2.713530796976e-05
    69   -1.445815379115e-05
    70   -6.477455732333e-16
    71   -1.196667348607e-04
    72    2.644028684849e-04
    73   -1.582528546144e-04
    74    3.856958963400e-15
    75   -4.332877599618e-04
    76   -3.131676759239e-04
    77    1.837159369501e-04
    78   -2.863959168042e-15
    79    4.381714385166e-04
    80    4.211682684605e-04
    81   -2.364677688528e-04
    82    2.250821600972e-15
    83   -2.015770861869e-05
    84    2.446123546117e-16
    85   -5.825309135881e-16
    86    4.720459511138e-05
    87   -9.016774425652e-05
    88   -1.641027810567e-01
    89   -1.359462179311e-01
    90    2.314093355350e-04
    91   -2.551246773070e-04
    92   -2.753568979962e-15
    93   -7.657463978748e-04
    94   -2.411219471620e-04
    95   -1.499993381774e-04
    96   -2.892129498269e-15
    97   -9.912899233783e-05
    98   -3.627354432296e-05
    99   -4.276391605424e-04
   100   -2.281107832257e-15
   101   -2.253305781336e-04
   102   -2.812507716601e-04
   103   -7.640958645253e-05
   104    1.140255457514e-14
   105    1.301391348969e-04
   106   -1.570353081060e-15
   107   -3.935009124567e-16
   108   -8.554350815997e-05
   109   -8.273409985390e-05
   110    7.448261032337e-02
   111    6.373926429602e-02
   112   -1.342227974824e-04
   113   -6.233196373836e-05
   114   -3.466377445468e-15
   115    5.685923610910e-04
   116    1.734441411102e-04
   117    1.077716259057e-04
   118   -2.261694937069e-15
   119    2.322588396959e-04
   120   -2.072322514654e-04
   121   -6.328628182805e-05
   122   -2.135915965716e-15
   123    2.887279231498e-05
   124    1.515005264287e-04
   125    7.710135837024e-05
   126   -4.520381736384e-15
   127   -6.729357160201e-06
   128   -3.471548549944e-16
   129   -7.323379091474e-17
   130   -2.616269442389e-05
   131   -4.506651177428e-05
   132   -3.463465141810e-02
   133   -2.911150275860e-02
   134   -9.615184945911e-05
   135   -2.629156904911e-06
   136   -5.208646253298e-16
   137   -2.015451892671e-04
   138   -4.503164681627e-04
   139   -9.406835987785e-05
   140    3.555234241884e-16
   141   -4.407001037125e-05
   142    2.995653383976e-04
   143    7.273893975451e-05
   144   -1.863221901892e-15
   145    1.717856676615e-04
   146    2.321250148730e-04
   147    1.484621087664e-04
   148   -1.866939687909e-15
   149   -5.771751965100e-06
   150    5.237875799785e-16
   151    5.461238132615e-16
   152    5.020746517387e-05
   153    1.257659830976e-04
   154    4.551550320076e-02
   155    3.818491061910e-02
   156   -1.264280111774e-05
   157    9.168995936983e-05
   158   -3.723324100097e-15
   159    6.231276316525e-04
   160   -1.336425801411e-04
   161    4.298589958201e-04
   162   -3.313811607447e-15
   163   -2.543695263828e-04
   164    3.835386003292e-05
   165   -1.841927438841e-04
   166   -3.363586087724e-15
   167    9.282633369220e-04
   168    4.383773000779e-04
   169   -3.273559826572e-05
   170   -5.492886754160e-15
   171   -1.218260228041e-05
   172   -1.210031354270e-15
   173    4.205839940115e-16
   174   -1.557140661179e-04
   175    3.663427020276e-05
   176    3.806576567434e-01
   177    3.152977906599e-01
   178   -5.301900921020e-05
   179    1.386455273700e-04
   180   -1.949752328663e-15
   181    3.152867964720e-03
   182   -2.337375178737e-04
   183   -3.118902173637e-04
   184   -4.020144211074e-15
   185   -1.027319784835e-03
   186    1.930874137770e-04
   187   -1.653442409509e-04
   188    4.520124562469e-16
   189    1.331455360227e-03
   190   -8.090259073290e-04
   191    6.606538275370e-04
   192   -1.149806949879e-14
   193   -2.900742786642e-04
   194   -4.354335839584e-16
   195   -2.624469267789e-16
   196    1.770278602069e-04
   197    8.329419564779e-05
   198    2.758618600485e-04
   199   -2.372787845263e-04
   200    4.171081916774e-04
   201    5.868068715087e-04
   202    3.981595217379e-05
   203   -3.578224283621e-05
   204    1.399980354269e-17
Sym=X
Ene= 2.000000
Spin=Alpha
Occup=1
     1   -1.145107449082e-01
     2   -9.484806537031e-02
     3    1.307271845076e-04
     4   -3.983045539022e-05
     5    1.738722132392e-15
     6   -7.627785668827e-04
     7   -3.399178568707e-04
     8    8.841722912690e-05
     9    2.069613425770e-15
    10    4.225016140787e-04
    11   -3.368516929073e-05
    12    3.593485141388e-04
    13   -1.208706453020e-15
    14    4.970365534927e-04
    15   -2.790474018833e-04
    16   -2.837204147868e-04
    17    1.052524234716e-15
    18    8.162818609722e-05
    19   -2.152954486193e-17
    20    7.018056198682e-16
    21    8.447708439996e-06
    22   -1.529932216726e-04
    23    1.569990831386e-04
    24   -2.482561184500e-04
    25    4.851164403899e-04
    26   -1.539943764377e-05
    27   -7.313292358131e-05
    28   -3.847712187460e-05
    29   -7.316249728859e-17
    30   -8.789133152708e-05
    31    1.286855400856e-04
    32   -4.078114568048e-05
    33   -2.708993341001e-04
    34   -1.416686887308e-06
    35    1.855435904407e-05
    36    1.043214823170e-16
    37   -1.386037766701e-04
    38    5.711109739653e-06
    39   -5.291699850466e-04
    40   -2.956134210041e-04
    41   -2.336800322842e-07
    42    2.166905314859e-05
    43    2.762676081803e-16
    44   -1.440305032885e-01
    45   -1.192319176905e-01
    46   -1.806205974900e-04
    47    1.214167408755e-05
    48    1.334060945769e-14
    49   -1.007500780827e-03
    50    2.329521797046e-04
    51   -3.487802321364e-04
    52    2.098621884197e-14
    53    5.093689317268e-04
    54    4.568794434042e-04
    55   -5.414599116971e-04
    56    1.236537893226e-14
    57   -1.600853017030e-05
    58   -1.079665875939e-04
    59   -1.698048141355e-04
    60    6.124315803922e-15
    61    1.231850705216e-04
    62   -1.234082818975e-15
    63    1.050104366751e-15
    64   -1.848796058183e-04
    65    9.081296615504e-05
    66   -1.675095229901e-01
    67   -1.432385065656e-01
    68   -5.327565256787e-04
    69    3.404019103629e-04
    70    1.453270945409e-14
    71   -1.836035250512e-03
    72    8.602481128321e-05
    73   -6.763387150969e-05
    74    1.975911575450e-14
    75    7.238557555353e-04
    76    1.420404579743e-04
    77   -1.136042493447e-05
    78    2.065987540956e-14
    79   -3.379648891091e-04
    80   -9.483667563493e-05
    81    8.166495323020e-05
    82   -3.779328283716e-15
    83    3.757484633857e-05
    84    1.205560395856e-15
    85   -9.743215566992e-16
    86   -1.456501567921e-05
    87    1.307921333105e-05
    88   -1.982676735936e-01
    89   -1.641462902187e-01
    90    3.025368461533e-04
    91   -1.683303031039e-04
    92    1.491485889860e-16
    93   -1.478953443071e-03
    94   -2.328473985695e-04
    95    1.057878617751e-04
    96   -2.408539219612e-15
    97    9.610886107251e-04
    98    1.711569288394e-04
    99   -2.252414996782e-04
   100   -1.118062343128e-15
   101    5.148530078902e-03
   102   -8.623963851965e-04
   103   -1.114595862175e-03
   104   -2.122699193338e-15
   105    1.256066986593e-04
   106   -1.057707356164e-15
   107   -8.829691148241e-17
   108    3.105183361394e-06
   109   -1.364070478083e-04
   110    2.439253383195e-02
   111    2.090181189115e-02
   112    1.327804886435e-05
   113    1.663944833613e-05
   114   -3.131909314568e-15
   115    6.692017551072e-05
   116    1.634885745005e-04
   117    1.052809131786e-04
   118   -6.650056046340e-15
   119    2.809795068548e-05
   120   -1.046706802604e-04
   121   -2.166797974346e-05
   122   -4.541939637352e-15
   123   -3.413373484865e-04
   124    1.820915649602e-04
   125    2.228941214537e-04
   126    1.086459311202e-15
   127    1.281515786455e-05
   128    1.455893494851e-16
   129   -7.689434709425e-17
   130   -2.509627607995e-05
   131   -6.049085234196e-05
   132   -2.592606047335e-01
   133   -2.176394661077e-01
   134    8.106968000219e-05
   135    1.114729655631e-04
   136    1.022571371806e-14
   137   -2.838273455289e-03
   138   -1.259601394880e-04
   139    1.122394236511e-04
   140    1.603166728540e-14
   141    4.862924302831e-04
   142    1.367482177521e-05
   143    1.970332556712e-04
   144    1.557004367267e-14
   145   -1.828568398887e-03
   146   -2.701663936173e-04
   147    1.264632932241e-03
   148   -2.619278839628e-15
   149    3.461064422295e-05
   150   -4.002852764792e-16
   151   -1.099252622299e-15
   152   -1.046816653435e-04
   153    3.565990011832e-05
   154    3.686871903866e-01
   155    3.096221139293e-01
   156    9.524449421887e-05
   157   -8.945149125432e-06
   158    7.577121958707e-15
   159    3.518993454719e-03
   160   -1.816028629932e-04
   161   -7.726009941778e-05
   162    1.447334288507e-14
   163   -1.261294981483e-03
   164   -3.481462291727e-04
   165   -2.872983433081e-04
   166    1.147354596407e-14
   167    5.553266078229e-04
   168    5.841816123378e-04
   169    5.755579587830e-04
   170   -1.723307910657e-15
   171    2.152730932222e-05
   172    6.044146311991e-17
   173    1.019197343186e-15
   174    6.443708985396e-05
   175    7.746841413474e-05
   176   -8.319254524052e-02
   177   -6.887723246951e-02
   178    6.818994050599e-05
   179   -6.312384265508e-05
   180   -6.666250586068e-16
   181   -8.267606869889e-04
   182   -1.485321351150e-05
   183   -6.273207349175e-05
   184   -2.410104047137e-15
   185   -5.552736640997e-05
   186    3.986589452240e-05
   187   -2.137270561139e-04
   188   -1.424696936610e-15
   189   -3.729242289546e-03
   190    6.957356717479e-04
   191   -1.005735848162e-03
   192   -1.576953709873e-16
   193    1.143675945239e-05
   194    5.339637458902e-16
   195    6.390227463447e-16
   196    2.122730623311e-05
   197   -3.377302193048e-05
   198   -6.326071414705e-05
   199    5.973002976635e-06
   200   -1.704578114319e-04
   201   -3.062609938840e-04
   202    1.362013129599e-05
   203    6.919046832889e-07
   204   -1.718283463400e-16
Sym=X
Ene= 2.000000
Spin=Alpha
Occup=1
     1   -2.483391185970e-01
     2   -2.056241075722e-01
     3    4.196302640214e-04
     4   -1.915818296273e-04
     5   -1.555333835059e-15
     6   -2.070919442472e-03
     7   -4.700575954272e-04
     8   -4.894589155562e-05
     9   -2.455202738623e-15
    10    8.039628951569e-04
    11    3.294235697965e-04
    12   -1.648851123952e-05
    13   -9.114345626417e-16
    14    8.683978632454e-03
    15    3.157234840392e-04
    16    2.020296492129e-03
    17   -2.065793887840e-15
    18    1.519943365493e-04
    19    9.210554701204e-16
    20   -6.466374045880e-16
    21   -5.285325049786e-05
    22   -2.176358556976e-04
    23   -8.278825110049e-05
    24   -9.566837347562e-06
    25   -2.797151675261e-04
    26   -5.240564990788e-04
    27   -2.606343478726e-05
    28    1.826730964531e-05
    29   -3.461850354844e-16
    30   -1.643604438329e-04
    31   -2.059977081509e-05
    32   -1.034210873467e-04
    33    4.034117461622e-04
    34   -3.476315128254e-05
    35   -1.822913359042e-05
    36    8.357297834857e-18
    37    6.108168161007e-05
    38   -1.714186984995e-04
    39    1.826130599934e-04
    40    8.038863805383e-05
    41   -8.850482529856e-06
    42    6.468976326183e-05
    43   -7.976738105634e-16
    44    6.547528613847e-02
    45    5.421784652724e-02
    46    1.130107982755e-04
    47   -1.608664889376e-05
    48   -7.426817715696e-15
    49    3.836370326251e-04
    50   -5.867376507803e-05
    51    1.591930507906e-04
    52   -1.196607932109e-14
    53    1.004791562457e-03
    54    5.218118962106e-04
    55   -1.554699652570e-04
    56   -5.939885843433e-15
    57   -1.763910988566e-03
    58   -5.056084366678e-04
    59    7.599661940256e-05
    60   -4.366155147524e-15
    61   -6.072024376782e-05
    62    2.020379506348e-16
    63   -1.554917650051e-16
    64    6.688184564242e-05
    65   -1.427258378972e-05
    66    4.032591024729e-03
    67    3.437453467253e-03
    68    3.736199718424e-05
    69   -3.044230468878e-05
    70   -7.877495286533e-15
    71    8.916613193115e-05
    72    2.631673005560e-05
    73   -1.008723647821e-05
    74   -1.175742806720e-14
    75   -5.861128451525e-05
    76   -7.810629122187e-05
    77   -5.866669424249e-06
    78   -1.070177247077e-14
    79    2.147391315839e-04
    80    1.017994293486e-04
    81   -3.641330052434e-06
    82    1.369115837426e-15
    83   -5.681814183412e-06
    84   -7.265740861267e-16
    85    7.631482079525e-16
    86    7.154488921445e-06
    87   -1.172788495254e-05
    88   -3.595770925805e-01
    89   -2.977030228307e-01
    90    4.386998536031e-04
    91   -2.316590922174e-04
    92   -2.457617708003e-15
    93   -2.542021308700e-03
    94   -6.672334040037e-04
    95    2.111227344164e-04
    96   -1.637411739898e-15
    97    2.392853753421e-04
    98   -2.336770776316e-04
    99   -6.087621890382e-04
   100   -3.735283800449e-15
   101    8.386318951013e-03
   102   -1.258683932985e-03
   103   -1.794954452234e-03
   104    1.574513325787e-15
   105    2.768431940599e-04
   106    2.214732571408e-16
   107   -1.289698366524e-16
   108    9.401312732021e-05
   109   -3.518680641843e-04
   110   -1.078451840378e-01
   111   -9.216308543088e-02
   112    4.586684857446e-04
   113    2.733158746755e-04
   114   -1.577105132423e-15
   115   -1.452118143405e-03
   116    1.136305818471e-04
   117    1.031569135582e-04
   118   -1.159443106001e-15
   119    8.457595639188e-04
   120   -2.636602891826e-04
   121   -1.693729168902e-04
   122   -9.839921734507e-16
   123   -5.904359217908e-04
   124    2.689346492704e-04
   125    3.597526730741e-04
   126    4.434209766397e-17
   127    5.046639677278e-05
   128    5.984507444633e-16
   129    5.220256814781e-18
   130   -2.280943176410e-05
   131   -8.700739557415e-05
   132    1.673498607750e-01
   133    1.405715121131e-01
   134   -1.053787003616e-04
   135   -2.527040669998e-05
   136   -6.153132653347e-15
   137    1.458553259935e-03
   138   -4.395692964802e-04
   139    1.920299047984e-04
   140   -9.694967094990e-15
   141   -6.853786259236e-04
   142    4.349441283550e-04
   143    3.626528269195e-04
   144   -9.180477283002e-15
   145   -1.575447342028e-04
   146   -1.741403088134e-04
   147   -1.319864608458e-04
   148    1.889970755491e-15
   149    4.022516673368e-05
   150    2.509656283659e-16
   151    6.367114286601e-16
   152   -1.168354068290e-04
   153    1.332636551005e-04
   154   -1.643155032961e-01
   155   -1.379341933198e-01
   156   -9.548604820749e-05
   157    4.169242263464e-05
   158   -5.653664414713e-15
   159   -1.835534511812e-03
   160   -2.430887852157e-04
   161    2.189526274152e-04
   162   -7.244916338259e-15
   163    3.183616152771e-04
   164    1.289343376757e-05
   165   -2.908357735128e-04
   166   -7.416135392444e-15
   167   -1.907614994914e-03
   168   -8.945201900971e-04
   169    1.978664667854e-05
   170    2.008083785413e-15
   171    2.210375373491e-05
   172    8.362667089389e-17
   173   -5.561284882658e-16
   174   -8.612915336227e-05
   175    9.190694980433e-05
   176   -2.318726341366e-01
   177   -1.919987280292e-01
   178    1.636048601864e-04
   179   -1.438366548283e-04
   180   -1.159296156714e-15
   181   -2.198742507112e-03
   182   -4.786062198997e-05
   183   -7.838915703097e-05
   184    5.654359304260e-17
   185    1.951621522506e-04
   186    2.448682426360e-04
   187    3.319693887592e-05
   188   -5.924967506724e-16
   189   -1.265484192239e-02
   190    3.177035606031e-03
   191   -2.160289545962e-03
   192    6.960359248095e-16
   193    7.062305436489e-05
   194    5.757662196365e-16
   195   -6.914358620185e-17
   196   -8.252365737352e-07
   197   -4.843387769597e-05
   198   -1.708842530315e-04
   199    9.482845745096e-05
   200   -4.942612819803e-04
   201   -1.156386562484e-03
   202    4.074239277270e-06
   203    1.049326760914e-05
   204   -3.773731603170e-16
Sym=X
Ene= 2.000000
Spin=Alpha
Occup=1
     1   -3.623498204004e-02
     2   -2.999516098934e-02
     3    9.417557569534e-05
     4   -4.244493353712e-05
     5    3.028953903692e-16
     6   -3.371565249330e-04
     7   -4.904472807535e-05
     8   -2.864212182483e-05
     9    7.023879588778e-15
    10   -1.143988332602e-04
    11   -5.831440473594e-05
    12   -3.540391706164e-04
    13   -9.619088043415e-16
    14   -4.171933713515e-04
    15   -4.311344300980e-04
    16   -2.851030126889e-04
    17    1.105158735155e-14
    18    2.406300594652e-05
    19   -3.973873704340e-16
    20   -1.612800533206e-16
    21   -2.867060363531e-05
    22   -3.275241057028e-06
    23   -8.261701881565e-05
    24    4.453754134498e-05
    25   -3.415524901616e-04
    26   -3.335731901922e-04
    27   -7.951836771389e-08
    28    1.881240003085e-05
    29    1.315760532657e-16
    30   -1.737693821313e-05
    31   -9.279402019365e-05
    32   -1.135512991239e-04
    33   -1.252203663886e-04
    34   -7.590575681946e-07
    35   -1.764071063827e-05
    36   -2.507187155666e-16
    37    3.108995816562e-05
    38   -2.748738499019e-05
    39    1.583985678410e-04
    40   -1.926230841238e-04
    41   -1.135956641250e-05
    42   -1.841646677841e-07
    43   -3.705929231050e-18
    44   -1.824995206639e-02
    45   -1.503112465831e-02
    46    4.475818824961e-05
    47    1.498339911326e-05
    48   -2.600943605241e-15
    49   -4.348760555878e-04
    50    3.513263046312e-04
    51   -1.438170943189e-04
    52   -8.118839242913e-15
    53   -2.018499781276e-04
    54    1.803345469244e-04
    55   -1.457710202562e-04
    56    1.382987155274e-15
    57   -2.125775615397e-04
    58   -4.637145994149e-04
    59    3.086141368890e-04
    60    5.964918534362e-16
    61    6.550985670929e-05
    62    5.840717981870e-17
    63   -8.506437387538e-16
    64   -4.782504719650e-05
    65    1.924162068626e-04
    66   -4.908095932942e-01
    67   -4.197831300449e-01
    68   -1.401860382848e-03
    69    8.535163301669e-04
    70   -5.193904113625e-15
    71   -4.936763649393e-03
    72    5.556226290424e-04
    73   -3.353199051735e-04
    74   -5.089517733456e-15
    75    1.159363807855e-03
    76   -1.225499113340e-04
    77    7.129871672397e-05
    78   -6.706865074267e-15
    79   -1.557670082922e-03
    80   -1.682342682278e-04
    81    6.832587810414e-05
    82   -1.096492169310e-16
    83    7.996740243969e-05
    84   -3.447759180940e-16
    85    1.380270134162e-16
    86    3.594347542759e-05
    87   -5.521264423123e-05
    88    9.050721467362e-02
    89    7.491870218384e-02
    90   -1.119504607860e-04
    91    9.891162593788e-05
    92   -1.619615102199e-15
    93    7.067599614010e-04
    94    2.141155163933e-04
    95    5.384448010689e-05
    96   -2.300622013611e-15
    97   -2.648164872937e-04
    98    1.305838075060e-04
    99    4.207042667651e-04
   100   -5.815564081679e-17
   101   -3.005404825809e-03
   102   -3.097309093948e-05
   103    1.189018030612e-03
   104    1.337901822266e-14
   105   -7.916583670725e-05
   106   -5.839852857709e-16
   107   -1.712369769930e-16
   108    3.402999315151e-05
   109    1.109744715367e-04
   110    1.475386698656e-01
   111    1.261691992858e-01
   112   -4.475930849613e-04
   113   -2.732937660309e-04
   114   -2.438728883217e-15
   115    1.573325274237e-03
   116    1.045838345142e-04
   117    5.976937654738e-05
   118    8.076068952817e-17
   119   -5.380336505239e-04
   120    5.406235070699e-05
   121    7.250541255910e-06
   122   -1.373735509971e-15
   123    6.361627716289e-04
   124   -1.611026136203e-04
   125   -1.356630150800e-04
   126   -3.330755533359e-15
   127   -3.935059557147e-05
   128    4.282639085811e-18
   129    2.105761840599e-17
   130   -4.022763325481e-07
   131    4.257572081210e-06
   132    6.217731185285e-02
   133    5.219680572274e-02
   134   -1.760351789773e-05
   135   -2.732216140714e-05
   136   -4.452944187467e-15
   137    6.811501623188e-04
   138    1.661309817437e-04
   139   -2.250172909939e-05
   140   -8.890244272825e-15
   141   -2.008141843555e-04
   142   -1.418861719040e-04
   143    1.931564428822e-05
   144   -6.893842623290e-15