[Molden Format]
[Atoms] (Angs)
  C      1    6     -0.00714236     -1.70213747     -0.00000000
  H      2    1     -2.06882847     -1.44022412      0.00000000
  H      3    1     -0.12337987     -2.77567521      0.00000000
  H      4    1      0.04651892      1.98813947     -0.00000000
  C      5    6     -1.21953563      0.40211669      0.00000000
  O      6    8     -2.25921553      1.03043814      0.00000000
  C      7    6      1.28797806      0.34644937     -0.00000000
  O      8    8      2.31273661      1.00537216     -0.00000000
  N      9    7      0.03446295      0.97739857     -0.00000000
  N     10    7     -1.17287765     -0.98229824      0.00000000
  C     11    6      1.20107039     -1.10433419     -0.00000000
  H     12    1      2.11220096     -1.67699125     -0.00000000
[GTO]
1    0
S    6    1.000000
   4.56324000E+03    1.96665000E-03 
   6.82024000E+02    1.52306000E-02 
   1.54973000E+02    7.61269000E-02 
   4.44553000E+01    2.60801000E-01 
   1.30290000E+01    6.16462000E-01 
   1.82773000E+00    2.21006000E-01 
SP   3    1.000000
   2.09642000E+01    1.14660000E-01   4.02487000E-02 
   4.80331000E+00    9.19999000E-01   2.37594000E-01 
   1.45933000E+00   -3.03068000E-03   8.15854000E-01 
SP   1    1.000000
   4.83456000E-01    1.00000000E+00   1.00000000E+00 
SP   1    1.000000
   1.45585000E-01    1.00000000E+00   1.00000000E+00 
SP   1    1.000000
   4.38000000E-02    1.00000000E+00   1.00000000E+00 
D    1    1.000000
   6.26000000E-01    1.00000000E+00 

2    0
S    3    1.000000
   3.38650000E+01    2.54938000E-02 
   5.09479000E+00    1.90373000E-01 
   1.15879000E+00    8.52161000E-01 
S    1    1.000000
   3.25840000E-01    1.00000000E+00 
S    1    1.000000
   1.02741000E-01    1.00000000E+00 
S    1    1.000000
   3.60000000E-02    1.00000000E+00 
P    1    1.000000
   7.50000000E-01    1.00000000E+00 

3    0
S    3    1.000000
   3.38650000E+01    2.54938000E-02 
   5.09479000E+00    1.90373000E-01 
   1.15879000E+00    8.52161000E-01 
S    1    1.000000
   3.25840000E-01    1.00000000E+00 
S    1    1.000000
   1.02741000E-01    1.00000000E+00 
S    1    1.000000
   3.60000000E-02    1.00000000E+00 
P    1    1.000000
   7.50000000E-01    1.00000000E+00 

4    0
S    3    1.000000
   3.38650000E+01    2.54938000E-02 
   5.09479000E+00    1.90373000E-01 
   1.15879000E+00    8.52161000E-01 
S    1    1.000000
   3.25840000E-01    1.00000000E+00 
S    1    1.000000
   1.02741000E-01    1.00000000E+00 
S    1    1.000000
   3.60000000E-02    1.00000000E+00 
P    1    1.000000
   7.50000000E-01    1.00000000E+00 

5    0
S    6    1.000000
   4.56324000E+03    1.96665000E-03 
   6.82024000E+02    1.52306000E-02 
   1.54973000E+02    7.61269000E-02 
   4.44553000E+01    2.60801000E-01 
   1.30290000E+01    6.16462000E-01 
   1.82773000E+00    2.21006000E-01 
SP   3    1.000000
   2.09642000E+01    1.14660000E-01   4.02487000E-02 
   4.80331000E+00    9.19999000E-01   2.37594000E-01 
   1.45933000E+00   -3.03068000E-03   8.15854000E-01 
SP   1    1.000000
   4.83456000E-01    1.00000000E+00   1.00000000E+00 
SP   1    1.000000
   1.45585000E-01    1.00000000E+00   1.00000000E+00 
SP   1    1.000000
   4.38000000E-02    1.00000000E+00   1.00000000E+00 
D    1    1.000000
   6.26000000E-01    1.00000000E+00 

6    0
S    6    1.000000
   8.58850000E+03    1.89515000E-03 
   1.29723000E+03    1.43859000E-02 
   2.99296000E+02    7.07320000E-02 
   8.73771000E+01    2.40001000E-01 
   2.56789000E+01    5.94797000E-01 
   3.74004000E+00    2.80802000E-01 
SP   3    1.000000
   4.21175000E+01    1.13889000E-01   3.65114000E-02 
   9.62837000E+00    9.20811000E-01   2.37153000E-01 
   2.85332000E+00   -3.27447000E-03   8.19702000E-01 
SP   1    1.000000
   9.05661000E-01    1.00000000E+00   1.00000000E+00 
SP   1    1.000000
   2.55611000E-01    1.00000000E+00   1.00000000E+00 
SP   1    1.000000
   8.45000000E-02    1.00000000E+00   1.00000000E+00 
D    1    1.000000
   1.29200000E+00    1.00000000E+00 

7    0
S    6    1.000000
   4.56324000E+03    1.96665000E-03 
   6.82024000E+02    1.52306000E-02 
   1.54973000E+02    7.61269000E-02 
   4.44553000E+01    2.60801000E-01 
   1.30290000E+01    6.16462000E-01 
   1.82773000E+00    2.21006000E-01 
SP   3    1.000000
   2.09642000E+01    1.14660000E-01   4.02487000E-02 
   4.80331000E+00    9.19999000E-01   2.37594000E-01 
   1.45933000E+00   -3.03068000E-03   8.15854000E-01 
SP   1    1.000000
   4.83456000E-01    1.00000000E+00   1.00000000E+00 
SP   1    1.000000
   1.45585000E-01    1.00000000E+00   1.00000000E+00 
SP   1    1.000000
   4.38000000E-02    1.00000000E+00   1.00000000E+00 
D    1    1.000000
   6.26000000E-01    1.00000000E+00 

8    0
S    6    1.000000
   8.58850000E+03    1.89515000E-03 
   1.29723000E+03    1.43859000E-02 
   2.99296000E+02    7.07320000E-02 
   8.73771000E+01    2.40001000E-01 
   2.56789000E+01    5.94797000E-01 
   3.74004000E+00    2.80802000E-01 
SP   3    1.000000
   4.21175000E+01    1.13889000E-01   3.65114000E-02 
   9.62837000E+00    9.20811000E-01   2.37153000E-01 
   2.85332000E+00   -3.27447000E-03   8.19702000E-01 
SP   1    1.000000
   9.05661000E-01    1.00000000E+00   1.00000000E+00 
SP   1    1.000000
   2.55611000E-01    1.00000000E+00   1.00000000E+00 
SP   1    1.000000
   8.45000000E-02    1.00000000E+00   1.00000000E+00 
D    1    1.000000
   1.29200000E+00    1.00000000E+00 

9    0
S    6    1.000000
   6.29348000E+03    1.96979000E-03 
   9.49044000E+02    1.49613000E-02 
   2.18776000E+02    7.35006000E-02 
   6.36916000E+01    2.48937000E-01 
   1.88282000E+01    6.02460000E-01 
   2.72023000E+00    2.56202000E-01 
SP   3    1.000000
   3.06331000E+01    1.11906000E-01   3.83119000E-02 
   7.02614000E+00    9.21666000E-01   2.37403000E-01 
   2.11205000E+00   -2.56919000E-03   8.17592000E-01 
SP   1    1.000000
   6.84009000E-01    1.00000000E+00   1.00000000E+00 
SP   1    1.000000
   2.00878000E-01    1.00000000E+00   1.00000000E+00 
SP   1    1.000000
   6.39000000E-02    1.00000000E+00   1.00000000E+00 
D    1    1.000000
   9.13000000E-01    1.00000000E+00 

10    0
S    6    1.000000
   6.29348000E+03    1.96979000E-03 
   9.49044000E+02    1.49613000E-02 
   2.18776000E+02    7.35006000E-02 
   6.36916000E+01    2.48937000E-01 
   1.88282000E+01    6.02460000E-01 
   2.72023000E+00    2.56202000E-01 
SP   3    1.000000
   3.06331000E+01    1.11906000E-01   3.83119000E-02 
   7.02614000E+00    9.21666000E-01   2.37403000E-01 
   2.11205000E+00   -2.56919000E-03   8.17592000E-01 
SP   1    1.000000
   6.84009000E-01    1.00000000E+00   1.00000000E+00 
SP   1    1.000000
   2.00878000E-01    1.00000000E+00   1.00000000E+00 
SP   1    1.000000
   6.39000000E-02    1.00000000E+00   1.00000000E+00 
D    1    1.000000
   9.13000000E-01    1.00000000E+00 

11    0
S    6    1.000000
   4.56324000E+03    1.96665000E-03 
   6.82024000E+02    1.52306000E-02 
   1.54973000E+02    7.61269000E-02 
   4.44553000E+01    2.60801000E-01 
   1.30290000E+01    6.16462000E-01 
   1.82773000E+00    2.21006000E-01 
SP   3    1.000000
   2.09642000E+01    1.14660000E-01   4.02487000E-02 
   4.80331000E+00    9.19999000E-01   2.37594000E-01 
   1.45933000E+00   -3.03068000E-03   8.15854000E-01 
SP   1    1.000000
   4.83456000E-01    1.00000000E+00   1.00000000E+00 
SP   1    1.000000
   1.45585000E-01    1.00000000E+00   1.00000000E+00 
SP   1    1.000000
   4.38000000E-02    1.00000000E+00   1.00000000E+00 
D    1    1.000000
   6.26000000E-01    1.00000000E+00 

12    0
S    3    1.000000
   3.38650000E+01    2.54938000E-02 
   5.09479000E+00    1.90373000E-01 
   1.15879000E+00    8.52161000E-01 
S    1    1.000000
   3.25840000E-01    1.00000000E+00 
S    1    1.000000
   1.02741000E-01    1.00000000E+00 
S    1    1.000000
   3.60000000E-02    1.00000000E+00 
P    1    1.000000
   7.50000000E-01    1.00000000E+00 

[MO]
Sym=X
Ene= 2.000000
Spin=Alpha
Occup=1
     1    1.130710997047e-01
     2    9.368577247828e-02
     3   -3.933982563402e-04
     4   -1.995672341589e-05
     5    3.806578039458e-15
     6    5.986455533801e-04
     7    3.416695857944e-04
     8   -3.436804612388e-05
     9    2.121664364128e-15
    10    1.465289791515e-04
    11   -2.700925635212e-04
    12   -1.396955254487e-04
    13    5.635618143646e-15
    14    9.735275031798e-04
    15    3.724201628129e-05
    16    4.806733287279e-04
    17   -9.249229217431e-15
    18   -1.777452665026e-04
    19    1.185554530546e-15
    20    9.292891020915e-16
    21    6.853680706776e-06
    22    1.271969180079e-04
    23   -2.723623669055e-05
    24   -2.577768268487e-05
    25   -6.927381060734e-05
    26   -7.448168668437e-05
    27   -2.590163054248e-05
    28   -2.183221479279e-05
    29    2.338035116654e-16
    30    8.536437093807e-05
    31   -1.418256781104e-04
    32    1.343032009414e-04
    33    1.907999808303e-04
    34   -2.805086918537e-06
    35   -2.151819967764e-05
    36    1.091052355074e-15
    37    6.955885087069e-06
    38   -3.644071834866e-05
    39    1.371581727557e-04
    40   -2.330820923085e-05
    41    1.341561899634e-05
    42    3.118804682076e-05
    43   -4.083869654776e-16
    44   -3.487415683613e-01
    45   -2.887616008031e-01
    46   -3.997072073867e-04
    47    2.945916141090e-04
    48    1.281552277420e-15
    49   -2.229358128600e-03
    50    4.808154235263e-04
    51   -3.166080443569e-04
    52   -1.286545261809e-15
    53   -2.105441959271e-04
    54   -1.101711877289e-04
    55    8.851177031374e-06
    56   -1.716636415085e-15
    57    1.201837409506e-03
    58    6.904504762139e-04
    59   -2.665974891826e-04
    60    4.594386581273e-16
    61    2.554036107471e-04
    62   -1.543023741382e-15
    63   -3.152595828199e-16
    64   -1.123574419359e-04
    65    2.113063271889e-04
    66    4.415309412146e-02
    67    3.783406478694e-02
    68   -2.932662424128e-05
    69    1.601695008730e-05
    70    3.108388734250e-15
    71    1.125555289329e-04
    72   -2.638120065885e-04
    73    1.579822654751e-04
    74    1.315666467164e-17
    75    4.315198606231e-04
    76    3.143474456508e-04
    77   -1.807959699357e-04
    78    6.581745781967e-15
    79   -4.540192785621e-04
    80   -4.253749304654e-04
    81    2.385574340333e-04
    82   -1.351011904465e-15
    83    2.036143908300e-05
    84   -9.306449269580e-17
    85    4.973269954126e-16
    86   -4.695391733512e-05
    87    9.039937778268e-05
    88    1.831401295241e-01
    89    1.517094491357e-01
    90   -2.561976450373e-04
    91    2.677954116641e-04
    92    2.364622158950e-15
    93    8.936344879139e-04
    94    2.706303669644e-04
    95    1.368996930305e-04
    96    2.254467936380e-15
    97    7.712191272513e-05
    98    4.381038137157e-05
    99    4.596986245086e-04
   100    2.207302488389e-15
   101   -7.727689066690e-05
   102    3.369357086892e-04
   103    1.487027445643e-04
   104   -1.151278590282e-14
   105   -1.437682097910e-04
   106    2.596722605990e-15
   107    3.304454244166e-16
   108    7.984277132695e-05
   109    9.713103364847e-05
   110   -7.846382098612e-02
   111   -6.714844392299e-02
   112    1.368964399453e-04
   113    6.391934574887e-05
   114    5.409465726961e-15
   115   -5.880269355029e-04
   116   -1.905058467670e-04
   117   -1.194858552736e-04
   118    5.155004699038e-15
   119   -2.559081948225e-04
   120    2.241119332825e-04
   121    7.297578402595e-05
   122    5.131259974488e-15
   123   -1.962224985001e-05
   124   -1.659815206609e-04
   125   -9.296964102410e-05
   126    5.233219160641e-15
   127    6.174471458109e-06
   128    3.274560444547e-16
   129   -1.006999676565e-17
   130    2.819588418401e-05
   131    5.096955249444e-05
   132    2.825313983004e-02
   133    2.374998470471e-02
   134    1.004579501707e-04
   135    2.623439091394e-06
   136   -4.278151809561e-15
   137    1.510457900269e-04
   138    4.721260037022e-04
   139    8.397783347597e-05
   140   -8.165690318894e-15
   141    7.252844421789e-05
   142   -3.207104595933e-04
   143   -8.932081579060e-05
   144   -6.445827775189e-15
   145   -1.409281682095e-04
   146   -2.333473850593e-04
   147   -1.638046405381e-04
   148    1.249243113201e-15
   149    3.825168736874e-06
   150   -4.778672093745e-16
   151   -2.742055719151e-16
   152   -4.400201567671e-05
   153   -1.324269655005e-04
   154   -4.420779750832e-02
   155   -3.708626086572e-02
   156    1.237937385879e-05
   157   -9.155587058139e-05
   158    4.172020744306e-15
   159   -6.129222209950e-04
   160    1.304823135699e-04
   161   -4.283243827334e-04
   162    3.949031092119e-15
   163    2.583673591166e-04
   164   -3.007719566058e-05
   165    1.851960812946e-04
   166    3.889650859911e-15
   167   -8.936648112185e-04
   168   -4.257334942428e-04
   169    2.061633786267e-05
   170    5.582025508549e-15
   171    1.228726689379e-05
   172    1.045202921655e-15
   173   -2.886995629585e-16
   174    1.551982432530e-04
   175   -3.563808138693e-05
   176   -3.718705954694e-01
   177   -3.080216364921e-01
   178    5.203991208328e-05
   179   -1.287455160614e-04
   180    2.148444550201e-15
   181   -3.070198370314e-03
   182    2.293075725691e-04
   183    3.122817084962e-04
   184    4.193901187719e-15
   185    1.030417113567e-03
   186   -2.020839722933e-04
   187    1.754880599688e-04
   188   -3.262120874057e-16
   189   -8.889712618096e-04
   190    6.983109883956e-04
   191   -5.857099708048e-04
   192    1.185053625440e-14
   193    2.844493284542e-04
   194    3.397267199318e-16
   195    8.557787096666e-17
   196   -1.771187184156e-04
   197   -7.956546605456e-05
   198   -2.692990948129e-04
   199    2.355299966428e-04
   200   -3.983776774646e-04
   201   -5.473213557735e-04
   202   -3.991097600690e-05
   203    3.647989206516e-05
   204    2.536629631567e-17
Sym=X
Ene= 2.000000
Spin=Alpha
Occup=1
     1    1.135091881630e-01
     2    9.401721664380e-02
     3   -1.285884698752e-04
     4    4.060083893607e-05
     5   -1.590645485599e-16
     6    7.640330015126e-04
     7    3.352179784222e-04
     8   -8.474928881585e-05
     9    1.509078142280e-15
    10   -4.965127069410e-04
    11    4.322186892772e-05
    12   -3.730051010773e-04
    13    3.311221054409e-15
    14   -8.579085481927e-04
    15    2.288517874334e-04
    16    2.187790128345e-04
    17   -7.838883872685e-16
    18   -7.844750914591e-05
    19    1.233423343829e-16
    20   -8.463499066392e-16
    21   -9.273309855782e-06
    22    1.505078951437e-04
    23   -1.515150473270e-04
    24    2.527018644018e-04
    25   -4.579141200886e-04
    26    3.461960467353e-05
    27    7.457698577963e-05
    28    3.933629199836e-05
    29    2.263160865018e-16
    30    8.674172391645e-05
    31   -1.202347356967e-04
    32    3.395429862578e-05
    33    2.618489093456e-04
    34    1.441900176825e-06
    35   -1.653302627642e-05
    36    4.663526156311e-17
    37    1.258376432163e-04
    38    1.525171269287e-05
    39    5.061550335784e-04
    40    2.885492893011e-04
    41    2.795603441859e-07
    42   -3.123782527118e-05
    43   -1.913040099820e-15
    44    1.640949282633e-01
    45    1.358458919154e-01
    46    1.969624618092e-04
    47   -3.285884417316e-05
    48   -2.309762481715e-14
    49    1.132685849827e-03
    50   -2.737129699093e-04
    51    3.637016918262e-04
    52   -3.841667661609e-14
    53   -5.563639162857e-04
    54   -5.369017177380e-04
    55    5.521814871411e-04
    56   -2.223892719564e-14
    57    1.947909497251e-05
    58    9.245972205540e-05
    59    1.857469088921e-04
    60   -8.627331012972e-15
    61   -1.376684230035e-04
    62   -1.665455257001e-15
    63   -1.885690884638e-15
    64    1.885153604988e-04
    65   -1.078172700551e-04
    66    1.709462611426e-01
    67    1.461735952033e-01
    68    5.520664908390e-04
    69   -3.511120697701e-04
    70   -1.637594515199e-14
    71    1.892070187930e-03
    72   -7.712319604001e-05
    73    6.196756682760e-05
    74   -2.315294122167e-14
    75   -7.821127116055e-04
    76   -1.595111863653e-04
    77    3.009198305766e-05
    78   -2.100851471896e-14
    79    3.329069115473e-04
    80    1.079628426502e-04
    81   -8.650151056215e-05
    82    6.701058264569e-15
    83   -3.968270982297e-05
    84   -1.996409792489e-15
    85    1.436647485242e-15
    86    1.705916913878e-05
    87   -1.745182614574e-05
    88    2.291345861427e-01
    89    1.897106586480e-01
    90   -3.410492574840e-04
    91    1.879196090394e-04
    92   -5.005830080481e-15
    93    1.657254010831e-03
    94    2.719187393227e-04
    95   -1.325464863307e-04
    96   -6.060436244031e-15
    97   -1.006587479817e-03
    98   -1.261342331316e-04
    99    2.551751021519e-04
   100   -2.529086872745e-15
   101   -5.260171041109e-03
   102    9.332751689361e-04
   103    1.159191277269e-03
   104   -8.634498544247e-16
   105   -1.459972917709e-04
   106    4.672508442344e-15
   107   -8.675274902373e-16
   108   -1.444252267277e-05
   109    1.532196005184e-04
   110   -5.425731712258e-02
   111   -4.645176058373e-02
   112    5.544081169917e-05
   113    2.497458619322e-05
   114    6.393517019236e-15
   115   -3.306628797569e-04
   116   -2.171451831433e-04
   117   -1.400853048149e-04
   118    1.169478855545e-14
   119   -2.311730599920e-05
   120    1.375876029342e-04
   121    4.735351648816e-05
   122    1.069803678735e-14
   123    2.654711616952e-04
   124   -1.931163650413e-04
   125   -2.400706040361e-04
   126    1.849869904564e-15
   127   -8.392421394497e-06
   128   -7.091989780134e-17
   129    6.123486941313e-17
   130    3.037744583156e-05
   131    7.288326029651e-05
   132    2.265935108556e-01
   133    1.902011998321e-01
   134   -7.058512224002e-05
   135   -1.080848133366e-04
   136   -3.405360175788e-14
   137    2.548012152499e-03
   138    1.349925550767e-04
   139   -1.395954310071e-04
   140   -5.515290050222e-14
   141   -3.670483500907e-04
   142   -2.104054549549e-05
   143   -2.415383051371e-04
   144   -5.408065177116e-14
   145    1.857506413909e-03
   146    2.928110996495e-04
   147   -1.253566107197e-03
   148    2.447456147047e-15
   149   -3.836614222910e-05
   150    9.767177240923e-16
   151    2.602491606401e-15
   152    1.210064466770e-04
   153   -3.958656587889e-05
   154   -3.587959110925e-01
   155   -3.013196082866e-01
   156   -9.175089400280e-05
   157    1.379619962833e-05
   158   -8.638468546855e-15
   159   -3.407134941786e-03
   160    1.760628146657e-04
   161    9.935027169253e-05
   162   -1.600140922170e-14
   163    1.261337354595e-03
   164    3.816194886937e-04
   165    2.805033193707e-04
   166   -1.165453266850e-14
   167   -4.341090851690e-04
   168   -5.121319418822e-04
   169   -5.563180026164e-04
   170    3.821865107613e-15
   171   -2.295980122386e-05
   172    3.791443342667e-17
   173   -2.034573661469e-15
   174   -7.261807583644e-05
   175   -7.883549067166e-05
   176    8.759111440414e-02
   177    7.251722262610e-02
   178   -6.800626539577e-05
   179    7.500654230497e-05
   180    1.025779095919e-15
   181    8.801248005263e-04
   182    1.020795815896e-05
   183    6.825730074251e-05
   184    3.747258304731e-15
   185    6.731568261509e-05
   186   -6.086139617635e-05
   187    2.243653494256e-04
   188    2.074926894218e-15
   189    4.124520420915e-03
   190   -8.222963921819e-04
   191    1.014229029588e-03
   192    2.299088667954e-15
   193   -1.249573295834e-05
   194   -4.144295268222e-16
   195   -1.536162496607e-15
   196   -2.382873591820e-05
   197    3.745867279533e-05
   198    6.666651290408e-05
   199   -1.452135465399e-06
   200    1.860886807047e-04
   201    3.317968768526e-04
   202   -1.469811867573e-05
   203    1.568976540536e-06
   204    8.061383188967e-17
Sym=X
Ene= 2.000000
Spin=Alpha
Occup=1
     1    2.152984658766e-01
     2    1.782598821585e-01
     3   -3.554496526061e-04
     4    1.757619028631e-04
     5    1.197676264292e-15
     6    1.833359819626e-03
     7    3.927178584460e-04
     8    5.543954698308e-05
     9    1.904248136941e-15
    10   -7.842578117816e-04
    11   -2.940346376781e-04
    12    2.148689261896e-05
    13   -2.462984770698e-16
    14   -8.616745197666e-03
    15   -3.564193113218e-04
    16   -2.039932913137e-03
    17    2.146571673491e-15
    18   -1.233025757366e-04
    19   -9.295007330423e-16
    20    6.900359881021e-16
    21    4.650340463732e-05
    22    1.863028333914e-04
    23    8.915054791965e-05
    24   -2.569497642305e-06
    25    2.901202774778e-04
    26    4.968987750092e-04
    27    2.039609407630e-05
    28   -1.850897738175e-05
    29    4.442643848882e-16
    30    1.407177381006e-04
    31    3.686809953213e-05
    32    7.590131459948e-05
    33   -4.216233730853e-04
    34    3.322945366063e-05
    35    1.965939079062e-05
    36   -1.783848186471e-16
    37   -6.926157458149e-05
    38    1.762273295848e-04
    39   -1.977125460798e-04
    40   -9.613949959971e-05
    41    8.099240888424e-06
    42   -6.835257540573e-05
    43    1.192247291857e-15
    44   -5.418962985383e-02
    45   -4.486920616129e-02
    46   -1.006700125773e-04
    47   -3.177588727221e-07
    48    1.368886698586e-14
    49   -3.276092744035e-04
    50    5.210795729406e-05
    51   -1.616241281643e-04
    52    2.305576143472e-14
    53   -9.697295701741e-04
    54   -5.186802176807e-04
    55    9.786535425853e-05
    56    1.254633706251e-14
    57    1.699500220077e-03
    58    4.502216663325e-04
    59   -6.966525716476e-05
    60    5.577625488426e-15
    61    5.471149696942e-05
    62   -1.474915067120e-16
    63    6.888352544084e-16
    64   -6.913051447797e-05
    65    1.273884915901e-05
    66   -2.758533729738e-02
    67   -2.358413904595e-02
    68   -9.868325337951e-05
    69    6.894035301912e-05
    70    1.332415307724e-14
    71   -3.156098918315e-04
    72    6.711135201357e-06
    73   -1.030043087594e-05
    74    2.060407585476e-14
    75    9.828094204260e-05
    76    6.661915163683e-05
    77    2.264961752713e-05
    78    1.743333419778e-14
    79   -2.728690042411e-04
    80   -9.570879677810e-05
    81    4.147408082963e-06
    82   -2.119831902067e-15
    83    8.542659248945e-06
    84    1.514163300924e-15
    85   -1.324443388091e-15
    86   -3.821499251132e-06
    87    6.482095622574e-06
    88    3.652529262914e-01
    89    3.024047691612e-01
    90   -4.440883702730e-04
    91    2.331635504278e-04
    92    4.839014912123e-15
    93    2.568840481327e-03
    94    6.758642775706e-04
    95   -2.193580319376e-04
    96    5.739228246245e-15
    97   -2.198238748106e-04
    98    2.563325858327e-04
    99    6.232858596493e-04
   100    5.766057630689e-15
   101   -8.133174220120e-03
   102    1.213564929035e-03
   103    1.777085099582e-03
   104    1.336779522474e-16
   105   -2.810710418183e-04
   106   -1.064934753376e-15
   107    6.372865125299e-16
   108   -9.924280748821e-05
   109    3.537803475852e-04
   110    9.985375918434e-02
   111    8.532656695135e-02
   112   -4.392816534461e-04
   113   -2.611571154203e-04
   114    2.239472649117e-15
   115    1.381162958155e-03
   116   -1.268153162206e-04
   117   -1.114720918773e-04
   118    2.331971825669e-15
   119   -8.528858042343e-04
   120    2.739552329400e-04
   121    1.784047492235e-04
   122    1.723640407266e-15
   123    5.620874122279e-04
   124   -2.704074329766e-04
   125   -3.570715069621e-04
   126   -9.764179663071e-16
   127   -4.895997055558e-05
   128   -8.436293715478e-16
   129   -1.412922475660e-16
   130    2.396664590392e-05
   131    8.967242942590e-05
   132   -1.863703529986e-01
   133   -1.565453502250e-01
   134    1.088897472906e-04
   135    2.862179156321e-05
   136    1.375026205681e-14
   137   -1.636021935244e-03
   138    4.360690602229e-04
   139   -2.021642243976e-04
   140    2.242274561321e-14
   141    7.307648934099e-04
   142   -4.408057941198e-04
   143   -3.620736663576e-04
   144    2.046452839715e-14
   145    1.194710849079e-04
   146    1.225937740463e-04
   147    1.572096204784e-04
   148   -2.622698459109e-15
   149   -4.070776090880e-05
   150   -4.056308151072e-16
   151   -1.143302051499e-15
   152    1.209699231559e-04
   153   -1.328895578444e-04
   154    1.803067036665e-01
   155    1.513660381578e-01
   156    9.418638785380e-05
   157   -3.472727745027e-05
   158    7.499921380904e-15
   159    1.976271756416e-03
   160    2.040723151970e-04
   161   -1.856127117663e-04
   162    1.048325132920e-14
   163   -3.750449332261e-04
   164   -1.377442176408e-05
   165    2.423417459442e-04
   166    9.414966934513e-15
   167    1.904717921537e-03
   168    8.985235022339e-04
   169    2.144546216801e-06
   170   -3.194835629230e-15
   171   -1.971457193054e-05
   172   -1.004649491587e-17
   173    1.140297579249e-15
   174    7.585712397072e-05
   175   -7.814161924695e-05
   176    2.340710816346e-01
   177    1.938207990036e-01
   178   -1.499282394733e-04
   179    1.541640340340e-04
   180    1.139201975629e-15
   181    2.212434375736e-03
   182    2.957895655959e-05
   183    6.808466781133e-05
   184   -2.853179997654e-16
   185   -1.847339871520e-04
   186   -2.503895946287e-04
   187   -2.232139541155e-05
   188    6.039082818669e-16
   189    1.253312184109e-02
   190   -3.152588254242e-03
   191    2.126924163756e-03
   192   -2.019149619437e-15
   193   -8.089805908708e-05
   194   -3.977022803414e-16
   195    5.467817185606e-16
   196    3.048100825985e-06
   197    5.339268783505e-05
   198    1.726111828798e-04
   199   -9.117505440008e-05
   200    4.955709600286e-04
   201    1.153380391409e-03
   202   -3.315183186460e-06
   203   -7.967199267840e-06
   204    1.775523231855e-16
Sym=X
Ene= 2.000000
Spin=Alpha
Occup=1
     1   -5.722717008158e-02
     2   -4.737994689939e-02
     3    1.586703669939e-04
     4   -4.535507965545e-05
     5    2.864166335522e-15
     6   -4.898131737184e-04
     7   -7.943836440630e-05
     8   -5.352199218763e-05
     9    7.665909673024e-15
    10   -2.750097071802e-04
    11   -8.607373021765e-05
    12   -4.622778630044e-04
    13    4.493836994626e-15
    14   -7.044957240946e-04
    15   -1.719137584851e-04
    16   -6.030112776424e-04
    17    8.784924805529e-15
    18    4.861444934697e-05
    19   -3.935403819937e-16
    20    1.235176762709e-17
    21   -3.250093374962e-05
    22   -4.327913066721e-06
    23   -1.091189569222e-04
    24    7.241137525396e-05
    25   -3.963306526307e-04
    26   -2.793084671666e-04
    27   -3.220309426887e-06
    28    1.327161464695e-05
    29    4.852963668052e-16
    30   -3.320554001318e-05
    31   -1.067970794775e-04
    32   -1.855384607903e-04
    33   -2.455020207495e-04
    34    2.217666462871e-06
    35   -2.349116735915e-05
    36   -3.904261801787e-18
    37    3.380810575107e-05
    38   -1.490987072876e-05
    39    2.103913828984e-04
    40   -7.761126120900e-05
    41   -7.980287031989e-06
    42    1.412332337704e-05
    43   -1.961985184431e-15
    44   -1.036684390951e-01
    45   -8.577041999591e-02
    46   -5.929869945653e-05
    47    1.009796948114e-04
    48   -1.490239988606e-14
    49   -9.407787661713e-04
    50    3.894928338830e-04
    51   -1.609795778956e-04
    52   -2.844249105413e-14
    53   -2.767284400647e-04
    54    6.447767043791e-05
    55   -4.240708346884e-05
    56   -1.145765604727e-14
    57    2.917184539824e-04
    58   -1.711835919041e-04
    59    4.667736249896e-05
    60   -3.865713806343e-15
    61    1.166632127562e-04
    62   -3.023364186234e-15
    63   -2.141370736522e-15
    64   -5.317513718804e-05
    65    2.136786618718e-04
    66   -3.754653353344e-01
    67   -3.211125018091e-01
    68   -1.112679094115e-03
    69    6.744317364721e-04
    70   -9.853655722764e-15
    71   -3.861353287083e-03
    72    3.676545428926e-04
    73   -2.200817971052e-04
    74   -1.273362221387e-14
    75    9.999992786103e-04
    76   -2.605298186375e-05
    77    1.478324493350e-06
    78   -1.180905820676e-14
    79   -1.391968175640e-03
    80   -2.687530174696e-04
    81    1.249835348634e-04
    82    4.333898088419e-15
    83    6.907282230181e-05
    84   -1.408731673389e-15
    85    9.089572407244e-16
    86    1.649021024698e-05
    87   -1.928014082608e-05
    88    3.931184098605e-02
    89    3.249801108764e-02
    90   -3.494432024420e-05
    91    5.791657305448e-05
    92   -1.082474874020e-14
    93    4.968235254461e-04
    94    2.395736743390e-04
    95    1.143771491899e-04
    96   -1.906465879076e-14
    97   -3.599763611655e-04
    98    2.604965773255e-04
    99    5.300312471498e-04
   100   -9.332505652097e-15
   101   -3.976604806897e-03
   102   -1.136637826763e-04
   103    1.176860234585e-03
   104    8.670530868574e-15
   105   -5.351656239616e-05
   106    3.017348039092e-15
   107   -1.199778487451e-15
   108    4.644538854468e-05
   109    1.264911435979e-04
   110    3.096085241567e-01
   111    2.647975386503e-01
   112   -8.742207491211e-04
   113   -5.284365646649e-04
   114   -4.576375266051e-15
   115    3.137816896787e-03
   116    3.203479408531e-04
   117    1.922240524386e-04
   118   -5.076731246676e-15
   119   -8.483139689328e-04
   120   -2.092982508795e-05
   121   -4.733415050095e-05
   122   -3.600866124088e-15
   123    9.706514238484e-04
   124   -1.244421597794e-04
   125   -9.311445613916e-05
   126    7.510138219850e-17
   127   -7.098592012032e-05
   128    1.127787236080e-15
   129    7.543148391508e-16
   130   -1.882881772751e-05
   131   -3.052284314378e-05
   132    7.740061260290e-02
   133    6.500259840321e-02
   134   -1.511071958878e-05
   135   -1.666213513961e-05
   136   -3.177098118738e-14
   137    7.176348405312e-04
   138    1.971911750576e-04
   139    4.175952538927e-05
   140   -5.394703531651e-14
   141   -9.676245709132e-05
   142   -1.820752721371e-04
   143   -9.309680880354e-05
   144   -4.851045645187e-14