[Molden Format]
[Atoms] (Angs)
  C      1    6     -0.00714236     -1.70213747     -0.00000000
  H      2    1     -2.06882847     -1.44022412      0.00000000
  H      3    1     -0.12337987     -2.77567521      0.00000000
  H      4    1      0.04651892      1.98813947     -0.00000000
  C      5    6     -1.21953563      0.40211669      0.00000000
  O      6    8     -2.25921553      1.03043814      0.00000000
  C      7    6      1.28797806      0.34644937     -0.00000000
  O      8    8      2.31273661      1.00537216     -0.00000000
  N      9    7      0.03446295      0.97739857     -0.00000000
  N     10    7     -1.17287765     -0.98229824      0.00000000
  C     11    6      1.20107039     -1.10433419     -0.00000000
  H     12    1      2.11220096     -1.67699125     -0.00000000
[GTO]
1    0
S    6    1.000000
   4.56324000E+03    1.96665000E-03 
   6.82024000E+02    1.52306000E-02 
   1.54973000E+02    7.61269000E-02 
   4.44553000E+01    2.60801000E-01 
   1.30290000E+01    6.16462000E-01 
   1.82773000E+00    2.21006000E-01 
SP   3    1.000000
   2.09642000E+01    1.14660000E-01   4.02487000E-02 
   4.80331000E+00    9.19999000E-01   2.37594000E-01 
   1.45933000E+00   -3.03068000E-03   8.15854000E-01 
SP   1    1.000000
   4.83456000E-01    1.00000000E+00   1.00000000E+00 
SP   1    1.000000
   1.45585000E-01    1.00000000E+00   1.00000000E+00 
SP   1    1.000000
   4.38000000E-02    1.00000000E+00   1.00000000E+00 
D    1    1.000000
   6.26000000E-01    1.00000000E+00 

2    0
S    3    1.000000
   3.38650000E+01    2.54938000E-02 
   5.09479000E+00    1.90373000E-01 
   1.15879000E+00    8.52161000E-01 
S    1    1.000000
   3.25840000E-01    1.00000000E+00 
S    1    1.000000
   1.02741000E-01    1.00000000E+00 
S    1    1.000000
   3.60000000E-02    1.00000000E+00 
P    1    1.000000
   7.50000000E-01    1.00000000E+00 

3    0
S    3    1.000000
   3.38650000E+01    2.54938000E-02 
   5.09479000E+00    1.90373000E-01 
   1.15879000E+00    8.52161000E-01 
S    1    1.000000
   3.25840000E-01    1.00000000E+00 
S    1    1.000000
   1.02741000E-01    1.00000000E+00 
S    1    1.000000
   3.60000000E-02    1.00000000E+00 
P    1    1.000000
   7.50000000E-01    1.00000000E+00 

4    0
S    3    1.000000
   3.38650000E+01    2.54938000E-02 
   5.09479000E+00    1.90373000E-01 
   1.15879000E+00    8.52161000E-01 
S    1    1.000000
   3.25840000E-01    1.00000000E+00 
S    1    1.000000
   1.02741000E-01    1.00000000E+00 
S    1    1.000000
   3.60000000E-02    1.00000000E+00 
P    1    1.000000
   7.50000000E-01    1.00000000E+00 

5    0
S    6    1.000000
   4.56324000E+03    1.96665000E-03 
   6.82024000E+02    1.52306000E-02 
   1.54973000E+02    7.61269000E-02 
   4.44553000E+01    2.60801000E-01 
   1.30290000E+01    6.16462000E-01 
   1.82773000E+00    2.21006000E-01 
SP   3    1.000000
   2.09642000E+01    1.14660000E-01   4.02487000E-02 
   4.80331000E+00    9.19999000E-01   2.37594000E-01 
   1.45933000E+00   -3.03068000E-03   8.15854000E-01 
SP   1    1.000000
   4.83456000E-01    1.00000000E+00   1.00000000E+00 
SP   1    1.000000
   1.45585000E-01    1.00000000E+00   1.00000000E+00 
SP   1    1.000000
   4.38000000E-02    1.00000000E+00   1.00000000E+00 
D    1    1.000000
   6.26000000E-01    1.00000000E+00 

6    0
S    6    1.000000
   8.58850000E+03    1.89515000E-03 
   1.29723000E+03    1.43859000E-02 
   2.99296000E+02    7.07320000E-02 
   8.73771000E+01    2.40001000E-01 
   2.56789000E+01    5.94797000E-01 
   3.74004000E+00    2.80802000E-01 
SP   3    1.000000
   4.21175000E+01    1.13889000E-01   3.65114000E-02 
   9.62837000E+00    9.20811000E-01   2.37153000E-01 
   2.85332000E+00   -3.27447000E-03   8.19702000E-01 
SP   1    1.000000
   9.05661000E-01    1.00000000E+00   1.00000000E+00 
SP   1    1.000000
   2.55611000E-01    1.00000000E+00   1.00000000E+00 
SP   1    1.000000
   8.45000000E-02    1.00000000E+00   1.00000000E+00 
D    1    1.000000
   1.29200000E+00    1.00000000E+00 

7    0
S    6    1.000000
   4.56324000E+03    1.96665000E-03 
   6.82024000E+02    1.52306000E-02 
   1.54973000E+02    7.61269000E-02 
   4.44553000E+01    2.60801000E-01 
   1.30290000E+01    6.16462000E-01 
   1.82773000E+00    2.21006000E-01 
SP   3    1.000000
   2.09642000E+01    1.14660000E-01   4.02487000E-02 
   4.80331000E+00    9.19999000E-01   2.37594000E-01 
   1.45933000E+00   -3.03068000E-03   8.15854000E-01 
SP   1    1.000000
   4.83456000E-01    1.00000000E+00   1.00000000E+00 
SP   1    1.000000
   1.45585000E-01    1.00000000E+00   1.00000000E+00 
SP   1    1.000000
   4.38000000E-02    1.00000000E+00   1.00000000E+00 
D    1    1.000000
   6.26000000E-01    1.00000000E+00 

8    0
S    6    1.000000
   8.58850000E+03    1.89515000E-03 
   1.29723000E+03    1.43859000E-02 
   2.99296000E+02    7.07320000E-02 
   8.73771000E+01    2.40001000E-01 
   2.56789000E+01    5.94797000E-01 
   3.74004000E+00    2.80802000E-01 
SP   3    1.000000
   4.21175000E+01    1.13889000E-01   3.65114000E-02 
   9.62837000E+00    9.20811000E-01   2.37153000E-01 
   2.85332000E+00   -3.27447000E-03   8.19702000E-01 
SP   1    1.000000
   9.05661000E-01    1.00000000E+00   1.00000000E+00 
SP   1    1.000000
   2.55611000E-01    1.00000000E+00   1.00000000E+00 
SP   1    1.000000
   8.45000000E-02    1.00000000E+00   1.00000000E+00 
D    1    1.000000
   1.29200000E+00    1.00000000E+00 

9    0
S    6    1.000000
   6.29348000E+03    1.96979000E-03 
   9.49044000E+02    1.49613000E-02 
   2.18776000E+02    7.35006000E-02 
   6.36916000E+01    2.48937000E-01 
   1.88282000E+01    6.02460000E-01 
   2.72023000E+00    2.56202000E-01 
SP   3    1.000000
   3.06331000E+01    1.11906000E-01   3.83119000E-02 
   7.02614000E+00    9.21666000E-01   2.37403000E-01 
   2.11205000E+00   -2.56919000E-03   8.17592000E-01 
SP   1    1.000000
   6.84009000E-01    1.00000000E+00   1.00000000E+00 
SP   1    1.000000
   2.00878000E-01    1.00000000E+00   1.00000000E+00 
SP   1    1.000000
   6.39000000E-02    1.00000000E+00   1.00000000E+00 
D    1    1.000000
   9.13000000E-01    1.00000000E+00 

10    0
S    6    1.000000
   6.29348000E+03    1.96979000E-03 
   9.49044000E+02    1.49613000E-02 
   2.18776000E+02    7.35006000E-02 
   6.36916000E+01    2.48937000E-01 
   1.88282000E+01    6.02460000E-01 
   2.72023000E+00    2.56202000E-01 
SP   3    1.000000
   3.06331000E+01    1.11906000E-01   3.83119000E-02 
   7.02614000E+00    9.21666000E-01   2.37403000E-01 
   2.11205000E+00   -2.56919000E-03   8.17592000E-01 
SP   1    1.000000
   6.84009000E-01    1.00000000E+00   1.00000000E+00 
SP   1    1.000000
   2.00878000E-01    1.00000000E+00   1.00000000E+00 
SP   1    1.000000
   6.39000000E-02    1.00000000E+00   1.00000000E+00 
D    1    1.000000
   9.13000000E-01    1.00000000E+00 

11    0
S    6    1.000000
   4.56324000E+03    1.96665000E-03 
   6.82024000E+02    1.52306000E-02 
   1.54973000E+02    7.61269000E-02 
   4.44553000E+01    2.60801000E-01 
   1.30290000E+01    6.16462000E-01 
   1.82773000E+00    2.21006000E-01 
SP   3    1.000000
   2.09642000E+01    1.14660000E-01   4.02487000E-02 
   4.80331000E+00    9.19999000E-01   2.37594000E-01 
   1.45933000E+00   -3.03068000E-03   8.15854000E-01 
SP   1    1.000000
   4.83456000E-01    1.00000000E+00   1.00000000E+00 
SP   1    1.000000
   1.45585000E-01    1.00000000E+00   1.00000000E+00 
SP   1    1.000000
   4.38000000E-02    1.00000000E+00   1.00000000E+00 
D    1    1.000000
   6.26000000E-01    1.00000000E+00 

12    0
S    3    1.000000
   3.38650000E+01    2.54938000E-02 
   5.09479000E+00    1.90373000E-01 
   1.15879000E+00    8.52161000E-01 
S    1    1.000000
   3.25840000E-01    1.00000000E+00 
S    1    1.000000
   1.02741000E-01    1.00000000E+00 
S    1    1.000000
   3.60000000E-02    1.00000000E+00 
P    1    1.000000
   7.50000000E-01    1.00000000E+00 

[MO]
Sym=X
Ene= 2.000000
Spin=Alpha
Occup=1
     1   -1.163837036086e-01
     2   -9.643158774536e-02
     3    3.986433464608e-04
     4    2.093275642403e-05
     5   -2.740527858488e-14
     6   -6.095025954340e-04
     7   -3.551766924575e-04
     8    4.245779568880e-05
     9   -4.316481670742e-14
    10   -1.655572571538e-04
    11    2.761516051604e-04
    12    1.562536412483e-04
    13   -3.139547397658e-14
    14   -1.339192278927e-03
    15   -6.816190668690e-05
    16   -5.597904915121e-04
    17    4.761293379561e-15
    18    1.824481680506e-04
    19    1.711784874139e-15
    20   -5.495668510440e-15
    21   -7.371796722931e-06
    22   -1.323391184672e-04
    23    3.800754578669e-05
    24    1.726988495919e-05
    25    9.597410684242e-05
    26    9.257546668617e-05
    27    2.400801292103e-05
    28    2.038204579732e-05
    29   -3.513172306884e-15
    30   -8.861473176769e-05
    31    1.542891725436e-04
    32   -1.361730538333e-04
    33   -2.051087046530e-04
    34    3.474522109477e-06
    35    2.382405990310e-05
    36   -2.802043176200e-15
    37   -1.299689758505e-05
    38    4.811858596310e-05
    39   -1.481911710051e-04
    40    1.642634856851e-05
    41   -1.298351526838e-05
    42   -3.793326799510e-05
    43    1.424948421835e-15
    44    3.538649401763e-01
    45    2.930029693065e-01
    46    4.014736517958e-04
    47   -3.044932522307e-04
    48   -5.225735088623e-15
    49    2.266740190014e-03
    50   -4.917777122705e-04
    51    3.129022809182e-04
    52   -5.265523074646e-15
    53    1.768280513486e-04
    54    7.450633219245e-05
    55   -3.590053984584e-05
    56    2.164673539414e-16
    57   -1.148259042867e-03
    58   -6.817993746291e-04
    59    2.648295931950e-04
    60   -3.274443121523e-15
    61   -2.586969242825e-04
    62    1.242018123187e-16
    63    8.031046550381e-15
    64    1.111091235405e-04
    65   -2.176334266131e-04
    66   -4.290857917752e-02
    67   -3.677067757921e-02
    68    3.553793622882e-05
    69   -1.877488059101e-05
    70    7.387792640615e-15
    71   -9.530518963109e-05
    72    2.657881444879e-04
    73   -1.596032916568e-04
    74    1.596428153736e-14
    75   -4.407330456372e-04
    76   -3.133244362529e-04
    77    1.900488926503e-04
    78    9.240822575286e-15
    79    4.527667951637e-04
    80    4.281749802086e-04
    81   -2.405201276689e-04
    82    5.088539767873e-15
    83   -2.103961864981e-05
    84    6.134388293636e-16
    85   -5.490652104108e-16
    86    4.788006197694e-05
    87   -9.145674351050e-05
    88   -1.497921268614e-01
    89   -1.240944733978e-01
    90    2.139147595193e-04
    91   -2.434434982325e-04
    92    2.787323005677e-15
    93   -6.827469995638e-04
    94   -2.206293416881e-04
    95   -1.570240619753e-04
    96    7.310135439775e-15
    97   -7.620872535607e-05
    98   -2.934730030576e-05
    99   -4.167918787378e-04
   100    2.836393124536e-15
   101   -1.687603399390e-04
   102   -2.749338268564e-04
   103   -7.363384244568e-05
   104    9.557404466149e-15
   105    1.192330870328e-04
   106   -1.743227784577e-15
   107    3.218579375394e-15
   108   -8.780510152582e-05
   109   -7.332330306152e-05
   110    6.778873465590e-02
   111    5.801092091473e-02
   112   -1.221073376147e-04
   113   -5.518052065185e-05
   114    4.677666178992e-15
   115    5.173713892142e-04
   116    1.565987929438e-04
   117    9.658475306274e-05
   118    1.036429870351e-14
   119    2.200050942244e-04
   120   -1.928072979555e-04
   121   -5.294446703395e-05
   122    7.988510925251e-15
   123    1.290039966842e-05
   124    1.446829106527e-04
   125    6.975376833004e-05
   126   -3.933337654633e-15
   127   -6.196732520658e-06
   128   -1.289160825169e-15
   129   -6.208357690406e-16
   130   -2.408763788302e-05
   131   -4.040380537150e-05
   132   -4.533943186372e-02
   133   -3.810346447372e-02
   134   -9.174773097961e-05
   135   -1.587964606377e-06
   136    1.443210457906e-14
   137   -2.934213920279e-04
   138   -4.424587914449e-04
   139   -1.056412464052e-04
   140    2.540743831715e-14
   141   -1.629411618742e-05
   142    2.892852416651e-04
   143    6.981397219560e-05
   144    2.223630109103e-14
   145    1.381309479591e-04
   146    2.270781984457e-04
   147    1.707640740426e-04
   148    2.970342103762e-15
   149   -7.626568892445e-06
   150    1.129522493736e-15
   151    5.446616898596e-16
   152    5.672121511546e-05
   153    1.231769958192e-04
   154    6.716273209213e-02
   155    5.636065818993e-02
   156   -5.672697925624e-06
   157    9.308614103127e-05
   158   -4.725273931538e-14
   159    8.456055230786e-04
   160   -1.390483629847e-04
   161    4.379745604303e-04
   162   -7.466612467663e-14
   163   -3.198252590949e-04
   164    2.914501073049e-05
   165   -2.026118339187e-04
   166   -7.115766260329e-14
   167    9.767574050868e-04
   168    4.822544186012e-04
   169   -1.693979777047e-05
   170   -6.381317597764e-15
   171   -1.276580470727e-05
   172   -3.833094563628e-15
   173    3.993377374952e-16
   174   -1.573661578917e-04
   175    3.713980255395e-05
   176    3.779773078687e-01
   177    3.130762265800e-01
   178   -5.160513021284e-05
   179    1.419748121098e-04
   180   -1.412506788924e-14
   181    3.139134528823e-03
   182   -2.330627212805e-04
   183   -3.061596296907e-04
   184   -2.510889726323e-14
   185   -1.043881478474e-03
   186    2.027662762931e-04
   187   -1.761760815867e-04
   188   -1.617745903203e-14
   189    1.371130759338e-03
   190   -8.242898297994e-04
   191    6.386269064945e-04
   192   -8.074419421774e-15
   193   -2.877057610759e-04
   194    3.139931113072e-15
   195    1.114039580333e-15
   196    1.741561247369e-04
   197    8.374875529964e-05
   198    2.744069906601e-04
   199   -2.367076661407e-04
   200    4.094461327867e-04
   201    5.839248605762e-04
   202    3.926664991933e-05
   203   -3.457761603917e-05
   204   -8.257456808005e-16
Sym=X
Ene= 2.000000
Spin=Alpha
Occup=1
     1   -1.355983468954e-01
     2   -1.123078985124e-01
     3    1.628865274376e-04
     4   -5.703600852117e-05
     5    3.997418483998e-14
     6   -9.427935043035e-04
     7   -3.787707218967e-04
     8    8.437269402943e-05
     9    6.754827257632e-14
    10    5.383437132761e-04
    11   -5.481303247508e-06
    12    3.782033474697e-04
    13    3.289397329732e-14
    14    1.407986041973e-03
    15   -2.205861591601e-04
    16   -6.304481932206e-05
    17    9.609363336033e-15
    18    9.256212579816e-05
    19   -1.041573668183e-14
    20    9.556213554679e-15
    21    4.462245410032e-06
    22   -1.714616858951e-04
    23    1.507627347882e-04
    24   -2.542598701891e-04
    25    4.584290402928e-04
    26   -6.128719329494e-05
    27   -7.681255574741e-05
    28   -3.822056615170e-05
    29    8.190411334969e-15
    30   -1.019094604182e-04
    31    1.264642143775e-04
    32   -4.148094266842e-05
    33   -2.219637815904e-04
    34   -4.567533746472e-06
    35    1.663291484748e-05
    36    2.774476454614e-15
    37   -1.277434567920e-04
    38   -1.791055116425e-05
    39   -5.021711029987e-04
    40   -2.796461082099e-04
    41   -3.708367235406e-07
    42    3.075585791013e-05
    43    1.070274044087e-15
    44   -1.494196946462e-01
    45   -1.236969258067e-01
    46   -1.828909208457e-04
    47    2.134825090940e-05
    48    9.055401801090e-14
    49   -1.032092564572e-03
    50    2.397114797813e-04
    51   -3.399542781238e-04
    52    1.564289208905e-13
    53    6.192026300962e-04
    54    5.270712742453e-04
    55   -5.635710713322e-04
    56    8.327753103169e-14
    57   -1.433743414198e-04
    58   -1.218032884945e-04
    59   -1.811757322921e-04
    60    3.141153177352e-14
    61    1.243059457466e-04
    62   -9.080349867266e-15
    63   -4.720944027853e-15
    64   -1.793447286100e-04
    65    9.276109906411e-05
    66   -1.526051055338e-01
    67   -1.304894755429e-01
    68   -4.933830498253e-04
    69    3.153500599764e-04
    70    8.778176197112e-14
    71   -1.694195578282e-03
    72    6.463480847032e-05
    73   -5.403662179882e-05
    74    1.359704615704e-13
    75    7.125195153688e-04
    76    1.505554783007e-04
    77   -2.278856971095e-05
    78    1.094652868483e-13
    79   -2.724230188334e-04
    80   -9.011164085457e-05
    81    8.337494891592e-05
    82   -1.355529156350e-14
    83    3.558745506698e-05
    84    1.107471546549e-14
    85   -7.002708017891e-15
    86   -1.637722678439e-05
    87    1.654120973946e-05
    88   -2.351920051541e-01
    89   -1.947175802672e-01
    90    3.461016849104e-04
    91   -1.899846672690e-04
    92   -2.681547293664e-14
    93   -1.736762437902e-03
    94   -3.019548095766e-04
    95    1.307229450513e-04
    96   -5.007793596579e-14
    97    1.010425263307e-03
    98    1.208607190541e-04
    99   -2.910503783832e-04
   100   -3.339983859704e-14
   101    5.976906431492e-03
   102   -9.804595211614e-04
   103   -1.308129890192e-03
   104   -6.629843264488e-15
   105    1.534983367725e-04
   106   -1.322345550097e-14
   107   -7.236063643881e-15
   108    1.468622771603e-05
   109   -1.722369905225e-04
   110    1.664231381179e-02
   111    1.428105354214e-02
   112    5.139292871848e-05
   113    3.890545014524e-05
   114   -6.561398461678e-14
   115   -5.017207331030e-05
   116    1.790599921072e-04
   117    1.183663656393e-04
   118   -1.042303621509e-13
   119    1.145170504875e-04
   120   -1.326606613547e-04
   121   -4.272587348113e-05
   122   -8.072999109560e-14
   123   -3.837321790595e-04
   124    2.064786082276e-04
   125    2.584734267836e-04
   126    2.618506681823e-15
   127    1.722152705976e-05
   128    5.976476058515e-15
   129    3.564425028266e-15
   130   -2.769631792084e-05
   131   -6.989173493101e-05
   132   -2.311924850343e-01
   133   -1.940640781586e-01
   134    6.979782131650e-05
   135    1.074373983262e-04
   136    3.116244505290e-14
   137   -2.588016137871e-03
   138   -1.593864347783e-04
   139    1.379573458324e-04
   140    5.048352944031e-14
   141    3.773640772413e-04
   142    4.772140388242e-05
   143    2.471613080805e-04
   144    4.149418342846e-14
   145   -1.862190974314e-03
   146   -2.766754762936e-04
   147    1.248995372539e-03
   148   -1.580275210075e-14
   149    3.897849213825e-05
   150   -7.660395668390e-15
   151   -3.925351377066e-15
   152   -1.199026605221e-04
   153    4.643619975895e-05
   154    3.572098382161e-01
   155    2.999897451887e-01
   156    8.789073592063e-05
   157   -8.300136685225e-06
   158    1.170256406354e-13
   159    3.380512176429e-03
   160   -2.020318139903e-04
   161   -6.880886753193e-05
   162    1.953940572899e-13
   163   -1.251574199650e-03
   164   -3.626811863310e-04
   165   -3.138490799663e-04
   166    1.742314201531e-13
   167    3.311710624381e-04
   168    4.897406325589e-04
   169    5.602219744589e-04
   170   -9.548243630437e-15
   171    2.387399802981e-05
   172    4.862487862968e-15
   173    7.025738883563e-15
   174    6.111292722394e-05
   175    8.597565024180e-05
   176   -1.092428340421e-01
   177   -9.044853971892e-02
   178    8.359401072624e-05
   179   -7.998474809183e-05
   180    6.417239236245e-15
   181   -1.069727728564e-03
   182   -1.508693156681e-05
   183   -6.816296262029e-05
   184    8.788237160727e-15
   185   -5.734773484268e-05
   186    8.678174917033e-05
   187   -2.212337040962e-04
   188    8.420902866840e-15
   189   -5.089544513448e-03
   190    1.038737708262e-03
   191   -1.232307040569e-03
   192   -7.451414151566e-15
   193    2.128154830906e-05
   194   -5.171710727728e-15
   195   -3.263929388982e-15
   196    2.007829893781e-05
   197   -4.040823910562e-05
   198   -8.213521278196e-05
   199    1.144857513677e-05
   200   -2.308073305620e-04
   201   -4.338857587203e-04
   202    1.423294737699e-05
   203    1.204771435374e-06
   204    2.610338354601e-16
Sym=X
Ene= 2.000000
Spin=Alpha
Occup=1
     1   -2.548612603914e-01
     2   -2.110248544553e-01
     3    4.517291083942e-04
     4   -1.943838846654e-04
     5   -2.204078314899e-14
     6   -2.121996914711e-03
     7   -4.740073594852e-04
     8   -6.128419531546e-05
     9   -3.771903638379e-14
    10    7.076373773371e-04
    11    3.463852321081e-04
    12   -9.310614139889e-05
    13   -1.712863254528e-14
    14    8.422081839380e-03
    15    3.325046042252e-04
    16    1.945405844555e-03
    17   -7.228203952178e-15
    18    1.628522426541e-04
    19    6.743178218959e-15
    20   -5.847026145336e-15
    21   -5.834521445216e-05
    22   -2.146627994660e-04
    23   -1.052821849674e-04
    24    2.380707306492e-05
    25   -3.459107634277e-04
    26   -5.322221894599e-04
    27   -1.937240103616e-05
    28    2.308727610234e-05
    29   -5.345990084494e-15
    30   -1.682243063925e-04
    31   -3.195964960147e-05
    32   -1.308755500278e-04
    33    3.947615047018e-04
    34   -3.461612730105e-05
    35   -2.082252252263e-05
    36   -1.471036181357e-15
    37    7.014699001488e-05
    38   -1.625555475915e-04
    39    2.380543734556e-04
    40    1.139819692213e-04
    41   -9.094195306893e-06
    42    6.021987649015e-05
    43   -1.861709706331e-15
    44    8.092565517778e-02
    45    6.701181688190e-02
    46    1.320846590655e-04
    47   -1.824065453782e-05
    48   -6.426284493953e-14
    49    4.745733522935e-04
    50   -8.238694838975e-05
    51    1.960289304131e-04
    52   -1.110443746702e-13
    53    9.296410270844e-04
    54    4.372001478551e-04
    55   -9.744741636042e-05
    56   -5.863231748520e-14
    57   -1.714403099577e-03
    58   -5.008482180662e-04
    59    7.760132749542e-05
    60   -2.255258579111e-14
    61   -7.248787907012e-05
    62    6.804014451516e-15
    63    9.762558593590e-16
    64    8.557400501993e-05
    65   -1.976770316839e-05
    66    9.281428911360e-03
    67    7.923296536645e-03
    68    5.872100087783e-05
    69   -4.496632332227e-05
    70   -6.826963928182e-14
    71    1.595937709284e-04
    72    3.119883369622e-05
    73   -1.120752743675e-05
    74   -1.067923892946e-13
    75   -1.198222734477e-04
    76   -9.855981719395e-05
    77    1.405494226412e-06
    78   -8.570906631600e-14
    79    1.878805889617e-04
    80    1.008604722724e-04
    81   -4.516942150476e-06
    82    7.038536137487e-15
    83   -7.508169893607e-06
    84   -8.247490942366e-15
    85    5.501455106409e-15
    86    9.794912156763e-06
    87   -1.432069530537e-05
    88   -3.360596548321e-01
    89   -2.782364912307e-01
    90    4.062123266893e-04
    91   -2.167883415632e-04
    92    3.289922032759e-15
    93   -2.350724618751e-03
    94   -6.242409082402e-04
    95    1.956869356047e-04
    96    9.299113970141e-15
    97    9.449781620052e-05
    98   -2.080077311699e-04
    99   -5.469516444092e-04
   100    5.875039445363e-15
   101    7.582096953224e-03
   102   -1.168122977214e-03
   103   -1.619537745167e-03
   104    1.902063170080e-15
   105    2.608469770797e-04
   106    5.192061945166e-15
   107    1.443231827889e-15
   108    8.880940321874e-05
   109   -3.287439872530e-04
   110   -9.423356988633e-02
   111   -8.052600498950e-02
   112    4.110791143657e-04
   113    2.445440031757e-04
   114    1.594037807767e-14
   115   -1.292973966537e-03
   116    1.123978690311e-04
   117    1.011655526599e-04
   118    2.624353311736e-14
   119    7.887234178416e-04
   120   -2.525511029787e-04
   121   -1.657629631728e-04
   122    2.083936108896e-14
   123   -5.178606085088e-04
   124    2.481000736960e-04
   125    3.344437711078e-04
   126   -1.397985383657e-15
   127    4.540521363726e-05
   128   -9.043821745229e-16
   129   -1.001016558454e-15
   130   -2.145824500888e-05
   131   -8.172663068818e-05
   132    1.819841971096e-01
   133    1.528533494011e-01
   134   -1.113524356747e-04
   135   -3.390756635191e-05
   136   -2.702972711374e-14
   137    1.630950779272e-03
   138   -4.210781683658e-04
   139    1.774404109580e-04
   140   -4.443506313442e-14
   141   -6.762583648769e-04
   142    4.235414935401e-04
   143    3.123158415241e-04
   144   -3.448172515948e-14
   145    6.055069886008e-05
   146   -1.769101796279e-04
   147   -2.744164261308e-04
   148    1.329510477806e-14
   149    3.647821810564e-05
   150    4.480172577246e-15
   151    3.109668189390e-15
   152   -1.041151816501e-04
   153    1.273378698811e-04
   154   -2.141023466972e-01
   155   -1.797400970408e-01
   156   -1.129206743225e-04
   157    4.534505379469e-05
   158   -7.104377174965e-14
   159   -2.333894155612e-03
   160   -2.417965564006e-04
   161    2.382583151828e-04
   162   -1.157037565813e-13
   163    4.984289642403e-04
   164    7.414343419880e-05
   165   -2.622100950373e-04
   166   -1.034796269350e-13
   167   -1.942986885874e-03
   168   -9.680787365787e-04
   169   -5.080293052153e-05
   170    8.666341347476e-15
   171    2.168567508849e-05
   172   -2.749153275907e-15
   173   -5.213674855846e-15
   174   -9.725144139543e-05
   175    9.111595260131e-05
   176   -2.071988349959e-01
   177   -1.715645065260e-01
   178    1.598654151959e-04
   179   -1.258518073434e-04
   180   -4.604270187027e-15
   181   -1.983582327507e-03
   182   -6.237127233778e-05
   183   -8.363227981012e-05
   184   -5.744241095859e-15
   185    2.487135318629e-04
   186    1.929557432009e-04
   187    8.629130404123e-05
   188   -3.566600131171e-15
   189   -1.186939649115e-02
   190    3.009777755189e-03
   191   -1.938008447880e-03
   192    6.181536861615e-15
   193    5.369623872048e-05
   194    2.963546378190e-15
   195    1.216223012992e-15
   196    2.116924569949e-06
   197   -3.817038111015e-05
   198   -1.532535678739e-04
   199    9.670318587624e-05
   200   -4.365273298574e-04
   201   -1.065935183852e-03
   202    3.336416152017e-06
   203    1.106770502065e-05
   204   -2.647367177965e-16
Sym=X
Ene= 2.000000
Spin=Alpha
Occup=1
     1   -7.020230471964e-02
     2   -5.812792415532e-02
     3    1.808926822918e-04
     4   -5.019417517147e-05
     5    5.767448795194e-14
     6   -5.712421601971e-04
     7   -1.172461468501e-04
     8   -4.252549603404e-05
     9    1.039008930646e-13
    10   -3.061466336909e-04
    11   -6.971697402225e-05
    12   -4.589018778769e-04
    13    6.476584381160e-14
    14   -1.109457873929e-03
    15   -3.054102024328e-04
    16   -6.843919541775e-04
    17    1.906867120053e-14
    18    6.161187228791e-05
    19   -6.659605225957e-15
    20    1.069154862179e-14
    21   -3.498267168490e-05
    22   -2.084968692418e-05
    23   -9.557669161303e-05
    24    6.113511222609e-05
    25   -3.533357055268e-04
    26   -2.886131246673e-04
    27   -6.048784883201e-06
    28    1.366638008214e-05
    29    7.516719179570e-15
    30   -4.274670317647e-05
    31   -9.116760481051e-05
    32   -1.976383779682e-04
    33   -2.682347260798e-04
    34    1.777559317325e-06
    35   -2.040105839734e-05
    36    4.150466709322e-15
    37    1.323682356881e-05
    38    3.961113045525e-06
    39    1.553319098991e-04
    40   -1.291081047445e-04
    41   -8.930228807849e-06
    42    3.245183125482e-06
    43   -4.363780501530e-15
    44   -8.002011488636e-02
    45   -6.618068552594e-02
    46   -3.544194682561e-05
    47    6.831204234618e-05
    48   -7.993058455792e-15
    49   -8.235001357854e-04
    50    3.760758407820e-04
    51   -1.715587314424e-04
    52   -1.730069068144e-14
    53   -2.926425535569e-04
    54    3.485205037941e-05
    55   -9.064122524897e-05
    56   -8.458424800253e-15
    57    2.319781008494e-04
    58   -2.616073364038e-04
    59    1.038675866079e-04
    60    2.989541753425e-15
    61    1.052849941684e-04
    62    1.992445980964e-15
    63   -2.013479735759e-14
    64   -6.199725304039e-05
    65    2.098099091010e-04
    66   -4.278148644112e-01
    67   -3.658917065198e-01
    68   -1.249673176006e-03
    69    7.603305246779e-04
    70   -4.029071578526e-14
    71   -4.362196310978e-03
    72    4.422894470318e-04
    73   -2.665226541686e-04
    74   -5.959267055488e-14
    75    1.073579842412e-03
    76   -5.709480565132e-05
    77    3.516645147566e-05
    78   -5.597356995204e-14
    79   -1.530250918042e-03
    80   -2.541900147774e-04
    81    1.202103945331e-04
    82   -6.973553103924e-15
    83    7.548768838509e-05
    84   -2.971536733719e-15
    85    1.606620255393e-15
    86    2.323196023105e-05
    87   -3.146648611949e-05
    88    7.089140578435e-02
    89    5.865606316669e-02
    90   -7.309090994042e-05
    91    7.575433809118e-05
    92   -3.896824958394e-14
    93    6.622339384371e-04
    94    2.721042817476e-04
    95    8.191916738705e-05
    96   -6.922912120759e-14
    97   -3.532517194004e-04
    98    3.005234066064e-04
    99    5.538959639501e-04
   100   -3.549128823904e-14
   101   -3.877799107615e-03
   102   -7.169479987875e-05
   103    1.234364617985e-03
   104    6.416538114675e-15
   105   -7.407495637725e-05
   106   -6.089613714931e-15
   107   -1.462228892683e-14
   108    3.173487085137e-05
   109    1.388845702727e-04
   110    2.636794347423e-01
   111    2.255074864048e-01
   112   -7.615950102752e-04
   113   -4.599840267273e-04
   114   -6.870725105904e-14
   115    2.716827073297e-03
   116    2.481523087986e-04
   117    1.459398372433e-04
   118   -1.045148016471e-13
   119   -8.208153745479e-04
   120    1.996588162163e-05
   121   -1.415004654069e-05
   122   -8.205377290770e-14
   123    8.595376469063e-04
   124   -1.396951008916e-04
   125   -1.119913973513e-04
   126   -3.883073240692e-15
   127   -6.297370662809e-05
   128    7.076407448121e-15
   129    4.164130111035e-15
   130   -1.244732565895e-05
   131   -1.590058736048e-05
   132    2.846135068501e-02
   133    2.390007774716e-02
   134   -1.065108505922e-06
   135   -9.072137023210e-06
   136   -5.408585250069e-14
   137    2.710946213669e-04
   138    2.038887125760e-04
   139    9.483418881676e-06
   140   -9.210058438650e-14
   141    2.873698795196e-05
   142   -1.934999568616e-04
   143   -1.086524669861e-04
   144   -7.973998307537e-14