[Molden Format]
[Atoms] (Angs)
  C      1    6     -0.00714236     -1.70213747     -0.00000000
  H      2    1     -2.06882847     -1.44022412      0.00000000
  H      3    1     -0.12337987     -2.77567521      0.00000000
  H      4    1      0.04651892      1.98813947     -0.00000000
  C      5    6     -1.21953563      0.40211669      0.00000000
  O      6    8     -2.25921553      1.03043814      0.00000000
  C      7    6      1.28797806      0.34644937     -0.00000000
  O      8    8      2.31273661      1.00537216     -0.00000000
  N      9    7      0.03446295      0.97739857     -0.00000000
  N     10    7     -1.17287765     -0.98229824      0.00000000
  C     11    6      1.20107039     -1.10433419     -0.00000000
  H     12    1      2.11220096     -1.67699125     -0.00000000
[GTO]
1    0
S    6    1.000000
   4.56324000E+03    1.96665000E-03 
   6.82024000E+02    1.52306000E-02 
   1.54973000E+02    7.61269000E-02 
   4.44553000E+01    2.60801000E-01 
   1.30290000E+01    6.16462000E-01 
   1.82773000E+00    2.21006000E-01 
SP   3    1.000000
   2.09642000E+01    1.14660000E-01   4.02487000E-02 
   4.80331000E+00    9.19999000E-01   2.37594000E-01 
   1.45933000E+00   -3.03068000E-03   8.15854000E-01 
SP   1    1.000000
   4.83456000E-01    1.00000000E+00   1.00000000E+00 
SP   1    1.000000
   1.45585000E-01    1.00000000E+00   1.00000000E+00 
SP   1    1.000000
   4.38000000E-02    1.00000000E+00   1.00000000E+00 
D    1    1.000000
   6.26000000E-01    1.00000000E+00 

2    0
S    3    1.000000
   3.38650000E+01    2.54938000E-02 
   5.09479000E+00    1.90373000E-01 
   1.15879000E+00    8.52161000E-01 
S    1    1.000000
   3.25840000E-01    1.00000000E+00 
S    1    1.000000
   1.02741000E-01    1.00000000E+00 
S    1    1.000000
   3.60000000E-02    1.00000000E+00 
P    1    1.000000
   7.50000000E-01    1.00000000E+00 

3    0
S    3    1.000000
   3.38650000E+01    2.54938000E-02 
   5.09479000E+00    1.90373000E-01 
   1.15879000E+00    8.52161000E-01 
S    1    1.000000
   3.25840000E-01    1.00000000E+00 
S    1    1.000000
   1.02741000E-01    1.00000000E+00 
S    1    1.000000
   3.60000000E-02    1.00000000E+00 
P    1    1.000000
   7.50000000E-01    1.00000000E+00 

4    0
S    3    1.000000
   3.38650000E+01    2.54938000E-02 
   5.09479000E+00    1.90373000E-01 
   1.15879000E+00    8.52161000E-01 
S    1    1.000000
   3.25840000E-01    1.00000000E+00 
S    1    1.000000
   1.02741000E-01    1.00000000E+00 
S    1    1.000000
   3.60000000E-02    1.00000000E+00 
P    1    1.000000
   7.50000000E-01    1.00000000E+00 

5    0
S    6    1.000000
   4.56324000E+03    1.96665000E-03 
   6.82024000E+02    1.52306000E-02 
   1.54973000E+02    7.61269000E-02 
   4.44553000E+01    2.60801000E-01 
   1.30290000E+01    6.16462000E-01 
   1.82773000E+00    2.21006000E-01 
SP   3    1.000000
   2.09642000E+01    1.14660000E-01   4.02487000E-02 
   4.80331000E+00    9.19999000E-01   2.37594000E-01 
   1.45933000E+00   -3.03068000E-03   8.15854000E-01 
SP   1    1.000000
   4.83456000E-01    1.00000000E+00   1.00000000E+00 
SP   1    1.000000
   1.45585000E-01    1.00000000E+00   1.00000000E+00 
SP   1    1.000000
   4.38000000E-02    1.00000000E+00   1.00000000E+00 
D    1    1.000000
   6.26000000E-01    1.00000000E+00 

6    0
S    6    1.000000
   8.58850000E+03    1.89515000E-03 
   1.29723000E+03    1.43859000E-02 
   2.99296000E+02    7.07320000E-02 
   8.73771000E+01    2.40001000E-01 
   2.56789000E+01    5.94797000E-01 
   3.74004000E+00    2.80802000E-01 
SP   3    1.000000
   4.21175000E+01    1.13889000E-01   3.65114000E-02 
   9.62837000E+00    9.20811000E-01   2.37153000E-01 
   2.85332000E+00   -3.27447000E-03   8.19702000E-01 
SP   1    1.000000
   9.05661000E-01    1.00000000E+00   1.00000000E+00 
SP   1    1.000000
   2.55611000E-01    1.00000000E+00   1.00000000E+00 
SP   1    1.000000
   8.45000000E-02    1.00000000E+00   1.00000000E+00 
D    1    1.000000
   1.29200000E+00    1.00000000E+00 

7    0
S    6    1.000000
   4.56324000E+03    1.96665000E-03 
   6.82024000E+02    1.52306000E-02 
   1.54973000E+02    7.61269000E-02 
   4.44553000E+01    2.60801000E-01 
   1.30290000E+01    6.16462000E-01 
   1.82773000E+00    2.21006000E-01 
SP   3    1.000000
   2.09642000E+01    1.14660000E-01   4.02487000E-02 
   4.80331000E+00    9.19999000E-01   2.37594000E-01 
   1.45933000E+00   -3.03068000E-03   8.15854000E-01 
SP   1    1.000000
   4.83456000E-01    1.00000000E+00   1.00000000E+00 
SP   1    1.000000
   1.45585000E-01    1.00000000E+00   1.00000000E+00 
SP   1    1.000000
   4.38000000E-02    1.00000000E+00   1.00000000E+00 
D    1    1.000000
   6.26000000E-01    1.00000000E+00 

8    0
S    6    1.000000
   8.58850000E+03    1.89515000E-03 
   1.29723000E+03    1.43859000E-02 
   2.99296000E+02    7.07320000E-02 
   8.73771000E+01    2.40001000E-01 
   2.56789000E+01    5.94797000E-01 
   3.74004000E+00    2.80802000E-01 
SP   3    1.000000
   4.21175000E+01    1.13889000E-01   3.65114000E-02 
   9.62837000E+00    9.20811000E-01   2.37153000E-01 
   2.85332000E+00   -3.27447000E-03   8.19702000E-01 
SP   1    1.000000
   9.05661000E-01    1.00000000E+00   1.00000000E+00 
SP   1    1.000000
   2.55611000E-01    1.00000000E+00   1.00000000E+00 
SP   1    1.000000
   8.45000000E-02    1.00000000E+00   1.00000000E+00 
D    1    1.000000
   1.29200000E+00    1.00000000E+00 

9    0
S    6    1.000000
   6.29348000E+03    1.96979000E-03 
   9.49044000E+02    1.49613000E-02 
   2.18776000E+02    7.35006000E-02 
   6.36916000E+01    2.48937000E-01 
   1.88282000E+01    6.02460000E-01 
   2.72023000E+00    2.56202000E-01 
SP   3    1.000000
   3.06331000E+01    1.11906000E-01   3.83119000E-02 
   7.02614000E+00    9.21666000E-01   2.37403000E-01 
   2.11205000E+00   -2.56919000E-03   8.17592000E-01 
SP   1    1.000000
   6.84009000E-01    1.00000000E+00   1.00000000E+00 
SP   1    1.000000
   2.00878000E-01    1.00000000E+00   1.00000000E+00 
SP   1    1.000000
   6.39000000E-02    1.00000000E+00   1.00000000E+00 
D    1    1.000000
   9.13000000E-01    1.00000000E+00 

10    0
S    6    1.000000
   6.29348000E+03    1.96979000E-03 
   9.49044000E+02    1.49613000E-02 
   2.18776000E+02    7.35006000E-02 
   6.36916000E+01    2.48937000E-01 
   1.88282000E+01    6.02460000E-01 
   2.72023000E+00    2.56202000E-01 
SP   3    1.000000
   3.06331000E+01    1.11906000E-01   3.83119000E-02 
   7.02614000E+00    9.21666000E-01   2.37403000E-01 
   2.11205000E+00   -2.56919000E-03   8.17592000E-01 
SP   1    1.000000
   6.84009000E-01    1.00000000E+00   1.00000000E+00 
SP   1    1.000000
   2.00878000E-01    1.00000000E+00   1.00000000E+00 
SP   1    1.000000
   6.39000000E-02    1.00000000E+00   1.00000000E+00 
D    1    1.000000
   9.13000000E-01    1.00000000E+00 

11    0
S    6    1.000000
   4.56324000E+03    1.96665000E-03 
   6.82024000E+02    1.52306000E-02 
   1.54973000E+02    7.61269000E-02 
   4.44553000E+01    2.60801000E-01 
   1.30290000E+01    6.16462000E-01 
   1.82773000E+00    2.21006000E-01 
SP   3    1.000000
   2.09642000E+01    1.14660000E-01   4.02487000E-02 
   4.80331000E+00    9.19999000E-01   2.37594000E-01 
   1.45933000E+00   -3.03068000E-03   8.15854000E-01 
SP   1    1.000000
   4.83456000E-01    1.00000000E+00   1.00000000E+00 
SP   1    1.000000
   1.45585000E-01    1.00000000E+00   1.00000000E+00 
SP   1    1.000000
   4.38000000E-02    1.00000000E+00   1.00000000E+00 
D    1    1.000000
   6.26000000E-01    1.00000000E+00 

12    0
S    3    1.000000
   3.38650000E+01    2.54938000E-02 
   5.09479000E+00    1.90373000E-01 
   1.15879000E+00    8.52161000E-01 
S    1    1.000000
   3.25840000E-01    1.00000000E+00 
S    1    1.000000
   1.02741000E-01    1.00000000E+00 
S    1    1.000000
   3.60000000E-02    1.00000000E+00 
P    1    1.000000
   7.50000000E-01    1.00000000E+00 

[MO]
Sym=X
Ene= 2.000000
Spin=Alpha
Occup=1
     1    1.216196317742e-01
     2    1.007657248208e-01
     3   -4.093287215020e-04
     4   -1.574251759283e-05
     5    4.008658636260e-15
     6    6.599576119462e-04
     7    3.613088072768e-04
     8   -3.679365766482e-05
     9    2.891540369563e-15
    10    1.356226602139e-04
    11   -2.837167609598e-04
    12   -1.477745131187e-04
    13    6.058830535745e-15
    14    9.683887415100e-04
    15    3.816351559313e-05
    16    4.752492770410e-04
    17   -9.447706820161e-15
    18   -1.850043493604e-04
    19    1.277618674475e-15
    20    8.618102397976e-16
    21    8.706047826902e-06
    22    1.352568492944e-04
    23   -2.975042831321e-05
    24   -2.255623672530e-05
    25   -7.224252671327e-05
    26   -7.240605081138e-05
    27   -2.453094730734e-05
    28   -2.155092549101e-05
    29    2.252988450078e-16
    30    9.163891682917e-05
    31   -1.477851117462e-04
    32    1.385036269620e-04
    33    1.871798632962e-04
    34   -2.357975977473e-06
    35   -2.215257107693e-05
    36    1.161761184353e-15
    37    7.037656085888e-06
    38   -3.784179005921e-05
    39    1.327153965441e-04
    40   -2.678293600062e-05
    41    1.322777100245e-05
    42    3.308442174844e-05
    43   -1.551579059751e-15
    44   -3.525406456670e-01
    45   -2.919061156578e-01
    46   -4.027196614319e-04
    47    2.987723390981e-04
    48   -4.576927132173e-15
    49   -2.258317764598e-03
    50    4.893069618021e-04
    51   -3.212282505966e-04
    52   -1.206494714990e-14
    53   -2.151534151382e-04
    54   -1.003978800876e-04
    55    2.408197496386e-05
    56   -6.456639168411e-15
    57    1.202303394801e-03
    58    6.899755791121e-04
    59   -2.629204630699e-04
    60   -9.656343409014e-16
    61    2.587952190814e-04
    62   -3.481495702604e-15
    63   -9.169390843377e-16
    64   -1.150917599095e-04
    65    2.157217460507e-04
    66    3.848039930655e-02
    67    3.298297312081e-02
    68   -4.717618218030e-05
    69    2.671485135661e-05
    70    1.894416532562e-15
    71    5.243839909364e-05
    72   -2.596314051789e-04
    73    1.553524079312e-04
    74   -2.075109574171e-15
    75    4.484926900436e-04
    76    3.141611680329e-04
    77   -1.841129611804e-04
    78    6.103969446357e-15
    79   -4.715967890717e-04
    80   -4.296488092682e-04
    81    2.399475149032e-04
    82    2.369435016491e-16
    83    2.159308653544e-05
    84   -5.845018176478e-16
    85    8.480348147785e-16
    86   -4.729809085810e-05
    87    9.047111598389e-05
    88    1.729327881222e-01
    89    1.432561715015e-01
    90   -2.421911455650e-04
    91    2.598268577539e-04
    92    3.390263178672e-16
    93    8.318681851678e-04
    94    2.588822325784e-04
    95    1.439782534899e-04
    96   -1.243524191876e-15
    97    7.661798945853e-05
    98    4.707965890454e-05
    99    4.502553967192e-04
   100    1.721148429817e-15
   101   -9.571124451262e-05
   102    3.249442172543e-04
   103    1.457384429490e-04
   104   -1.255803216656e-14
   105   -1.367271438417e-04
   106    5.392309994340e-15
   107    2.140435953106e-17
   108    8.231683284239e-05
   109    9.208286194631e-05
   110   -7.052384124750e-02
   111   -6.035523994382e-02
   112    1.193178906584e-04
   113    5.353437716578e-05
   114    9.497370732747e-15
   115   -5.196439087800e-04
   116   -1.747462773352e-04
   117   -1.094856461307e-04
   118    1.159025483044e-14
   119   -2.576560046506e-04
   120    2.135309436014e-04
   121    6.700589135367e-05
   122    1.170563165131e-14
   123   -7.103432996207e-06
   124   -1.596051775785e-04
   125   -8.777329919259e-05
   126    7.076806118669e-15
   127    5.173377089730e-06
   128    1.862063161203e-16
   129   -1.592174163525e-16
   130    2.649235903958e-05
   131    4.710102257990e-05
   132    2.992090703146e-02
   133    2.515269559979e-02
   134    9.916045852657e-05
   135    3.654064298237e-06
   136   -2.002668215528e-14
   137    1.573149475370e-04
   138    4.645424752833e-04
   139    9.080109612108e-05
   140   -3.401665348308e-14
   141    6.721160703391e-05
   142   -3.124712143805e-04
   143   -8.717813339672e-05
   144   -3.264709435339e-14
   145   -1.490194182011e-04
   146   -2.310375095462e-04
   147   -1.532928441255e-04
   148    4.060013581420e-16
   149    5.089320254827e-06
   150    9.311763514631e-17
   151    5.318031482850e-16
   152   -4.827474449277e-05
   153   -1.300740965051e-04
   154   -4.986257385061e-02
   155   -4.183541296687e-02
   156    1.214501249578e-05
   157   -9.319663081088e-05
   158    3.067014219917e-15
   159   -6.651586236196e-04
   160    1.412230743352e-04
   161   -4.390330154478e-04
   162    2.235181130968e-15
   163    2.748830554236e-04
   164   -3.183558180196e-05
   165    1.998535135024e-04
   166    2.982771659127e-15
   167   -8.821597217354e-04
   168   -4.289340595832e-04
   169    2.889559911047e-05
   170    6.807983996471e-15
   171    1.199571607676e-05
   172    9.721559168899e-16
   173   -7.335903128416e-16
   174    1.587674708819e-04
   175   -3.884057220512e-05
   176   -3.719291248385e-01
   177   -3.080694809403e-01
   178    4.817865621142e-05
   179   -1.337936942112e-04
   180    2.093302150646e-15
   181   -3.074615478110e-03
   182    2.336738669309e-04
   183    3.121377252615e-04
   184    4.285558537676e-15
   185    1.038084457725e-03
   186   -2.115620749390e-04
   187    1.738858291125e-04
   188   -3.994013864684e-16
   189   -8.663083979534e-04
   190    6.961768195547e-04
   191   -5.739876877964e-04
   192    1.270785133119e-14
   193    2.862125419683e-04
   194    5.763287045863e-16
   195   -2.444512090494e-16
   196   -1.761618018313e-04
   197   -8.128418332305e-05
   198   -2.696944398794e-04
   199    2.356040120982e-04
   200   -3.950456107082e-04
   201   -5.432120458055e-04
   202   -3.984298262678e-05
   203    3.537380226477e-05
   204   -7.189374202094e-20
Sym=X
Ene= 2.000000
Spin=Alpha
Occup=1
     1    1.323687986593e-01
     2    1.096334188493e-01
     3   -1.597056561720e-04
     4    5.458021379275e-05
     5    2.112646691123e-15
     6    9.181925078864e-04
     7    3.714271338746e-04
     8   -8.215577359627e-05
     9    5.945617580649e-15
    10   -5.269412321687e-04
    11    1.171758862239e-05
    12   -3.705512828965e-04
    13    5.990177987326e-15
    14   -1.410758334575e-03
    15    2.121173326681e-04
    16    7.596946469672e-05
    17   -2.265135485021e-15
    18   -9.079133966136e-05
    19   -1.553816389670e-16
    20   -9.553799273004e-16
    21   -5.354528895270e-06
    22    1.679942995760e-04
    23   -1.481381078056e-04
    24    2.508537012601e-04
    25   -4.539198704932e-04
    26    5.952092876447e-05
    27    7.571884885283e-05
    28    3.784618804722e-05
    29    5.496731938535e-16
    30    9.951126430940e-05
    31   -1.233296286749e-04
    32    4.267219863675e-05
    33    2.291372937008e-04
    34    4.237003314564e-06
    35   -1.618135074189e-05
    36    2.362536005764e-16
    37    1.273144761707e-04
    38    1.876508947470e-05
    39    5.041811660323e-04
    40    2.783270776270e-04
    41    6.034289143640e-07
    42   -3.235399931277e-05
    43   -5.311068463838e-15
    44    1.503622905127e-01
    45    1.244768330762e-01
    46    1.829590888642e-04
    47   -2.338772535353e-05
    48   -4.030801170587e-14
    49    1.040692577917e-03
    50   -2.416304316411e-04
    51    3.396874870522e-04
    52   -6.849210211075e-14
    53   -6.189864246225e-04
    54   -5.339499981702e-04
    55    5.508118450433e-04
    56   -3.694657476797e-14
    57    1.478301812842e-04
    58    1.237274526913e-04
    59    1.825158850031e-04
    60   -1.311953350687e-14
    61   -1.251226669798e-04
    62   -7.547991441198e-15
    63   -4.339880388840e-15
    64    1.799101997848e-04
    65   -9.429086825888e-05
    66    1.543993600962e-01
    67    1.320239134434e-01
    68    4.989645180607e-04
    69   -3.185306343798e-04
    70   -2.013218843356e-14
    71    1.712891188772e-03
    72   -6.599567735127e-05
    73    5.484103092340e-05
    74   -2.962092129869e-14
    75   -7.163665981438e-04
    76   -1.492209024516e-04
    77    2.501774169732e-05
    78   -2.288974978462e-14
    79    2.760292387357e-04
    80    9.102197662615e-05
    81   -8.327257042728e-05
    82    1.161168371653e-14
    83   -3.599071808046e-05
    84   -3.491502152708e-15
    85    2.186590328766e-15
    86    1.656416204696e-05
    87   -1.648116055321e-05
    88    2.468692073452e-01
    89    2.043891479793e-01
    90   -3.622115868257e-04
    91    2.003729400047e-04
    92   -1.163575366709e-14
    93    1.802541001001e-03
    94    3.141602133122e-04
    95   -1.365998521698e-04
    96   -1.801451224080e-14
    97   -1.006706084458e-03
    98   -1.255370985700e-04
    99    3.008963625207e-04
   100   -4.826039792714e-15
   101   -5.954200757657e-03
   102    9.989444351356e-04
   103    1.315255417292e-03
   104   -4.305784271299e-15
   105   -1.615201220150e-04
   106    1.255048568846e-14
   107   -1.803060459525e-15
   108   -1.622008061830e-05
   109    1.772542393316e-04
   110   -2.796459463566e-02
   111   -2.396742900122e-02
   112   -2.511996473974e-05
   113   -2.347230752961e-05
   114    1.689966212884e-14
   115   -5.044463531877e-05
   116   -1.993223481933e-04
   117   -1.311561447471e-04
   118    2.774327339447e-14
   119   -1.085822003893e-04
   120    1.456267997907e-04
   121    4.993538369156e-05
   122    2.787167783326e-14
   123    3.649093048135e-04
   124   -2.143827357280e-04
   125   -2.652076614880e-04
   126    6.999313159660e-15
   127   -1.556371083228e-05
   128   -2.553034662889e-16
   129   -1.544719355483e-16
   130    2.983499915628e-05
   131    7.447902485995e-05
   132    2.290101495207e-01
   133    1.922294925285e-01
   134   -6.736002096932e-05
   135   -1.082411577661e-04
   136   -8.062257093224e-14
   137    2.575860320427e-03
   138    1.702191854771e-04
   139   -1.441941092052e-04
   140   -1.314498395475e-13
   141   -3.725199954903e-04
   142   -5.699718963073e-05
   143   -2.477342134189e-04
   144   -1.315915574451e-13
   145    1.866904292896e-03
   146    2.742700820301e-04
   147   -1.255886684731e-03
   148    7.554483899285e-16
   149   -4.011623206587e-05
   150    1.967280797609e-15
   151    4.835815379789e-15
   152    1.235940724316e-04
   153   -4.966069028739e-05
   154   -3.515298591242e-01
   155   -2.952199931427e-01
   156   -8.656865556054e-05
   157    8.776101861988e-06
   158   -8.570813140562e-15
   159   -3.325319759162e-03
   160    1.970597593806e-04
   161    7.282846916703e-05
   162   -1.610094576167e-14
   163    1.234585360263e-03
   164    3.618148307009e-04
   165    3.040409396264e-04
   166   -9.304730535893e-15
   167   -3.405791554575e-04
   168   -4.866376019188e-04
   169   -5.608695720796e-04
   170    8.144848027043e-15
   171   -2.379716894080e-05
   172   -2.067753730956e-16
   173   -3.464944031881e-15
   174   -6.225321397104e-05
   175   -8.478064787900e-05
   176    1.045241072383e-01
   177    8.653922176903e-02
   178   -8.068280239050e-05
   179    8.233987079517e-05
   180    1.594791464656e-15
   181    1.035468123013e-03
   182    1.546051764451e-05
   183    7.284392118930e-05
   184    4.785597110417e-15
   185    5.690998281520e-05
   186   -7.803241176979e-05
   187    2.217868111107e-04
   188    2.448848152284e-15
   189    5.082997049273e-03
   190   -1.036028127956e-03
   191    1.208728117797e-03
   192    5.788392767918e-15
   193   -1.836288504769e-05
   194   -3.962020366236e-16
   195   -2.501071236096e-15
   196   -2.320057153690e-05
   197    4.052621241284e-05
   198    7.905171064607e-05
   199   -9.312705814484e-06
   200    2.217621054533e-04
   201    4.231014507669e-04
   202   -1.479867563348e-05
   203    4.867248585775e-08
   204    2.697503128627e-16
Sym=X
Ene= 2.000000
Spin=Alpha
Occup=1
     1    2.201154733936e-01
     2    1.822483321661e-01
     3   -3.720767543289e-04
     4    1.793253935675e-04
     5    5.391730525578e-16
     6    1.873201538416e-03
     7    3.969130755257e-04
     8    6.090829383189e-05
     9    3.866565424387e-16
    10   -7.393373420973e-04
    11   -3.126985737034e-04
    12    5.695816110427e-05
    13   -1.118952127904e-15
    14   -8.512902199178e-03
    15   -3.510046266600e-04
    16   -2.039043307454e-03
    17    2.877370072217e-15
    18   -1.292078576864e-04
    19   -9.419562145564e-16
    20    7.698933103669e-16
    21    5.006256029980e-05
    22    1.867688018831e-04
    23    9.976503896715e-05
    24   -2.070746858178e-05
    25    3.197176271111e-04
    26    5.026635557329e-04
    27    1.653389948543e-05
    28   -2.153048103699e-05
    29    1.651537249150e-16
    30    1.436708573365e-04
    31    4.078569312076e-05
    32    8.666539248677e-05
    33   -4.342580019334e-04
    34    3.381720970905e-05
    35    2.056235161749e-05
    36   -2.086624921428e-16
    37   -7.259820563466e-05
    38    1.696236596255e-04
    39   -2.258627988826e-04
    40   -1.129748160636e-04
    41    8.037138101759e-06
    42   -6.364819298769e-05
    43    2.253524350095e-15
    44   -7.018975798887e-02
    45   -5.811711317683e-02
    46   -1.178589535564e-04
    47    7.657281632407e-06
    48    1.985987411879e-14
    49   -4.287027422442e-04
    50    7.939837307474e-05
    51   -1.898406553639e-04
    52    3.338119444287e-14
    53   -9.330342191835e-04
    54   -4.578194533544e-04
    55    6.743559941394e-05
    56    1.826481200133e-14
    57    1.695732137800e-03
    58    4.555054434607e-04
    59   -8.221946395572e-05
    60    7.403560672221e-15
    61    6.724772289652e-05
    62    1.215782359563e-15
    63    1.717476350170e-15
    64   -8.264351706329e-05
    65    2.261264510350e-05
    66   -3.546127740241e-02
    67   -3.031689978320e-02
    68   -1.280156278626e-04
    69    8.744808586696e-05
    70    1.620780296761e-14
    71   -4.120416838949e-04
    72    4.849334864266e-06
    73   -1.023908182151e-05
    74    2.505987876449e-14
    75    1.583143436705e-04
    76    8.321297765322e-05
    77    1.342766692103e-05
    78    2.053566061527e-14
    79   -2.764123289989e-04
    80   -1.045227487291e-04
    81    8.067698137964e-06
    82   -3.679442490271e-15
    83    1.097363459151e-05
    84    2.117847887562e-15
    85   -1.556821775677e-15
    86   -5.996358480770e-06
    87    9.070044782417e-06
    88    3.426201876839e-01
    89    2.836629420875e-01
    90   -4.118647785258e-04
    91    2.172024892878e-04
    92    7.001958508195e-15
    93    2.420756805190e-03
    94    6.510053484823e-04
    95   -2.008598817662e-04
    96    9.432826008705e-15
    97   -1.364991268708e-04
    98    2.500807353358e-04
    99    5.962273248095e-04
   100    6.939219381505e-15
   101   -7.828653948917e-03
   102    1.138600194905e-03
   103    1.699818017357e-03
   104    7.212877715036e-16
   105   -2.671636033217e-04
   106   -3.130292067747e-15
   107    9.719039526847e-16
   108   -9.333548061305e-05
   109    3.419896859576e-04
   110    1.176108753014e-01
   111    1.005188731504e-01
   112   -4.787718050583e-04
   113   -2.845539415363e-04
   114   -7.512798059802e-17
   115    1.535291213684e-03
   116   -9.159393596792e-05
   117   -8.911583540971e-05
   118   -1.313292533265e-15
   119   -8.638487885346e-04
   120    2.541353765278e-04
   121    1.672675708632e-04
   122   -2.331803246935e-15
   123    5.811664415236e-04
   124   -2.552918060508e-04
   125   -3.392046077273e-04
   126   -2.043356980112e-15
   127   -5.101871806660e-05
   128   -8.505075718238e-16
   129   -1.425608364690e-16
   130    2.023457688407e-05
   131    8.087981808448e-05
   132   -1.893163577489e-01
   133   -1.590127168472e-01
   134    1.100169744555e-04
   135    3.404250341426e-05
   136    2.710653223779e-14
   137   -1.693127099713e-03
   138    4.250102966360e-04
   139   -1.860818757180e-04
   140    4.427342704954e-14
   141    7.140563249764e-04
   142   -4.367771674289e-04
   143   -3.334581476112e-04
   144    4.241496718603e-14
   145   -1.448826510330e-05
   146    1.059993678442e-04
   147    2.394508812745e-04
   148   -2.717033722838e-15
   149   -3.759385557819e-05
   150   -7.722221150172e-16
   151   -1.875286682934e-15
   152    1.093197428074e-04
   153   -1.291848256696e-04
   154    2.047158611506e-01
   155    1.718634006169e-01
   156    1.027284769786e-04
   157   -3.842788022834e-05
   158    7.739714649624e-15
   159    2.216320101872e-03
   160    2.063459305774e-04
   161   -2.054841161468e-04
   162    1.095829964137e-14
   163   -4.684090735353e-04
   164   -5.412051924288e-05
   165    2.348123833795e-04
   166    8.956539408413e-15
   167    1.927634439758e-03
   168    9.286346502297e-04
   169    3.657660592534e-05
   170   -4.853315310271e-15
   171   -1.897915968526e-05
   172   -1.181682689909e-16
   173    1.838580359876e-15
   174    8.547851163304e-05
   175   -7.739976416014e-05
   176    2.268073594663e-01
   177    1.878066369973e-01
   178   -1.505096406632e-04
   179    1.432120272348e-04
   180    8.401735930197e-16
   181    2.141447963770e-03
   182    3.651852786656e-05
   183    6.694571325094e-05
   184   -1.053132695104e-15
   185   -2.036236763737e-04
   186   -2.379976151756e-04
   187   -4.942019232972e-05
   188    9.748777849734e-17
   189    1.222795706667e-02
   190   -3.078802302026e-03
   191    2.071727308815e-03
   192   -3.186722290792e-15
   193   -7.630279418785e-05
   194   -4.578522586344e-16
   195    8.598567957059e-16
   196    4.193982144913e-06
   197    4.860037991417e-05
   198    1.671661149431e-04
   199   -9.372458923382e-05
   200    4.781426456281e-04
   201    1.129691901638e-03
   202   -2.455235139943e-06
   203   -9.374871550820e-06
   204    2.985212086698e-16
Sym=X
Ene= 2.000000
Spin=Alpha
Occup=1
     1   -4.888483833336e-02
     2   -4.047053416046e-02
     3    1.174895763459e-04
     4   -5.032967674331e-05
     5    1.142230695621e-15
     6   -4.349382994405e-04
     7   -7.605358535447e-05
     8   -2.875475814690e-05
     9    9.130254795859e-15
    10   -1.017673106377e-04
    11   -3.918603689377e-05
    12   -3.564819927877e-04
    13    3.165012389923e-16
    14   -1.821539698821e-04
    15   -4.454020279473e-04
    16   -2.279188730746e-04
    17    9.980817887746e-15
    18    3.386396174600e-05
    19   -4.215684621839e-16
    20   -5.376806428271e-16
    21   -3.114300996275e-05
    22   -1.557824965959e-05
    23   -8.330248100002e-05
    24    4.431756940405e-05
    25   -3.404341476875e-04
    26   -3.515281311827e-04
    27   -8.875459599458e-07
    28    1.997200882952e-05
    29    1.809908282747e-16
    30   -2.600459349968e-05
    31   -8.929074498803e-05
    32   -1.218184348391e-04
    33   -1.153298935662e-04
    34   -2.230457340081e-06
    35   -1.748840926551e-05
    36   -1.817737990067e-16
    37    2.758624110577e-05
    38   -2.774950904039e-05
    39    1.497463085324e-04
    40   -1.976130321469e-04
    41   -1.193030663727e-05
    42   -6.396911101003e-07
    43   -2.758610869123e-15
    44   -6.099874747500e-03
    45   -4.969289635035e-03
    46    5.838759015019e-05
    47    4.010693186617e-06
    48   -1.657631225721e-14
    49   -3.641686765874e-04
    50    3.348093547918e-04
    51   -1.331874753865e-04
    52   -3.265064078091e-14
    53   -1.668843731849e-04
    54    1.840457187785e-04
    55   -1.528923384726e-04
    56   -1.073619374744e-14
    57   -3.026279348072e-04
    58   -5.049153083771e-04
    59    3.237887396403e-04
    60   -3.282792139021e-15
    61    5.680360451300e-05
    62   -4.981558519879e-15
    63   -2.240571944299e-15
    64   -4.503530514824e-05
    65    1.862005382745e-04
    66   -4.965990750006e-01
    67   -4.247373172738e-01
    68   -1.412743338911e-03
    69    8.603617510303e-04
    70   -7.006383094847e-15
    71   -4.982983429658e-03
    72    5.693699721119e-04
    73   -3.436328685207e-04
    74   -8.436061082542e-15
    75    1.149601637541e-03
    76   -1.359151407819e-04
    77    8.003992647111e-05
    78   -6.289055423857e-15
    79   -1.561696239044e-03
    80   -1.556999347283e-04
    81    6.481214412818e-05
    82    4.103279689906e-15
    83    7.994756674049e-05
    84   -1.412800477720e-15
    85    7.573029909528e-16
    86    3.780596274241e-05
    87   -5.872401744621e-05
    88    8.051228947717e-02
    89    6.664611184007e-02
    90   -9.920111375188e-05
    91    8.971994013379e-05
    92   -9.914551621712e-15
    93    6.251135137964e-04
    94    1.899536424038e-04
    95    5.258289908373e-05
    96   -1.676288790262e-14
    97   -2.622736214374e-04
    98    1.349492144048e-04
    99    3.942071449255e-04
   100   -5.930579669740e-15
   101   -2.628855879274e-03
   102   -7.030816408511e-05
   103    1.117061262328e-03
   104    9.286497535731e-15
   105   -7.025405599887e-05
   106    5.156692460286e-15
   107   -1.293457447718e-15
   108    3.296193182126e-05
   109    9.739631292652e-05
   110    1.308283245236e-01
   111    1.118789435978e-01
   112   -3.970546292708e-04
   113   -2.425695796686e-04
   114    2.197639671776e-15
   115    1.397138369167e-03
   116    9.225788830499e-05
   117    5.314982732692e-05
   118    7.163446617039e-15
   119   -4.884104669971e-04
   120    5.022925322281e-05
   121    7.763970765349e-06
   122    7.573320116304e-15
   123    5.753606394994e-04
   124   -1.494372194975e-04
   125   -1.228040793106e-04
   126    1.143511691712e-15
   127   -3.488975261596e-05
   128    2.793246245138e-16
   129    6.205311366600e-17
   130   -6.987348341039e-08
   131    3.693540283940e-06
   132    5.483507769552e-02
   133    4.603144528003e-02
   134   -1.891972462815e-05
   135   -2.595886893509e-05
   136   -4.259190700721e-14
   137    6.095246189389e-04
   138    1.425842912385e-04
   139   -2.292338714631e-05
   140   -7.142057234660e-14
   141   -1.871954976259e-04
   142   -1.203298010104e-04
   143    2.488197630218e-05
   144   -6.954289252991e-14