[Molden Format]
[Atoms] (Angs)
  C      1    6     -0.00714236     -1.70213747     -0.00000000
  H      2    1     -2.06882847     -1.44022412      0.00000000
  H      3    1     -0.12337987     -2.77567521      0.00000000
  H      4    1      0.04651892      1.98813947     -0.00000000
  C      5    6     -1.21953563      0.40211669      0.00000000
  O      6    8     -2.25921553      1.03043814      0.00000000
  C      7    6      1.28797806      0.34644937     -0.00000000
  O      8    8      2.31273661      1.00537216     -0.00000000
  N      9    7      0.03446295      0.97739857     -0.00000000
  N     10    7     -1.17287765     -0.98229824      0.00000000
  C     11    6      1.20107039     -1.10433419     -0.00000000
  H     12    1      2.11220096     -1.67699125     -0.00000000
[GTO]
1    0
S    6    1.000000
   4.56324000E+03    1.96665000E-03 
   6.82024000E+02    1.52306000E-02 
   1.54973000E+02    7.61269000E-02 
   4.44553000E+01    2.60801000E-01 
   1.30290000E+01    6.16462000E-01 
   1.82773000E+00    2.21006000E-01 
SP   3    1.000000
   2.09642000E+01    1.14660000E-01   4.02487000E-02 
   4.80331000E+00    9.19999000E-01   2.37594000E-01 
   1.45933000E+00   -3.03068000E-03   8.15854000E-01 
SP   1    1.000000
   4.83456000E-01    1.00000000E+00   1.00000000E+00 
SP   1    1.000000
   1.45585000E-01    1.00000000E+00   1.00000000E+00 
SP   1    1.000000
   4.38000000E-02    1.00000000E+00   1.00000000E+00 
D    1    1.000000
   6.26000000E-01    1.00000000E+00 

2    0
S    3    1.000000
   3.38650000E+01    2.54938000E-02 
   5.09479000E+00    1.90373000E-01 
   1.15879000E+00    8.52161000E-01 
S    1    1.000000
   3.25840000E-01    1.00000000E+00 
S    1    1.000000
   1.02741000E-01    1.00000000E+00 
S    1    1.000000
   3.60000000E-02    1.00000000E+00 
P    1    1.000000
   7.50000000E-01    1.00000000E+00 

3    0
S    3    1.000000
   3.38650000E+01    2.54938000E-02 
   5.09479000E+00    1.90373000E-01 
   1.15879000E+00    8.52161000E-01 
S    1    1.000000
   3.25840000E-01    1.00000000E+00 
S    1    1.000000
   1.02741000E-01    1.00000000E+00 
S    1    1.000000
   3.60000000E-02    1.00000000E+00 
P    1    1.000000
   7.50000000E-01    1.00000000E+00 

4    0
S    3    1.000000
   3.38650000E+01    2.54938000E-02 
   5.09479000E+00    1.90373000E-01 
   1.15879000E+00    8.52161000E-01 
S    1    1.000000
   3.25840000E-01    1.00000000E+00 
S    1    1.000000
   1.02741000E-01    1.00000000E+00 
S    1    1.000000
   3.60000000E-02    1.00000000E+00 
P    1    1.000000
   7.50000000E-01    1.00000000E+00 

5    0
S    6    1.000000
   4.56324000E+03    1.96665000E-03 
   6.82024000E+02    1.52306000E-02 
   1.54973000E+02    7.61269000E-02 
   4.44553000E+01    2.60801000E-01 
   1.30290000E+01    6.16462000E-01 
   1.82773000E+00    2.21006000E-01 
SP   3    1.000000
   2.09642000E+01    1.14660000E-01   4.02487000E-02 
   4.80331000E+00    9.19999000E-01   2.37594000E-01 
   1.45933000E+00   -3.03068000E-03   8.15854000E-01 
SP   1    1.000000
   4.83456000E-01    1.00000000E+00   1.00000000E+00 
SP   1    1.000000
   1.45585000E-01    1.00000000E+00   1.00000000E+00 
SP   1    1.000000
   4.38000000E-02    1.00000000E+00   1.00000000E+00 
D    1    1.000000
   6.26000000E-01    1.00000000E+00 

6    0
S    6    1.000000
   8.58850000E+03    1.89515000E-03 
   1.29723000E+03    1.43859000E-02 
   2.99296000E+02    7.07320000E-02 
   8.73771000E+01    2.40001000E-01 
   2.56789000E+01    5.94797000E-01 
   3.74004000E+00    2.80802000E-01 
SP   3    1.000000
   4.21175000E+01    1.13889000E-01   3.65114000E-02 
   9.62837000E+00    9.20811000E-01   2.37153000E-01 
   2.85332000E+00   -3.27447000E-03   8.19702000E-01 
SP   1    1.000000
   9.05661000E-01    1.00000000E+00   1.00000000E+00 
SP   1    1.000000
   2.55611000E-01    1.00000000E+00   1.00000000E+00 
SP   1    1.000000
   8.45000000E-02    1.00000000E+00   1.00000000E+00 
D    1    1.000000
   1.29200000E+00    1.00000000E+00 

7    0
S    6    1.000000
   4.56324000E+03    1.96665000E-03 
   6.82024000E+02    1.52306000E-02 
   1.54973000E+02    7.61269000E-02 
   4.44553000E+01    2.60801000E-01 
   1.30290000E+01    6.16462000E-01 
   1.82773000E+00    2.21006000E-01 
SP   3    1.000000
   2.09642000E+01    1.14660000E-01   4.02487000E-02 
   4.80331000E+00    9.19999000E-01   2.37594000E-01 
   1.45933000E+00   -3.03068000E-03   8.15854000E-01 
SP   1    1.000000
   4.83456000E-01    1.00000000E+00   1.00000000E+00 
SP   1    1.000000
   1.45585000E-01    1.00000000E+00   1.00000000E+00 
SP   1    1.000000
   4.38000000E-02    1.00000000E+00   1.00000000E+00 
D    1    1.000000
   6.26000000E-01    1.00000000E+00 

8    0
S    6    1.000000
   8.58850000E+03    1.89515000E-03 
   1.29723000E+03    1.43859000E-02 
   2.99296000E+02    7.07320000E-02 
   8.73771000E+01    2.40001000E-01 
   2.56789000E+01    5.94797000E-01 
   3.74004000E+00    2.80802000E-01 
SP   3    1.000000
   4.21175000E+01    1.13889000E-01   3.65114000E-02 
   9.62837000E+00    9.20811000E-01   2.37153000E-01 
   2.85332000E+00   -3.27447000E-03   8.19702000E-01 
SP   1    1.000000
   9.05661000E-01    1.00000000E+00   1.00000000E+00 
SP   1    1.000000
   2.55611000E-01    1.00000000E+00   1.00000000E+00 
SP   1    1.000000
   8.45000000E-02    1.00000000E+00   1.00000000E+00 
D    1    1.000000
   1.29200000E+00    1.00000000E+00 

9    0
S    6    1.000000
   6.29348000E+03    1.96979000E-03 
   9.49044000E+02    1.49613000E-02 
   2.18776000E+02    7.35006000E-02 
   6.36916000E+01    2.48937000E-01 
   1.88282000E+01    6.02460000E-01 
   2.72023000E+00    2.56202000E-01 
SP   3    1.000000
   3.06331000E+01    1.11906000E-01   3.83119000E-02 
   7.02614000E+00    9.21666000E-01   2.37403000E-01 
   2.11205000E+00   -2.56919000E-03   8.17592000E-01 
SP   1    1.000000
   6.84009000E-01    1.00000000E+00   1.00000000E+00 
SP   1    1.000000
   2.00878000E-01    1.00000000E+00   1.00000000E+00 
SP   1    1.000000
   6.39000000E-02    1.00000000E+00   1.00000000E+00 
D    1    1.000000
   9.13000000E-01    1.00000000E+00 

10    0
S    6    1.000000
   6.29348000E+03    1.96979000E-03 
   9.49044000E+02    1.49613000E-02 
   2.18776000E+02    7.35006000E-02 
   6.36916000E+01    2.48937000E-01 
   1.88282000E+01    6.02460000E-01 
   2.72023000E+00    2.56202000E-01 
SP   3    1.000000
   3.06331000E+01    1.11906000E-01   3.83119000E-02 
   7.02614000E+00    9.21666000E-01   2.37403000E-01 
   2.11205000E+00   -2.56919000E-03   8.17592000E-01 
SP   1    1.000000
   6.84009000E-01    1.00000000E+00   1.00000000E+00 
SP   1    1.000000
   2.00878000E-01    1.00000000E+00   1.00000000E+00 
SP   1    1.000000
   6.39000000E-02    1.00000000E+00   1.00000000E+00 
D    1    1.000000
   9.13000000E-01    1.00000000E+00 

11    0
S    6    1.000000
   4.56324000E+03    1.96665000E-03 
   6.82024000E+02    1.52306000E-02 
   1.54973000E+02    7.61269000E-02 
   4.44553000E+01    2.60801000E-01 
   1.30290000E+01    6.16462000E-01 
   1.82773000E+00    2.21006000E-01 
SP   3    1.000000
   2.09642000E+01    1.14660000E-01   4.02487000E-02 
   4.80331000E+00    9.19999000E-01   2.37594000E-01 
   1.45933000E+00   -3.03068000E-03   8.15854000E-01 
SP   1    1.000000
   4.83456000E-01    1.00000000E+00   1.00000000E+00 
SP   1    1.000000
   1.45585000E-01    1.00000000E+00   1.00000000E+00 
SP   1    1.000000
   4.38000000E-02    1.00000000E+00   1.00000000E+00 
D    1    1.000000
   6.26000000E-01    1.00000000E+00 

12    0
S    3    1.000000
   3.38650000E+01    2.54938000E-02 
   5.09479000E+00    1.90373000E-01 
   1.15879000E+00    8.52161000E-01 
S    1    1.000000
   3.25840000E-01    1.00000000E+00 
S    1    1.000000
   1.02741000E-01    1.00000000E+00 
S    1    1.000000
   3.60000000E-02    1.00000000E+00 
P    1    1.000000
   7.50000000E-01    1.00000000E+00 

[MO]
Sym=X
Ene= 2.000389
Spin=Alpha
Occup=1
     1   -3.055940392124e-13
     2   -2.365550821500e-13
     3   -2.853727563672e-14
     4    5.183759838756e-14
     5    1.139735951469e-02
     6   -9.291705379578e-14
     7   -5.162840295088e-14
     8    7.002356661755e-14
     9    1.943954924598e-02
    10   -1.794873047952e-13
    11    3.903289924704e-14
    12   -6.561130649308e-14
    13    1.515962854774e-02
    14    6.188711394463e-12
    15    1.471939052119e-12
    16    7.880270998392e-13
    17   -2.389142605919e-03
    18    6.128601115368e-15
    19   -1.396550277207e-03
    20    1.743954857200e-03
    21   -2.338656227938e-16
    22   -1.281184688070e-14
    23    6.144800960250e-14
    24    1.569096500513e-13
    25   -3.411213696739e-13
    26   -4.473105599089e-14
    27    2.255371113417e-14
    28    1.097078210363e-14
    29    6.256383014685e-05
    30   -5.361601695705e-14
    31   -9.749194674068e-14
    32   -1.588421783635e-13
    33    7.589567481150e-14
    34   -9.990697171429e-16
    35   -7.368889359631e-15
    36    8.371611821682e-04
    37    4.726798918236e-15
    38   -1.290947935368e-13
    39    2.868165928358e-13
    40    1.244090195770e-13
    41   -4.811603284912e-15
    42    2.178484401048e-15
    43   -4.567793819229e-04
    44   -9.000771859139e-13
    45   -8.576466981493e-13
    46   -8.309907052746e-14
    47   -1.017799860613e-14
    48   -1.257768285754e-01
    49    6.029632586168e-13
    50   -1.238512615302e-13
    51   -1.344887731412e-14
    52   -2.174312740371e-01
    53    8.278277728347e-14
    54    4.738443628696e-15
    55   -2.855301007501e-13
    56   -1.412433081233e-01
    57   -1.210422159359e-12
    58   -5.052234754663e-13
    59    2.220033303226e-13
    60   -4.306625491997e-02
    61   -4.227013114669e-14
    62    4.328863088474e-02
    63   -2.798011575049e-02
    64   -8.389472540043e-15
    65   -3.204086585082e-14
    66    6.078342738317e-14
    67   -3.716889228582e-14
    68    1.060478817607e-13
    69   -6.503962068402e-14
    70   -2.387271045824e-01
    71    5.169325478004e-13
    72    1.610523967327e-13
    73   -1.082903167186e-13
    74   -3.752597009162e-01
    75    3.782960756739e-13
    76    1.066144265531e-13
    77   -2.290272029558e-15
    78   -3.354307285784e-01
    79    2.672808821624e-13
    80    2.170138455328e-13
    81   -9.859819643822e-14
    82   -2.267602195779e-02
    83   -1.293923786090e-14
    84   -2.318202654511e-02
    85    1.381381940920e-02
    86    8.650175251116e-15
    87   -2.168396352808e-14
    88   -5.645151098691e-13
    89   -4.546945651334e-13
    90   -1.153167850634e-14
    91   -6.030726789411e-15
    92    1.739718073924e-02
    93   -7.033990947311e-14
    94   -5.185728448581e-14
    95   -1.740354536615e-15
    96    2.934970288153e-02
    97    2.543859658260e-13
    98   -5.751632162717e-14
    99   -1.172454260409e-14
   100    2.067006623597e-02
   101    2.881504985371e-12
   102   -1.164302745986e-12
   103   -5.486354877762e-13
   104    1.363676733894e-02
   105    8.612701820910e-15
   106    2.318816276563e-03
   107    2.998765240527e-03
   108    1.072450385181e-14
   109    1.935634336644e-15
   110    1.683230989773e-13
   111    1.655604922626e-13
   112    5.409319068158e-15
   113    2.501178205278e-15
   114    2.708574015523e-02
   115   -1.231247480288e-13
   116    1.683476786960e-14
   117    1.025058083750e-14
   118    4.205913495884e-02
   119   -8.567494459592e-14
   120   -4.812488684840e-14
   121   -2.469245597009e-14
   122    3.285520647023e-02
   123   -1.022180583936e-13
   124    2.669333049581e-13
   125    1.761038363717e-13
   126   -9.691028359878e-03
   127    7.864661197938e-16
   128   -2.790998721414e-03
   129   -1.529853397551e-03
   130   -1.123154607477e-15
   131   -2.077576918203e-15
   132    1.736570243350e-12
   133    1.446007123380e-12
   134   -4.783561215538e-14
   135   -1.866281944584e-14
   136   -2.935062009602e-03
   137    7.749448517411e-14
   138   -8.190734681018e-14
   139   -5.231324064442e-14
   140   -8.593789358097e-03
   141    1.183045872894e-13
   142   -1.487707824927e-13
   143    2.186530410461e-13
   144    2.315419124301e-02
   145   -5.845565432134e-13
   146    1.766937474151e-14
   147   -3.367213317885e-13
   148    2.881677908687e-02
   149   -7.986998119419e-15
   150    1.021335841633e-02
   151    2.779999576836e-03
   152    4.720271767323e-15
   153    6.902647167099e-15
   154   -1.649035168878e-12
   155   -1.467190320832e-12
   156   -3.002538907011e-14
   157    7.713359356848e-14
   158    4.467827006819e-03
   159    4.369846161041e-13
   160   -6.030872121271e-14
   161    1.278991408657e-13
   162    3.602515190723e-03
   163    2.376276734156e-13
   164    1.657089247883e-13
   165    6.613882546904e-14
   166    3.567042218174e-02
   167    1.733691232515e-13
   168   -3.544091375546e-13
   169   -4.216232919805e-13
   170    3.569858514561e-02
   171   -9.358969587409e-15
   172    1.965479645893e-03
   173   -9.577659104831e-03
   174   -1.424984625230e-14
   175   -2.040082881017e-15
   176    7.051020728732e-13
   177    6.385552912104e-13
   178   -6.757426101893e-14
   179    4.905833681251e-14
   180    4.615757076949e-03
   181   -2.650095258512e-13
   182   -1.170895180109e-13
   183    7.335344571312e-14
   184    9.038494832112e-03
   185   -1.560380238022e-13
   186   -8.327696736883e-14
   187    6.575773085155e-14
   188   -4.698385038660e-03
   189   -7.542315051476e-12
   190    1.952710163011e-12
   191    3.551109198652e-13
   192   -7.876119954257e-03
   193    6.298959769334e-15
   194   -1.698061111320e-03
   195    1.244537269366e-03
   196   -4.193164485713e-15
   197    3.475457421647e-15
   198   -1.197526832113e-13
   199   -1.716135060030e-13
   200    1.045353830569e-13
   201   -2.865513991670e-13
   202    1.844555147377e-14
   203   -1.835720211443e-14
   204    3.517699407956e-04
Sym=X
Ene= 2.000031
Spin=Alpha
Occup=1
     1   -7.883388908881e-03
     2   -1.330016347005e-02
     3   -4.284430537720e-03
     4    1.347459730167e-02
     5    1.995478779975e-13
     6    3.544767942843e-02
     7   -9.865863243792e-03
     8    2.331597652513e-02
     9    3.381250474859e-13
    10    5.492328053537e-02
    11   -4.646697900609e-03
    12    2.688588058092e-02
    13    1.891241038109e-13
    14   -1.278064716969e-01
    15   -1.672011324005e-02
    16   -5.296224860000e-02
    17    1.268509081342e-14
    18   -1.059231377932e-03
    19   -4.939060715549e-14
    20    3.517422650758e-14
    21    5.150636019073e-03
    22    1.781240856348e-04
    23    2.024626016691e-03
    24    3.103413361051e-03
    25    9.100117409789e-03
    26   -1.663427033339e-02
    27    1.855826206165e-03
    28    9.720885648366e-04
    29    4.718954945026e-14
    30   -6.843018989005e-03
    31   -1.324789471752e-02
    32   -1.323634476145e-02
    33   -2.364690901378e-02
    34   -2.730683593319e-04
    35    3.322357409364e-04
    36    1.216657340494e-14
    37    1.455339486334e-03
    38   -1.004841185928e-02
    39   -2.193581761954e-02
    40    2.412740817663e-02
    41    3.349481454577e-03
    42    2.007439426033e-03
    43   -2.614312556210e-14
    44   -4.286439801677e-02
    45   -7.155055847617e-02
    46   -1.360309925024e-01
    47    4.829805787348e-02
    48    1.105334133299e-13
    49    2.116733872788e-01
    50   -2.182147420625e-01
    51    8.163750039333e-02
    52    1.911947833094e-13
    53    1.592338038395e-01
    54   -9.184262488561e-02
    55   -2.840318739831e-02
    56    1.042038198031e-13
    57    1.018550250848e-01
    58   -6.986620622211e-05
    59   -8.625318371255e-02
    60    6.558752504752e-14
    61   -1.023499192494e-02
    62   -3.256654307347e-14
    63   -7.906994336409e-14
    64    4.162087782506e-02
    65   -1.030353558723e-02
    66    1.628178215631e-02
    67    2.821400726471e-02
    68    1.056680082119e-01
    69   -2.279236898221e-01
    70    5.445154665841e-14
    71   -9.227844366642e-02
    72    1.555540648505e-01
    73   -3.481801395558e-01
    74    8.747351269391e-14
    75   -2.324313280226e-01
    76    5.663485405753e-02
    77   -2.636253509411e-01
    78    6.049688573656e-14
    79   -8.547595361049e-02
    80   -1.235553043524e-02
    81   -1.177185280166e-03
    82   -4.732679943978e-14
    83   -1.138475210615e-02
    84    1.020812709126e-14
    85   -7.345329208510e-15
    86    7.426865683671e-04
    87   -2.385674806797e-02
    88    3.365750289371e-03
    89    5.511746428894e-03
    90   -5.626639539420e-03
    91    1.476210720844e-03
    92   -1.903433186236e-13
    93   -1.335551805502e-02
    94   -9.567526961476e-03
    95    1.121418791760e-03
    96   -3.259297105215e-13
    97   -2.913699017534e-03
    98   -9.806389204225e-03
    99    2.767574147328e-03
   100   -1.695003832491e-13
   101   -1.091694215588e-01
   102    1.562720289439e-02
   103    1.100360319554e-03
   104   -6.421067071427e-14
   105    1.043873246849e-03
   106   -1.611954654466e-14
   107   -4.792162224870e-14
   108   -1.479551237375e-03
   109   -1.156679906702e-03
   110    3.134382403745e-04
   111    4.815659801897e-04
   112    1.055650962769e-02
   113    1.449232444809e-03
   114   -3.018631587030e-13
   115   -9.299959378354e-04
   116    1.614959693594e-02
   117    1.830172491615e-03
   118   -4.704814457909e-13
   119    7.524561750356e-03
   120    1.074115509507e-02
   121   -2.653854024942e-03
   122   -3.668034917120e-13
   123   -1.083062321236e-04
   124    5.432503666523e-03
   125   -1.503107738814e-03
   126    3.990317900279e-14
   127    5.459616198263e-04
   128    3.023707318936e-14
   129    1.752402088887e-14
   130   -5.393525851683e-04
   131   -8.488625350209e-04
   132    5.269939187263e-03
   133    8.777533205633e-03
   134    1.266605022986e-02
   135    1.153441050683e-02
   136   -2.630194252592e-13
   137   -2.349930749709e-02
   138    2.266974846971e-02
   139    2.349116082158e-02
   140   -4.327503130466e-13
   141    2.061176731303e-02
   142   -5.983910663419e-03
   143    1.973186700508e-02
   144   -4.410726513847e-13
   145    8.146136373431e-02
   146    9.240228402003e-03
   147    1.041611246932e-02
   148   -7.640975619284e-14
   149    1.998835720379e-03
   150   -1.908963288180e-14
   151    3.044800601043e-15
   152    1.384775061822e-03
   153   -6.100589231443e-03
   154    4.634873759360e-03
   155    7.831394312330e-03
   156    9.419370089340e-04
   157   -2.945226560809e-02
   158    5.380363920066e-13
   159   -1.993498242966e-02
   160    3.652887784284e-03
   161   -3.930627600299e-02
   162    8.826982024044e-13
   163   -9.516202650920e-02
   164    5.091998804786e-03
   165   -6.431135449549e-02
   166    8.451359776460e-13
   167   -1.058362036582e-01
   168    3.113341225648e-03
   169   -1.414874303531e-02
   170    6.534833786959e-14
   171   -1.588714339322e-03
   172    1.872013418229e-14
   173    6.836992033484e-15
   174   -1.283822315670e-03
   175   -7.142980860272e-03
   176   -2.288085699365e-03
   177   -3.791706299881e-03
   178   -9.874287696033e-03
   179   -4.106866762889e-03
   180    3.280026892559e-14
   181    1.014363099507e-02
   182   -1.589181855759e-02
   183   -6.799886730938e-03
   184    5.333199340646e-14
   185   -8.292971509445e-03
   186    3.397714624207e-03
   187   -3.340208590448e-03
   188    3.482008500099e-14
   189    1.620652137951e-01
   190   -3.157431312234e-02
   191    2.084613894653e-02
   192    8.441573764518e-15
   193    5.102945490067e-07
   194   -2.329989935389e-14
   195   -3.035337396149e-14
   196    3.238493542422e-03
   197   -2.802065642799e-04
   198   -1.963359647461e-03
   199   -3.537501209230e-03
   200   -2.047009537333e-03
   201    7.749749697834e-03
   202    1.064353472837e-04
   203   -7.762256440567e-04
   204   -8.421985592227e-16
Sym=X
Ene= 2.000000
Spin=Alpha
Occup=1
     1   -1.242487288953e-01
     2   -1.029426556373e-01
     3    4.170129885614e-04
     4    1.358472264366e-05
     5   -2.952675899687e-13
     6   -6.814400072683e-04
     7   -3.650477307839e-04
     8    3.541283366257e-05
     9   -4.984663393639e-13
    10   -1.425436863566e-04
    11    2.885755769736e-04
    12    1.326306685568e-04
    13   -2.641931861350e-13
    14   -1.049618078064e-03
    15   -6.116421079880e-05
    16   -4.857784486397e-04
    17   -1.745443675093e-14
    18    1.876462200680e-04
    19    7.417092499567e-14
    20   -5.819940753674e-14
    21   -1.059831944932e-05
    22   -1.358945797299e-04
    23    2.536720416497e-05
    24    2.739020310023e-05
    25    5.508774247962e-05
    26    5.992859510160e-05
    27    2.532163281909e-05
    28    2.278383412200e-05
    29   -7.079702799239e-14
    30   -9.316676037251e-05
    31    1.447974288435e-04
    32   -1.431796610946e-04
    33   -1.855651588665e-04
    34    2.219116394852e-06
    35    2.153756388424e-05
    36   -2.448741937572e-14
    37   -5.070646015267e-06
    38    3.824388908193e-05
    39   -1.208650946199e-04
    40    2.251010877072e-05
    41   -1.343613501007e-05
    42   -3.483178561584e-05
    43    3.584325052645e-14
    44    3.562516709848e-01
    45    2.949814360624e-01
    46    4.087155047984e-04
    47   -3.010471899817e-04
    48   -8.679334450861e-14
    49    2.271534836782e-03
    50   -4.833773478850e-04
    51    3.225906047209e-04
    52   -1.494571757486e-13
    53    1.989816744766e-04
    54    9.175165875553e-05
    55   -2.606515989752e-05
    56   -4.785098606786e-14
    57   -1.199166658175e-03
    58   -7.063988558305e-04
    59    2.794237905673e-04
    60   -2.505092397240e-14
    61   -2.598487957870e-04
    62    1.645997543001e-14
    63    1.383371657376e-13
    64    1.168713200909e-04
    65   -2.116952585020e-04
    66   -5.406115592121e-02
    67   -4.630992671008e-02
    68    4.554083199848e-06
    69   -8.440590596567e-07
    70    8.619797659483e-14
    71   -2.045215152210e-04
    72    2.803009543419e-04
    73   -1.675634616725e-04
    74    1.358176602967e-13
    75   -4.217041774215e-04
    76   -3.224241184714e-04
    77    1.896875218783e-04
    78    1.488070022966e-13
    79    4.204022523744e-04
    80    4.279152931120e-04
    81   -2.395296225016e-04
    82    5.863883901510e-14
    83   -1.938987867676e-05
    84    1.233759754665e-15
    85    1.472228932194e-15
    86    4.923468367639e-05
    87   -9.318108702323e-05
    88   -1.598441060504e-01
    89   -1.324179220538e-01
    90    2.239284687628e-04
    91   -2.495812800175e-04
    92    2.360068212100e-13
    93   -7.456989087416e-04
    94   -2.429827957440e-04
    95   -1.514469149565e-04
    96    4.149444669603e-13
    97   -1.033323442075e-04
    98   -4.967809913486e-05
    99   -4.294445274327e-04
   100    1.993647954340e-13
   101   -1.025144890320e-04
   102   -2.911111591581e-04
   103   -7.780859587710e-05
   104    3.245990521869e-14
   105    1.279252613728e-04
   106    1.190197874860e-14
   107    6.056358427737e-14
   108   -8.433566494785e-05
   109   -8.428668139395e-05
   110    6.405378182434e-02
   111    5.481866176108e-02
   112   -1.070101863414e-04
   113   -4.642003109879e-05
   114    3.441721832251e-13
   115    4.687352730803e-04
   116    1.587197037807e-04
   117    9.915126066104e-05
   118    5.390486290152e-13
   119    2.527653535657e-04
   120   -2.016333868386e-04
   121   -6.114547627334e-05
   122    4.105784342880e-13
   123    1.343839220944e-05
   124    1.466189975599e-04
   125    7.487523266863e-05
   126   -1.343693824830e-14
   127   -4.795069438176e-06
   128   -3.589033532488e-14
   129   -2.069924698993e-14
   130   -2.464581650283e-05
   131   -4.260036307331e-05
   132   -2.734371717861e-02
   133   -2.299150834473e-02
   134   -9.933785341150e-05
   135   -6.298323844922e-06
   136    3.571861305257e-13
   137   -1.185298364791e-04
   138   -4.518452723483e-04
   139   -9.807365176817e-05
   140    5.879102121154e-13
   141   -7.388334325806e-05
   142    3.027766613400e-04
   143    8.383602350295e-05
   144    5.800237852006e-13
   145    2.067734076911e-04
   146    2.139735070397e-04
   147    1.164264806410e-04
   148    8.919999724885e-14
   149   -6.398463765199e-06
   150    2.012771082662e-14
   151   -4.498375096081e-15
   152    5.265704233335e-05
   153    1.263075398366e-04
   154    4.033033765500e-02
   155    3.383129327040e-02
   156   -1.583596885263e-05
   157    9.443875083320e-05
   158   -8.017138082489e-13
   159    5.698623265800e-04
   160   -1.422746757243e-04
   161    4.440602824850e-04
   162   -1.305178936249e-12
   163   -2.478065850122e-04
   164    3.887629609044e-05
   165   -1.998175540721e-04
   166   -1.311914595735e-12
   167    8.653663222088e-04
   168    4.017149552238e-04
   169   -3.439281154294e-05
   170   -1.351845627982e-13
   171   -1.183598202215e-05
   172   -2.971183833462e-14
   173   -6.188442385468e-15
   174   -1.611784822422e-04
   175    3.938809474687e-05
   176    3.739564530820e-01
   177    3.097474914904e-01
   178   -4.743773782521e-05
   179    1.391056425773e-04
   180   -4.353084983395e-14
   181    3.096732889281e-03
   182   -2.358522267248e-04
   183   -3.101166270329e-04
   184   -7.213282656605e-14
   185   -1.023610421187e-03
   186    2.046172950111e-04
   187   -1.598479792325e-04
   188   -3.569398755209e-14
   189    1.139690369784e-03
   190   -7.482976404158e-04
   191    6.163069033440e-04
   192    1.698077070336e-14
   193   -2.876952117770e-04
   194    3.591508584389e-14
   195    3.915550380000e-14
   196    1.745997903051e-04
   197    8.354151325570e-05
   198    2.712709655936e-04
   199   -2.334528512328e-04
   200    4.022980047344e-04
   201    5.610923872569e-04
   202    3.928641682232e-05
   203   -3.447722554776e-05
   204   -8.556127014726e-16
Sym=X
Ene= 2.000000
Spin=Alpha
Occup=1
     1   -9.845730259597e-02
     2   -8.155635498021e-02
     3    1.001808487995e-04
     4   -2.768161454707e-05
     5    2.270942154024e-13
     6   -6.278772962942e-04
     7   -3.136262975933e-04
     8    9.683983682065e-05
     9    3.855568558537e-13
    10    4.493267469783e-04
    11   -4.060536057278e-05
    12    4.093778171677e-04
    13    2.049609847185e-13
    14    2.439738394496e-04
    15   -2.897493244380e-04
    16   -3.005349791163e-04
    17    1.370273620903e-14
    18    7.049728286348e-05
    19   -5.772201830839e-14
    20    4.537193860036e-14
    21    1.308231745054e-05
    22   -1.430179785775e-04
    23    1.688963609963e-04
    24   -2.577019684575e-04
    25    5.123385384827e-04
    26    1.311829545009e-05
    27   -7.173568786396e-05
    28   -3.960724076365e-05
    29    4.872498168873e-14
    30   -7.740498456628e-05
    31    1.370405039458e-04
    32   -1.587332212832e-05
    33   -2.620272081256e-04
    34    3.055266213703e-08
    35    2.105078716090e-05
    36    1.781013806684e-14
    37   -1.354597677294e-04
    38    4.646486492894e-06
    39   -5.373565727350e-04
    40   -3.019937800380e-04
    41    4.736805439121e-08
    42    1.885652527546e-05
    43   -1.645760919006e-14
    44   -1.346052621390e-01
    45   -1.114311052257e-01
    46   -1.709598557082e-04
    47    1.758148575354e-06
    48   -2.755958818185e-13
    49   -9.303941680657e-04
    50    2.216064713103e-04
    51   -3.467506278232e-04
    52   -4.752113625919e-13
    53    4.982532920945e-04
    54    4.762164626938e-04
    55   -5.560873351637e-04
    56   -3.583718787411e-13
    57   -1.431642002746e-05
    58   -1.070568022733e-04
    59   -1.494138821790e-04
    60   -1.034212116936e-13
    61    1.159144650505e-04
    62    1.339666020303e-13
    63   -1.745837911785e-13
    64   -1.828696797392e-04
    65    8.147928180576e-05
    66   -1.617848933375e-01
    67   -1.383440822648e-01
    68   -5.124569067066e-04
    69    3.284500829600e-04
    70   -7.729139933030e-13
    71   -1.770710852655e-03
    72    8.601230481740e-05
    73   -6.795030327298e-05
    74   -1.213812330773e-12
    75    7.106446921470e-04
    76    1.404168885480e-04
    77   -8.151795888526e-06
    78   -1.113345006033e-12
    79   -2.808086189163e-04
    80   -7.339981474556e-05
    81    6.601467776974e-05
    82   -1.223012222222e-13
    83    3.572597091970e-05
    84   -6.772200261771e-14
    85    3.843884532696e-14
    86   -1.368714407970e-05
    87    1.109164509890e-05
    88   -1.835978101912e-01
    89   -1.519993289255e-01
    90    2.819976143876e-04
    91   -1.593605076957e-04
    92   -8.818319993729e-14
    93   -1.380417939699e-03
    94   -2.208870970412e-04
    95    8.986996785697e-05
    96   -1.603074362480e-13
    97    9.950728734244e-04
    98    1.291698148768e-04
    99   -2.405017265243e-04
   100   -6.463368384536e-14
   101    4.978907853212e-03
   102   -8.072185926170e-04
   103   -1.073895446261e-03
   104    3.161934411143e-14
   105    1.155398966053e-04
   106   -1.483676233421e-14
   107   -2.603681952017e-14
   108   -1.526368069448e-06
   109   -1.280405665922e-04
   110    1.303539895337e-02
   111    1.118517064793e-02
   112    3.851666529877e-05
   113    3.176345476617e-05
   114   -1.669958257494e-13
   115   -3.293271707773e-05
   116    1.407416899138e-04
   117    9.030157409189e-05
   118   -2.616427454499e-13
   119    4.757140493685e-05
   120   -9.336173531239e-05
   121   -1.450615424276e-05
   122   -2.009128171462e-13
   123   -3.452821826940e-04
   124    1.698862004655e-04
   125    2.058524222449e-04
   126   -2.939290466709e-14
   127    1.406794760490e-05
   128    1.467978694634e-14
   129    8.712549631532e-15
   130   -2.283815247707e-05
   131   -5.472549280102e-05
   132   -2.546621856949e-01
   133   -2.137824859737e-01
   134    8.021606645864e-05
   135    1.085580636364e-04
   136   -1.357336338286e-13
   137   -2.771718327365e-03
   138   -1.185069992377e-04
   139    9.929177435729e-05
   140   -2.369326124045e-13
   141    4.477091653861e-04
   142    4.006996249547e-06
   143    2.171226637396e-04
   144   -1.359005492042e-13