[Molden Format]
[Atoms] (Angs)
  C      1    6     -0.00714236     -1.70213747     -0.00000000
  H      2    1     -2.06882847     -1.44022412      0.00000000
  H      3    1     -0.12337987     -2.77567521      0.00000000
  H      4    1      0.04651892      1.98813947     -0.00000000
  C      5    6     -1.21953563      0.40211669      0.00000000
  O      6    8     -2.25921553      1.03043814      0.00000000
  C      7    6      1.28797806      0.34644937     -0.00000000
  O      8    8      2.31273661      1.00537216     -0.00000000
  N      9    7      0.03446295      0.97739857     -0.00000000
  N     10    7     -1.17287765     -0.98229824      0.00000000
  C     11    6      1.20107039     -1.10433419     -0.00000000
  H     12    1      2.11220096     -1.67699125     -0.00000000
[GTO]
1    0
S    6    1.000000
   4.56324000E+03    1.96665000E-03 
   6.82024000E+02    1.52306000E-02 
   1.54973000E+02    7.61269000E-02 
   4.44553000E+01    2.60801000E-01 
   1.30290000E+01    6.16462000E-01 
   1.82773000E+00    2.21006000E-01 
SP   3    1.000000
   2.09642000E+01    1.14660000E-01   4.02487000E-02 
   4.80331000E+00    9.19999000E-01   2.37594000E-01 
   1.45933000E+00   -3.03068000E-03   8.15854000E-01 
SP   1    1.000000
   4.83456000E-01    1.00000000E+00   1.00000000E+00 
SP   1    1.000000
   1.45585000E-01    1.00000000E+00   1.00000000E+00 
SP   1    1.000000
   4.38000000E-02    1.00000000E+00   1.00000000E+00 
D    1    1.000000
   6.26000000E-01    1.00000000E+00 

2    0
S    3    1.000000
   3.38650000E+01    2.54938000E-02 
   5.09479000E+00    1.90373000E-01 
   1.15879000E+00    8.52161000E-01 
S    1    1.000000
   3.25840000E-01    1.00000000E+00 
S    1    1.000000
   1.02741000E-01    1.00000000E+00 
S    1    1.000000
   3.60000000E-02    1.00000000E+00 
P    1    1.000000
   7.50000000E-01    1.00000000E+00 

3    0
S    3    1.000000
   3.38650000E+01    2.54938000E-02 
   5.09479000E+00    1.90373000E-01 
   1.15879000E+00    8.52161000E-01 
S    1    1.000000
   3.25840000E-01    1.00000000E+00 
S    1    1.000000
   1.02741000E-01    1.00000000E+00 
S    1    1.000000
   3.60000000E-02    1.00000000E+00 
P    1    1.000000
   7.50000000E-01    1.00000000E+00 

4    0
S    3    1.000000
   3.38650000E+01    2.54938000E-02 
   5.09479000E+00    1.90373000E-01 
   1.15879000E+00    8.52161000E-01 
S    1    1.000000
   3.25840000E-01    1.00000000E+00 
S    1    1.000000
   1.02741000E-01    1.00000000E+00 
S    1    1.000000
   3.60000000E-02    1.00000000E+00 
P    1    1.000000
   7.50000000E-01    1.00000000E+00 

5    0
S    6    1.000000
   4.56324000E+03    1.96665000E-03 
   6.82024000E+02    1.52306000E-02 
   1.54973000E+02    7.61269000E-02 
   4.44553000E+01    2.60801000E-01 
   1.30290000E+01    6.16462000E-01 
   1.82773000E+00    2.21006000E-01 
SP   3    1.000000
   2.09642000E+01    1.14660000E-01   4.02487000E-02 
   4.80331000E+00    9.19999000E-01   2.37594000E-01 
   1.45933000E+00   -3.03068000E-03   8.15854000E-01 
SP   1    1.000000
   4.83456000E-01    1.00000000E+00   1.00000000E+00 
SP   1    1.000000
   1.45585000E-01    1.00000000E+00   1.00000000E+00 
SP   1    1.000000
   4.38000000E-02    1.00000000E+00   1.00000000E+00 
D    1    1.000000
   6.26000000E-01    1.00000000E+00 

6    0
S    6    1.000000
   8.58850000E+03    1.89515000E-03 
   1.29723000E+03    1.43859000E-02 
   2.99296000E+02    7.07320000E-02 
   8.73771000E+01    2.40001000E-01 
   2.56789000E+01    5.94797000E-01 
   3.74004000E+00    2.80802000E-01 
SP   3    1.000000
   4.21175000E+01    1.13889000E-01   3.65114000E-02 
   9.62837000E+00    9.20811000E-01   2.37153000E-01 
   2.85332000E+00   -3.27447000E-03   8.19702000E-01 
SP   1    1.000000
   9.05661000E-01    1.00000000E+00   1.00000000E+00 
SP   1    1.000000
   2.55611000E-01    1.00000000E+00   1.00000000E+00 
SP   1    1.000000
   8.45000000E-02    1.00000000E+00   1.00000000E+00 
D    1    1.000000
   1.29200000E+00    1.00000000E+00 

7    0
S    6    1.000000
   4.56324000E+03    1.96665000E-03 
   6.82024000E+02    1.52306000E-02 
   1.54973000E+02    7.61269000E-02 
   4.44553000E+01    2.60801000E-01 
   1.30290000E+01    6.16462000E-01 
   1.82773000E+00    2.21006000E-01 
SP   3    1.000000
   2.09642000E+01    1.14660000E-01   4.02487000E-02 
   4.80331000E+00    9.19999000E-01   2.37594000E-01 
   1.45933000E+00   -3.03068000E-03   8.15854000E-01 
SP   1    1.000000
   4.83456000E-01    1.00000000E+00   1.00000000E+00 
SP   1    1.000000
   1.45585000E-01    1.00000000E+00   1.00000000E+00 
SP   1    1.000000
   4.38000000E-02    1.00000000E+00   1.00000000E+00 
D    1    1.000000
   6.26000000E-01    1.00000000E+00 

8    0
S    6    1.000000
   8.58850000E+03    1.89515000E-03 
   1.29723000E+03    1.43859000E-02 
   2.99296000E+02    7.07320000E-02 
   8.73771000E+01    2.40001000E-01 
   2.56789000E+01    5.94797000E-01 
   3.74004000E+00    2.80802000E-01 
SP   3    1.000000
   4.21175000E+01    1.13889000E-01   3.65114000E-02 
   9.62837000E+00    9.20811000E-01   2.37153000E-01 
   2.85332000E+00   -3.27447000E-03   8.19702000E-01 
SP   1    1.000000
   9.05661000E-01    1.00000000E+00   1.00000000E+00 
SP   1    1.000000
   2.55611000E-01    1.00000000E+00   1.00000000E+00 
SP   1    1.000000
   8.45000000E-02    1.00000000E+00   1.00000000E+00 
D    1    1.000000
   1.29200000E+00    1.00000000E+00 

9    0
S    6    1.000000
   6.29348000E+03    1.96979000E-03 
   9.49044000E+02    1.49613000E-02 
   2.18776000E+02    7.35006000E-02 
   6.36916000E+01    2.48937000E-01 
   1.88282000E+01    6.02460000E-01 
   2.72023000E+00    2.56202000E-01 
SP   3    1.000000
   3.06331000E+01    1.11906000E-01   3.83119000E-02 
   7.02614000E+00    9.21666000E-01   2.37403000E-01 
   2.11205000E+00   -2.56919000E-03   8.17592000E-01 
SP   1    1.000000
   6.84009000E-01    1.00000000E+00   1.00000000E+00 
SP   1    1.000000
   2.00878000E-01    1.00000000E+00   1.00000000E+00 
SP   1    1.000000
   6.39000000E-02    1.00000000E+00   1.00000000E+00 
D    1    1.000000
   9.13000000E-01    1.00000000E+00 

10    0
S    6    1.000000
   6.29348000E+03    1.96979000E-03 
   9.49044000E+02    1.49613000E-02 
   2.18776000E+02    7.35006000E-02 
   6.36916000E+01    2.48937000E-01 
   1.88282000E+01    6.02460000E-01 
   2.72023000E+00    2.56202000E-01 
SP   3    1.000000
   3.06331000E+01    1.11906000E-01   3.83119000E-02 
   7.02614000E+00    9.21666000E-01   2.37403000E-01 
   2.11205000E+00   -2.56919000E-03   8.17592000E-01 
SP   1    1.000000
   6.84009000E-01    1.00000000E+00   1.00000000E+00 
SP   1    1.000000
   2.00878000E-01    1.00000000E+00   1.00000000E+00 
SP   1    1.000000
   6.39000000E-02    1.00000000E+00   1.00000000E+00 
D    1    1.000000
   9.13000000E-01    1.00000000E+00 

11    0
S    6    1.000000
   4.56324000E+03    1.96665000E-03 
   6.82024000E+02    1.52306000E-02 
   1.54973000E+02    7.61269000E-02 
   4.44553000E+01    2.60801000E-01 
   1.30290000E+01    6.16462000E-01 
   1.82773000E+00    2.21006000E-01 
SP   3    1.000000
   2.09642000E+01    1.14660000E-01   4.02487000E-02 
   4.80331000E+00    9.19999000E-01   2.37594000E-01 
   1.45933000E+00   -3.03068000E-03   8.15854000E-01 
SP   1    1.000000
   4.83456000E-01    1.00000000E+00   1.00000000E+00 
SP   1    1.000000
   1.45585000E-01    1.00000000E+00   1.00000000E+00 
SP   1    1.000000
   4.38000000E-02    1.00000000E+00   1.00000000E+00 
D    1    1.000000
   6.26000000E-01    1.00000000E+00 

12    0
S    3    1.000000
   3.38650000E+01    2.54938000E-02 
   5.09479000E+00    1.90373000E-01 
   1.15879000E+00    8.52161000E-01 
S    1    1.000000
   3.25840000E-01    1.00000000E+00 
S    1    1.000000
   1.02741000E-01    1.00000000E+00 
S    1    1.000000
   3.60000000E-02    1.00000000E+00 
P    1    1.000000
   7.50000000E-01    1.00000000E+00 

[MO]
Sym=X
Ene= 2.000031
Spin=Alpha
Occup=1
     1   -2.378472995804e-12
     2   -2.106266267126e-12
     3    3.863306587137e-14
     4    5.090644646978e-14
     5   -3.322576858295e-04
     6    6.737393184026e-13
     7    7.677424777618e-14
     8    7.108910117045e-14
     9   -1.035656803451e-03
    10   -8.539054235838e-14
    11   -9.712551133774e-14
    12   -2.667347701792e-13
    13   -4.374420512533e-03
    14   -7.405858084024e-12
    15   -1.394538824076e-12
    16   -1.101737726069e-12
    17   -1.876370042251e-03
    18   -3.320683024429e-14
    19   -1.014237707330e-02
    20    2.174573318046e-04
    21    1.148914297022e-14
    22    1.824756603933e-14
    23    8.937924667395e-14
    24    2.917790141576e-13
    25    2.798909365459e-13
    26    1.194249334210e-13
    27    2.941673241789e-14
    28    4.114596155118e-15
    29    4.676046155827e-03
    30    1.075702807984e-13
    31    1.059196150002e-13
    32    7.709011569641e-14
    33   -3.357885351608e-14
    34    5.886614437536e-15
    35    2.117123729118e-14
    36    3.160160254478e-04
    37   -1.389388411681e-13
    38   -2.630520503688e-13
    39   -2.789357001637e-13
    40   -3.554172375838e-13
    41   -1.607677312354e-15
    42    3.685607280352e-14
    43   -3.365584954451e-03
    44   -3.374694884676e-12
    45   -2.803908944211e-12
    46   -6.992529391429e-15
    47   -2.638029458629e-14
    48    2.911384372325e-02
    49    2.533274717160e-14
    50    3.001815995097e-14
    51   -6.268984612955e-14
    52    5.036210427009e-02
    53    1.159684150578e-13
    54   -4.250400868298e-13
    55   -1.480804750347e-13
    56    2.798538549821e-02
    57    2.386763584506e-12
    58    1.025734866807e-12
    59   -2.971538193877e-13
    60    7.949434736194e-03
    61    4.064198480799e-15
    62   -9.912631590104e-03
    63   -2.614854047368e-03
    64   -3.372850035382e-15
    65   -1.334660604787e-14
    66    1.116433294474e-13
    67    8.761097349873e-14
    68   -1.315372617040e-15
    69   -7.050597191402e-15
    70    5.051015202333e-02
    71    5.203673263700e-14
    72   -2.336372144762e-15
    73   -1.208536162522e-14
    74    7.833392181210e-02
    75   -1.514358303629e-14
    76    3.751160257805e-14
    77    1.753962552583e-14
    78    6.125534103656e-02
    79   -6.337772851051e-13
    80   -4.118332180048e-13
    81    2.070651718961e-13
    82   -5.656575347048e-03
    83   -1.716643214558e-15
    84    4.563363071722e-03
    85   -2.964997108249e-03
    86   -9.898172002302e-16
    87   -2.902537233705e-15
    88   -8.607082429331e-12
    89   -7.226236072924e-12
    90    5.826368113070e-15
    91   -8.947677260041e-14
    92   -1.352123310138e-01
    93    4.695657629518e-13
    94   -7.967387365889e-15
    95   -1.309682574115e-13
    96   -2.357118695394e-01
    97   -1.028634938679e-13
    98   -1.352766119838e-13
    99   -2.566091741408e-13
   100   -1.499197792534e-01
   101   -7.728208094825e-12
   102    1.507660985785e-12
   103    2.121217992965e-12
   104   -4.307258793211e-02
   105   -3.092815084870e-14
   106   -3.062436798924e-02
   107   -2.306920952403e-02
   108    6.774959937556e-15
   109    3.529355677310e-14
   110    1.766643974667e-11
   111    1.501102847094e-11
   112   -3.548363681356e-14
   113   -4.039280218864e-14
   114   -2.069599547660e-01
   115    7.556000516995e-13
   116    3.836098476601e-14
   117   -2.064661220014e-14
   118   -3.263284594648e-01
   119    4.940749101570e-13
   120    1.011582479517e-14
   121    4.295287947197e-14
   122   -2.828376973141e-01
   123    5.543745800282e-13
   124   -4.511072187321e-13
   125   -3.509927403157e-13
   126   -8.197835971210e-03
   127   -7.424280192234e-15
   128    2.161052352613e-02
   129    1.343541943981e-02
   130   -2.812856061336e-15
   131    3.829368847731e-15
   132   -2.933972843390e-12
   133   -2.439880033380e-12
   134    4.569829544623e-14
   135   -1.605722648337e-13
   136   -3.906965859338e-02
   137   -1.782526503509e-13
   138    7.590395185482e-14
   139   -2.797504886553e-13
   140   -6.572617067375e-02
   141    2.216696622983e-13
   142   -2.294907296501e-14
   143    3.045704946563e-14
   144   -4.159999887883e-02
   145    6.361527409012e-13
   146   -3.178800913111e-13
   147    9.627942198723e-14
   148    2.096513327645e-02
   149    1.029312230018e-16
   150   -1.111648937221e-02
   151    3.724056113027e-03
   152    6.383684946513e-15
   153   -7.519193267815e-15
   154    1.308854988349e-11
   155    1.090670654108e-11
   156    4.270525470594e-14
   157   -6.939218490906e-14
   158    4.788785883139e-02
   159    5.858382570021e-13
   160    3.605653175436e-14
   161   -1.246799614277e-13
   162    7.843293082418e-02
   163    1.602221408295e-13
   164    4.136382362441e-13
   165   -3.943754125510e-14
   166    7.575076094008e-02
   167   -3.336072361906e-13
   168    1.660203322887e-13
   169    2.624103061917e-13
   170    8.995536751374e-03
   171   -1.865135722827e-14
   172   -2.622886704319e-06
   173    2.341467360395e-03
   174    1.346881688850e-14
   175   -1.450820909355e-14
   176    8.028900670677e-13
   177    5.449989509685e-13
   178   -1.086490065595e-13
   179    4.009183448998e-14
   180   -3.763939811632e-02
   181    6.106429596106e-13
   182   -1.682706910993e-13
   183    7.918835692141e-14
   184   -6.734351681359e-02
   185    4.975913139985e-13
   186   -2.914108757491e-13
   187    3.684983650929e-15
   188   -3.644632019587e-02
   189    1.278016185857e-11
   190   -2.036549542247e-12
   191    7.720640887128e-13
   192    1.411762091587e-02
   193   -1.780859439444e-14
   194    6.470747034307e-04
   195   -1.221043062984e-02
   196   -6.142878756826e-15
   197    3.037728513271e-14
   198    1.654313317865e-14
   199    1.204416914722e-13
   200   -3.472493545536e-13
   201    2.134028758632e-13
   202   -2.877034772176e-14
   203    1.633214982683e-14
   204   -3.637877075311e-03
Sym=X
Ene= 2.000000
Spin=Alpha
Occup=1
     1   -1.157421761389e-01
     2   -9.589978321019e-02
     3    4.016920624650e-04
     4    2.104909002673e-05
     5   -2.310582427722e-14
     6   -6.079359256370e-04
     7   -3.507893923198e-04
     8    3.877806105238e-05
     9   -3.181066477157e-14
    10   -1.505821970844e-04
    11    2.772423633460e-04
    12    1.500110778761e-04
    13    9.553037951523e-15
    14   -1.293609154391e-03
    15   -5.248180890121e-05
    16   -5.460418609765e-04
    17    2.294141435962e-14
    18    1.823629208250e-04
    19    9.455986814862e-14
    20   -6.344592275185e-15
    21   -7.919100021283e-06
    22   -1.294444645980e-04
    23    3.145032153818e-05
    24    2.283283247917e-05
    25    7.229457943293e-05
    26    8.432892744998e-05
    27    2.526667605838e-05
    28    2.113331862443e-05
    29   -4.677513722257e-14
    30   -8.783017600551e-05
    31    1.486308367544e-04
    32   -1.358803616925e-04
    33   -1.983154516725e-04
    34    3.546016266855e-06
    35    2.260583104280e-05
    36   -5.747470858937e-15
    37   -5.807882819858e-06
    38    4.132352998174e-05
    39   -1.281421277476e-04
    40    2.456878462983e-05
    41   -1.289190882709e-05
    42   -3.564034885249e-05
    43    3.427685556788e-14
    44    3.505951742961e-01
    45    2.902954805713e-01
    46    4.004352064496e-04
    47   -2.979494458737e-04
    48   -2.601551751851e-13
    49    2.246026068810e-03
    50   -4.816589184376e-04
    51    3.157353955116e-04
    52   -4.464805576219e-13
    53    1.782904059013e-04
    54    8.744829662590e-05
    55   -2.745345241522e-05
    56   -2.450889598201e-13
    57   -1.132891900580e-03
    58   -6.750012481006e-04
    59    2.645609102609e-04
    60   -7.077229199626e-14
    61   -2.564562111419e-04
    62    9.267178048210e-14
    63    3.248374516296e-14
    64    1.142751284972e-04
    65   -2.128457146767e-04
    66   -4.351082886072e-02
    67   -3.728510583450e-02
    68    3.202419090349e-05
    69   -1.734902049607e-05
    70   -4.447567410843e-13
    71   -1.045661286403e-04
    72    2.647735256580e-04
    73   -1.584507958684e-04
    74   -6.848810190576e-13
    75   -4.324251114456e-04
    76   -3.121566995868e-04
    77    1.851685706043e-04
    78   -5.413666501108e-13
    79    4.524493884680e-04
    80    4.260916361762e-04
    81   -2.405525807055e-04
    82    5.347927831518e-14
    83   -2.066207345071e-05
    84   -3.988464136289e-14
    85    2.585326661479e-14
    86    4.770055190766e-05
    87   -9.067979587220e-05
    88   -1.534579156131e-01
    89   -1.271322677398e-01
    90    2.166409319775e-04
    91   -2.460408511496e-04
    92    1.235881789129e-12
    93   -6.937891890813e-04
    94   -2.274059220911e-04
    95   -1.550833047181e-04
    96    2.156724673311e-12
    97   -8.903080180000e-05
    98   -5.211720742151e-05
    99   -4.198663242095e-04
   100    1.367306985281e-12
   101   -3.119394131414e-04
   102   -2.637192161972e-04
   103   -4.782700682875e-05
   104    4.020914991688e-13
   105    1.221844184066e-04
   106    2.726891056010e-13
   107    2.127419053876e-13
   108   -8.632445613684e-05
   109   -7.533704088077e-05
   110    7.306787033902e-02
   111    6.252705064426e-02
   112   -1.347985536765e-04
   113   -6.299718539416e-05
   114    1.878766910651e-12
   115    5.649245747174e-04
   116    1.646530183499e-04
   117    1.019091796136e-04
   118    2.965668217122e-12
   119    2.244366410504e-04
   120   -1.988706803603e-04
   121   -5.960865204780e-05
   122    2.568108943338e-12
   123    4.162930793987e-05
   124    1.417193252499e-04
   125    6.761356490688e-05
   126    6.735522066550e-14
   127   -7.255516763989e-06
   128   -1.975171716640e-13
   129   -1.225702865034e-13
   130   -2.487549483892e-05
   131   -4.191960760652e-05
   132   -2.928045475793e-02
   133   -2.461796933915e-02
   134   -9.680413711405e-05
   135   -5.260813587130e-06
   136    3.934504968659e-13
   137   -1.373349531678e-04
   138   -4.399056115263e-04
   139   -1.003597641622e-04
   140    6.611689601102e-13
   141   -6.673068383173e-05
   142    2.886544045386e-04
   143    8.002552231612e-05
   144    4.401177013774e-13
   145    1.823514661307e-04
   146    2.278139655588e-04
   147    1.340848858512e-04
   148   -1.837720710968e-13
   149   -7.281373990343e-06
   150    1.016800470631e-13
   151   -3.408172412164e-14
   152    5.417097092082e-05
   153    1.228534680230e-04
   154    5.323557636801e-02
   155    4.466674691026e-02
   156   -1.027968024897e-05
   157    9.203058067174e-05
   158   -4.818736829254e-13
   159    7.038695021337e-04
   160   -1.349703891372e-04
   161    4.338629103544e-04
   162   -7.858108756160e-13
   163   -2.852332666229e-04
   164    2.800274088800e-05
   165   -1.934700781233e-04
   166   -7.607288751704e-13
   167    9.260579763667e-04
   168    4.422424256555e-04
   169   -4.038452104457e-05
   170   -9.525942258997e-14
   171   -1.256586649353e-05
   172   -3.070137592890e-15
   173   -1.939403506145e-14
   174   -1.567252044369e-04
   175    3.675941205236e-05
   176    3.825076192386e-01
   177    3.168288119603e-01
   178   -5.331954861898e-05
   179    1.424392175202e-04
   180    3.312531803904e-13
   181    3.175257129137e-03
   182   -2.339216736252e-04
   183   -3.095280416973e-04
   184    5.924733918059e-13
   185   -1.051996609416e-03
   186    2.101779724761e-04
   187   -1.719129223243e-04
   188    3.203822649684e-13
   189    1.427884486566e-03
   190   -8.277544941807e-04
   191    6.744975041427e-04
   192   -1.386327556639e-13
   193   -2.908397008348e-04
   194   -3.538514583641e-15
   195    1.127818663485e-13
   196    1.759343925638e-04
   197    8.446457375472e-05
   198    2.776869048884e-04
   199   -2.406366627105e-04
   200    4.142117081359e-04
   201    5.926437935217e-04
   202    3.971317026750e-05
   203   -3.549027183072e-05
   204    3.235392380741e-14
Sym=X
Ene= 2.000000
Spin=Alpha
Occup=1
     1   -6.752862645860e-02
     2   -5.594640227786e-02
     3    4.392869128743e-05
     4   -5.829348383111e-06
     5    7.650848743180e-15
     6   -3.769053802317e-04
     7   -2.539554867254e-04
     8    1.029859602229e-04
     9    2.421565656039e-14
    10    3.975713416815e-04
    11   -7.767109926510e-05
    12    4.304922788723e-04
    13    1.093029264159e-13
    14   -5.116775709160e-04
    15   -2.982619972152e-04
    16   -4.621864051644e-04
    17    5.880407246528e-14
    18    4.900590100945e-05
    19    2.759911218312e-13
    20   -4.412044108568e-15
    21    2.002301772310e-05
    22   -1.168349220567e-04
    23    1.792349958362e-04
    24   -2.603928078008e-04
    25    5.412795208159e-04
    26    7.042498069054e-05
    27   -6.895779073687e-05
    28   -4.197226388706e-05
    29   -1.270806646018e-13
    30   -5.677835551845e-05
    31    1.389916712805e-04
    32    6.381213571470e-06
    33   -2.887043595222e-04
    34    3.642642237168e-06
    35    2.305886046913e-05
    36   -8.861063719349e-15
    37   -1.360079277289e-04
    38    1.558094232424e-05
    39   -5.463720109615e-04
    40   -3.040888510758e-04
    41    1.075260064348e-06
    42    1.418398215515e-05
    43    1.023637059825e-13
    44   -1.430093920378e-01
    45   -1.183928662713e-01
    46   -1.836424504576e-04
    47    6.196153254024e-06
    48   -7.137740769838e-13
    49   -9.687485015651e-04
    50    2.286343920531e-04
    51   -3.614321552133e-04
    52   -1.238291029922e-12
    53    4.089486420203e-04
    54    4.458752471051e-04
    55   -5.440269053784e-04
    56   -7.033212513490e-13
    57    1.490009752259e-04
    58   -4.525682279514e-05
    59   -1.588805952632e-04
    60   -1.943810521635e-13
    61    1.221782514984e-04
    62    2.696207564094e-13
    63    8.457353036227e-14
    64   -1.877334008272e-04
    65    8.139504719516e-05
    66   -1.519092783668e-01
    67   -1.298958826405e-01
    68   -4.881096942166e-04
    69    3.140873278794e-04
    70   -1.272675702459e-12
    71   -1.679409284585e-03
    72    7.057682078574e-05
    73   -5.911705881236e-05
    74   -1.976363923123e-12
    75    7.055874888249e-04
    76    1.543204359435e-04
    77   -1.307759968551e-05
    78   -1.544052665306e-12
    79   -2.598472022470e-04
    80   -7.987104383760e-05
    81    6.275542021561e-05
    82    1.479603480659e-13
    83    3.472301882996e-05
    84   -1.140160796849e-13
    85    7.471096095758e-14
    86   -1.535170768287e-05
    87    1.385445404571e-05
    88   -1.503532733730e-01
    89   -1.244763882194e-01
    90    2.404356180063e-04
    91   -1.357796618919e-04
    92    3.727947405104e-12
    93   -1.140742923481e-03
    94   -1.597806235499e-04
    95    7.369724259536e-05
    96    6.497135911994e-12
    97    9.913427710339e-04
    98    1.291289348320e-04
    99   -1.921055340675e-04
   100    4.117632965317e-12
   101    4.185858150746e-03
   102   -6.890163230963e-04
   103   -9.116920432861e-04
   104    1.181536446916e-12
   105    8.937887565818e-05
   106    8.237580858556e-13
   107    6.374648069118e-13
   108   -7.451872295304e-06
   109   -9.461365103414e-05
   110    2.781525291159e-02
   111    2.381937798652e-02
   112   -1.700521009805e-05
   113   -1.749103097526e-06
   114    5.658626777603e-12
   115    1.479445467293e-04
   116    1.356158854302e-04
   117    8.415229987527e-05
   118    8.921181198918e-12
   119   -3.226632283204e-05
   120   -7.143128429436e-05
   121   -2.139154940327e-06
   122    7.726560938031e-12
   123   -2.714909715188e-04
   124    1.429734622468e-04
   125    1.706776515371e-04
   126    2.183582649758e-13
   127    8.285586372660e-06
   128   -5.931377348335e-13
   129   -3.686614802857e-13
   130   -2.095344721175e-05
   131   -4.734693401172e-05
   132   -2.589306703712e-01
   133   -2.173710517612e-01
   134    8.741505699955e-05
   135    1.083141071654e-04
   136    1.193760554026e-12
   137   -2.795684790003e-03
   138   -7.491040016196e-05
   139    8.340400555231e-05
   140    2.001251720796e-12
   141    4.713633010390e-04
   142   -3.850766498775e-05
   143    1.960580520467e-04
   144    1.336841782363e-12
   145   -1.824335225516e-03
   146   -2.114683855401e-04
   147    1.280716200434e-03
   148   -5.670832227220e-13
   149    2.794542919809e-05
   150    3.006417440110e-13
   151   -1.075071454712e-13
   152   -8.716115707459e-05
   153    2.091268514944e-05
   154    4.125116113742e-01
   155    3.464110030680e-01
   156    1.175723264380e-04
   157   -1.481875670752e-05
   158   -1.286760017740e-12
   159    4.006920044889e-03
   160   -1.378387208010e-04
   161   -1.026853335073e-04
   162   -2.105006685136e-12
   163   -1.401107098536e-03
   164   -3.914759064552e-04
   165   -2.633789740411e-04
   166   -2.042778385570e-12
   167    7.992926561615e-04
   168    7.286943301545e-04
   169    5.652886723948e-04
   170   -2.608801931064e-13
   171    1.619222922574e-05
   172   -2.240390577304e-16
   173   -5.735688860031e-14
   174    7.552809566811e-05
   175    5.996930180254e-05
   176   -5.204431775080e-02
   177   -4.308666614935e-02
   178    4.067232554338e-05
   179   -4.687444206858e-05
   180    1.027221860102e-12
   181   -5.217863239782e-04
   182   -7.575778471430e-07
   183   -5.034869680549e-05
   184    1.836208806051e-12
   185   -2.015221722918e-04
   186    8.824344059177e-05
   187   -2.651756819632e-04
   188    9.886701054787e-13
   189   -2.324720514260e-03
   190    3.285416061332e-04
   191   -7.929030786399e-04
   192   -3.996142612105e-13
   193    5.800015703573e-06
   194   -1.752669657335e-14
   195    3.377623760526e-13
   196    2.195322532264e-05
   197   -3.007742690658e-05
   198   -3.916372290151e-05
   199   -2.364949950807e-05
   200   -1.344939064779e-04
   201   -1.847389338358e-04
   202    1.403856281208e-05
   203   -2.717894591651e-06
   204    9.899915303226e-14
Sym=X
Ene= 2.000000
Spin=Alpha
Occup=1
     1   -2.731484058903e-01
     2   -2.261727427346e-01
     3    4.606182189365e-04
     4   -2.006641616632e-04
     5   -1.596617434447e-14
     6   -2.239522699478e-03
     7   -5.365492645233e-04
     8   -3.756421220625e-05
     9   -2.755125165748e-14
    10    8.407215111914e-04
    11    3.304384636608e-04
    12    1.171232333224e-05
    13   -2.299672035489e-14
    14    8.585858616445e-03
    15    2.532798019086e-04
    16    1.918283471823e-03
    17   -8.464358011095e-15
    18    1.728245856407e-04
    19   -1.066273339165e-14
    20   -2.803291624163e-15
    21   -5.447197280881e-05
    22   -2.447629331192e-04
    23   -6.463994409579e-05
    24   -4.074943018559e-05
    25   -2.270175603178e-04
    26   -5.381144073050e-04
    27   -3.669361447559e-05
    28    1.367315130923e-05
    29    3.185192032048e-15
    30   -1.827357553804e-04
    31   -2.880998980423e-06
    32   -1.247140444893e-04
    33    3.463718590491e-04
    34   -3.482046465431e-05
    35   -1.612786677967e-05
    36   -1.011125385848e-15
    37    4.071585897503e-05
    38   -1.670077420471e-04
    39    1.141217841075e-04
    40    3.357945239387e-05
    41   -9.231309887910e-06
    42    6.587330756079e-05
    43   -6.004321640488e-15
    44    4.626819256260e-02
    45    3.832168566354e-02
    46    9.046535943027e-05
    47   -1.586134527119e-05
    48    2.076298501704e-15
    49    2.332322044997e-04
    50   -1.606610958043e-05
    51    1.064877875267e-04
    52    5.206675321992e-15
    53    1.056273758582e-03
    54    5.738632065895e-04
    55   -2.392744370269e-04
    56    1.118195809016e-14
    57   -1.742339571160e-03
    58   -5.366760944200e-04
    59    5.714949298722e-05
    60   -2.265011701609e-15
    61   -4.192629632594e-05
    62   -6.120873437649e-15
    63   -6.001327686301e-15
    64    3.987228187794e-05
    65    5.128062781534e-06
    66   -3.976423902234e-02
    67   -3.401756107348e-02
    68   -9.444346822818e-05
    69    5.219303832408e-05
    70   -9.243913669069e-17
    71   -3.705133018629e-04
    72    6.237556836370e-05
    73   -3.395863975643e-05
    74    1.784053465747e-16
    75    8.377939555214e-05
    76   -6.476552879048e-05
    77   -1.432192664336e-06
    78   -1.772747873056e-15
    79    9.633505241790e-05
    80    8.109277367529e-05
    81    1.150155226861e-05
    82   -7.971799345739e-15
    83    2.810308093889e-06
    84    2.549409723658e-16
    85   -2.990558433952e-16
    86    6.969685040322e-06
    87   -1.245385219676e-05
    88   -3.777894884937e-01
    89   -3.127821433639e-01
    90    4.695260539144e-04
    91   -2.496441559258e-04
    92   -1.719502998148e-13
    93   -2.675203417811e-03
    94   -6.791883682576e-04
    95    2.208514584427e-04
    96   -2.977298933891e-13
    97    3.472060237222e-04
    98   -1.934713284396e-04
    99   -6.077823027476e-04
   100   -1.885407894787e-13
   101    8.837649526796e-03
   102   -1.362954081312e-03
   103   -1.872143889166e-03
   104   -5.075722693100e-14
   105    2.869884142409e-04
   106   -3.513620223894e-14
   107   -2.755384425703e-14
   108    9.168662159652e-05
   109   -3.605734172344e-04
   110   -9.678108660899e-02
   111   -8.269666896336e-02
   112    4.351377435151e-04
   113    2.605277458219e-04
   114   -2.522109889908e-13
   115   -1.355591668632e-03
   116    1.385114706865e-04
   117    1.183761484183e-04
   118   -3.967875835668e-13
   119    8.119388930202e-04
   120   -2.714892390398e-04
   121   -1.687776757379e-04
   122   -3.420600765887e-13
   123   -6.044247836735e-04
   124    2.840636978280e-04
   125    3.807830994227e-04
   126   -9.317865958684e-15
   127    4.985045636349e-05
   128    2.710918046130e-14
   129    1.648214911756e-14
   130   -2.606440263848e-05
   131   -9.369979813560e-05
   132    1.277929121790e-01
   133    1.073624940484e-01
   134   -9.306530493026e-05
   135   -9.873805184190e-06
   136   -6.730991322874e-14
   137    1.036141241208e-03
   138   -4.447592330324e-04
   139    2.022520181673e-04
   140   -1.123613877705e-13
   141   -6.010204734141e-04
   142    4.231351992871e-04
   143    3.791929922071e-04
   144   -7.897135893898e-14