[Molden Format]
[Atoms] (Angs)
  C      1    6     -0.00714236     -1.70213747     -0.00000000
  H      2    1     -2.06882847     -1.44022412      0.00000000
  H      3    1     -0.12337987     -2.77567521      0.00000000
  H      4    1      0.04651892      1.98813947     -0.00000000
  C      5    6     -1.21953563      0.40211669      0.00000000
  O      6    8     -2.25921553      1.03043814      0.00000000
  C      7    6      1.28797806      0.34644937     -0.00000000
  O      8    8      2.31273661      1.00537216     -0.00000000
  N      9    7      0.03446295      0.97739857     -0.00000000
  N     10    7     -1.17287765     -0.98229824      0.00000000
  C     11    6      1.20107039     -1.10433419     -0.00000000
  H     12    1      2.11220096     -1.67699125     -0.00000000
[GTO]
1    0
S    6    1.000000
   4.56324000E+03    1.96665000E-03 
   6.82024000E+02    1.52306000E-02 
   1.54973000E+02    7.61269000E-02 
   4.44553000E+01    2.60801000E-01 
   1.30290000E+01    6.16462000E-01 
   1.82773000E+00    2.21006000E-01 
SP   3    1.000000
   2.09642000E+01    1.14660000E-01   4.02487000E-02 
   4.80331000E+00    9.19999000E-01   2.37594000E-01 
   1.45933000E+00   -3.03068000E-03   8.15854000E-01 
SP   1    1.000000
   4.83456000E-01    1.00000000E+00   1.00000000E+00 
SP   1    1.000000
   1.45585000E-01    1.00000000E+00   1.00000000E+00 
SP   1    1.000000
   4.38000000E-02    1.00000000E+00   1.00000000E+00 
D    1    1.000000
   6.26000000E-01    1.00000000E+00 

2    0
S    3    1.000000
   3.38650000E+01    2.54938000E-02 
   5.09479000E+00    1.90373000E-01 
   1.15879000E+00    8.52161000E-01 
S    1    1.000000
   3.25840000E-01    1.00000000E+00 
S    1    1.000000
   1.02741000E-01    1.00000000E+00 
S    1    1.000000
   3.60000000E-02    1.00000000E+00 
P    1    1.000000
   7.50000000E-01    1.00000000E+00 

3    0
S    3    1.000000
   3.38650000E+01    2.54938000E-02 
   5.09479000E+00    1.90373000E-01 
   1.15879000E+00    8.52161000E-01 
S    1    1.000000
   3.25840000E-01    1.00000000E+00 
S    1    1.000000
   1.02741000E-01    1.00000000E+00 
S    1    1.000000
   3.60000000E-02    1.00000000E+00 
P    1    1.000000
   7.50000000E-01    1.00000000E+00 

4    0
S    3    1.000000
   3.38650000E+01    2.54938000E-02 
   5.09479000E+00    1.90373000E-01 
   1.15879000E+00    8.52161000E-01 
S    1    1.000000
   3.25840000E-01    1.00000000E+00 
S    1    1.000000
   1.02741000E-01    1.00000000E+00 
S    1    1.000000
   3.60000000E-02    1.00000000E+00 
P    1    1.000000
   7.50000000E-01    1.00000000E+00 

5    0
S    6    1.000000
   4.56324000E+03    1.96665000E-03 
   6.82024000E+02    1.52306000E-02 
   1.54973000E+02    7.61269000E-02 
   4.44553000E+01    2.60801000E-01 
   1.30290000E+01    6.16462000E-01 
   1.82773000E+00    2.21006000E-01 
SP   3    1.000000
   2.09642000E+01    1.14660000E-01   4.02487000E-02 
   4.80331000E+00    9.19999000E-01   2.37594000E-01 
   1.45933000E+00   -3.03068000E-03   8.15854000E-01 
SP   1    1.000000
   4.83456000E-01    1.00000000E+00   1.00000000E+00 
SP   1    1.000000
   1.45585000E-01    1.00000000E+00   1.00000000E+00 
SP   1    1.000000
   4.38000000E-02    1.00000000E+00   1.00000000E+00 
D    1    1.000000
   6.26000000E-01    1.00000000E+00 

6    0
S    6    1.000000
   8.58850000E+03    1.89515000E-03 
   1.29723000E+03    1.43859000E-02 
   2.99296000E+02    7.07320000E-02 
   8.73771000E+01    2.40001000E-01 
   2.56789000E+01    5.94797000E-01 
   3.74004000E+00    2.80802000E-01 
SP   3    1.000000
   4.21175000E+01    1.13889000E-01   3.65114000E-02 
   9.62837000E+00    9.20811000E-01   2.37153000E-01 
   2.85332000E+00   -3.27447000E-03   8.19702000E-01 
SP   1    1.000000
   9.05661000E-01    1.00000000E+00   1.00000000E+00 
SP   1    1.000000
   2.55611000E-01    1.00000000E+00   1.00000000E+00 
SP   1    1.000000
   8.45000000E-02    1.00000000E+00   1.00000000E+00 
D    1    1.000000
   1.29200000E+00    1.00000000E+00 

7    0
S    6    1.000000
   4.56324000E+03    1.96665000E-03 
   6.82024000E+02    1.52306000E-02 
   1.54973000E+02    7.61269000E-02 
   4.44553000E+01    2.60801000E-01 
   1.30290000E+01    6.16462000E-01 
   1.82773000E+00    2.21006000E-01 
SP   3    1.000000
   2.09642000E+01    1.14660000E-01   4.02487000E-02 
   4.80331000E+00    9.19999000E-01   2.37594000E-01 
   1.45933000E+00   -3.03068000E-03   8.15854000E-01 
SP   1    1.000000
   4.83456000E-01    1.00000000E+00   1.00000000E+00 
SP   1    1.000000
   1.45585000E-01    1.00000000E+00   1.00000000E+00 
SP   1    1.000000
   4.38000000E-02    1.00000000E+00   1.00000000E+00 
D    1    1.000000
   6.26000000E-01    1.00000000E+00 

8    0
S    6    1.000000
   8.58850000E+03    1.89515000E-03 
   1.29723000E+03    1.43859000E-02 
   2.99296000E+02    7.07320000E-02 
   8.73771000E+01    2.40001000E-01 
   2.56789000E+01    5.94797000E-01 
   3.74004000E+00    2.80802000E-01 
SP   3    1.000000
   4.21175000E+01    1.13889000E-01   3.65114000E-02 
   9.62837000E+00    9.20811000E-01   2.37153000E-01 
   2.85332000E+00   -3.27447000E-03   8.19702000E-01 
SP   1    1.000000
   9.05661000E-01    1.00000000E+00   1.00000000E+00 
SP   1    1.000000
   2.55611000E-01    1.00000000E+00   1.00000000E+00 
SP   1    1.000000
   8.45000000E-02    1.00000000E+00   1.00000000E+00 
D    1    1.000000
   1.29200000E+00    1.00000000E+00 

9    0
S    6    1.000000
   6.29348000E+03    1.96979000E-03 
   9.49044000E+02    1.49613000E-02 
   2.18776000E+02    7.35006000E-02 
   6.36916000E+01    2.48937000E-01 
   1.88282000E+01    6.02460000E-01 
   2.72023000E+00    2.56202000E-01 
SP   3    1.000000
   3.06331000E+01    1.11906000E-01   3.83119000E-02 
   7.02614000E+00    9.21666000E-01   2.37403000E-01 
   2.11205000E+00   -2.56919000E-03   8.17592000E-01 
SP   1    1.000000
   6.84009000E-01    1.00000000E+00   1.00000000E+00 
SP   1    1.000000
   2.00878000E-01    1.00000000E+00   1.00000000E+00 
SP   1    1.000000
   6.39000000E-02    1.00000000E+00   1.00000000E+00 
D    1    1.000000
   9.13000000E-01    1.00000000E+00 

10    0
S    6    1.000000
   6.29348000E+03    1.96979000E-03 
   9.49044000E+02    1.49613000E-02 
   2.18776000E+02    7.35006000E-02 
   6.36916000E+01    2.48937000E-01 
   1.88282000E+01    6.02460000E-01 
   2.72023000E+00    2.56202000E-01 
SP   3    1.000000
   3.06331000E+01    1.11906000E-01   3.83119000E-02 
   7.02614000E+00    9.21666000E-01   2.37403000E-01 
   2.11205000E+00   -2.56919000E-03   8.17592000E-01 
SP   1    1.000000
   6.84009000E-01    1.00000000E+00   1.00000000E+00 
SP   1    1.000000
   2.00878000E-01    1.00000000E+00   1.00000000E+00 
SP   1    1.000000
   6.39000000E-02    1.00000000E+00   1.00000000E+00 
D    1    1.000000
   9.13000000E-01    1.00000000E+00 

11    0
S    6    1.000000
   4.56324000E+03    1.96665000E-03 
   6.82024000E+02    1.52306000E-02 
   1.54973000E+02    7.61269000E-02 
   4.44553000E+01    2.60801000E-01 
   1.30290000E+01    6.16462000E-01 
   1.82773000E+00    2.21006000E-01 
SP   3    1.000000
   2.09642000E+01    1.14660000E-01   4.02487000E-02 
   4.80331000E+00    9.19999000E-01   2.37594000E-01 
   1.45933000E+00   -3.03068000E-03   8.15854000E-01 
SP   1    1.000000
   4.83456000E-01    1.00000000E+00   1.00000000E+00 
SP   1    1.000000
   1.45585000E-01    1.00000000E+00   1.00000000E+00 
SP   1    1.000000
   4.38000000E-02    1.00000000E+00   1.00000000E+00 
D    1    1.000000
   6.26000000E-01    1.00000000E+00 

12    0
S    3    1.000000
   3.38650000E+01    2.54938000E-02 
   5.09479000E+00    1.90373000E-01 
   1.15879000E+00    8.52161000E-01 
S    1    1.000000
   3.25840000E-01    1.00000000E+00 
S    1    1.000000
   1.02741000E-01    1.00000000E+00 
S    1    1.000000
   3.60000000E-02    1.00000000E+00 
P    1    1.000000
   7.50000000E-01    1.00000000E+00 

[MO]
Sym=X
Ene= -0.010293
Spin=Alpha
Occup=1
     1   -3.323440380722e-17
     2   -4.645259129368e-15
     3   -8.988284993144e-15
     4   -6.957568074157e-16
     5   -2.328537164961e-02
     6    3.459396427725e-14
     7   -4.402070669065e-15
     8    1.014352859608e-14
     9   -3.630265224595e-02
    10   -6.067567206110e-14
    11    1.504973389953e-13
    12   -1.688934942634e-13
    13   -6.070415721218e-02
    14   -7.503239247066e-12
    15   -1.940283293524e-12
    16   -1.368907835387e-12
    17   -1.126812716301e-02
    18   -3.551131661372e-15
    19   -1.891039320517e-02
    20   -2.215816868034e-04
    21   -4.519130764113e-15
    22    3.970919169431e-15
    23    7.318049961619e-15
    24   -3.874967982939e-15
    25    3.748741705110e-13
    26   -5.266431884416e-14
    27    4.514379526411e-16
    28   -6.480869117838e-16
    29    1.045155345993e-02
    30    3.971301665281e-15
    31   -4.472659097368e-14
    32   -3.417051418199e-15
    33   -4.734482873414e-13
    34   -6.298416075071e-15
    35   -4.638905299724e-15
    36   -1.809075894558e-03
    37   -6.691834954633e-15
    38    1.442857450944e-14
    39   -4.268403354612e-13
    40    2.619195137484e-14
    41   -2.840271329638e-15
    42    2.042697960084e-15
    43   -1.498967533697e-02
    44   -4.884340838014e-16
    45    3.493627739240e-17
    46   -1.499060026428e-15
    47    9.447284891384e-16
    48    5.314327444316e-03
    49    2.704777429247e-15
    50   -1.523554110502e-15
    51   -6.276198617906e-15
    52    1.145858037454e-02
    53   -5.970936606145e-15
    54    1.267347457871e-13
    55   -8.311558838256e-14
    56    8.278885576018e-03
    57    5.657118580456e-13
    58    8.226705601961e-14
    59   -3.009909397242e-13
    60   -5.970932584710e-03
    61    2.649014204335e-15
    62   -3.694101054378e-02
    63   -1.486469396019e-02
    64    2.873679131699e-15
    65    7.244907481171e-15
    66   -1.805109862149e-16
    67    1.438427571415e-15
    68   -2.581098752448e-15
    69   -5.970241902012e-15
    70    6.243392850765e-02
    71   -1.074017474238e-14
    72   -4.207708200963e-15
    73   -1.831672578400e-15
    74    9.468301117713e-02
    75    8.042694178929e-14
    76    3.189651224729e-14
    77   -3.093819457560e-14
    78    9.160106009275e-02
    79   -2.093565841781e-14
    80   -4.787920407810e-14
    81    2.783623008683e-14
    82    2.664249271101e-02
    83    1.675585678722e-15
    84    3.428823867459e-03
    85   -3.106553092576e-03
    86   -1.709550563296e-15
    87   -5.338394541179e-16
    88    1.532371664454e-15
    89    3.665132615665e-15
    90    1.904235727600e-16
    91    3.357646182894e-15
    92    2.022718127517e-02
    93   -1.855602634847e-14
    94    4.943547785699e-15
    95    3.100568255864e-15
    96    3.397282037098e-02
    97   -7.981316205877e-14
    98   -2.454155664939e-13
    99   -1.858444649884e-14
   100    5.099693779239e-02
   101   -4.018369754032e-13
   102    5.948763197602e-13
   103   -1.062286109146e-13
   104    1.997174792600e-02
   105   -1.334600981527e-15
   106    5.388166416821e-02
   107    1.833039118360e-02
   108   -9.254510273162e-16
   109   -6.043765881683e-15
   110   -1.804604422491e-15
   111    2.111450174507e-16
   112    4.354621667008e-15
   113   -2.961818641999e-15
   114    1.646564295801e-01
   115   -6.925816877114e-15
   116    8.329777032731e-15
   117   -3.296768051780e-15
   118    2.512946854619e-01
   119    1.175373442830e-13
   120   -3.223015333408e-14
   121   -2.840145052771e-14
   122    2.440912393365e-01
   123    1.655277882888e-13
   124   -1.038931220526e-13
   125   -9.926858484849e-14
   126    5.504337511679e-02
   127   -5.911192070985e-16
   128   -9.943014453523e-03
   129   -7.095877493539e-03
   130   -1.190707365277e-16
   131    1.682197779108e-15
   132   -1.746327177895e-16
   133   -3.577665376227e-15
   134   -2.702988541985e-15
   135    2.657284720536e-16
   136   -1.820339641006e-01
   137    1.812413514389e-14
   138    4.078165816261e-15
   139   -2.266187010925e-14
   140   -2.879695842635e-01
   141   -8.910117650055e-14
   142   -1.434050612370e-14
   143    1.503660962108e-13
   144   -3.342971727269e-01
   145   -1.367089113527e-13
   146   -6.629262438619e-14
   147    6.409222770268e-13
   148   -7.064922320114e-02
   149    3.036069163028e-15
   150    2.267871848320e-03
   151    4.165370477551e-03
   152    1.715261181382e-15
   153    2.586955224275e-16
   154    3.143084249419e-16
   155    1.778103654319e-15
   156   -1.896654295569e-15
   157    2.644731513788e-16
   158    9.368496397177e-02
   159   -3.420441325546e-15
   160   -8.595157518719e-15
   161    6.596156360550e-15
   162    1.497630979972e-01
   163    4.702237540466e-15
   164    7.959661831946e-14
   165   -6.807923123286e-14
   166    1.741060999819e-01
   167    1.917416680023e-13
   168    6.078555113036e-13
   169    4.795872426787e-13
   170    5.179294987633e-02
   171   -2.463511636882e-15
   172   -1.998290549226e-03
   173    1.408131071820e-03
   174    2.296909852161e-15
   175   -3.602028137487e-15
   176   -2.762356292517e-15
   177   -5.279088227239e-15
   178    4.103017499496e-15
   179   -7.048580858309e-17
   180   -5.675838941565e-02
   181    4.097563153707e-14
   182   -7.587001670594e-15
   183   -2.368364183333e-14
   184   -9.166217614316e-02
   185   -1.577116186774e-13
   186    6.810744864357e-14
   187    1.645503836488e-13
   188   -1.158962923750e-01
   189    7.189784585817e-12
   190   -2.475956230539e-12
   191   -7.038865639048e-13
   192   -1.681919965564e-02
   193    4.320989403907e-16
   194    7.300951088924e-03
   195    3.888131835246e-04
   196   -6.501146559521e-16
   197    1.674229185934e-15
   198    1.750261341541e-15
   199   -1.606192852437e-15
   200    7.168773057237e-14
   201    5.985757878568e-13
   202   -7.119872652302e-15
   203    2.022046259807e-15
   204   -3.882817196680e-03
Sym=X
Ene= -0.018905
Spin=Alpha
Occup=1
     1   -1.958735196710e-15
     2   -6.210442130520e-15
     3   -3.542945627659e-15
     4    6.363724814627e-17
     5    8.727862720665e-02
     6    5.722069380412e-14
     7   -8.818112821185e-15
     8    4.970354648769e-15
     9    1.472180853832e-01
    10   -2.966311147495e-14
    11    1.235006198581e-13
    12   -6.671423307346e-14
    13    1.564974263023e-01
    14   -1.088308101281e-11
    15   -2.149484310346e-12
    16   -2.184212584980e-12
    17    2.073186544929e-02
    18    2.292447153384e-15
    19    3.075257263765e-02
    20    2.035710689312e-03
    21   -9.935854767426e-15
    22    5.132066540968e-15
    23    2.682976143481e-15
    24   -8.469433630865e-14
    25    2.416722387609e-13
    26   -1.014107233948e-13
    27    2.469047851048e-15
    28   -2.786437145883e-15
    29   -1.177127325080e-02
    30    4.202735904977e-15
    31   -3.487696638402e-14
    32    4.790980642040e-14
    33   -5.324369417996e-13
    34    1.047683473894e-15
    35   -7.514137915769e-15
    36    6.742313210525e-03
    37   -3.099275581342e-15
    38    7.374650185349e-14
    39   -4.118998684216e-13
    40   -1.098484939216e-13
    41    8.217327766081e-15
    42   -4.667165855237e-15
    43   -7.698823078489e-03
    44   -3.306690445034e-16
    45   -7.054762116029e-16
    46   -5.647595250777e-15
    47    3.630916426738e-15
    48   -5.731002351754e-03
    49    5.626456404613e-15
    50   -1.138259879215e-14
    51    5.036704059777e-15
    52   -1.401011979302e-02
    53    1.612804179147e-14
    54    6.332858739091e-14
    55    1.674908622869e-13
    56    1.917482703502e-02
    57    1.431697314428e-12
    58    2.176864951714e-13
    59   -3.875501343751e-13
    60    2.731931609395e-02
    61   -2.867014574017e-14
    62   -4.301400709081e-02
    63    3.055108731722e-02
    64   -3.414435966480e-16
    65   -1.191935256650e-14
    66    1.184665702317e-16
    67   -2.843096515664e-15
    68   -4.230896036982e-15
    69   -4.228930373981e-15
    70    1.455177351450e-01
    71    2.045597536831e-14
    72   -7.042007627645e-15
    73    1.135685918098e-15
    74    2.211400687608e-01
    75   -7.514192426356e-14
    76   -5.019232292680e-14
    77   -2.620013252170e-14
    78    2.204078183701e-01
    79   -7.953153837346e-14
    80   -1.513042418132e-14
    81    3.485299939588e-14
    82    4.671783739408e-02
    83   -3.254605166758e-15
    84    8.113765252737e-03
    85   -4.743148484154e-03
    86    1.525802121410e-15
    87   -3.507350997212e-16
    88    3.292810432544e-16
    89   -2.510992566112e-15
    90   -7.548379386620e-15
    91    5.704840752200e-15
    92    1.025595375673e-02
    93    2.711999377030e-15
    94    1.119501941847e-14
    95   -1.457834908235e-14
    96    1.977405972827e-02
    97    4.221628703842e-14
    98   -2.042938855432e-14
    99    3.887358165306e-14
   100    1.259506214481e-02
   101   -4.104263810727e-12
   102    8.482146950727e-13
   103    6.468858740396e-13
   104   -2.486284772223e-02
   105   -1.151448880549e-14
   106    4.002616378404e-03
   107   -2.495137687441e-02
   108    4.290171882887e-15
   109   -7.584995373561e-16
   110   -6.325353065670e-16
   111   -1.823446543532e-15
   112    5.723511145402e-16
   113   -3.330145976148e-15
   114   -2.068543754505e-02
   115    1.214434281009e-14
   116    1.387138759671e-15
   117   -6.230583170779e-15
   118   -3.034419041128e-02
   119   -3.591575687500e-14
   120    1.194289073168e-14
   121    1.367338313800e-14
   122   -3.633716293026e-02
   123    2.946828311563e-14
   124    4.186724594470e-14
   125   -8.403809631010e-14
   126   -5.328398518749e-03
   127    2.371778612150e-16
   128    9.584545815636e-04
   129   -2.635291345457e-04
   130   -1.915224248733e-15
   131    1.347012878972e-15
   132    3.241769108025e-16
   133    2.430574274119e-15
   134   -2.984785681070e-15
   135    1.839258358027e-15
   136   -9.684565348370e-02
   137   -1.403657680757e-14
   138    3.538641836596e-16
   139    4.981654148534e-15
   140   -1.535998545160e-01
   141   -6.417537275559e-14
   142    2.341865352426e-14
   143   -5.461945947568e-14
   144   -1.781700073019e-01
   145    8.801458853641e-14
   146    2.517266903389e-13
   147    7.290576162005e-13
   148   -3.164831695657e-02
   149   -3.750346507825e-15
   150    2.057916267839e-03
   151    2.101583875629e-03
   152   -1.407728053471e-15
   153   -2.891968845823e-15
   154    1.462997257957e-15
   155    3.112319034004e-15
   156    7.673666537285e-16
   157    8.725862753318e-16
   158   -1.249448712155e-01
   159   -2.643306588591e-14
   160    8.812525294630e-15
   161   -7.419874772942e-15
   162   -1.959873258860e-01
   163    1.486779994033e-13
   164   -6.146553420114e-14
   165    4.942780228977e-15
   166   -2.525398333986e-01
   167    6.467556028161e-13
   168    5.477674676781e-13
   169    3.245127579935e-13
   170   -8.324595351960e-02
   171   -7.826503033650e-15
   172    4.419246202039e-03
   173   -6.311541690151e-03
   174    2.400857125191e-15
   175    1.286979066149e-15
   176    1.823599048589e-16
   177   -7.592163822420e-15
   178   -1.827344271675e-15
   179    2.485411507670e-15
   180    1.405628862221e-01
   181    7.329833077957e-14
   182   -1.669244237634e-14
   183   -1.357277950299e-14
   184    2.353521290074e-01
   185   -3.760536572827e-13
   186   -3.727027768581e-15
   187    1.165304901604e-13
   188    2.366064339654e-01
   189    1.277211619518e-11
   190   -3.582017543978e-12
   191    4.144658241147e-13
   192    4.420017334309e-02
   193    1.560134341208e-14
   194   -1.328862271933e-02
   195   -8.365046209141e-04
   196    4.251131917198e-15
   197    1.020474067764e-14
   198   -5.228251552841e-15
   199    4.667055266037e-14
   200    1.823282681731e-13
   201    1.047261312111e-12
   202   -2.090741338043e-14
   203   -3.232675750787e-15
   204    1.152858133263e-02
Sym=X
Ene= -0.037147
Spin=Alpha
Occup=1
     1    8.427418014808e-03
     2    1.444028986515e-02
     3    7.368134653598e-03
     4   -2.573138914378e-02
     5    1.785435729272e-15
     6   -3.949754588569e-02
     7    1.305243307651e-02
     8   -4.303199711587e-02
     9   -4.194216449401e-15
    10   -9.621472300363e-02
    11   -2.858935870144e-04
    12   -6.166564792740e-02
    13    1.983491043170e-14
    14   -2.728785610016e-01
    15   -2.324047807331e-02
    16   -5.828043528557e-02
    17   -1.277813275886e-13
    18    1.580265381665e-03
    19   -2.360834631679e-15
    20   -1.908406290193e-15
    21   -1.131849751314e-02
    22    2.148804813854e-03
    23   -5.565698665863e-03
    24   -2.119369473658e-02
    25   -3.393682072666e-02
    26    4.043534476862e-02
    27   -1.775032474636e-03
    28   -1.110658746709e-03
    29   -4.586634337051e-15
    30    2.060677337402e-02
    31    3.645761806913e-02
    32    1.926477441718e-02
    33   -8.669067197058e-03
    34    3.131275224052e-04
    35   -2.959568380652e-04
    36   -8.175600041694e-15
    37    3.260059135776e-03
    38    2.363924851086e-02
    39    4.281810728227e-02
    40   -6.099859020050e-02
    41   -4.935139875802e-04
    42   -2.268430033350e-03
    43    7.949606407455e-15
    44   -4.190345746300e-03
    45   -7.240370255252e-03
    46    1.020428843890e-02
    47    3.178408070571e-03
    48    4.784755146765e-15
    49    2.176930242236e-02
    50    1.440485716923e-02
    51    1.650700919118e-03
    52    3.680714665051e-15
    53    4.225973740430e-02
    54    9.243162131917e-02
    55    1.305621792664e-01
    56    5.407772353974e-15
    57    6.017452775157e-02
    58    8.282368464764e-02
    59    1.100491514089e-01
    60    5.560082403426e-14
    61    2.580473512925e-04
    62   -4.963413726027e-15
    63   -2.603316578338e-15
    64   -6.627080269733e-02
    65   -3.001984900532e-02
    66    1.400895912151e-03
    67    2.341816575177e-03
    68    1.157500696386e-01
    69    1.998041797082e-01
    70    2.651513434535e-15
    71   -6.274482236014e-03
    72    1.775813728594e-01
    73    3.049955339709e-01
    74    1.655441955343e-15
    75   -8.074771865905e-03
    76    1.642183107152e-01
    77    2.881231107616e-01
    78    9.011560187691e-15
    79   -1.086059081097e-02
    80    1.302305473635e-02
    81    3.252993751829e-02
    82   -2.591471195081e-14
    83    2.930755886935e-04
    84    5.471683893105e-16
    85   -8.667937686047e-16
    86    1.329320925946e-02
    87    6.766361346354e-03
    88   -1.047072619571e-02
    89   -1.805509777147e-02
    90   -2.751021861134e-02
    91   -8.273805447374e-04
    92   -2.507139850397e-15
    93    5.008104962271e-02
    94   -4.421394441867e-02
    95   -3.198157854164e-03
    96    8.557616777668e-16
    97    7.931107099796e-02
    98   -5.561776463102e-02
    99    3.613020471727e-02
   100   -4.237699753876e-14
   101   -1.465195472637e-01
   102   -1.426509025121e-02
   103    1.018216300086e-01
   104   -1.690570791076e-13
   105    8.431469808313e-05
   106    1.073980001071e-15
   107   -3.346932531129e-15
   108   -3.579858811515e-02
   109    1.007083613948e-02
   110    4.178453651517e-03
   111    7.065650216887e-03
   112   -6.061891099761e-02
   113    1.163879106788e-01
   114   -3.910777970605e-15
   115   -2.062048513907e-02
   116   -9.328011455546e-02
   117    1.772296987768e-01
   118   -1.704991363692e-14
   119   -2.066697538195e-02
   120   -8.863524452643e-02
   121    1.673798426232e-01
   122    1.525717107348e-14
   123    1.713707182538e-02
   124   -1.443279009516e-02
   125    1.127695446935e-02
   126    7.022668768735e-14
   127    4.163738443831e-04
   128    1.469314902839e-15
   129    1.116829319132e-15
   130    7.524030987522e-03
   131   -4.483983445837e-03
   132    2.412561074455e-02
   133    4.040494544830e-02
   134    2.738378226329e-02
   135    2.597507795690e-02
   136   -1.060231740459e-14
   137   -1.100965712603e-01
   138    3.567518885423e-02
   139    2.758651921648e-02
   140   -2.051011855559e-14
   141   -2.827150350236e-01
   142    5.999743704822e-02
   143    5.299025957644e-02
   144   -8.857116608563e-16
   145   -3.109533636119e-01
   146    1.705167602604e-02
   147    2.551865285569e-02
   148    2.756960396843e-14
   149   -3.208701628642e-03
   150    6.282591787969e-16
   151    3.133905340818e-15
   152    3.994958303962e-03
   153   -1.993201458980e-04
   154   -1.345250779977e-02
   155   -2.250457475072e-02
   156   -1.147374730940e-02
   157    6.122044479712e-02
   158   -2.491415777970e-16
   159    6.133908389371e-02
   160   -2.200625247291e-02
   161    8.458532830618e-02
   162    1.878759495433e-15
   163    1.791328095981e-01
   164   -1.710900758407e-02
   165    1.110684786491e-01
   166   -1.906972780136e-14
   167    2.475299640512e-01
   168    1.491496782201e-02
   169    3.209601144788e-02
   170    6.826027926160e-14
   171    2.324322946766e-03
   172    1.057269955618e-15
   173    7.238858623229e-16
   174    4.770745261875e-04
   175    1.635312789156e-03
   176   -7.144806898357e-03
   177   -1.190591219880e-02
   178    8.433531627048e-03
   179    3.271277027055e-02
   180    3.120562152930e-15
   181    3.140051438921e-02
   182    1.416146230353e-02
   183    4.456243576675e-02
   184    4.630635159377e-15
   185    1.019279478418e-01
   186   -1.632871903619e-02
   187    5.353900448535e-02
   188    3.392936591094e-15
   189    4.051801708030e-01
   190   -7.032351184197e-02
   191    4.031582692871e-02
   192    1.514578926986e-13
   193    6.303801058522e-04
   194    4.730631688400e-15
   195   -4.519004693432e-15
   196   -3.187921458843e-03
   197    3.758347967383e-04
   198   -2.950245159742e-03
   199   -5.917282137670e-03
   200   -4.733020214204e-04
   201    2.132144191615e-02
   202    5.006311581843e-04
   203    3.028052864011e-04
   204   -4.551623161075e-15
Sym=X
Ene= -0.794600
Spin=Alpha
Occup=1
     1   -2.943664725274e-03
     2   -5.171646693220e-03
     3    3.116305075961e-02
     4    7.212162991994e-03
     5    1.293150130952e-15
     6    1.539787173891e-02
     7    5.346583565750e-02
     8    1.321903095345e-02
     9   -3.188374256885e-15
    10    6.107270067538e-02
    11    5.700084482785e-02
    12    5.034431324666e-02
    13    2.445714132319e-14
    14    3.807982214057e-01
    15    1.118764309241e-01
    16    1.045809927687e-01
    17   -7.449558558528e-14
    18    2.683069367758e-04
    19   -4.248218192192e-15
    20   -1.699781429474e-14
    21    5.051443566179e-03
    22   -3.614679430881e-03
    23   -1.088807045783e-03
    24   -1.008054362184e-02
    25   -3.333636689531e-02
    26    1.310490029544e-02
    27   -6.715284158108e-04
    28   -1.317202085713e-03
    29   -3.211671065563e-15
    30   -1.014413110538e-02
    31   -1.006639313032e-02
    32   -4.743223947075e-03
    33    4.491499100945e-02
    34    1.888400695715e-03
    35    1.124694507269e-03
    36   -1.615776289368e-14
    37   -7.469872376404e-03
    38   -1.671565472956e-02
    39    1.505279339789e-03
    40    2.789893331737e-02
    41   -2.395032099910e-04
    42    8.966282653183e-05
    43    1.166120236723e-15
    44    6.118692207791e-03
    45    1.056190872150e-02
    46   -2.458707270733e-02
    47   -3.925513941085e-03
    48    4.314990419987e-15
    49   -2.930285259752e-02
    50   -4.362492855900e-02
    51   -1.006925634602e-02
    52    3.485713498126e-14
    53   -5.948435920262e-02
    54    5.963134887413e-03
    55    6.742589298466e-02
    56   -6.468031368410e-14
    57   -5.954741384158e-02
    58    2.353578734207e-02
    59    4.249339070808e-02
    60    1.033992007696e-13
    61    1.950942719275e-05
    62    1.087337142080e-15
    63    2.332978988494e-15
    64   -3.274404438867e-02
    65   -2.687239124108e-02
    66   -9.578506278752e-04
    67   -1.620487438477e-03
    68    8.184736762857e-02
    69    1.042858823918e-01
    70    1.839880430062e-15
    71    5.126841689934e-03
    72    1.236364334312e-01
    73    1.602543863884e-01
    74    8.283344621141e-15
    75   -1.427613460676e-03
    76    1.175854235449e-01
    77    1.591446639113e-01
    78   -1.392191890177e-15
    79   -1.899142056609e-02
    80    5.343851675009e-03
    81    1.868714341614e-02
    82   -4.000151960897e-14
    83   -3.867286185726e-04
    84    7.631322450912e-16
    85   -9.540593013731e-16
    86    7.063991344919e-03
    87    2.441892848006e-03
    88    2.960357115161e-03
    89    5.258466125144e-03
    90   -1.242049889575e-02
    91    2.882495254572e-02
    92    5.657672459289e-15
    93   -1.531169000393e-02
    94   -2.352488558477e-02
    95    5.676930241125e-02
    96    2.323521652932e-14
    97   -1.226700915664e-02
    98    3.610500202792e-02
    99   -8.176276173431e-02
   100   -4.602185011543e-14
   101    3.186339408367e-01
   102    3.068331804649e-02
   103   -1.498228868009e-01
   104   -1.945697205825e-13
   105   -9.946896717885e-04
   106   -1.315438563800e-14
   107   -2.702920268247e-15
   108    6.189452927465e-02
   109   -3.473533362467e-02
   110   -9.821591327420e-04
   111   -1.751551609869e-03
   112    1.265334720295e-01
   113   -1.913299585090e-01
   114   -2.673779852202e-15
   115    6.526928917973e-03
   116    1.922557796574e-01
   117   -2.928811414698e-01
   118    5.814843819737e-15
   119    1.006511619036e-02
   120    1.902169192129e-01
   121   -2.871413243611e-01
   122   -1.953881079310e-14
   123    1.937565468364e-02
   124    8.223801234845e-03
   125   -3.511865929614e-02
   126    9.224389816027e-14
   127    3.007484113262e-04
   128   -5.810183922935e-18
   129    3.437815271943e-16
   130   -1.084543856024e-02
   131    5.422645251489e-03
   132   -9.456820296615e-03
   133   -1.612216899720e-02
   134    9.111427945994e-02
   135   -1.720138780002e-02
   136   -2.631971733168e-15
   137    4.712864042343e-02
   138    1.327433943464e-01
   139   -2.448979677565e-02
   140    2.104760099377e-15
   141    9.665545343781e-02
   142    1.609967811568e-01
   143   -3.670265908457e-02
   144    8.902829242491e-15