[Molden Format]
[Atoms] (Angs)
  C      1    6     -0.00714236     -1.70213747     -0.00000000
  H      2    1     -2.06882847     -1.44022412      0.00000000
  H      3    1     -0.12337987     -2.77567521      0.00000000
  H      4    1      0.04651892      1.98813947     -0.00000000
  C      5    6     -1.21953563      0.40211669      0.00000000
  O      6    8     -2.25921553      1.03043814      0.00000000
  C      7    6      1.28797806      0.34644937     -0.00000000
  O      8    8      2.31273661      1.00537216     -0.00000000
  N      9    7      0.03446295      0.97739857     -0.00000000
  N     10    7     -1.17287765     -0.98229824      0.00000000
  C     11    6      1.20107039     -1.10433419     -0.00000000
  H     12    1      2.11220096     -1.67699125     -0.00000000
[GTO]
1    0
S    6    1.000000
   4.56324000E+03    1.96665000E-03 
   6.82024000E+02    1.52306000E-02 
   1.54973000E+02    7.61269000E-02 
   4.44553000E+01    2.60801000E-01 
   1.30290000E+01    6.16462000E-01 
   1.82773000E+00    2.21006000E-01 
SP   3    1.000000
   2.09642000E+01    1.14660000E-01   4.02487000E-02 
   4.80331000E+00    9.19999000E-01   2.37594000E-01 
   1.45933000E+00   -3.03068000E-03   8.15854000E-01 
SP   1    1.000000
   4.83456000E-01    1.00000000E+00   1.00000000E+00 
SP   1    1.000000
   1.45585000E-01    1.00000000E+00   1.00000000E+00 
SP   1    1.000000
   4.38000000E-02    1.00000000E+00   1.00000000E+00 
D    1    1.000000
   6.26000000E-01    1.00000000E+00 

2    0
S    3    1.000000
   3.38650000E+01    2.54938000E-02 
   5.09479000E+00    1.90373000E-01 
   1.15879000E+00    8.52161000E-01 
S    1    1.000000
   3.25840000E-01    1.00000000E+00 
S    1    1.000000
   1.02741000E-01    1.00000000E+00 
S    1    1.000000
   3.60000000E-02    1.00000000E+00 
P    1    1.000000
   7.50000000E-01    1.00000000E+00 

3    0
S    3    1.000000
   3.38650000E+01    2.54938000E-02 
   5.09479000E+00    1.90373000E-01 
   1.15879000E+00    8.52161000E-01 
S    1    1.000000
   3.25840000E-01    1.00000000E+00 
S    1    1.000000
   1.02741000E-01    1.00000000E+00 
S    1    1.000000
   3.60000000E-02    1.00000000E+00 
P    1    1.000000
   7.50000000E-01    1.00000000E+00 

4    0
S    3    1.000000
   3.38650000E+01    2.54938000E-02 
   5.09479000E+00    1.90373000E-01 
   1.15879000E+00    8.52161000E-01 
S    1    1.000000
   3.25840000E-01    1.00000000E+00 
S    1    1.000000
   1.02741000E-01    1.00000000E+00 
S    1    1.000000
   3.60000000E-02    1.00000000E+00 
P    1    1.000000
   7.50000000E-01    1.00000000E+00 

5    0
S    6    1.000000
   4.56324000E+03    1.96665000E-03 
   6.82024000E+02    1.52306000E-02 
   1.54973000E+02    7.61269000E-02 
   4.44553000E+01    2.60801000E-01 
   1.30290000E+01    6.16462000E-01 
   1.82773000E+00    2.21006000E-01 
SP   3    1.000000
   2.09642000E+01    1.14660000E-01   4.02487000E-02 
   4.80331000E+00    9.19999000E-01   2.37594000E-01 
   1.45933000E+00   -3.03068000E-03   8.15854000E-01 
SP   1    1.000000
   4.83456000E-01    1.00000000E+00   1.00000000E+00 
SP   1    1.000000
   1.45585000E-01    1.00000000E+00   1.00000000E+00 
SP   1    1.000000
   4.38000000E-02    1.00000000E+00   1.00000000E+00 
D    1    1.000000
   6.26000000E-01    1.00000000E+00 

6    0
S    6    1.000000
   8.58850000E+03    1.89515000E-03 
   1.29723000E+03    1.43859000E-02 
   2.99296000E+02    7.07320000E-02 
   8.73771000E+01    2.40001000E-01 
   2.56789000E+01    5.94797000E-01 
   3.74004000E+00    2.80802000E-01 
SP   3    1.000000
   4.21175000E+01    1.13889000E-01   3.65114000E-02 
   9.62837000E+00    9.20811000E-01   2.37153000E-01 
   2.85332000E+00   -3.27447000E-03   8.19702000E-01 
SP   1    1.000000
   9.05661000E-01    1.00000000E+00   1.00000000E+00 
SP   1    1.000000
   2.55611000E-01    1.00000000E+00   1.00000000E+00 
SP   1    1.000000
   8.45000000E-02    1.00000000E+00   1.00000000E+00 
D    1    1.000000
   1.29200000E+00    1.00000000E+00 

7    0
S    6    1.000000
   4.56324000E+03    1.96665000E-03 
   6.82024000E+02    1.52306000E-02 
   1.54973000E+02    7.61269000E-02 
   4.44553000E+01    2.60801000E-01 
   1.30290000E+01    6.16462000E-01 
   1.82773000E+00    2.21006000E-01 
SP   3    1.000000
   2.09642000E+01    1.14660000E-01   4.02487000E-02 
   4.80331000E+00    9.19999000E-01   2.37594000E-01 
   1.45933000E+00   -3.03068000E-03   8.15854000E-01 
SP   1    1.000000
   4.83456000E-01    1.00000000E+00   1.00000000E+00 
SP   1    1.000000
   1.45585000E-01    1.00000000E+00   1.00000000E+00 
SP   1    1.000000
   4.38000000E-02    1.00000000E+00   1.00000000E+00 
D    1    1.000000
   6.26000000E-01    1.00000000E+00 

8    0
S    6    1.000000
   8.58850000E+03    1.89515000E-03 
   1.29723000E+03    1.43859000E-02 
   2.99296000E+02    7.07320000E-02 
   8.73771000E+01    2.40001000E-01 
   2.56789000E+01    5.94797000E-01 
   3.74004000E+00    2.80802000E-01 
SP   3    1.000000
   4.21175000E+01    1.13889000E-01   3.65114000E-02 
   9.62837000E+00    9.20811000E-01   2.37153000E-01 
   2.85332000E+00   -3.27447000E-03   8.19702000E-01 
SP   1    1.000000
   9.05661000E-01    1.00000000E+00   1.00000000E+00 
SP   1    1.000000
   2.55611000E-01    1.00000000E+00   1.00000000E+00 
SP   1    1.000000
   8.45000000E-02    1.00000000E+00   1.00000000E+00 
D    1    1.000000
   1.29200000E+00    1.00000000E+00 

9    0
S    6    1.000000
   6.29348000E+03    1.96979000E-03 
   9.49044000E+02    1.49613000E-02 
   2.18776000E+02    7.35006000E-02 
   6.36916000E+01    2.48937000E-01 
   1.88282000E+01    6.02460000E-01 
   2.72023000E+00    2.56202000E-01 
SP   3    1.000000
   3.06331000E+01    1.11906000E-01   3.83119000E-02 
   7.02614000E+00    9.21666000E-01   2.37403000E-01 
   2.11205000E+00   -2.56919000E-03   8.17592000E-01 
SP   1    1.000000
   6.84009000E-01    1.00000000E+00   1.00000000E+00 
SP   1    1.000000
   2.00878000E-01    1.00000000E+00   1.00000000E+00 
SP   1    1.000000
   6.39000000E-02    1.00000000E+00   1.00000000E+00 
D    1    1.000000
   9.13000000E-01    1.00000000E+00 

10    0
S    6    1.000000
   6.29348000E+03    1.96979000E-03 
   9.49044000E+02    1.49613000E-02 
   2.18776000E+02    7.35006000E-02 
   6.36916000E+01    2.48937000E-01 
   1.88282000E+01    6.02460000E-01 
   2.72023000E+00    2.56202000E-01 
SP   3    1.000000
   3.06331000E+01    1.11906000E-01   3.83119000E-02 
   7.02614000E+00    9.21666000E-01   2.37403000E-01 
   2.11205000E+00   -2.56919000E-03   8.17592000E-01 
SP   1    1.000000
   6.84009000E-01    1.00000000E+00   1.00000000E+00 
SP   1    1.000000
   2.00878000E-01    1.00000000E+00   1.00000000E+00 
SP   1    1.000000
   6.39000000E-02    1.00000000E+00   1.00000000E+00 
D    1    1.000000
   9.13000000E-01    1.00000000E+00 

11    0
S    6    1.000000
   4.56324000E+03    1.96665000E-03 
   6.82024000E+02    1.52306000E-02 
   1.54973000E+02    7.61269000E-02 
   4.44553000E+01    2.60801000E-01 
   1.30290000E+01    6.16462000E-01 
   1.82773000E+00    2.21006000E-01 
SP   3    1.000000
   2.09642000E+01    1.14660000E-01   4.02487000E-02 
   4.80331000E+00    9.19999000E-01   2.37594000E-01 
   1.45933000E+00   -3.03068000E-03   8.15854000E-01 
SP   1    1.000000
   4.83456000E-01    1.00000000E+00   1.00000000E+00 
SP   1    1.000000
   1.45585000E-01    1.00000000E+00   1.00000000E+00 
SP   1    1.000000
   4.38000000E-02    1.00000000E+00   1.00000000E+00 
D    1    1.000000
   6.26000000E-01    1.00000000E+00 

12    0
S    3    1.000000
   3.38650000E+01    2.54938000E-02 
   5.09479000E+00    1.90373000E-01 
   1.15879000E+00    8.52161000E-01 
S    1    1.000000
   3.25840000E-01    1.00000000E+00 
S    1    1.000000
   1.02741000E-01    1.00000000E+00 
S    1    1.000000
   3.60000000E-02    1.00000000E+00 
P    1    1.000000
   7.50000000E-01    1.00000000E+00 

[MO]
Sym=X
Ene= -0.011667
Spin=Alpha
Occup=1
     1    8.092582398847e-03
     2    1.394576843883e-02
     3   -2.333551308658e-02
     4   -1.072770018574e-02
     5   -1.187950494740e-16
     6   -3.813782896467e-02
     7   -3.903106594602e-02
     8   -2.066442351128e-02
     9   -1.661372536478e-15
    10   -1.116850259282e-01
    11   -4.626385822335e-02
    12   -6.886030298581e-02
    13   -1.524214802840e-14
    14   -4.331756817821e-01
    15   -9.497441168556e-02
    16   -1.055045438010e-01
    17    3.919956139730e-14
    18    6.569533298802e-04
    19    3.673619280523e-15
    20    1.171511712137e-14
    21   -9.126343345239e-03
    22    3.309333866765e-03
    23    3.914494079049e-05
    24   -2.564959019181e-03
    25   -4.991063570950e-05
    26    1.700222985105e-02
    27   -7.272191820035e-05
    28   -4.179549071179e-04
    29    6.276200862054e-15
    30    1.122174249305e-02
    31    1.493823005776e-02
    32    1.171643823981e-02
    33   -3.630605808718e-02
    34   -1.525378129929e-03
    35   -2.131956589675e-03
    36    1.010872417206e-14
    37    6.166446579313e-03
    38    2.593005530933e-02
    39    2.896124030311e-02
    40   -6.163068852166e-02
    41   -3.750447502234e-04
    42   -1.553536023309e-03
    43   -4.450878840392e-15
    44   -5.724716310392e-03
    45   -9.972025239205e-03
    46    2.300804883750e-02
    47    1.191666327279e-02
    48   -8.573709264501e-16
    49    2.863357601728e-02
    50    3.858678750015e-02
    51    1.812729741248e-02
    52   -2.580474233362e-14
    53    6.421447384391e-02
    54    5.324732185360e-02
    55    3.709750184861e-02
    56    4.715431996429e-14
    57    7.540488207397e-02
    58    3.859809863002e-02
    59    4.666863903384e-02
    60   -9.758400422643e-14
    61   -8.750245127190e-05
    62    1.744339442873e-15
    63    1.486261875381e-15
    64   -2.548509971256e-02
    65   -4.367900959558e-03
    66    1.060193873123e-03
    67    1.796902557421e-03
    68    3.086796083580e-02
    69    7.301978494969e-02
    70   -5.416304016834e-16
    71   -5.512445078969e-03
    72    4.609705876273e-02
    73    1.068203148698e-01
    74   -3.048790849207e-15
    75   -2.599530629457e-03
    76    3.231472335711e-02
    77    8.317720107503e-02
    78   -4.377680356647e-15
    79    4.132997258941e-03
    80    1.602998482999e-03
    81    3.262592187200e-03
    82    5.752673428305e-14
    83    1.494863629035e-04
    84   -5.925014494670e-16
    85    5.104451038377e-16
    86    5.562926428751e-03
    87    3.537058844599e-03
    88   -9.375360591090e-03
    89   -1.616128070424e-02
    90   -6.118691321546e-03
    91   -2.505585502154e-02
    92   -6.603791398051e-15
    93    4.498646597034e-02
    94   -6.687472817483e-03
    95   -4.911357099652e-02
    96   -2.043460148014e-14
    97    5.536295134445e-02
    98   -6.476133636045e-02
    99    8.629154052760e-02
   100    2.389328248948e-14
   101   -3.388589874745e-01
   102   -3.019538438762e-02
   103    1.818522023329e-01
   104    1.693481794080e-13
   105    8.730002636731e-04
   106    8.119122022170e-15
   107    2.764991945180e-15
   108   -7.169004367033e-02
   109    3.452131073275e-02
   110    2.388295009507e-03
   111    4.133634495855e-03
   112   -1.342604171913e-01
   113    2.181408049627e-01
   114    5.406691485548e-15
   115   -1.346413601818e-02
   116   -2.040550485170e-01
   117    3.323634579763e-01
   118    9.194695091806e-16
   119   -1.588217712103e-02
   120   -1.964882549818e-01
   121    3.167071106410e-01
   122    1.186149973537e-14
   123    3.217518115676e-04
   124   -1.625406342063e-02
   125    3.079523974268e-02
   126   -8.718193896136e-14
   127    1.595968969621e-04
   128    1.522760720514e-16
   129   -4.974038251187e-17
   130    1.354570429099e-02
   131   -7.083658736998e-03
   132    2.461024659341e-02
   133    4.124820204700e-02
   134   -4.806712544082e-02
   135    2.979626317540e-02
   136   -4.130993552023e-15
   137   -1.142794747151e-01
   138   -7.315216450729e-02
   139    3.457205983303e-02
   140   -1.378243032500e-14
   141   -2.576914255968e-01
   142   -8.221923492613e-02
   143    5.965044788393e-02
   144    2.849616458807e-15
   145   -2.501248510194e-01
   146    3.600405586722e-02
   147    4.187455743399e-02
   148   -4.933768223898e-14
   149   -2.356004614356e-03
   150   -2.784077567039e-15
   151    1.084014394727e-15
   152    1.264498535136e-03
   153   -1.071783477871e-03
   154   -3.830637093212e-03
   155   -6.275152305148e-03
   156   -1.420764402635e-03
   157    9.615583369778e-03
   158    1.638364516109e-15
   159    1.571658933512e-02
   160   -4.197213862841e-03
   161    1.078654653288e-02
   162    4.153725197261e-17
   163    3.769792111500e-02
   164    3.206664611843e-03
   165    1.923866764146e-02
   166   -5.644859367276e-15
   167    1.015207922723e-01
   168    1.540821798204e-02
   169    4.703351026541e-02
   170    3.813740512021e-14
   171   -1.438428027156e-04
   172    1.461219075422e-15
   173    4.829661232331e-16
   174   -1.236386409923e-03
   175   -5.421165158503e-04
   176   -1.741144127869e-02
   177   -2.895232472508e-02
   178    1.541756335781e-02
   179    7.483131859567e-02
   180    1.800530383639e-15
   181    7.581731430074e-02
   182    2.653816110964e-02
   183    1.032627717015e-01
   184   -3.938718145589e-15
   185    2.552199144398e-01
   186   -3.329453022799e-02
   187    1.331668516599e-01
   188    8.293765716884e-15
   189    8.144976718071e-01
   190   -1.379943193027e-01
   191    8.097447292367e-02
   192   -1.032899469790e-13
   193    1.628293566244e-03
   194   -4.093445598021e-15
   195    1.331804528043e-16
   196    2.400196592150e-04
   197   -5.460300666784e-04
   198   -6.331112873464e-03
   199   -1.344535006055e-02
   200    6.090911752868e-03
   201    4.762154947092e-02
   202    1.461997586129e-03
   203   -3.817413464241e-04
   204    7.287600928858e-15
Sym=X
Ene= -0.817383
Spin=Alpha
Occup=1
     1   -4.042551228517e-03
     2   -6.854489607251e-03
     3   -2.491440210475e-02
     4    1.729796297485e-02
     5   -9.464751673758e-16
     6    1.839780339214e-02
     7   -4.360946986140e-02
     8    2.761909873546e-02
     9    7.149025966010e-15
    10    2.376018029201e-02
    11   -3.546265081816e-02
    12    1.248188985220e-02
    13   -3.022242132157e-14
    14   -7.748937332276e-02
    15   -6.038402222304e-02
    16   -3.332970292863e-02
    17    1.510372020474e-13
    18   -1.185481303860e-03
    19    3.888233897505e-15
    20    9.417328241808e-15
    21    5.353785529457e-03
    22    3.210362562231e-04
    23    3.492714615351e-03
    24    2.103618815000e-02
    25    4.620662662516e-02
    26   -3.819719134725e-02
    27    1.585225901829e-03
    28    1.569138843474e-03
    29    3.212268459338e-15
    30   -1.134105989196e-02
    31   -2.477196803165e-02
    32   -1.360112575231e-02
    33   -2.533807805722e-02
    34   -1.426226989250e-03
    35   -8.610540982323e-04
    36    1.153114483385e-14
    37   -7.491358064268e-04
    38   -1.059698573019e-02
    39   -3.285831190537e-02
    40    2.350169928238e-02
    41    9.200742796618e-04
    42    1.904402500854e-03
    43   -3.596647827145e-15
    44   -1.597031064572e-03
    45   -2.748808363884e-03
    46    7.772868812061e-03
    47    2.527160905696e-03
    48   -6.288651615366e-15
    49    7.063117397029e-03
    50    1.629766231804e-02
    51    9.322096803267e-03
    52   -2.791350620980e-14
    53    1.270381194036e-02
    54   -7.430982370224e-02
    55   -1.406408821376e-01
    56    4.586280586070e-14
    57   -1.450519073172e-03
    58   -7.684078136538e-02
    59   -1.091524484424e-01
    60   -1.216825811874e-13
    61   -1.683688677871e-04
    62    1.128625614384e-15
    63   -4.755285879931e-16
    64    7.339304830905e-02
    65    4.024524138463e-02
    66    3.751732688252e-04
    67    6.472400372054e-04
    68   -1.371164524632e-01
    69   -2.199137731578e-01
    70   -1.608048217788e-15
    71   -2.246872484850e-03
    72   -2.086493379563e-01
    73   -3.350592359838e-01
    74   -3.320239163712e-15
    75   -2.891143684641e-04
    76   -1.943679579000e-01
    77   -3.160084177127e-01
    78   -1.253444597511e-14
    79    1.718513109705e-02
    80   -1.230229369817e-02
    81   -3.490446221552e-02
    82    6.249252109532e-14
    83    2.063411390891e-05
    84   -9.180020877597e-16
    85    9.834764440226e-16
    86   -1.477450348030e-02
    87   -7.240595330997e-03
    88    5.254235475059e-03
    89    8.949214506102e-03
    90    2.604872272412e-02
    91   -1.187738279867e-02
    92   -2.275348955936e-15
    93   -2.371733799979e-02
    94    4.506049561918e-02
    95   -2.510506846079e-02
    96   -1.917299307206e-14
    97   -4.741168218034e-02
    98    1.634629663062e-02
    99    3.867319355861e-02
   100    6.582312491141e-14
   101   -1.199327323136e-01
   102   -1.368572586432e-02
   103    3.561733006419e-02
   104    2.852903284554e-13
   105    4.493897552123e-04
   106    6.437827830874e-15
   107    2.707593804403e-15
   108   -1.743747879519e-02
   109    1.702957801769e-02
   110   -7.044718089456e-04
   111   -1.159877963327e-03
   112   -5.047146274517e-02
   113    5.189402545233e-02
   114    6.158885981038e-15
   115    3.072053588478e-03
   116   -7.567839276105e-02
   117    8.009859574749e-02
   118    7.582696045779e-15
   119   -3.690697885213e-03
   120   -7.410852289041e-02
   121    8.282563642351e-02
   122    1.495160084079e-14
   123   -2.986078434568e-02
   124    5.883070359012e-03
   125    1.510838993284e-02
   126   -1.393161651884e-13
   127   -5.298926917937e-04
   128   -6.569905676413e-16
   129   -9.322302952830e-16
   130    3.014621105755e-03
   131   -5.301981843779e-04
   132   -1.138796878691e-02
   133   -1.885421228570e-02
   134   -7.926789756091e-02
   135   -1.118577215244e-02
   136    7.884002062042e-15
   137    4.930610200461e-02
   138   -1.119089865443e-01
   139   -9.699876025573e-03
   140    1.000121603132e-14
   141    1.398778567801e-01
   142   -1.509026823794e-01
   143   -1.875208419804e-02
   144   -7.273618069944e-15
   145    1.733074975880e-01
   146    1.470852700459e-02
   147    1.004599891612e-02
   148   -6.580320825380e-14
   149    1.555648540466e-03
   150   -1.823175924634e-15
   151    2.192317172634e-16
   152   -2.611243912767e-03
   153   -1.219141345645e-03
   154    1.702592875300e-02
   155    2.847500559025e-02
   156    1.242894360152e-02
   157   -6.488265076314e-02
   158   -3.260694464990e-16
   159   -7.759993511446e-02
   160    2.370679992974e-02
   161   -8.946881334419e-02
   162   -1.629108217607e-15
   163   -2.100631532495e-01
   164    2.655688885344e-02
   165   -1.225153885927e-01
   166    1.397403846906e-15
   167   -2.229966211987e-01
   168    3.461552659698e-03
   169    1.663747827667e-03
   170   -3.552983343378e-14
   171   -2.481138299823e-03
   172    1.064201736021e-15
   173    7.963635205209e-16
   174   -2.507196362270e-03
   175   -1.761031526044e-03
   176   -5.797140970381e-03
   177   -9.649189613230e-03
   178    3.152990152907e-03
   179    1.859557849103e-02
   180   -8.381738565169e-16
   181    2.478263850816e-02
   182    6.176153674604e-03
   183    2.555218368932e-02
   184   -7.106325730027e-15
   185    9.731969102120e-02
   186   -8.258090530993e-03
   187    4.748688691697e-02
   188    8.402104231943e-15
   189    2.503285880142e-01
   190   -4.005632718444e-02
   191    2.412406153768e-02
   192   -2.214442715841e-13
   193    5.221914598972e-04
   194   -5.501673120898e-15
   195    4.686739543416e-15
   196    4.572634871376e-03
   197   -5.451242920796e-04
   198    2.643167288884e-04
   199   -1.112621756312e-03
   200    6.404308487156e-03
   201    1.731910416300e-02
   202    2.793550433618e-04
   203   -8.112025020714e-04
   204    7.108747075488e-15
Sym=X
Ene= 0.817383
Spin=Alpha
Occup=0
     1    2.153345071373e-14
     2    3.647919816785e-14
     3    1.648500677164e-14
     4    6.868383754218e-14
     5   -6.625930972377e-02
     6   -1.032851719631e-13
     7    3.168087228200e-15
     8    2.433882557035e-13
     9   -1.109445701245e-01
    10    5.397563387646e-13
    11    6.338392351706e-13
    12   -7.327815799238e-13
    13   -1.606941914439e-01
    14   -4.403886031501e-11
    15   -1.049447540969e-11
    16   -2.060429983590e-11
    17   -1.790340006735e-01
    18   -2.651789214184e-14
    19    2.837320293082e-02
    20    2.173791921097e-03
    21   -3.566493067206e-14
    22   -2.986163313219e-14
    23   -3.127828133052e-14
    24   -1.120447844667e-12
    25    1.285379567214e-13
    26   -5.656165810465e-12
    27   -1.110018419867e-13
    28   -5.925101061228e-15
    29   -9.939565709275e-03
    30   -3.547864862912e-14
    31    5.410104349539e-14
    32   -3.283917036056e-12
    33   -1.293208685170e-11
    34   -1.063568740756e-14
    35   -5.128557757842e-14
    36   -7.379805881017e-03
    37   -3.805811757847e-15
    38    1.648649598431e-12
    39   -1.132205951425e-12
    40    7.766418402933e-12
    41    2.980793141441e-14
    42   -1.240564730464e-13
    43   -1.353034493193e-02
    44   -2.414629424011e-16
    45    2.688737249513e-15
    46   -1.020277174715e-15
    47    6.074682331247e-15
    48    2.401567210604e-01
    49    5.447235270209e-14
    50    9.144148889577e-15
    51   -2.707427331320e-14
    52    4.084408056842e-01
    53   -1.708422605800e-12
    54   -8.616628832800e-13
    55    2.895707979305e-12
    56    6.429448697838e-01
    57    1.027640723665e-11
    58   -5.004700526420e-12
    59   -1.163394239646e-11
    60    1.399582986794e-01
    61    2.021223533527e-14
    62    1.139692745190e-02
    63   -1.618623781709e-02
    64    1.135959804077e-14
    65    1.343920292625e-14
    66    3.071507620404e-15
    67    8.683671872398e-15
    68    2.567174095185e-14
    69    2.674332523467e-14
    70   -1.604582924489e-01
    71   -3.877058472174e-14
    72    9.517949496812e-14
    73    8.714423100801e-14
    74   -2.343339511751e-01
    75   -2.329417329940e-13
    76   -3.405263725930e-13
    77   -3.109830681406e-13
    78   -3.155498093985e-01
    79   -3.089378800387e-12
    80    1.532707442350e-13
    81    1.659822297636e-12
    82   -2.289321510448e-01
    83   -3.919024743407e-15
    84    1.042659949712e-02
    85   -6.550181581684e-03
    86    6.269989282820e-16
    87   -2.578849817448e-15
    88   -1.454629359604e-14
    89   -3.817620098111e-14
    90   -2.587901411640e-15
    91    5.693054435202e-14
    92   -2.462437536298e-02
    93    2.517813982922e-13
    94    1.324200313510e-13
    95   -2.912172892092e-16
    96   -4.526168214202e-02
    97   -2.495183930430e-12
    98    2.890727622301e-12
    99    3.448799095693e-12
   100   -4.437239616874e-02
   101    1.796622083675e-12
   102    8.984402966104e-12
   103   -9.947222328873e-12
   104   -5.036808196637e-02
   105    1.652551967744e-15
   106    1.687375717306e-02
   107   -2.204167087658e-02
   108   -6.352337082067e-14
   109    2.203170413976e-14
   110    9.995014277042e-15
   111    2.093528215036e-14
   112   -1.131758759259e-14
   113   -3.866111892191e-15
   114    1.624333930089e-02
   115   -3.596136091248e-14
   116   -4.097095966710e-14
   117   -1.707326608285e-14
   118    2.399074315090e-02
   119   -1.086115783114e-12
   120    5.570250035617e-13
   121    2.844188031734e-14
   122    3.364066875434e-02
   123   -4.293095226479e-12
   124    8.324243881998e-13
   125    1.507498885760e-12
   126    9.880175356044e-03
   127    1.820442782470e-15
   128    1.759338638935e-03
   129   -9.438726414406e-04
   130    1.019281287372e-14
   131    1.070519891642e-14
   132   -2.207242725394e-14
   133   -2.685501201044e-14
   134   -4.456520973718e-14
   135    7.976206964492e-14
   136   -8.726076519674e-02
   137    1.687960949963e-13
   138   -6.020914733498e-14
   139    3.718102590609e-13
   140   -1.309971450985e-01
   141   -3.674656609357e-13
   142    3.196884227026e-13
   143   -3.337615485698e-12
   144   -2.447150434030e-01
   145    1.397960712467e-11
   146    1.081668112054e-12
   147    1.776017249097e-12
   148   -1.523356210986e-01
   149    2.115943947321e-15
   150   -2.278416206342e-02
   151   -9.591564882577e-03
   152    5.000455561814e-14
   153   -2.204704019856e-15
   154    8.510432620710e-15
   155    2.398226443475e-14
   156    7.076420344254e-14
   157    1.555756685877e-14
   158   -5.109986797812e-02
   159   -2.978382141116e-13
   160    2.783465685992e-13
   161    6.187827947880e-14
   162   -7.546339723169e-02
   163    3.118129513534e-12
   164   -1.566344095438e-12
   165    4.179467049974e-13
   166   -1.588146870834e-01
   167   -2.197275581489e-12
   168    2.382825931365e-12
   169    1.083921540832e-12
   170   -9.127379428184e-02
   171   -2.909346281362e-14
   172   -6.600107851381e-03
   173    2.924367169721e-02
   174    2.804926143519e-14
   175    1.703217537102e-14
   176    9.765623999175e-15
   177   -8.541631776582e-15
   178   -5.337669475791e-16
   179    5.570114092235e-14
   180    8.264332978562e-02
   181    7.752084812542e-14
   182    5.312714627435e-14
   183    1.091532318843e-13
   184    1.296412592955e-01
   185    1.213873086656e-12
   186   -1.268447091539e-12
   187    2.912697786122e-12
   188    2.442856007737e-01
   189    3.675667682204e-11
   190   -1.994150731108e-11
   191   -2.662777465545e-12
   192    2.466129380550e-01
   193   -4.915268201655e-15
   194    7.954608335467e-03
   195    3.299430416730e-03
   196   -1.730347335377e-14
   197   -4.018370132854e-15
   198   -7.008381948071e-15
   199    4.622610622468e-13
   200    2.026225897070e-12
   201    4.066863548458e-12
   202   -3.676567752434e-14
   203    4.831004219306e-14
   204    8.837895898026e-03
Sym=X
Ene= 0.011667
Spin=Alpha
Occup=0
     1   -1.064774996282e-14
     2    3.332015507689e-15
     3    3.000320942927e-14
     4   -3.489941254315e-14
     5   -4.693779408296e-02
     6   -3.241492540246e-13
     7    3.805091750525e-13
     8   -5.944498134680e-13
     9   -7.535465380270e-02
    10   -4.784153378293e-13
    11   -7.325390530590e-13
    12   -2.518548617259e-13
    13   -2.458291762218e-01
    14    2.047522865406e-10
    15    4.561156951498e-11
    16    2.621437462476e-11
    17   -5.175723757424e-01
    18    1.598100495774e-13
    19    1.225327830703e-02
    20    7.107043213716e-03
    21    4.708824096271e-14
    22    1.115415390355e-13
    23   -4.525165112948e-14
    24    2.945372489562e-12
    25   -8.674252090524e-12
    26    3.591670187483e-13
    27    2.361948302873e-13
    28   -1.934388111039e-14
    29    2.492134175021e-03
    30   -4.339728993390e-14
    31   -6.127875034586e-13
    32   -1.293568562688e-12
    33    2.274199153439e-12
    34    1.502662680323e-14
    35    2.177758424955e-14
    36   -5.647979871049e-03
    37   -4.449646052441e-14
    38   -4.044350337146e-12
    39    2.540091893996e-12
    40   -2.625632472159e-12
    41   -9.713978836729e-14
    42    2.193171924930e-13
    43    1.023564324982e-02
    44    2.636107431368e-14
    45    3.777797987155e-14
    46    1.990029049195e-14
    47    1.615424091799e-13
    48   -8.772845749527e-02
    49   -1.612967737051e-13
    50    2.084710488323e-13
    51    3.709792230491e-13
    52   -1.684069831788e-01
    53    2.840215993917e-12
    54   -9.720780877644e-13
    55   -4.933327182812e-12
    56   -1.131868908472e-01
    57   -4.440430946328e-11
    58   -1.081132228695e-11
    59    1.425597576044e-11
    60    3.370785175388e-02
    61   -1.852202252614e-13
    62    6.794539265356e-02
    63   -8.620608351660e-03
    64   -1.158372670943e-13
    65    6.007080778531e-15
    66   -3.191734566120e-14
    67   -5.458443880020e-14
    68   -4.999056275236e-14
    69   -8.617300297696e-15
    70    6.572445491953e-02
    71    2.093567279482e-13
    72   -1.256464960778e-13
    73   -1.006835971140e-13
    74    9.522615879219e-02
    75    5.214177839835e-13
    76    3.481767027069e-13
    77    9.896888596060e-13
    78    5.849671033194e-02
    79    1.572244749189e-12
    80    2.774072596665e-12
    81   -6.939052594834e-13
    82   -2.242881757537e-02
    83   -1.967362242646e-14
    84   -9.242538757366e-03
    85    6.110916606057e-03
    86    1.782304602848e-14
    87    1.164208586924e-14
    88   -7.447057533853e-14
    89   -8.877358151376e-14
    90   -3.325752937192e-14
    91   -7.797118358024e-14
    92   -2.444468314164e-01
    93   -1.882709235689e-13
    94   -7.972433174986e-13
    95   -2.532698905818e-13
    96   -4.206749005429e-01
    97    9.127131713210e-12
    98   -5.765365180823e-12
    99   -6.326024196621e-12
   100   -6.957329145401e-01
   101    3.721436115366e-11
   102   -3.380293172543e-11
   103    5.627957485577e-13
   104   -2.799148839089e-01
   105   -6.277570180257e-15
   106    2.172252875614e-02
   107   -2.312011379365e-02
   108    1.032845032757e-13
   109   -9.975904872340e-14
   110    1.294701074165e-14
   111    4.260099297219e-14
   112   -2.203090060589e-14
   113   -4.792821372489e-15
   114    1.467805461250e-01
   115   -1.833042055748e-13
   116    1.210662842092e-13
   117    1.444025892976e-14
   118    2.126697656207e-01
   119    2.043189872962e-12
   120   -2.281638569241e-12
   121   -5.789882107214e-13
   122    2.974916134180e-01
   123    3.200767788360e-12
   124    6.390519765960e-12
   125    1.915230400379e-12
   126    2.099357360233e-01
   127   -4.009824686873e-14
   128    1.380371697998e-02
   129    5.972137083865e-03
   130    8.598625111663e-15
   131    3.816640194885e-14
   132    7.860325744541e-15
   133    3.497132513869e-14
   134   -7.298382639432e-14
   135   -3.848127670629e-14
   136    9.140741066438e-02
   137   -2.790937163181e-13
   138   -9.345318465164e-14
   139   -8.327509201393e-13
   140    1.379885152967e-01
   141    2.430195660175e-12
   142   -2.054707008988e-12
   143    8.703673058739e-12
   144    2.957616980789e-01