[Molden Format]
[Atoms] (Angs)
  C      1    6     -0.00714236     -1.70213747     -0.00000000
  H      2    1     -2.06882847     -1.44022412      0.00000000
  H      3    1     -0.12337987     -2.77567521      0.00000000
  H      4    1      0.04651892      1.98813947     -0.00000000
  C      5    6     -1.21953563      0.40211669      0.00000000
  O      6    8     -2.25921553      1.03043814      0.00000000
  C      7    6      1.28797806      0.34644937     -0.00000000
  O      8    8      2.31273661      1.00537216     -0.00000000
  N      9    7      0.03446295      0.97739857     -0.00000000
  N     10    7     -1.17287765     -0.98229824      0.00000000
  C     11    6      1.20107039     -1.10433419     -0.00000000
  H     12    1      2.11220096     -1.67699125     -0.00000000
[GTO]
1    0
S    6    1.000000
   4.56324000E+03    1.96665000E-03 
   6.82024000E+02    1.52306000E-02 
   1.54973000E+02    7.61269000E-02 
   4.44553000E+01    2.60801000E-01 
   1.30290000E+01    6.16462000E-01 
   1.82773000E+00    2.21006000E-01 
SP   3    1.000000
   2.09642000E+01    1.14660000E-01   4.02487000E-02 
   4.80331000E+00    9.19999000E-01   2.37594000E-01 
   1.45933000E+00   -3.03068000E-03   8.15854000E-01 
SP   1    1.000000
   4.83456000E-01    1.00000000E+00   1.00000000E+00 
SP   1    1.000000
   1.45585000E-01    1.00000000E+00   1.00000000E+00 
SP   1    1.000000
   4.38000000E-02    1.00000000E+00   1.00000000E+00 
D    1    1.000000
   6.26000000E-01    1.00000000E+00 

2    0
S    3    1.000000
   3.38650000E+01    2.54938000E-02 
   5.09479000E+00    1.90373000E-01 
   1.15879000E+00    8.52161000E-01 
S    1    1.000000
   3.25840000E-01    1.00000000E+00 
S    1    1.000000
   1.02741000E-01    1.00000000E+00 
S    1    1.000000
   3.60000000E-02    1.00000000E+00 
P    1    1.000000
   7.50000000E-01    1.00000000E+00 

3    0
S    3    1.000000
   3.38650000E+01    2.54938000E-02 
   5.09479000E+00    1.90373000E-01 
   1.15879000E+00    8.52161000E-01 
S    1    1.000000
   3.25840000E-01    1.00000000E+00 
S    1    1.000000
   1.02741000E-01    1.00000000E+00 
S    1    1.000000
   3.60000000E-02    1.00000000E+00 
P    1    1.000000
   7.50000000E-01    1.00000000E+00 

4    0
S    3    1.000000
   3.38650000E+01    2.54938000E-02 
   5.09479000E+00    1.90373000E-01 
   1.15879000E+00    8.52161000E-01 
S    1    1.000000
   3.25840000E-01    1.00000000E+00 
S    1    1.000000
   1.02741000E-01    1.00000000E+00 
S    1    1.000000
   3.60000000E-02    1.00000000E+00 
P    1    1.000000
   7.50000000E-01    1.00000000E+00 

5    0
S    6    1.000000
   4.56324000E+03    1.96665000E-03 
   6.82024000E+02    1.52306000E-02 
   1.54973000E+02    7.61269000E-02 
   4.44553000E+01    2.60801000E-01 
   1.30290000E+01    6.16462000E-01 
   1.82773000E+00    2.21006000E-01 
SP   3    1.000000
   2.09642000E+01    1.14660000E-01   4.02487000E-02 
   4.80331000E+00    9.19999000E-01   2.37594000E-01 
   1.45933000E+00   -3.03068000E-03   8.15854000E-01 
SP   1    1.000000
   4.83456000E-01    1.00000000E+00   1.00000000E+00 
SP   1    1.000000
   1.45585000E-01    1.00000000E+00   1.00000000E+00 
SP   1    1.000000
   4.38000000E-02    1.00000000E+00   1.00000000E+00 
D    1    1.000000
   6.26000000E-01    1.00000000E+00 

6    0
S    6    1.000000
   8.58850000E+03    1.89515000E-03 
   1.29723000E+03    1.43859000E-02 
   2.99296000E+02    7.07320000E-02 
   8.73771000E+01    2.40001000E-01 
   2.56789000E+01    5.94797000E-01 
   3.74004000E+00    2.80802000E-01 
SP   3    1.000000
   4.21175000E+01    1.13889000E-01   3.65114000E-02 
   9.62837000E+00    9.20811000E-01   2.37153000E-01 
   2.85332000E+00   -3.27447000E-03   8.19702000E-01 
SP   1    1.000000
   9.05661000E-01    1.00000000E+00   1.00000000E+00 
SP   1    1.000000
   2.55611000E-01    1.00000000E+00   1.00000000E+00 
SP   1    1.000000
   8.45000000E-02    1.00000000E+00   1.00000000E+00 
D    1    1.000000
   1.29200000E+00    1.00000000E+00 

7    0
S    6    1.000000
   4.56324000E+03    1.96665000E-03 
   6.82024000E+02    1.52306000E-02 
   1.54973000E+02    7.61269000E-02 
   4.44553000E+01    2.60801000E-01 
   1.30290000E+01    6.16462000E-01 
   1.82773000E+00    2.21006000E-01 
SP   3    1.000000
   2.09642000E+01    1.14660000E-01   4.02487000E-02 
   4.80331000E+00    9.19999000E-01   2.37594000E-01 
   1.45933000E+00   -3.03068000E-03   8.15854000E-01 
SP   1    1.000000
   4.83456000E-01    1.00000000E+00   1.00000000E+00 
SP   1    1.000000
   1.45585000E-01    1.00000000E+00   1.00000000E+00 
SP   1    1.000000
   4.38000000E-02    1.00000000E+00   1.00000000E+00 
D    1    1.000000
   6.26000000E-01    1.00000000E+00 

8    0
S    6    1.000000
   8.58850000E+03    1.89515000E-03 
   1.29723000E+03    1.43859000E-02 
   2.99296000E+02    7.07320000E-02 
   8.73771000E+01    2.40001000E-01 
   2.56789000E+01    5.94797000E-01 
   3.74004000E+00    2.80802000E-01 
SP   3    1.000000
   4.21175000E+01    1.13889000E-01   3.65114000E-02 
   9.62837000E+00    9.20811000E-01   2.37153000E-01 
   2.85332000E+00   -3.27447000E-03   8.19702000E-01 
SP   1    1.000000
   9.05661000E-01    1.00000000E+00   1.00000000E+00 
SP   1    1.000000
   2.55611000E-01    1.00000000E+00   1.00000000E+00 
SP   1    1.000000
   8.45000000E-02    1.00000000E+00   1.00000000E+00 
D    1    1.000000
   1.29200000E+00    1.00000000E+00 

9    0
S    6    1.000000
   6.29348000E+03    1.96979000E-03 
   9.49044000E+02    1.49613000E-02 
   2.18776000E+02    7.35006000E-02 
   6.36916000E+01    2.48937000E-01 
   1.88282000E+01    6.02460000E-01 
   2.72023000E+00    2.56202000E-01 
SP   3    1.000000
   3.06331000E+01    1.11906000E-01   3.83119000E-02 
   7.02614000E+00    9.21666000E-01   2.37403000E-01 
   2.11205000E+00   -2.56919000E-03   8.17592000E-01 
SP   1    1.000000
   6.84009000E-01    1.00000000E+00   1.00000000E+00 
SP   1    1.000000
   2.00878000E-01    1.00000000E+00   1.00000000E+00 
SP   1    1.000000
   6.39000000E-02    1.00000000E+00   1.00000000E+00 
D    1    1.000000
   9.13000000E-01    1.00000000E+00 

10    0
S    6    1.000000
   6.29348000E+03    1.96979000E-03 
   9.49044000E+02    1.49613000E-02 
   2.18776000E+02    7.35006000E-02 
   6.36916000E+01    2.48937000E-01 
   1.88282000E+01    6.02460000E-01 
   2.72023000E+00    2.56202000E-01 
SP   3    1.000000
   3.06331000E+01    1.11906000E-01   3.83119000E-02 
   7.02614000E+00    9.21666000E-01   2.37403000E-01 
   2.11205000E+00   -2.56919000E-03   8.17592000E-01 
SP   1    1.000000
   6.84009000E-01    1.00000000E+00   1.00000000E+00 
SP   1    1.000000
   2.00878000E-01    1.00000000E+00   1.00000000E+00 
SP   1    1.000000
   6.39000000E-02    1.00000000E+00   1.00000000E+00 
D    1    1.000000
   9.13000000E-01    1.00000000E+00 

11    0
S    6    1.000000
   4.56324000E+03    1.96665000E-03 
   6.82024000E+02    1.52306000E-02 
   1.54973000E+02    7.61269000E-02 
   4.44553000E+01    2.60801000E-01 
   1.30290000E+01    6.16462000E-01 
   1.82773000E+00    2.21006000E-01 
SP   3    1.000000
   2.09642000E+01    1.14660000E-01   4.02487000E-02 
   4.80331000E+00    9.19999000E-01   2.37594000E-01 
   1.45933000E+00   -3.03068000E-03   8.15854000E-01 
SP   1    1.000000
   4.83456000E-01    1.00000000E+00   1.00000000E+00 
SP   1    1.000000
   1.45585000E-01    1.00000000E+00   1.00000000E+00 
SP   1    1.000000
   4.38000000E-02    1.00000000E+00   1.00000000E+00 
D    1    1.000000
   6.26000000E-01    1.00000000E+00 

12    0
S    3    1.000000
   3.38650000E+01    2.54938000E-02 
   5.09479000E+00    1.90373000E-01 
   1.15879000E+00    8.52161000E-01 
S    1    1.000000
   3.25840000E-01    1.00000000E+00 
S    1    1.000000
   1.02741000E-01    1.00000000E+00 
S    1    1.000000
   3.60000000E-02    1.00000000E+00 
P    1    1.000000
   7.50000000E-01    1.00000000E+00 

[MO]
Sym=X
Ene= -0.004118
Spin=Alpha
Occup=1
     1   -1.884471884321e-02
     2   -3.189658506358e-02
     3    1.439684777996e-02
     4    3.005641303570e-02
     5   -5.040071992931e-16
     6    8.661250819891e-02
     7    2.153616581957e-02
     8    5.076409038476e-02
     9    1.510845606543e-16
    10    1.476019743176e-01
    11    3.660654992173e-02
    12    8.094494332738e-02
    13    5.400070256051e-15
    14    3.819341314273e-01
    15    6.709925228377e-02
    16    8.195628868682e-02
    17    3.847671241694e-14
    18   -1.514906482093e-03
    19   -2.022535608893e-15
    20   -1.418590599780e-15
    21    1.334555684551e-02
    22   -5.832823734862e-03
    23   -1.140176651274e-02
    24   -1.119361387736e-02
    25    1.276083717107e-02
    26   -2.663593875199e-02
    27   -9.667169503139e-04
    28   -1.972657855797e-03
    29    2.994512226776e-16
    30   -1.800429491828e-02
    31   -3.183966563113e-02
    32   -2.566413355796e-02
    33    2.209692148824e-02
    34    1.115057260215e-03
    35    2.081532237713e-03
    36   -4.174539118367e-15
    37   -7.329231210221e-03
    38   -3.406354830868e-02
    39   -3.302684391806e-02
    40    6.107666991877e-02
    41    1.278981537834e-03
    42    2.015084860984e-03
    43   -9.440628278662e-15
    44    7.572619139042e-03
    45    1.306817369232e-02
    46   -3.435900201151e-02
    47    5.050359580830e-03
    48   -1.484558449623e-15
    49   -3.780443939611e-02
    50   -5.244272611807e-02
    51    6.715320608604e-03
    52    1.139046953152e-14
    53   -6.630915693216e-02
    54   -6.570050338146e-02
    55   -6.845431129159e-02
    56   -3.718868405900e-14
    57   -8.134114154637e-02
    58   -5.684007630169e-02
    59   -6.571591326525e-02
    60    3.819371633431e-15
    61    1.221238338119e-05
    62    7.227206675181e-15
    63    7.987825688176e-15
    64    3.824561606653e-02
    65    5.465178765328e-03
    66   -7.835073976362e-03
    67   -1.304897579587e-02
    68   -4.275285021455e-02
    69   -1.180287338760e-01
    70   -3.936119574130e-15
    71    3.554268813936e-02
    72   -6.647457587159e-02
    73   -1.781798757026e-01
    74   -9.256499430108e-15
    75    3.013547830879e-02
    76   -6.277486900870e-02
    77   -1.586277878367e-01
    78    1.824666521088e-14
    79   -1.924282484152e-03
    80   -5.345501704764e-03
    81   -1.634783002542e-02
    82   -6.720041741457e-15
    83   -1.802673953395e-03
    84   -1.595214401730e-16
    85    8.501311140122e-17
    86   -6.530933647650e-03
    87   -5.514029762831e-03
    88    1.388562129109e-02
    89    2.375269763515e-02
    90    1.856978035330e-02
    91    5.058221053172e-02
    92    6.875865848220e-15
    93   -6.502952525458e-02
    94    2.627751189198e-02
    95    8.471610639554e-02
    96    1.333189103299e-14
    97   -7.498551877616e-02
    98    6.003073927103e-02
    99   -5.186705960158e-02
   100    2.226380754145e-15
   101    2.480503001763e-01
   102    1.834168971373e-02
   103   -1.422974272313e-01
   104    1.463543040608e-14
   105   -4.065663092221e-04
   106   -6.889481871088e-15
   107    5.902658011778e-15
   108    6.273085332796e-02
   109   -2.479843358701e-02
   110   -4.817984471662e-03
   111   -8.156521507811e-03
   112    9.539976189579e-02
   113   -1.942399196354e-01
   114   -1.121075413719e-15
   115    2.444953788365e-02
   116    1.457225034415e-01
   117   -2.957183806770e-01
   118    2.223342750024e-15
   119    1.616118885431e-02
   120    1.507725453224e-01
   121   -2.826440226527e-01
   122    7.997124802502e-15
   123   -7.872686516664e-03
   124    1.810930949051e-02
   125   -3.282459833362e-02
   126   -1.367783617094e-14
   127   -1.442311027531e-03
   128   -1.446387808768e-15
   129   -1.451779453061e-15
   130   -9.273607566221e-03
   131    7.059968122325e-03
   132   -2.366880317322e-02
   133   -3.989775337515e-02
   134    3.799379000751e-02
   135   -2.867759604611e-02
   136    6.703542745060e-15
   137    1.119640368993e-01
   138    6.003535908694e-02
   139   -3.340293789404e-02
   140    2.346435851518e-14
   141    2.698269295916e-01
   142    4.851841223048e-02
   143   -5.439833150694e-02
   144   -1.450652556685e-14
   145    2.686388200864e-01
   146   -3.425179302459e-02
   147   -4.465556787373e-02
   148    2.399085048788e-14
   149    3.424119427237e-03
   150    5.618704544138e-16
   151   -3.708484749854e-15
   152   -1.417899677112e-03
   153    6.819306791279e-04
   154    1.123566174320e-02
   155    1.868189062717e-02
   156    2.629802358510e-02
   157   -4.202942168035e-02
   158   -6.178431212669e-16
   159   -5.053409948762e-02
   160    4.302805929171e-02
   161   -5.948491166182e-02
   162   -1.829710573766e-15
   163   -1.026040289873e-01
   164    1.829639378333e-02
   165   -6.262383304290e-02
   166    1.507172254419e-14
   167   -1.569967636930e-01
   168   -1.828046376081e-02
   169   -3.782846430456e-02
   170   -4.955767148892e-14
   171    4.865685671304e-04
   172   -6.486025138341e-16
   173   -2.631325510780e-15
   174    2.749207995743e-03
   175   -2.433723095766e-03
   176    2.089757980772e-02
   177    3.482354634120e-02
   178   -2.681294941246e-02
   179   -8.939459026628e-02
   180    1.123097319608e-16
   181   -9.235240127533e-02
   182   -4.263305598994e-02
   183   -1.291409916388e-01
   184    4.186115901860e-15
   185   -2.390558793079e-01
   186    2.567114805355e-02
   187   -1.313578430849e-01
   188   -1.091964797649e-14
   189   -6.368802620534e-01
   190    1.145279060858e-01
   191   -5.353336318117e-02
   192   -2.072578000444e-14
   193    1.617162656541e-03
   194    1.804140497804e-15
   195   -5.354244581991e-16
   196    6.327148834821e-03
   197    2.060078489466e-03
   198    2.253084147293e-03
   199    6.074940083407e-03
   200   -2.458187393849e-03
   201   -3.484196788731e-02
   202   -1.383940723920e-03
   203   -1.844486972759e-03
   204    4.153917589435e-15
Sym=X
Ene= -0.004536
Spin=Alpha
Occup=1
     1    4.319396304271e-17
     2   -2.750406969122e-15
     3   -8.531249414707e-15
     4    6.622196544423e-16
     5    1.172223694432e-01
     6    2.482464710736e-14
     7    4.572705318298e-15
     8   -3.165822096416e-14
     9    1.938919862295e-01
    10   -3.458742669309e-13
    11   -6.795907226589e-15
    12   -1.414361303878e-13
    13    1.259136405421e-01
    14    4.161454566071e-12
    15   -5.566871611441e-13
    16    2.745466395343e-12
    17    2.153174014452e-02
    18    1.761489188042e-14
    19   -1.199804927712e-03
    20    1.359986621319e-02
    21   -6.303207405301e-15
    22    1.649860945158e-14
    23    1.724828732308e-14
    24    2.808164108188e-13
    25    1.092279092067e-12
    26    2.461034949184e-13
    27    4.233642427494e-14
    28   -7.515275254517e-15
    29    1.010585641853e-02
    30    1.259905837667e-14
    31   -5.904028821199e-14
    32    3.684127196370e-13
    33    1.024810280153e-12
    34    1.077569069619e-14
    35   -7.957391751674e-15
    36    9.489005930310e-03
    37    7.422860612080e-16
    38   -3.574418195903e-13
    39   -2.054553660615e-13
    40   -4.788837519384e-14
    41    3.787971155413e-15
    42    1.859806987211e-14
    43   -7.229799455518e-03
    44   -8.536471846611e-18
    45    3.881518605642e-18
    46   -7.283368013469e-15
    47   -7.628932653518e-15
    48   -6.887274274097e-02
    49   -2.420227912838e-14
    50   -2.612206557641e-14
    51    2.620946860528e-14
    52   -1.185387783855e-01
    53    5.560475746870e-13
    54   -3.636497167632e-13
    55   -7.476624218060e-13
    56   -9.157632844856e-02
    57   -1.839425662840e-12
    58   -1.848426716936e-13
    59    2.249046750560e-13
    60   -1.419198428784e-02
    61   -5.625933178150e-14
    62    1.465001540628e-02
    63   -3.779207839610e-02
    64   -1.684703280719e-15
    65   -4.154464086559e-14
    66   -5.398498031711e-16
    67   -1.661671308692e-15
    68    4.108131429134e-15
    69   -3.774269457910e-15
    70   -9.776000359240e-02
    71    4.013340517693e-14
    72   -8.395312099230e-15
    73   -4.704704902453e-15
    74   -1.477157935028e-01
    75   -2.664384901962e-13
    76   -4.015260768357e-14
    77    1.498678611611e-13
    78   -1.311216984488e-01
    79    1.270447277656e-13
    80   -1.056304130005e-13
    81   -3.424435092127e-14
    82   -6.402107802478e-03
    83   -1.096402293611e-15
    84   -1.194631657699e-02
    85    7.316725263750e-03
    86    6.324311908941e-16
    87    2.540022348816e-15
    88    7.156505347087e-15
    89    1.217220880011e-14
    90   -2.208358352298e-15
    91   -2.221832962527e-15
    92    5.574750791035e-02
    93   -6.182849352014e-14
    94   -1.002596254668e-14
    95    1.074862328376e-14
    96    9.326574951282e-02
    97    2.820034565602e-13
    98   -5.627003226562e-13
    99   -4.724747075626e-13
   100    7.575948106683e-02
   101    7.398270820205e-12
   102   -4.471325560382e-14
   103   -1.249707665259e-12
   104    2.439854099114e-02
   105   -1.262076686006e-14
   106    1.129288428741e-02
   107   -1.668112319839e-02
   108    2.282711550091e-14
   109   -3.015688231112e-15
   110   -5.166045724305e-15
   111   -1.073117920417e-14
   112    7.849165167930e-16
   113    3.385091728329e-15
   114    5.640702989304e-02
   115    4.236858528492e-14
   116    3.793759325211e-15
   117    7.936764315937e-15
   118    8.942443241855e-02
   119    2.080743758508e-13
   120   -4.140240466777e-14
   121   -1.272023857210e-15
   122    7.622008774486e-02
   123    4.937981578363e-13
   124   -5.205908138212e-13
   125   -2.001979848775e-13
   126    1.778894098168e-03
   127   -5.757345402912e-16
   128   -4.539000452230e-03
   129   -4.052187941582e-03
   130   -4.739424474562e-15
   131   -9.616401141884e-16
   132    4.543793567893e-15
   133    6.477356571634e-15
   134    5.587643811595e-15
   135   -1.608366286869e-14
   136   -7.373736206655e-02
   137   -6.616526086284e-14
   138    1.315662763338e-14
   139   -1.013227438740e-13
   140   -1.190404346283e-01
   141    2.923051143569e-13
   142   -1.476945525965e-13
   143    7.321195380541e-13
   144   -1.245806196632e-01
   145   -4.841307501922e-13
   146   -8.720402315575e-13
   147    2.884038799440e-13
   148   -2.984536033649e-02
   149   -9.692978200236e-15
   150    8.279443059402e-03
   151    6.270626686414e-04
   152   -1.776490346825e-14
   153   -1.269085992830e-15
   154    5.349509346478e-16
   155   -8.855259506590e-16
   156   -1.242256412867e-14
   157   -1.096317514460e-14
   158    1.136310942016e-01
   159    4.827172335341e-14
   160   -6.447962955750e-14
   161   -4.376066131673e-14
   162    1.827476790725e-01
   163   -6.944707954732e-13
   164    6.468822046323e-13
   165   -9.481792861348e-14
   166    1.902136933988e-01
   167   -1.846954506694e-12
   168    8.788364021874e-13
   169    5.200841544169e-13
   170    1.916327697095e-02
   171   -2.784153681114e-15
   172    6.623345895211e-03
   173   -4.372423955690e-03
   174   -4.921905401859e-15
   175    3.416463879444e-16
   176   -6.351624348690e-15
   177   -1.231498260243e-14
   178    8.905891375264e-15
   179   -5.978862364508e-15
   180    1.139794397521e-01
   181    5.118123647708e-14
   182   -3.478952680237e-14
   183   -3.171370062059e-14
   184    1.958109202295e-01
   185   -6.442371380432e-14
   186    2.567575568610e-13
   187   -1.869283202189e-13
   188    1.545229654992e-01
   189   -8.770497785683e-12
   190    1.773571801837e-12
   191   -3.389644869372e-12
   192   -1.280829526762e-02
   193    2.421056719314e-14
   194   -1.224038861412e-02
   195    6.533771610460e-03
   196    6.516364808435e-15
   197    1.430252769158e-14
   198   -1.059377063332e-14
   199    8.899414391478e-15
   200   -5.590702479664e-13
   201   -1.156109730042e-12
   202   -1.925147550479e-14
   203   -2.303252508616e-14
   204    8.164409349093e-03
Sym=X
Ene= -0.030515
Spin=Alpha
Occup=1
     1   -2.627241553296e-16
     2    3.248004835836e-15
     3    5.614462084778e-15
     4    5.386831592639e-16
     5    2.936023640333e-02
     6   -2.469296129083e-14
     7    1.538908893287e-14
     8   -2.284396238399e-14
     9    4.652472651105e-02
    10   -1.264536007031e-13
    11   -1.073923177489e-13
    12    7.431178554719e-14
    13    4.247124967404e-02
    14    1.110208250311e-11
    15    2.940021299782e-12
    16    1.836686757130e-12
    17    5.281700056302e-03
    18    5.945071870634e-15
    19   -4.301179400545e-04
    20    4.283434654004e-03
    21    8.470942222087e-15
    22    2.805814650711e-15
    23   -7.617711738998e-15
    24    1.289523999336e-13
    25   -5.609188255648e-13
    26    1.022729461893e-13
    27    8.398194443177e-15
    28   -1.380583008775e-15
    29    1.033568602117e-04
    30   -2.977960249283e-15
    31    2.950966852639e-14
    32   -4.968282145161e-14
    33    6.044355748201e-13
    34    7.695419325925e-15
    35    5.066232446547e-15
    36    1.940521609311e-03
    37    6.416691658116e-15
    38   -1.672237166313e-13
    39    5.196454534978e-13
    40   -4.458206144261e-14
    41   -1.855123439254e-15
    42    6.796231625980e-15
    43    1.137997775056e-02
    44   -7.544609193374e-17
    45    7.862770141758e-17
    46    1.364734041385e-15
    47   -1.466332075928e-16
    48   -2.785873046436e-02
    49    3.154036451058e-15
    50    3.293904468804e-15
    51    1.638248707006e-14
    52   -4.782514631899e-02
    53   -1.622017031927e-14
    54   -1.789746421800e-13
    55   -2.504360139737e-13
    56   -4.870527876460e-02
    57   -1.213514370894e-12
    58   -2.192867872952e-13
    59    5.409801993947e-13
    60   -1.209675278984e-02
    61   -6.137538033880e-15
    62    4.874048003844e-02
    63   -1.146829386993e-02
    64   -6.108030428699e-15
    65   -4.674548970325e-15
    66   -1.095179549168e-15
    67   -2.257478797819e-15
    68   -6.688432030661e-16
    69    4.440815953800e-15
    70   -1.452612847951e-01
    71    1.550907220809e-14
    72   -5.322583762399e-15
    73   -3.840569612569e-15
    74   -2.220631591692e-01
    75   -4.544015414652e-14
    76    1.673203506968e-14
    77    6.718092113353e-14
    78   -2.142594597836e-01
    79    2.395650318073e-13
    80    1.497822312503e-13
    81   -8.607054570562e-14
    82   -4.715815928975e-02
    83   -2.064052658853e-15
    84   -9.599252654557e-03
    85    6.748836395826e-03
    86    1.763584605313e-15
    87    3.284573974861e-16
    88   -2.405859192897e-15
    89   -3.802955851116e-15
    90   -9.296120374324e-16
    91   -5.462746456175e-15
    92   -6.024586875629e-02
    93    7.684558180664e-15
    94   -3.357518142791e-14
    95    2.199733960657e-15
    96   -1.028264672921e-01
    97    3.728786910667e-13
    98    8.660853972485e-14
    99   -1.623428530665e-13
   100   -9.426584112488e-02
   101    2.483744787161e-13
   102   -1.246299276516e-12
   103    3.649776581151e-13
   104   -1.817554810986e-02
   105   -7.247790064860e-16
   106   -4.951379611572e-02
   107   -1.444507041169e-02
   108    7.652647273366e-15
   109    2.078141458274e-15
   110    1.065478524606e-15
   111   -1.282545398559e-15
   112   -1.617943178950e-15
   113    4.767432929844e-16
   114   -1.760446538928e-01
   115    1.306490635590e-14
   116    2.584801534666e-15
   117   -8.847621343171e-16
   118   -2.707725831884e-01
   119   -6.781627134623e-14
   120   -1.851027077829e-14
   121    1.521597067386e-14
   122   -2.530283901238e-01
   123   -6.952742554376e-14
   124    2.219875283595e-13
   125    1.534712480187e-13
   126   -4.758044806144e-02
   127   -8.382741144624e-16
   128    1.286671615130e-02
   129    8.927108357039e-03
   130    3.616211089210e-16
   131   -4.762000494938e-16
   132    1.065335057369e-15
   133    4.214499953968e-15
   134    9.386087474916e-16
   135   -5.474826730349e-15
   136    1.454885389434e-01
   137   -2.817581265197e-14
   138   -2.609041212620e-15
   139   -1.806725823992e-14
   140    2.280387189581e-01
   141    2.216597194215e-13
   142   -1.040807822658e-13
   143    1.780525249008e-13
   144    2.853232130057e-01
   145   -2.045584726735e-13
   146    5.468041354851e-14
   147   -8.912002774999e-13
   148    7.443375604549e-02
   149   -5.842251043220e-15
   150   -2.678257770174e-03
   151   -1.876753338452e-03
   152   -5.238036026232e-15
   153   -3.183358834767e-16
   154   -1.688391595785e-15
   155   -4.309505328300e-15
   156   -3.803734727827e-15
   157    1.253241900905e-16
   158    2.051529620293e-02
   159    2.342033311015e-14
   160   -2.304266789338e-14
   161   -1.159869352243e-14
   162    3.025432978789e-02
   163   -1.624838459531e-13
   164    1.849077894045e-13
   165    3.548239505394e-14
   166    2.985767317708e-02
   167    4.978395103153e-14
   168   -8.569408749293e-13
   169   -7.447611495672e-13
   170    1.129922700936e-03
   171    3.524485536691e-15
   172    3.117023681956e-03
   173   -1.759134573587e-03
   174   -4.310449335357e-15
   175   -3.726963137335e-16
   176    1.255928211235e-15
   177    5.239822638336e-15
   178   -5.806724516882e-15
   179   -5.266298616978e-15
   180    1.504025092487e-02
   181   -2.286797351602e-14
   182   -2.410738390832e-15
   183    1.254962176142e-14
   184    2.183325030339e-02
   185   -4.678015747379e-14
   186   -7.436940667453e-14
   187   -2.320648033244e-13
   188    3.118616167892e-02
   189   -1.012951544913e-11
   190    3.644384796525e-12
   191    1.490369408868e-12
   192    1.238705181380e-03
   193    1.566781047666e-15
   194   -5.567867418474e-03
   195   -6.578390517119e-03
   196   -1.405638402898e-15
   197    1.890240050584e-16
   198   -3.342083694333e-15
   199    1.471085824304e-14
   200   -7.276261862397e-16
   201   -6.756109681289e-13
   202    1.215521871758e-15
   203   -3.421209063165e-15
   204    1.290016569448e-05
Sym=X
Ene= -0.045920
Spin=Alpha
Occup=1
     1   -1.580347489903e-03
     2   -2.654410799846e-03
     3   -3.582519691445e-02
     4    9.122461986475e-03
     5   -2.075223197604e-15
     6    6.952321856719e-03
     7   -6.061813120871e-02
     8    1.401450407141e-02
     9    4.467104879836e-15
    10   -2.455501392674e-03
    11   -5.395463244961e-02
    12   -1.063827557025e-02
    13   -2.977562014863e-14
    14   -1.592392163061e-01
    15   -8.793593080743e-02
    16   -5.136537572080e-02
    17    1.329941908164e-13
    18   -1.094559694257e-03
    19    4.665049505538e-15
    20    1.596344503651e-14
    21    9.889781246088e-04
    22    4.740736848337e-04
    23   -1.049174037575e-02
    24    1.785355773011e-04
    25    5.021220501621e-02
    26   -3.375885204450e-02
    27   -3.795197627165e-04
    28    5.608856548825e-04
    29    5.286022020018e-15
    30   -3.265147142558e-03
    31   -1.262292105336e-02
    32   -6.113981522083e-03
    33   -3.283456697918e-02
    34   -2.010176037772e-03
    35   -1.024638446062e-03
    36    1.660254540307e-14
    37    3.282003186681e-03
    38    3.232172653732e-04
    39   -2.489241675846e-02
    40    9.099870806144e-03
    41    9.206774480196e-04
    42    1.317433069190e-03
    43   -6.800550043604e-15
    44   -9.564244508987e-04
    45   -1.673822310238e-03
    46    1.646902186029e-02
    47   -1.721133206244e-03
    48   -6.754811680814e-15
    49    2.271521700565e-03
    50    3.172671592919e-02
    51    1.529476673627e-03
    52   -3.292015421471e-14
    53    1.234226339423e-02
    54   -5.144221058507e-02
    55   -1.320491592188e-01
    56    5.078531329491e-14
    57    4.680687995657e-04
    58   -7.083158926695e-02
    59   -9.342240581911e-02
    60   -1.393111041410e-13
    61    1.702045339295e-04
    62    3.170772064902e-15
    63    1.044039068239e-15
    64    6.318263353029e-02
    65    3.650439871381e-02
    66   -5.228080416347e-03
    67   -8.743848663361e-03
    68   -1.382715600224e-01
    69   -1.914608714727e-01
    70   -4.104166214437e-15
    71    2.358542958752e-02
    72   -2.102042750158e-01
    73   -2.931084635506e-01
    74   -1.001879700312e-14
    75    3.802046754161e-02
    76   -1.928809167732e-01
    77   -2.849790818209e-01
    78   -5.052054902591e-15
    79    2.901634707285e-02
    80   -1.043744904931e-02
    81   -3.398616339584e-02
    82    6.281900689319e-14
    83    3.746079788282e-04
    84   -1.123920871125e-15
    85    1.349362236713e-15
    86   -1.348087845305e-02
    87   -5.167874767102e-03
    88    2.418816754214e-03
    89    4.089720409396e-03
    90    2.171556761585e-02
    91   -2.335971190481e-02
    92   -3.394049763495e-15
    93   -1.074151122312e-02
    94    3.847214127331e-02
    95   -4.485790396490e-02
    96   -2.083190260685e-14
    97   -2.923679028582e-02
    98    7.316492250735e-04
    99    5.113352006435e-02
   100    6.147248976173e-14
   101   -1.520056741872e-01
   102   -2.158925839849e-02
   103    6.499870281371e-02
   104    2.842435170379e-13
   105    5.440334506533e-04
   106    1.010533416672e-14
   107    4.767015192575e-15
   108   -3.251458356826e-02
   109    2.249402649035e-02
   110   -3.589989671316e-04
   111   -5.607414368632e-04
   112   -7.277837967608e-02
   113    9.953152336964e-02
   114    4.738451582912e-15
   115    9.669668977119e-04
   116   -1.099849973555e-01
   117    1.527048274295e-01
   118    3.097697269618e-15
   119   -3.026254968157e-03
   120   -1.103567404150e-01
   121    1.526259783477e-01
   122    1.714706864130e-14
   123   -2.789064450581e-02
   124    1.677563940857e-03
   125    2.351948861115e-02
   126   -1.407400868946e-13
   127   -2.417302246794e-04
   128   -9.237200208613e-16
   129   -9.728234394193e-16
   130    5.180854396846e-03
   131   -2.264183082866e-03
   132   -5.310636024101e-03
   133   -8.653471281027e-03
   134   -8.558013983495e-02
   135   -1.895414557811e-03
   136    8.216263054438e-15
   137    2.092681111431e-02
   138   -1.218765254310e-01
   139    2.056494600830e-03
   140    1.193528712212e-14
   141    7.404042646686e-02
   142   -1.629255015077e-01
   143   -1.044463121429e-03
   144   -1.082936175396e-14