[Molden Format]
[Atoms] (Angs)
  C      1    6     -0.00714236     -1.70213747     -0.00000000
  H      2    1     -2.06882847     -1.44022412      0.00000000
  H      3    1     -0.12337987     -2.77567521      0.00000000
  H      4    1      0.04651892      1.98813947     -0.00000000
  C      5    6     -1.21953563      0.40211669      0.00000000
  O      6    8     -2.25921553      1.03043814      0.00000000
  C      7    6      1.28797806      0.34644937     -0.00000000
  O      8    8      2.31273661      1.00537216     -0.00000000
  N      9    7      0.03446295      0.97739857     -0.00000000
  N     10    7     -1.17287765     -0.98229824      0.00000000
  C     11    6      1.20107039     -1.10433419     -0.00000000
  H     12    1      2.11220096     -1.67699125     -0.00000000
[GTO]
1    0
S    6    1.000000
   4.56324000E+03    1.96665000E-03 
   6.82024000E+02    1.52306000E-02 
   1.54973000E+02    7.61269000E-02 
   4.44553000E+01    2.60801000E-01 
   1.30290000E+01    6.16462000E-01 
   1.82773000E+00    2.21006000E-01 
SP   3    1.000000
   2.09642000E+01    1.14660000E-01   4.02487000E-02 
   4.80331000E+00    9.19999000E-01   2.37594000E-01 
   1.45933000E+00   -3.03068000E-03   8.15854000E-01 
SP   1    1.000000
   4.83456000E-01    1.00000000E+00   1.00000000E+00 
SP   1    1.000000
   1.45585000E-01    1.00000000E+00   1.00000000E+00 
SP   1    1.000000
   4.38000000E-02    1.00000000E+00   1.00000000E+00 
D    1    1.000000
   6.26000000E-01    1.00000000E+00 

2    0
S    3    1.000000
   3.38650000E+01    2.54938000E-02 
   5.09479000E+00    1.90373000E-01 
   1.15879000E+00    8.52161000E-01 
S    1    1.000000
   3.25840000E-01    1.00000000E+00 
S    1    1.000000
   1.02741000E-01    1.00000000E+00 
S    1    1.000000
   3.60000000E-02    1.00000000E+00 
P    1    1.000000
   7.50000000E-01    1.00000000E+00 

3    0
S    3    1.000000
   3.38650000E+01    2.54938000E-02 
   5.09479000E+00    1.90373000E-01 
   1.15879000E+00    8.52161000E-01 
S    1    1.000000
   3.25840000E-01    1.00000000E+00 
S    1    1.000000
   1.02741000E-01    1.00000000E+00 
S    1    1.000000
   3.60000000E-02    1.00000000E+00 
P    1    1.000000
   7.50000000E-01    1.00000000E+00 

4    0
S    3    1.000000
   3.38650000E+01    2.54938000E-02 
   5.09479000E+00    1.90373000E-01 
   1.15879000E+00    8.52161000E-01 
S    1    1.000000
   3.25840000E-01    1.00000000E+00 
S    1    1.000000
   1.02741000E-01    1.00000000E+00 
S    1    1.000000
   3.60000000E-02    1.00000000E+00 
P    1    1.000000
   7.50000000E-01    1.00000000E+00 

5    0
S    6    1.000000
   4.56324000E+03    1.96665000E-03 
   6.82024000E+02    1.52306000E-02 
   1.54973000E+02    7.61269000E-02 
   4.44553000E+01    2.60801000E-01 
   1.30290000E+01    6.16462000E-01 
   1.82773000E+00    2.21006000E-01 
SP   3    1.000000
   2.09642000E+01    1.14660000E-01   4.02487000E-02 
   4.80331000E+00    9.19999000E-01   2.37594000E-01 
   1.45933000E+00   -3.03068000E-03   8.15854000E-01 
SP   1    1.000000
   4.83456000E-01    1.00000000E+00   1.00000000E+00 
SP   1    1.000000
   1.45585000E-01    1.00000000E+00   1.00000000E+00 
SP   1    1.000000
   4.38000000E-02    1.00000000E+00   1.00000000E+00 
D    1    1.000000
   6.26000000E-01    1.00000000E+00 

6    0
S    6    1.000000
   8.58850000E+03    1.89515000E-03 
   1.29723000E+03    1.43859000E-02 
   2.99296000E+02    7.07320000E-02 
   8.73771000E+01    2.40001000E-01 
   2.56789000E+01    5.94797000E-01 
   3.74004000E+00    2.80802000E-01 
SP   3    1.000000
   4.21175000E+01    1.13889000E-01   3.65114000E-02 
   9.62837000E+00    9.20811000E-01   2.37153000E-01 
   2.85332000E+00   -3.27447000E-03   8.19702000E-01 
SP   1    1.000000
   9.05661000E-01    1.00000000E+00   1.00000000E+00 
SP   1    1.000000
   2.55611000E-01    1.00000000E+00   1.00000000E+00 
SP   1    1.000000
   8.45000000E-02    1.00000000E+00   1.00000000E+00 
D    1    1.000000
   1.29200000E+00    1.00000000E+00 

7    0
S    6    1.000000
   4.56324000E+03    1.96665000E-03 
   6.82024000E+02    1.52306000E-02 
   1.54973000E+02    7.61269000E-02 
   4.44553000E+01    2.60801000E-01 
   1.30290000E+01    6.16462000E-01 
   1.82773000E+00    2.21006000E-01 
SP   3    1.000000
   2.09642000E+01    1.14660000E-01   4.02487000E-02 
   4.80331000E+00    9.19999000E-01   2.37594000E-01 
   1.45933000E+00   -3.03068000E-03   8.15854000E-01 
SP   1    1.000000
   4.83456000E-01    1.00000000E+00   1.00000000E+00 
SP   1    1.000000
   1.45585000E-01    1.00000000E+00   1.00000000E+00 
SP   1    1.000000
   4.38000000E-02    1.00000000E+00   1.00000000E+00 
D    1    1.000000
   6.26000000E-01    1.00000000E+00 

8    0
S    6    1.000000
   8.58850000E+03    1.89515000E-03 
   1.29723000E+03    1.43859000E-02 
   2.99296000E+02    7.07320000E-02 
   8.73771000E+01    2.40001000E-01 
   2.56789000E+01    5.94797000E-01 
   3.74004000E+00    2.80802000E-01 
SP   3    1.000000
   4.21175000E+01    1.13889000E-01   3.65114000E-02 
   9.62837000E+00    9.20811000E-01   2.37153000E-01 
   2.85332000E+00   -3.27447000E-03   8.19702000E-01 
SP   1    1.000000
   9.05661000E-01    1.00000000E+00   1.00000000E+00 
SP   1    1.000000
   2.55611000E-01    1.00000000E+00   1.00000000E+00 
SP   1    1.000000
   8.45000000E-02    1.00000000E+00   1.00000000E+00 
D    1    1.000000
   1.29200000E+00    1.00000000E+00 

9    0
S    6    1.000000
   6.29348000E+03    1.96979000E-03 
   9.49044000E+02    1.49613000E-02 
   2.18776000E+02    7.35006000E-02 
   6.36916000E+01    2.48937000E-01 
   1.88282000E+01    6.02460000E-01 
   2.72023000E+00    2.56202000E-01 
SP   3    1.000000
   3.06331000E+01    1.11906000E-01   3.83119000E-02 
   7.02614000E+00    9.21666000E-01   2.37403000E-01 
   2.11205000E+00   -2.56919000E-03   8.17592000E-01 
SP   1    1.000000
   6.84009000E-01    1.00000000E+00   1.00000000E+00 
SP   1    1.000000
   2.00878000E-01    1.00000000E+00   1.00000000E+00 
SP   1    1.000000
   6.39000000E-02    1.00000000E+00   1.00000000E+00 
D    1    1.000000
   9.13000000E-01    1.00000000E+00 

10    0
S    6    1.000000
   6.29348000E+03    1.96979000E-03 
   9.49044000E+02    1.49613000E-02 
   2.18776000E+02    7.35006000E-02 
   6.36916000E+01    2.48937000E-01 
   1.88282000E+01    6.02460000E-01 
   2.72023000E+00    2.56202000E-01 
SP   3    1.000000
   3.06331000E+01    1.11906000E-01   3.83119000E-02 
   7.02614000E+00    9.21666000E-01   2.37403000E-01 
   2.11205000E+00   -2.56919000E-03   8.17592000E-01 
SP   1    1.000000
   6.84009000E-01    1.00000000E+00   1.00000000E+00 
SP   1    1.000000
   2.00878000E-01    1.00000000E+00   1.00000000E+00 
SP   1    1.000000
   6.39000000E-02    1.00000000E+00   1.00000000E+00 
D    1    1.000000
   9.13000000E-01    1.00000000E+00 

11    0
S    6    1.000000
   4.56324000E+03    1.96665000E-03 
   6.82024000E+02    1.52306000E-02 
   1.54973000E+02    7.61269000E-02 
   4.44553000E+01    2.60801000E-01 
   1.30290000E+01    6.16462000E-01 
   1.82773000E+00    2.21006000E-01 
SP   3    1.000000
   2.09642000E+01    1.14660000E-01   4.02487000E-02 
   4.80331000E+00    9.19999000E-01   2.37594000E-01 
   1.45933000E+00   -3.03068000E-03   8.15854000E-01 
SP   1    1.000000
   4.83456000E-01    1.00000000E+00   1.00000000E+00 
SP   1    1.000000
   1.45585000E-01    1.00000000E+00   1.00000000E+00 
SP   1    1.000000
   4.38000000E-02    1.00000000E+00   1.00000000E+00 
D    1    1.000000
   6.26000000E-01    1.00000000E+00 

12    0
S    3    1.000000
   3.38650000E+01    2.54938000E-02 
   5.09479000E+00    1.90373000E-01 
   1.15879000E+00    8.52161000E-01 
S    1    1.000000
   3.25840000E-01    1.00000000E+00 
S    1    1.000000
   1.02741000E-01    1.00000000E+00 
S    1    1.000000
   3.60000000E-02    1.00000000E+00 
P    1    1.000000
   7.50000000E-01    1.00000000E+00 

[MO]
Sym=X
Ene= -0.002785
Spin=Alpha
Occup=1
     1   -7.926477191670e-03
     2   -1.295158259822e-02
     3    9.321988681054e-02
     4    8.566336234264e-02
     5    5.007205177628e-15
     6    4.141843780423e-02
     7    1.363323746685e-01
     8    1.265655589568e-01
     9   -2.700333309993e-14
    10    6.573106679466e-03
    11    9.810379808630e-02
    12    8.808435559431e-02
    13    9.798625214743e-14
    14    1.587221432347e-01
    15    7.422040961257e-02
    16    5.438304200581e-02
    17   -2.016029891441e-13
    18    1.606547379125e-03
    19   -1.378664972960e-14
    20   -2.583696253670e-14
    21    2.215797443529e-02
    22   -1.080485821663e-02
    23    1.234319962948e-02
    24    1.987378189992e-02
    25   -3.692239406714e-02
    26    1.351665378214e-02
    27    6.039356862437e-04
    28   -1.204490560228e-03
    29    1.563544695323e-14
    30   -7.711131303649e-02
    31   -1.255293633877e-01
    32   -4.565242373420e-02
    33    3.350663570635e-02
    34    3.088102316752e-03
    35   -6.987542371006e-03
    36   -9.185141133170e-15
    37   -2.216555227050e-02
    38   -4.072130155403e-02
    39    1.928983596159e-02
    40   -2.122994955907e-02
    41    2.189148267822e-03
    42    1.022871431287e-03
    43   -3.441299851856e-14
    44    2.985894064662e-03
    45    5.155564953999e-03
    46   -1.614911351306e-02
    47    1.618769677000e-02
    48    3.241137179206e-14
    49   -1.303480771817e-02
    50   -2.763493292842e-02
    51    2.624457800091e-02
    52    1.116354836279e-13
    53   -2.676987764550e-02
    54    3.039176779855e-02
    55    8.663829693985e-02
    56   -1.842176710704e-13
    57   -2.319131418538e-03
    58    3.728942527669e-02
    59    7.457636380865e-02
    60    5.094331089381e-13
    61   -4.868968584266e-04
    62   -8.935430400812e-16
    63    1.842698630304e-14
    64   -2.468959890742e-02
    65   -2.159541018543e-02
    66    1.293284391003e-03
    67    2.174952975389e-03
    68    7.946579301384e-02
    69    8.505073448425e-02
    70    2.396696046503e-14
    71   -5.425057411861e-03
    72    1.203589206667e-01
    73    1.314558758060e-01
    74    2.352156844600e-14
    75   -1.825402060915e-02
    76    1.055932578695e-01
    77    1.274732692878e-01
    78    4.497523695398e-14
    79   -4.962230749613e-03
    80    1.423018976713e-02
    81    1.358928733043e-02
    82   -2.618300837345e-13
    83   -6.929801955029e-04
    84    6.047606536588e-15
    85   -2.674596596810e-15
    86    7.720204591990e-03
    87    1.540780114330e-03
    88    2.302848153331e-02
    89    3.842484137581e-02
    90   -1.660600097092e-02
    91    1.071379301270e-01
    92    1.359414717936e-14
    93   -1.037860775849e-01
    94   -2.405065399667e-02
    95    1.560882395712e-01
    96    7.107171576191e-14
    97   -4.924389637604e-02
    98    4.276653960351e-02
    99   -3.774670366771e-02
   100   -1.283016883701e-13
   101   -1.003901610444e-01
   102   -3.781658422389e-03
   103    4.436665203657e-02
   104   -7.593340109003e-13
   105    5.555796750723e-03
   106   -4.677453405672e-14
   107    3.314895513972e-15
   108   -7.264321611654e-03
   109    3.731727924233e-03
   110   -6.162370352884e-03
   111   -1.047968860486e-02
   112   -8.042519683161e-02
   113    1.115552157095e-01
   114   -1.596558063057e-15
   115    2.970636856749e-02
   116   -1.068696718817e-01
   117    1.424659661808e-01
   118    1.818913386637e-15
   119    3.012463269583e-02
   120   -5.460316829286e-02
   121    6.362053522393e-02
   122   -1.431547242343e-13
   123    1.041093476529e-03
   124    1.156925510510e-02
   125   -3.345345050876e-02
   126    4.726440036348e-13
   127   -1.889926829736e-03
   128    3.485669314497e-15
   129    3.029475657383e-15
   130    7.786030053139e-03
   131   -3.476902864606e-03
   132    2.824911810444e-03
   133    4.126952076381e-03
   134    5.640158943912e-02
   135   -1.945369864502e-02
   136   -3.842478984079e-15
   137   -5.507075096106e-03
   138    8.194217641707e-02
   139   -3.921333574935e-02
   140    5.354405107044e-16
   141    1.858081912860e-02
   142    1.216480863452e-01
   143   -2.808351470440e-02
   144    1.438328650988e-14
   145   -3.344519295293e-02
   146    3.525703232017e-02
   147   -5.958840321144e-02
   148    1.197458198566e-13
   149    1.590151545153e-04
   150    8.654221505742e-15
   151   -1.927991242226e-14
   152    3.417575424084e-03
   153   -5.460254548478e-04
   154   -1.114645839180e-02
   155   -1.860959219549e-02
   156   -4.858063401667e-03
   157    1.210430048673e-02
   158    4.720804139234e-15
   159    5.132360827270e-02
   160   -1.060889565451e-02
   161    1.661139389711e-02
   162   -2.051157362440e-15
   163    1.344490022052e-01
   164   -6.352241634255e-03
   165    3.376220241961e-02
   166    5.672185977714e-14
   167    1.459264449759e-01
   168   -2.755470755070e-02
   169   -3.092157226193e-02
   170   -1.755281411982e-13
   171    1.617691934995e-03
   172   -5.232082522574e-15
   173   -1.037235112967e-14
   174    9.813380926904e-03
   175    5.475809184002e-03
   176   -9.190605565015e-03
   177   -1.431875362988e-02
   178   -3.237352306936e-02
   179   -1.518624605159e-01
   180   -1.178572184302e-15
   181    2.496476712809e-02
   182   -4.003040353666e-02
   183   -2.389785431904e-01
   184   -6.090959914325e-16
   185   -1.400912099423e-01
   186    9.526999743895e-03
   187   -1.796040191329e-01
   188   -3.246833696663e-14
   189   -1.285230945587e-01
   190    7.804217248607e-02
   191    2.824202722636e-02
   192    4.526070734326e-13
   193   -2.506019736223e-03
   194    5.846903538042e-15
   195   -6.828478196086e-16
   196    2.293089952788e-02
   197    7.786650880068e-03
   198    5.470020872169e-02
   199    8.560208126082e-02
   200    1.202034714895e-02
   201   -1.512586789493e-02
   202   -9.459789127272e-03
   203   -4.168961322095e-03
   204   -3.570428255689e-15
Sym=X
Ene= -0.809524
Spin=Alpha
Occup=1
     1   -5.760250555689e-03
     2   -1.001337993545e-02
     3    2.666510753051e-02
     4    1.735607730787e-02
     5   -4.058353866593e-16
     6    2.904417802895e-02
     7    4.572131634781e-02
     8    3.006177449097e-02
     9   -2.026274873099e-15
    10    8.925910289153e-02
    11    5.310730905161e-02
    12    6.927052375025e-02
    13    1.422631232192e-14
    14    4.449746581487e-01
    15    1.112780790545e-01
    16    1.155850600256e-01
    17   -1.331634837816e-14
    18   -1.788199838690e-04
    19   -3.338036736530e-15
    20   -9.955939445461e-15
    21    9.154313931463e-03
    22   -4.237328490090e-03
    23    8.057689485687e-04
    24   -1.764056109489e-03
    25   -1.868292757119e-02
    26   -2.258641506353e-03
    27    9.741381780538e-06
    28   -8.762713054539e-04
    29   -1.892942410557e-15
    30   -1.776704277073e-02
    31   -2.371896673515e-02
    32   -1.236629086509e-02
    33    4.378749993452e-02
    34    1.613927812078e-03
    35    1.080514960974e-03
    36   -9.018890299124e-15
    37   -8.539270579240e-03
    38   -2.471792928409e-02
    39   -1.485339972970e-02
    40    4.785986527723e-02
    41   -9.521043419646e-05
    42    9.249926138486e-04
    43   -1.197647970995e-15
    44    7.199634158489e-03
    45    1.242554037215e-02
    46   -2.546321853640e-02
    47   -4.266402583851e-03
    48    1.353503644081e-15
    49   -3.501687493956e-02
    50   -4.421861880160e-02
    51   -9.059320122101e-03
    52    2.864630134172e-14
    53   -7.085957637219e-02
    54   -2.822352225608e-02
    55    1.627335182067e-02
    56   -6.244732531136e-14
    57   -7.658601514064e-02
    58   -8.541923362882e-03
    59   -1.324248898842e-04
    60    4.133037402362e-14
    61   -2.549452863470e-05
    62    2.366522876324e-15
    63    2.801480135229e-15
    64   -6.383888766660e-03
    65   -1.406001396183e-02
    66   -1.421379648980e-03
    67   -2.401451905709e-03
    68    3.375587015490e-02
    69    2.514002607200e-02
    70   -1.337573945683e-15
    71    7.325432112099e-03
    72    4.994569716172e-02
    73    3.928023589369e-02
    74    2.397763524044e-15
    75    1.522373111420e-03
    76    4.892535276640e-02
    77    4.403554579541e-02
    78    1.134537803863e-15
    79   -1.386275310294e-02
    80    1.955371202765e-04
    81    5.356066934962e-03
    82   -7.272991487372e-15
    83   -3.829680518460e-04
    84    2.973090928676e-16
    85   -5.030369346094e-16
    86    1.818777587790e-03
    87   -1.403719120887e-04
    88    5.896052207494e-03
    89    1.034528304340e-02
    90    5.130312594915e-04
    91    3.058471156555e-02
    92    5.731108777880e-15
    93   -2.933594465789e-02
    94   -2.244471368752e-03
    95    5.949788652012e-02
    96    1.752300451025e-14
    97   -3.814828819015e-02
    98    5.782043931632e-02
    99   -8.767396164617e-02
   100   -2.335027282761e-14
   101    3.458836182806e-01
   102    3.336732838358e-02
   103   -1.758697283697e-01
   104   -6.174990038932e-14
   105   -1.075500995888e-03
   106   -9.122604344033e-15
   107   -5.921997570960e-16
   108    7.258383396731e-02
   109   -3.649809640688e-02
   110   -1.089355583406e-03
   111   -1.931488962438e-03
   112    1.359719840346e-01
   113   -2.245751796753e-01
   114   -1.610323915361e-15
   115    7.141337779977e-03
   116    2.063835321947e-01
   117   -3.419854395945e-01
   118    7.051445966391e-15
   119    6.374042237778e-03
   120    2.028138672329e-01
   121   -3.271210094307e-01
   122   -2.992426954852e-15
   123    7.278982954754e-03
   124    1.305626051572e-02
   125   -3.565302778922e-02
   126    1.727220641096e-14
   127   -6.945791903891e-05
   128   -8.840472564401e-16
   129   -3.831809461088e-16
   130   -1.300379766877e-02
   131    7.285464476748e-03
   132   -1.802619090903e-02
   133   -3.043042252480e-02
   134    7.474042446591e-02
   135   -2.619846706701e-02
   136    1.422210830404e-15
   137    8.586508973007e-02
   138    1.103099608523e-01
   139   -3.395321661879e-02
   140    9.570187039515e-15
   141    1.949187336561e-01
   142    1.271405227317e-01
   143   -5.463457632511e-02
   144    6.653777527669e-15
   145    1.796197828722e-01
   146   -4.245674474242e-02
   147   -4.938534164000e-02
   148    3.157293567312e-14
   149    2.291406514972e-03
   150    1.937917154549e-15
   151   -2.756295662128e-15
   152   -5.351094600631e-04
   153    1.694143048139e-03
   154   -4.064787921935e-03
   155   -6.856569007019e-03
   156    1.493399098565e-03
   157    4.360546279581e-03
   158   -2.792757608431e-16
   159    1.949139349419e-02
   160    1.653798854840e-03
   161    6.094462656143e-03
   162   -1.280025183109e-15
   163    4.342115193142e-02
   164   -8.007049764442e-03
   165    1.410019945117e-02
   166    1.892551209169e-14
   167   -1.927125604623e-02
   168   -2.146037260631e-02
   169   -4.733709928806e-02
   170   -3.883578958838e-14
   171    6.217879299043e-04
   172   -1.960892255887e-15
   173   -1.722827876424e-15
   174    3.383258704709e-03
   175    1.735423195298e-04
   176    1.746432829702e-02
   177    2.905978312692e-02
   178   -1.601087410650e-02
   179   -7.646132925189e-02
   180   -2.744249324170e-16
   181   -7.553706884706e-02
   182   -2.698355095587e-02
   183   -1.050975326426e-01
   184    6.392836212752e-15
   185   -2.648742829714e-01
   186    3.169191514568e-02
   187   -1.411278011942e-01
   188   -7.986104085946e-15
   189   -8.431506754003e-01
   190    1.448172619389e-01
   191   -8.180798559183e-02
   192    4.803401488640e-14
   193   -8.941394187727e-04
   194    2.739064069091e-15
   195   -2.186772744067e-15
   196   -4.332123326383e-04
   197    3.760541398184e-04
   198    6.932698542473e-03
   199    1.524482833885e-02
   200   -6.423155030167e-03
   201   -5.101391916856e-02
   202   -1.610209092679e-03
   203    4.531851422423e-04
   204   -4.873226871323e-15
Sym=X
Ene= 0.809524
Spin=Alpha
Occup=0
     1    1.925572585788e-15
     2   -1.074088607336e-14
     3   -3.393791625016e-14
     4    9.239114236877e-15
     5   -1.321585036864e-01
     6    1.898945436213e-13
     7   -1.894628658258e-13
     8    2.320662007492e-13
     9   -2.152848746248e-01
    10   -7.579102724326e-14
    11    7.988146255632e-14
    12    4.246667443098e-13
    13   -3.459229776528e-01
    14   -8.661311373735e-11
    15   -2.066575394612e-11
    16   -6.598918759814e-12
    17   -2.286561850064e-01
    18   -6.209499126279e-14
    19   -2.453342181611e-03
    20    8.097377343458e-03
    21   -2.732841141702e-14
    22   -5.794482585312e-14
    23    5.030591856942e-14
    24   -1.001263714462e-12
    25    4.826349816056e-12
    26    2.082393596056e-12
    27   -9.373341696481e-14
    28    1.045972076792e-14
    29    9.095106542532e-03
    30    5.772116964397e-14
    31    3.895311146163e-13
    32    1.878124630217e-12
    33    1.097774979962e-12
    34   -9.375125811271e-15
    35   -1.152522756953e-15
    36   -1.374634839109e-02
    37    1.132958081752e-15
    38    1.515142296936e-12
    39   -2.028406983510e-12
    40   -1.676392425223e-12
    41    3.876746102749e-14
    42   -6.505438323512e-14
    43   -1.266694174940e-02
    44   -1.495654772411e-14
    45   -1.498574139941e-14
    46   -2.790265483055e-14
    47   -8.296873150938e-14
    48   -5.550334109462e-03
    49    2.271569269682e-14
    50   -5.254729839750e-14
    51   -2.070472626120e-13
    52   -1.203727066826e-02
    53   -6.794340655749e-13
    54    6.390623543924e-13
    55    1.212789681513e-12
    56    5.383366458058e-03
    57    1.786291915356e-11
    58    6.985881581643e-12
    59   -3.679773219573e-12
    60    2.432633712157e-02
    61    9.991610461067e-14
    62   -1.461182979953e-02
    63   -2.186786876204e-02
    64    4.563950429374e-14
    65    5.987678369897e-15
    66    1.242892155346e-14
    67    3.029715520114e-14
    68    1.738628303494e-14
    69   -4.356567498156e-15
    70    4.568708256570e-03
    71   -1.093040875164e-13
    72    3.738823311658e-14
    73    4.350962907488e-14
    74    6.745245294224e-03
    75   -1.114251511010e-14
    76    6.823999806106e-14
    77   -4.691041656241e-13
    78    9.056146283273e-03
    79   -9.473164770383e-13
    80   -2.079619681342e-12
    81    3.154923038330e-13
    82   -1.266406239214e-02
    83    2.710959665904e-15
    84   -7.610552827817e-04
    85   -1.167178783422e-03
    86   -6.443271771065e-15
    87   -1.275298174694e-14
    88    4.245164951354e-14
    89    7.681111886058e-14
    90    2.054961296945e-14
    91    3.169999990350e-14
    92    1.994421661167e-01
    93   -7.991658514877e-14
    94    3.410371756905e-13
    95    1.394204148811e-13
    96    3.379917825543e-01
    97   -3.522322838272e-12
    98    1.639820718736e-12
    99    1.871289344017e-12
   100    4.994472784390e-01
   101   -1.401945314043e-11
   102    1.541201756025e-11
   103    1.203531151228e-12
   104    1.222364849910e-01
   105    1.421796942917e-14
   106   -1.260399243724e-02
   107   -2.893197684404e-02
   108   -4.395301043507e-14
   109    1.381430287205e-14
   110   -1.596820145629e-14
   111   -2.377760627057e-14
   112    1.477041275117e-14
   113    2.164934124443e-14
   114   -1.629633847479e-01
   115    8.270219634974e-14
   116   -7.649992828250e-14
   117   -5.199928031564e-15
   118   -2.388402172732e-01
   119   -4.633972740106e-13
   120    9.877671048950e-13
   121    3.176435604988e-13
   122   -3.003776491732e-01
   123   -7.064213245832e-15
   124   -4.013797950015e-12
   125   -1.764238042122e-12
   126   -1.849209789627e-01
   127    1.615695428161e-14
   128   -6.051553186013e-03
   129   -5.952739643268e-03
   130   -1.320428199550e-15
   131   -1.231627503608e-14
   132    2.163591777816e-15
   133   -8.109982772593e-15
   134    5.204442898707e-14
   135    4.627362498467e-15
   136   -8.109852563941e-02
   137    8.840045307596e-14
   138    8.153755754825e-14
   139    3.033137338276e-13
   140   -1.226041486312e-01
   141   -1.113810146285e-12
   142    7.949337844285e-13
   143   -3.100569669928e-12
   144   -2.103104506940e-01
   145    5.026664782517e-12
   146   -1.983964454040e-12
   147    4.165925476008e-12
   148   -1.720465698528e-01
   149    4.949504673072e-14
   150    1.676435869936e-02
   151   -1.003120211095e-02
   152    2.199597581175e-14
   153    2.257732120637e-14
   154    2.422299313931e-14
   155    4.754504252957e-14
   156    5.969000773438e-14
   157   -7.958713959345e-14
   158    6.993990697682e-02
   159   -2.083822266812e-13
   160    3.433718495142e-13
   161   -4.088495562526e-14
   162    1.068207643038e-01
   163    7.626606930325e-13
   164   -2.280128889067e-12
   165   -4.975017481052e-13
   166    1.736676373465e-01
   167   -5.703797514916e-12
   168    7.696626180397e-12
   169    3.120769016393e-12
   170    1.773333565586e-01
   171   -4.370245331768e-14
   172   -1.107880685672e-02
   173    8.472463323910e-03
   174    2.200587745371e-14
   175    1.917112072074e-14
   176   -3.471822447087e-14
   177   -5.784380129446e-14
   178    8.982459552332e-14
   179    3.186670114623e-15
   180    4.177263822700e-02
   181    7.592586761162e-14
   182    1.067697590141e-13
   183    1.532349563874e-13
   184    6.455033755360e-02
   185    2.907515191000e-12
   186    2.835868686765e-13
   187    5.587271039681e-13
   188    9.293541755257e-02
   189    8.298332172065e-11
   190   -2.312340293422e-11
   191   -1.542219188106e-11
   192    7.974935901880e-02
   193    8.407068299161e-15
   194    1.828351851832e-02
   195    3.518102113411e-02
   196   -3.137752989046e-15
   197    2.477792406562e-14
   198   -6.982860739076e-14
   199    1.405936627426e-13
   200   -4.124427040583e-12
   201   -3.369918052712e-13
   202   -2.357381352785e-14
   203    8.341182124431e-14
   204    2.860142303769e-03
Sym=X
Ene= 0.002785
Spin=Alpha
Occup=0
     1    9.169170489195e-15
     2    4.229783499518e-14
     3    7.040004894176e-14
     4   -6.814368872684e-14
     5   -1.923520004828e-01
     6   -7.371669284654e-13
     7    7.313958493900e-13
     8   -7.863811114756e-13
     9   -3.218669144080e-01
    10   -3.483267925826e-12
    11    2.965245201683e-13
    12   -4.885997677170e-12
    13   -4.581319257533e-01
    14    1.780458724135e-10
    15    5.240321691804e-11
    16    3.944154396956e-12
    17   -2.612694592578e-01
    18    1.852710992998e-13
    19    1.252708097701e-02
    20    3.352109041320e-02
    21   -1.638885787223e-14
    22    2.354671661752e-13
    23   -1.102961689150e-13
    24    4.866634333985e-12
    25   -1.461474828927e-11
    26    1.126844324905e-13
    27    4.072420828360e-13
    28   -8.043881227814e-14
    29    6.087769008681e-03
    30   -5.596810136865e-14
    31   -1.369177442380e-12
    32   -6.871878702683e-12
    33   -7.384383753567e-12
    34    6.422768310615e-14
    35   -4.894987795112e-14
    36   -1.985701788202e-02
    37   -1.084510203268e-13
    38   -5.196721162000e-12
    39    1.732322483389e-12
    40   -1.786796854563e-12
    41   -1.403935803580e-13
    42    2.873779357229e-13
    43   -2.020266084300e-03
    44    2.826980971678e-14
    45    4.471363004265e-14
    46    2.755399480868e-14
    47    1.581648193864e-13
    48    1.863292140008e-02
    49   -1.079865554834e-13
    50    1.754844222337e-13
    51    5.765844402087e-13
    52    2.439357117186e-02
    53    2.258454315850e-12
    54   -7.073614998245e-12
    55   -5.833693679983e-12
    56   -1.919525662521e-02
    57   -3.721010667564e-11
    58   -1.282185416799e-11
    59    1.224379433522e-11
    60   -8.942929471989e-03
    61   -3.166409926085e-13
    62   -1.654432282067e-03
    63   -2.635573201258e-02
    64   -8.671442281248e-14
    65   -5.479981441576e-14
    66   -3.011449699402e-14
    67   -4.958337013294e-14
    68   -6.370693524032e-14
    69    3.343805729885e-14
    70   -2.846687635569e-02
    71    2.294454699406e-13
    72   -1.862297574171e-13
    73   -1.299959790749e-13
    74   -4.466715701903e-02
    75   -8.368527292682e-13
    76   -1.676621421954e-14
    77    2.209767189405e-12
    78   -3.415545845638e-02
    79   -2.728374176521e-12
    80    3.249270488860e-12
    81   -3.529277431973e-13
    82   -5.357951554590e-02
    83   -1.973628649731e-14
    84   -7.426054692433e-04
    85   -9.770156675948e-04
    86    1.135314599376e-14
    87    3.889241586419e-14
    88   -1.303345960145e-13
    89   -1.938430498773e-13
    90   -7.203926542064e-14
    91   -6.135256867304e-14
    92   -1.319485220923e-01
    93   -1.265782164378e-13
    94   -9.631384933641e-13
    95   -2.032873205469e-13
    96   -2.807829917188e-01
    97    1.168026496741e-11
    98   -7.466074819229e-12
    99   -6.035059017316e-12
   100   -3.516289944046e-01
   101    2.469369777776e-11
   102   -3.985916290893e-11
   103   -3.386182646117e-12
   104   -1.574299256684e-02
   105   -2.634642839716e-14
   106   -1.122037387118e-01
   107   -5.990636855883e-02
   108    1.676627120048e-13
   109   -1.336543482570e-13
   110    3.186347877078e-14
   111    6.212043127524e-14
   112    3.780720560837e-14
   113   -4.870489195326e-14
   114    1.869893183286e-01
   115   -2.092492105918e-13
   116    4.618036780682e-13
   117    1.335683701297e-15
   118    2.608269519172e-01
   119    1.931985331523e-12
   120   -3.378741159688e-12
   121   -9.193556892077e-13
   122    1.918612049642e-01
   123    3.497835958474e-12
   124    1.094091697012e-11
   125    4.227036834042e-12
   126    3.639358509927e-03
   127   -5.070094412578e-14
   128    1.741113583378e-02
   129    1.280993892636e-02
   130   -2.715608403210e-15
   131    4.361090081681e-14
   132    2.486195332499e-14
   133    5.888864761592e-14
   134   -2.191965661149e-13
   135   -7.805669786164e-14
   136    3.569637130735e-03
   137   -6.733073743711e-13
   138   -2.410667512417e-13
   139   -1.230764682011e-12
   140   -3.556519544738e-03
   141    6.653421417590e-12
   142   -4.566030281205e-12
   143    1.065254699705e-11
   144    1.016126786281e-01