[Molden Format]
[Atoms] (Angs)
  C      1    6     -0.00714236     -1.70213747     -0.00000000
  H      2    1     -2.06882847     -1.44022412      0.00000000
  H      3    1     -0.12337987     -2.77567521      0.00000000
  H      4    1      0.04651892      1.98813947     -0.00000000
  C      5    6     -1.21953563      0.40211669      0.00000000
  O      6    8     -2.25921553      1.03043814      0.00000000
  C      7    6      1.28797806      0.34644937     -0.00000000
  O      8    8      2.31273661      1.00537216     -0.00000000
  N      9    7      0.03446295      0.97739857     -0.00000000
  N     10    7     -1.17287765     -0.98229824      0.00000000
  C     11    6      1.20107039     -1.10433419     -0.00000000
  H     12    1      2.11220096     -1.67699125     -0.00000000
[GTO]
1    0
S    6    1.000000
   4.56324000E+03    1.96665000E-03 
   6.82024000E+02    1.52306000E-02 
   1.54973000E+02    7.61269000E-02 
   4.44553000E+01    2.60801000E-01 
   1.30290000E+01    6.16462000E-01 
   1.82773000E+00    2.21006000E-01 
SP   3    1.000000
   2.09642000E+01    1.14660000E-01   4.02487000E-02 
   4.80331000E+00    9.19999000E-01   2.37594000E-01 
   1.45933000E+00   -3.03068000E-03   8.15854000E-01 
SP   1    1.000000
   4.83456000E-01    1.00000000E+00   1.00000000E+00 
SP   1    1.000000
   1.45585000E-01    1.00000000E+00   1.00000000E+00 
SP   1    1.000000
   4.38000000E-02    1.00000000E+00   1.00000000E+00 
D    1    1.000000
   6.26000000E-01    1.00000000E+00 

2    0
S    3    1.000000
   3.38650000E+01    2.54938000E-02 
   5.09479000E+00    1.90373000E-01 
   1.15879000E+00    8.52161000E-01 
S    1    1.000000
   3.25840000E-01    1.00000000E+00 
S    1    1.000000
   1.02741000E-01    1.00000000E+00 
S    1    1.000000
   3.60000000E-02    1.00000000E+00 
P    1    1.000000
   7.50000000E-01    1.00000000E+00 

3    0
S    3    1.000000
   3.38650000E+01    2.54938000E-02 
   5.09479000E+00    1.90373000E-01 
   1.15879000E+00    8.52161000E-01 
S    1    1.000000
   3.25840000E-01    1.00000000E+00 
S    1    1.000000
   1.02741000E-01    1.00000000E+00 
S    1    1.000000
   3.60000000E-02    1.00000000E+00 
P    1    1.000000
   7.50000000E-01    1.00000000E+00 

4    0
S    3    1.000000
   3.38650000E+01    2.54938000E-02 
   5.09479000E+00    1.90373000E-01 
   1.15879000E+00    8.52161000E-01 
S    1    1.000000
   3.25840000E-01    1.00000000E+00 
S    1    1.000000
   1.02741000E-01    1.00000000E+00 
S    1    1.000000
   3.60000000E-02    1.00000000E+00 
P    1    1.000000
   7.50000000E-01    1.00000000E+00 

5    0
S    6    1.000000
   4.56324000E+03    1.96665000E-03 
   6.82024000E+02    1.52306000E-02 
   1.54973000E+02    7.61269000E-02 
   4.44553000E+01    2.60801000E-01 
   1.30290000E+01    6.16462000E-01 
   1.82773000E+00    2.21006000E-01 
SP   3    1.000000
   2.09642000E+01    1.14660000E-01   4.02487000E-02 
   4.80331000E+00    9.19999000E-01   2.37594000E-01 
   1.45933000E+00   -3.03068000E-03   8.15854000E-01 
SP   1    1.000000
   4.83456000E-01    1.00000000E+00   1.00000000E+00 
SP   1    1.000000
   1.45585000E-01    1.00000000E+00   1.00000000E+00 
SP   1    1.000000
   4.38000000E-02    1.00000000E+00   1.00000000E+00 
D    1    1.000000
   6.26000000E-01    1.00000000E+00 

6    0
S    6    1.000000
   8.58850000E+03    1.89515000E-03 
   1.29723000E+03    1.43859000E-02 
   2.99296000E+02    7.07320000E-02 
   8.73771000E+01    2.40001000E-01 
   2.56789000E+01    5.94797000E-01 
   3.74004000E+00    2.80802000E-01 
SP   3    1.000000
   4.21175000E+01    1.13889000E-01   3.65114000E-02 
   9.62837000E+00    9.20811000E-01   2.37153000E-01 
   2.85332000E+00   -3.27447000E-03   8.19702000E-01 
SP   1    1.000000
   9.05661000E-01    1.00000000E+00   1.00000000E+00 
SP   1    1.000000
   2.55611000E-01    1.00000000E+00   1.00000000E+00 
SP   1    1.000000
   8.45000000E-02    1.00000000E+00   1.00000000E+00 
D    1    1.000000
   1.29200000E+00    1.00000000E+00 

7    0
S    6    1.000000
   4.56324000E+03    1.96665000E-03 
   6.82024000E+02    1.52306000E-02 
   1.54973000E+02    7.61269000E-02 
   4.44553000E+01    2.60801000E-01 
   1.30290000E+01    6.16462000E-01 
   1.82773000E+00    2.21006000E-01 
SP   3    1.000000
   2.09642000E+01    1.14660000E-01   4.02487000E-02 
   4.80331000E+00    9.19999000E-01   2.37594000E-01 
   1.45933000E+00   -3.03068000E-03   8.15854000E-01 
SP   1    1.000000
   4.83456000E-01    1.00000000E+00   1.00000000E+00 
SP   1    1.000000
   1.45585000E-01    1.00000000E+00   1.00000000E+00 
SP   1    1.000000
   4.38000000E-02    1.00000000E+00   1.00000000E+00 
D    1    1.000000
   6.26000000E-01    1.00000000E+00 

8    0
S    6    1.000000
   8.58850000E+03    1.89515000E-03 
   1.29723000E+03    1.43859000E-02 
   2.99296000E+02    7.07320000E-02 
   8.73771000E+01    2.40001000E-01 
   2.56789000E+01    5.94797000E-01 
   3.74004000E+00    2.80802000E-01 
SP   3    1.000000
   4.21175000E+01    1.13889000E-01   3.65114000E-02 
   9.62837000E+00    9.20811000E-01   2.37153000E-01 
   2.85332000E+00   -3.27447000E-03   8.19702000E-01 
SP   1    1.000000
   9.05661000E-01    1.00000000E+00   1.00000000E+00 
SP   1    1.000000
   2.55611000E-01    1.00000000E+00   1.00000000E+00 
SP   1    1.000000
   8.45000000E-02    1.00000000E+00   1.00000000E+00 
D    1    1.000000
   1.29200000E+00    1.00000000E+00 

9    0
S    6    1.000000
   6.29348000E+03    1.96979000E-03 
   9.49044000E+02    1.49613000E-02 
   2.18776000E+02    7.35006000E-02 
   6.36916000E+01    2.48937000E-01 
   1.88282000E+01    6.02460000E-01 
   2.72023000E+00    2.56202000E-01 
SP   3    1.000000
   3.06331000E+01    1.11906000E-01   3.83119000E-02 
   7.02614000E+00    9.21666000E-01   2.37403000E-01 
   2.11205000E+00   -2.56919000E-03   8.17592000E-01 
SP   1    1.000000
   6.84009000E-01    1.00000000E+00   1.00000000E+00 
SP   1    1.000000
   2.00878000E-01    1.00000000E+00   1.00000000E+00 
SP   1    1.000000
   6.39000000E-02    1.00000000E+00   1.00000000E+00 
D    1    1.000000
   9.13000000E-01    1.00000000E+00 

10    0
S    6    1.000000
   6.29348000E+03    1.96979000E-03 
   9.49044000E+02    1.49613000E-02 
   2.18776000E+02    7.35006000E-02 
   6.36916000E+01    2.48937000E-01 
   1.88282000E+01    6.02460000E-01 
   2.72023000E+00    2.56202000E-01 
SP   3    1.000000
   3.06331000E+01    1.11906000E-01   3.83119000E-02 
   7.02614000E+00    9.21666000E-01   2.37403000E-01 
   2.11205000E+00   -2.56919000E-03   8.17592000E-01 
SP   1    1.000000
   6.84009000E-01    1.00000000E+00   1.00000000E+00 
SP   1    1.000000
   2.00878000E-01    1.00000000E+00   1.00000000E+00 
SP   1    1.000000
   6.39000000E-02    1.00000000E+00   1.00000000E+00 
D    1    1.000000
   9.13000000E-01    1.00000000E+00 

11    0
S    6    1.000000
   4.56324000E+03    1.96665000E-03 
   6.82024000E+02    1.52306000E-02 
   1.54973000E+02    7.61269000E-02 
   4.44553000E+01    2.60801000E-01 
   1.30290000E+01    6.16462000E-01 
   1.82773000E+00    2.21006000E-01 
SP   3    1.000000
   2.09642000E+01    1.14660000E-01   4.02487000E-02 
   4.80331000E+00    9.19999000E-01   2.37594000E-01 
   1.45933000E+00   -3.03068000E-03   8.15854000E-01 
SP   1    1.000000
   4.83456000E-01    1.00000000E+00   1.00000000E+00 
SP   1    1.000000
   1.45585000E-01    1.00000000E+00   1.00000000E+00 
SP   1    1.000000
   4.38000000E-02    1.00000000E+00   1.00000000E+00 
D    1    1.000000
   6.26000000E-01    1.00000000E+00 

12    0
S    3    1.000000
   3.38650000E+01    2.54938000E-02 
   5.09479000E+00    1.90373000E-01 
   1.15879000E+00    8.52161000E-01 
S    1    1.000000
   3.25840000E-01    1.00000000E+00 
S    1    1.000000
   1.02741000E-01    1.00000000E+00 
S    1    1.000000
   3.60000000E-02    1.00000000E+00 
P    1    1.000000
   7.50000000E-01    1.00000000E+00 

[MO]
Sym=X
Ene= -0.002425
Spin=Alpha
Occup=1
     1   -8.803633067661e-16
     2   -3.617595744053e-16
     3    2.626959031785e-15
     4   -8.664742100394e-17
     5   -8.040707994474e-02
     6   -1.651287693658e-15
     7    2.112606305414e-15
     8    1.495753396548e-14
     9   -1.367761593405e-01
    10    1.231181412591e-13
    11    3.580604178208e-14
    12   -3.984112782657e-14
    13   -1.118570022729e-01
    14    4.875661966732e-13
    15    1.696760860748e-12
    16   -2.087615139959e-12
    17   -9.803255460706e-03
    18   -6.519879578728e-15
    19   -1.457595789862e-02
    20   -5.819594548314e-03
    21   -1.774830567005e-15
    22   -2.889179509127e-15
    23   -1.560649918778e-14
    24   -1.555228099893e-13
    25   -1.185274963301e-12
    26    8.191440548563e-16
    27   -2.468100678218e-14
    28    2.895145923597e-16
    29    1.387504453135e-03
    30   -7.551785111741e-15
    31    1.244307270272e-14
    32   -3.754532882812e-13
    33   -1.016476508656e-12
    34   -8.310191675745e-16
    35    1.435092917322e-15
    36   -6.109986798353e-03
    37   -2.168813823667e-15
    38    2.291938016828e-13
    39    1.365097019267e-14
    40   -2.212580646804e-13
    41   -3.464352259593e-15
    42   -1.318658664320e-14
    43    2.889759739968e-03
    44    3.293971724214e-16
    45    2.825715950845e-15
    46    3.700837087439e-15
    47    8.274588785637e-15
    48    9.939853141656e-02
    49    6.217017830670e-15
    50    1.172297639879e-14
    51   -8.894196129988e-15
    52    1.692897085028e-01
    53   -2.292617190648e-13
    54    1.152024076397e-13
    55    6.538121995277e-13
    56    1.076488274692e-01
    57    7.264515417809e-13
    58    1.068512355310e-13
    59    3.130655333917e-13
    60    2.083193327828e-02
    61    1.677499083881e-14
    62   -1.625429293405e-02
    63    1.663654536624e-02
    64    1.278437975384e-15
    65    1.760407462253e-14
    66   -9.323506246773e-16
    67   -1.574406162368e-15
    68   -4.610410973387e-15
    69   -3.288822248643e-16
    70    1.222527484199e-01
    71   -7.017459233828e-15
    72    7.624846669227e-15
    73   -1.020540040933e-15
    74    1.883956783447e-01
    75    9.469441080163e-14
    76   -4.468603811589e-14
    77   -7.390784170886e-14
    78    1.625055218966e-01
    79   -4.114192194046e-13
    80    3.548900807716e-14
    81    8.786841650950e-14
    82    3.109877140545e-03
    83   -1.451072791118e-15
    84    1.333109806219e-02
    85   -6.874010685829e-03
    86   -2.510709610886e-16
    87   -1.585916012924e-15
    88   -7.356665000358e-15
    89   -1.282752992180e-14
    90   -7.076520092293e-15
    91    2.348413181758e-15
    92   -1.088394778284e-01
    93    4.303299511920e-14
    94    5.705352159827e-15
    95   -6.227063457696e-15
    96   -1.861367759639e-01
    97   -2.428974338985e-14
    98    4.411409373051e-13
    99    2.700046673446e-13
   100   -1.245354381129e-01
   101   -6.774435493601e-12
   102   -4.566350789130e-13
   103    1.242083724713e-12
   104   -3.250458768102e-02
   105    6.383271183345e-15
   106   -2.418521990518e-02
   107   -9.320711423382e-03
   108   -1.251840727093e-14
   109    2.567781453852e-15
   110    4.511945500555e-15
   111    7.588661927221e-15
   112    9.525836128745e-16
   113   -1.392762600096e-15
   114   -1.445142185010e-01
   115   -2.014481893475e-14
   116    8.684847628764e-15
   117   -8.442068244953e-15
   118   -2.232607891142e-01
   119   -2.084972355122e-13
   120    1.714601453906e-14
   121    2.557064620148e-14
   122   -1.930442332163e-01
   123   -3.552011277573e-13
   124    5.813279909780e-13
   125    1.664714181065e-13
   126   -5.380667521492e-03
   127    6.218854854479e-16
   128    1.477106893466e-02
   129    8.355463429676e-03
   130    3.507435172951e-15
   131    1.040274563099e-15
   132   -1.816847494472e-15
   133   -1.716407217671e-15
   134   -1.189872238054e-14
   135    1.308029811385e-14
   136    2.900040438509e-02
   137    1.725416180321e-14
   138   -2.408473560566e-14
   139    6.523997663747e-14
   140    4.695498030200e-02
   141   -6.195399531505e-14
   142    9.985684064961e-14
   143   -4.591684298719e-13
   144    5.239349848663e-02
   145    8.265196214553e-14
   146    8.198474041767e-13
   147   -8.367209468978e-14
   148    1.634788049853e-02
   149    2.735306120208e-15
   150   -1.363035023365e-02
   151    4.263147878055e-04
   152    9.783567252029e-15
   153   -2.290995854810e-15
   154   -2.033876952294e-16
   155    1.000589349420e-15
   156    8.038367702550e-15
   157    9.153613476947e-15
   158    6.930993459614e-03
   159   -4.621124333166e-14
   160    4.312466848664e-14
   161    1.847256184650e-14
   162    1.158815497855e-02
   163    6.188188330555e-13
   164   -3.505736440907e-13
   165    1.269738465943e-13
   166    8.516304230805e-03
   167    2.367872732092e-12
   168   -1.212193777706e-12
   169   -3.589004581247e-13
   170   -4.097912268586e-03
   171   -1.374344953964e-15
   172   -4.125280764074e-03
   173    6.423355362370e-03
   174    5.857884905988e-15
   175   -7.439063211977e-16
   176    5.382818634602e-15
   177    9.218487216908e-15
   178   -1.116464731879e-14
   179    5.415159850798e-15
   180   -7.287472139517e-02
   181   -1.474579314383e-14
   182    2.846269059089e-14
   183    1.559454058510e-14
   184   -1.216649876211e-01
   185   -1.816447490167e-13
   186   -4.024858565261e-13
   187    2.065527748442e-13
   188   -8.095171237828e-02
   189    3.840089005695e-12
   190   -1.083278438708e-12
   191    4.278806401432e-12
   192    9.702695715657e-03
   193   -8.717894053464e-15
   194    1.139917523888e-02
   195   -1.668936984510e-03
   196   -3.804340413863e-15
   197   -5.630915059462e-15
   198    8.842023389549e-15
   199    3.046120879541e-14
   200    9.813790098168e-13
   201    1.748360197464e-12
   202    6.117065811663e-15
   203    1.131582437259e-14
   204   -6.248480825876e-03
Sym=X
Ene= -0.010016
Spin=Alpha
Occup=1
     1    3.748724826647e-16
     2   -1.948900096703e-15
     3   -5.299619035034e-15
     4   -1.410370616283e-15
     5   -5.343160830578e-02
     6    1.309518981407e-14
     7    5.146177187782e-15
     8    5.674052551355e-15
     9   -8.661097288134e-02
    10   -4.541892825239e-14
    11    1.331712610127e-13
    12   -1.624213459005e-13
    13   -6.153473821354e-02
    14   -1.239662081364e-11
    15   -2.717620700829e-12
    16   -2.450433852556e-12
    17   -1.000639218127e-02
    18   -2.323842080511e-15
    19    5.169969336647e-03
    20   -8.443510853978e-03
    21   -3.843677674913e-15
    22    2.504617117185e-15
    23    6.698493368038e-15
    24    1.836144465767e-14
    25    3.888772910096e-13
    26   -1.283285714920e-13
    27    1.088104454661e-15
    28    8.239184112884e-16
    29   -5.140054861664e-03
    30    2.691312064054e-15
    31   -3.848232819096e-14
    32   -3.228592389444e-14
    33   -6.960661886975e-13
    34   -8.430362817703e-15
    35   -4.325390354480e-15
    36   -4.104530585853e-03
    37   -8.352853939913e-15
    38    1.024994786670e-14
    39   -5.496962112836e-13
    40   -1.396260330596e-14
    41   -2.027239397756e-15
    42    5.371131898460e-15
    43   -9.358283196898e-03
    44   -4.658560293885e-16
    45   -1.646959303726e-15
    46   -1.203178067109e-15
    47    1.335477930670e-15
    48    3.071789159218e-02
    49    1.413477456766e-14
    50    9.931305863410e-15
    51   -1.311709073431e-14
    52    5.219045961608e-02
    53   -5.636793915050e-14
    54   -7.192279329652e-15
    55   -9.827505247318e-14
    56    5.614812384522e-02
    57    1.638142923341e-12
    58    2.626328923618e-13
    59   -6.269670396347e-13
    60    1.399936417137e-02
    61    9.105902119762e-15
    62   -4.907903952342e-02
    63    2.158082278852e-02
    64    1.530751232518e-15
    65    8.676759583373e-15
    66    8.611779890159e-16
    67    1.896173870367e-15
    68   -7.910464860465e-16
    69   -2.952892677480e-15
    70    1.638980915912e-01
    71   -1.763088474043e-14
    72   -8.443013655202e-17
    73    1.420607940443e-16
    74    2.505897561130e-01
    75    8.078703658632e-14
    76    4.005356398887e-14
    77   -1.772212405356e-14
    78    2.385859836281e-01
    79   -2.049101076582e-13
    80   -1.130378021499e-13
    81    7.109946119609e-14
    82    4.664832897141e-02
    83    1.234663586447e-15
    84    1.089621385061e-02
    85   -7.046321744105e-03
    86   -9.935804552152e-16
    87   -6.299310268411e-16
    88    1.465991537166e-15
    89    2.719112000921e-15
    90   -2.024665575922e-15
    91    3.350365544758e-15
    92    4.673562939973e-02
    93   -2.010127849470e-14
    94    3.103655609101e-15
    95   -6.625792407584e-15
    96    8.015889562270e-02
    97   -4.030312486599e-14
    98   -3.334444977206e-13
    99   -3.756021787884e-14
   100    7.276208382702e-02
   101   -2.638721830429e-12
   102    1.039408596919e-12
   103    2.058994381961e-13
   104    9.167205455642e-03
   105   -2.689941576521e-15
   106    4.345826034666e-02
   107    1.575942966855e-02
   108   -3.405593413800e-15
   109   -6.707243566521e-15
   110   -1.207801264156e-15
   111    8.157447451695e-16
   112    2.728837061341e-15
   113   -4.435112900478e-15
   114    1.552108157447e-01
   115   -1.019151839599e-14
   116    5.576073822168e-15
   117   -4.644927559572e-15
   118    2.381264122015e-01
   119    1.380869168169e-13
   120   -5.027902517768e-14
   121   -3.938455069915e-14
   122    2.213535663855e-01
   123    2.923033846342e-13
   124   -1.259889985812e-13
   125   -1.268939746182e-13
   126    4.158937209637e-02
   127    2.667443257670e-16
   128   -1.098662190027e-02
   129   -7.404727099878e-03
   130   -5.218765460775e-16
   131    7.329081494507e-16
   132   -2.446077781860e-16
   133   -1.601565625404e-15
   134   -2.620392671563e-16
   135   -2.344466665087e-15
   136   -1.229332003656e-01
   137    1.000661252587e-14
   138    9.283293811883e-15
   139   -2.692017831115e-14
   140   -1.922068968112e-01
   141   -4.160342671602e-14
   142   -7.871445738546e-14
   143    1.567677381470e-13
   144   -2.432463919076e-01
   145    5.619744186787e-14
   146   -5.547957904179e-14
   147    9.370106250323e-13
   148   -5.985162452136e-02
   149    2.956669308557e-15
   150    1.489686146620e-03
   151    1.786613985374e-03
   152    2.698923546036e-15
   153   -7.198422602033e-17
   154   -5.490188588036e-17
   155    1.057885021884e-15
   156   -1.800837004016e-15
   157   -1.045537316672e-15
   158   -7.297225412445e-02
   159   -1.300847911586e-16
   160   -1.649571572383e-14
   161    3.188536433333e-15
   162   -1.150189673508e-01
   163   -2.346253707985e-14
   164    1.334898233343e-13
   165   -5.202159132122e-14
   166   -1.219249859636e-01
   167    4.750395758797e-13
   168    8.013332794317e-13
   169    4.877711747483e-13
   170   -1.338686280370e-02
   171   -1.430799796616e-16
   172   -5.527466063200e-03
   173    2.424322303796e-03
   174    1.108383054538e-15
   175   -3.141930469893e-15
   176   -1.680450211363e-16
   177   -3.128530413310e-15
   178    1.267495547026e-15
   179    2.680643180602e-15
   180   -3.198447015812e-02
   181    2.855019185368e-14
   182   -5.540005244521e-15
   183   -2.662704681579e-14
   184   -5.285337180028e-02
   185   -2.049774856327e-13
   186    9.547366542646e-14
   187    1.324877825151e-13
   188   -5.457035195163e-02
   189    1.302942967386e-11
   190   -3.926199824233e-12
   191   -4.119540980450e-13
   192    6.026229196646e-03
   193    2.390043920438e-15
   194    7.478204639550e-03
   195    4.424223517569e-03
   196    1.017332212519e-15
   197    2.891278117367e-16
   198    2.454061865836e-15
   199   -1.181397840589e-14
   200    3.802297528564e-14
   201    9.233618766031e-13
   202   -4.248306034193e-15
   203    2.078036621563e-15
   204   -1.381774307551e-03
Sym=X
Ene= -0.845731
Spin=Alpha
Occup=1
     1    1.882329457547e-15
     2    3.778797420695e-15
     3   -1.247537252402e-15
     4   -5.827569236770e-16
     5   -8.616993243962e-02
     6   -4.060681515873e-14
     7    1.331722470493e-14
     8   -8.005460086816e-15
     9   -1.441484821379e-01
    10   -9.028024031549e-14
    11   -4.346565204935e-14
    12   -9.713031385266e-14
    13   -1.650123109082e-01
    14    6.435637257381e-12
    15    1.067456735352e-12
    16    1.321113667146e-12
    17   -2.355131375574e-02
    18   -2.048934288922e-15
    19   -3.637977079615e-02
    20   -1.434056561641e-03
    21    5.907423723792e-15
    22   -8.201183224007e-17
    23    1.511279016403e-15
    24    1.346579504703e-13
    25   -1.013963853481e-14
    26    7.328738397866e-14
    27    3.316720219407e-15
    28    2.455292648372e-15
    29    1.563122335665e-02
    30   -1.349261285525e-15
    31   -9.239289936115e-15
    32   -6.865182582790e-14
    33    2.509861871158e-13
    34   -3.557663433310e-15
    35    3.741989155545e-15
    36   -6.697483168217e-03
    37   -1.157344918114e-15
    38   -1.198022169366e-13
    39    1.387976885308e-13
    40    1.003541406287e-13
    41   -1.003329944992e-14
    42    9.262667487140e-15
    43   -2.333260061142e-04
    44    3.097797963880e-16
    45    1.005973321842e-15
    46    4.063609718484e-15
    47   -2.972169343659e-15
    48    8.714854550416e-03
    49   -5.293601952139e-15
    50    1.028816774501e-14
    51   -4.242146601279e-15
    52    1.955208382041e-02
    53    1.757691654281e-14
    54   -1.063253890260e-13
    55   -2.751746131951e-13
    56   -1.289257465753e-02
    57   -1.100720020526e-12
    58   -1.865588688632e-13
    59    2.183520134630e-13
    60   -2.687679890142e-02
    61    2.458586721428e-14
    62    1.886316391585e-02
    63   -3.373496878204e-02
    64    2.118396854485e-15
    65    1.208243829915e-14
    66   -1.147548290585e-16
    67    3.232479231266e-15
    68    1.968420550991e-15
    69   -4.795671304242e-16
    70   -9.670691332930e-02
    71   -2.218887612879e-14
    72    3.085437034677e-15
    73   -5.078588953119e-15
    74   -1.475668290886e-01
    75    8.178177413246e-14
    76    5.507392164588e-14
    77    3.048756543149e-14
    78   -1.492705292035e-01
    79    2.743120827568e-15
    80   -1.962791887220e-14
    81   -7.772115014583e-15
    82   -2.840061783231e-02
    83    3.627494817205e-15
    84   -5.206239476910e-03
    85    2.440848842087e-03
    86   -2.278104179643e-15
    87    3.375664398348e-16
    88    3.917412204408e-16
    89    4.080350992712e-15
    90    6.771878121192e-15
    91   -4.395591852389e-15
    92    1.215120340007e-03
    93   -1.548251578233e-14
    94   -1.224082180795e-14
    95    1.388492656108e-14
    96   -4.929368917014e-04
    97   -3.371782445379e-14
    98   -1.793945439912e-13
    99   -1.100636812758e-13
   100    1.465145108346e-02
   101    3.610231615288e-12
   102   -5.664735938048e-13
   103   -6.342588359159e-13
   104    3.267949000905e-02
   105    8.647150703123e-15
   106    2.110563947778e-02
   107    2.972813921255e-02
   108   -1.736183007493e-15
   109   -2.682799418344e-15
   110   -5.428963887687e-16
   111    1.265672230937e-15
   112    2.667786752105e-15
   113    1.752958612459e-16
   114    9.817269336005e-02
   115   -1.325519248569e-14
   116    6.885054807958e-15
   117    1.733468452993e-15
   118    1.495142470203e-01
   119    1.201787481174e-13
   120   -4.696765475824e-14
   121   -2.983153850871e-14
   122    1.506174946559e-01
   123    1.291983274943e-13
   124   -8.692891802396e-14
   125    2.022277015973e-14
   126    3.028884908648e-02
   127   -8.237433405621e-16
   128   -5.724480112318e-03
   129   -2.825729549525e-03
   130    1.227959191489e-15
   131   -5.331418671102e-16
   132   -3.054974782351e-16
   133   -3.312692196038e-15
   134    1.065310552255e-15
   135   -4.390213458048e-15
   136   -1.622149869521e-03
   137    9.440675567114e-15
   138    1.878112330712e-15
   139   -3.276746775877e-14
   140   -2.369951113588e-03
   141    1.127510521638e-13
   142   -7.072114638192e-14
   143    2.365267816295e-13
   144   -2.572474398832e-03
   145   -2.241258274917e-13
   146   -3.008405370244e-13
   147   -3.137618224244e-13
   148   -6.464089576059e-03
   149    3.633091871157e-15
   150   -2.108445559219e-04
   151    2.301625445653e-04
   152    1.394276340572e-16
   153    2.822871524226e-15
   154   -1.207227938385e-15
   155   -2.116378865894e-15
   156   -3.815674609075e-15
   157   -1.783963027808e-15
   158    1.572294298023e-01
   159    2.401725879479e-14
   160   -2.711993652945e-14
   161    3.510013242043e-15
   162    2.481787668699e-01
   163   -1.785849887977e-13
   164    2.385221925915e-13
   165   -2.905834376076e-14
   166    3.097037471285e-01
   167   -4.300796843305e-13
   168   -1.803541896731e-13
   169   -4.936463503101e-14
   170    9.877449802964e-02
   171    7.092431891460e-15
   172   -4.695456546642e-03
   173    5.811288376865e-03
   174   -2.263438350600e-15
   175   -3.597695873060e-15
   176   -1.266027468192e-15
   177    4.613051785957e-15
   178    2.829556170732e-15
   179   -3.087026920041e-15
   180   -1.487711605583e-01
   181   -4.811151880666e-14
   182    7.763369226585e-15
   183   -6.656070342281e-15
   184   -2.470311033947e-01
   185    2.551900127120e-13
   186    2.097873015458e-14
   187   -2.807477114217e-14
   188   -2.617150045648e-01
   189   -8.331880013209e-12
   190    2.104411067555e-12
   191   -6.544913414861e-13
   192   -4.786535021864e-02
   193   -1.328948463293e-14
   194    1.463874169258e-02
   195    1.985626323597e-03
   196   -3.466161587092e-15
   197   -8.761544072515e-15
   198    5.783829823112e-15
   199   -4.011397447571e-14
   200   -1.100680916808e-13
   201   -6.310544774371e-13
   202    1.414525064812e-14
   203    1.671098071588e-15
   204   -1.201148463053e-02
Sym=X
Ene= 0.845731
Spin=Alpha
Occup=0
     1    8.542687540475e-03
     2    1.453201525457e-02
     3    7.737072423184e-03
     4    3.688045596077e-02
     5   -9.779145206310e-15
     6   -2.806871177775e-02
     7    6.578093901534e-03
     8    5.666252709158e-02
     9   -4.654691354275e-14
    10   -4.535301304087e-01
    11    1.925458040826e-02
    12   -3.231422245987e-02
    13   -1.132352420636e-15
    14   -4.057835451854e+00
    15   -3.823097371334e-01
    16   -1.637832900799e-01
    17    1.194213733534e-12
    18   -1.605583865440e-02
    19    5.530717789567e-15
    20   -4.468082713495e-15
    21   -1.402026288899e-02
    22    1.744891313375e-03
    23    1.044397996200e-02
    24    9.076467347415e-02
    25    2.293210634026e-01
    26    6.622493317023e-01
    27    2.521380925877e-03
    28   -3.002059228514e-03
    29    2.254849681439e-14
    30    1.668527950729e-02
    31    3.223542010772e-02
    32    3.858333914228e-01
    33    1.446032502030e+00
    34   -4.018382561249e-03
    35   -1.156136878098e-02
    36    3.474878391409e-14
    37    4.380293570531e-03
    38    3.795568665681e-02
    39   -2.589646034680e-01
    40   -8.522345291491e-01
    41    2.676197226711e-04
    42   -1.281727468553e-02
    43    4.224300289832e-15
    44    1.196095804923e-03
    45    1.226847991071e-03
    46    1.532886153855e-03
    47   -9.545031836233e-04
    48   -2.953814542917e-14
    49    2.643969223454e-02
    50    1.200225895078e-03
    51   -2.574152821162e-03
    52   -1.652461869345e-13
    53   -3.182620023809e-01
    54   -2.204184921145e-02
    55    7.511699790284e-02
    56    8.169307190689e-14
    57   -1.439488131586e+00
    58    1.005003605610e-01
    59    4.569069715850e-01
    60   -1.039851915302e-12
    61   -2.081264482814e-02
    62   -3.302044038406e-14
    63   -1.516703936444e-14
    64   -3.485980454407e-03
    65   -7.016200105864e-03
    66   -8.928385799781e-03
    67   -1.545398513169e-02
    68    1.253438205370e-02
    69    1.688588535959e-03
    70    6.351513078713e-14
    71    5.259932578827e-02
    72    1.540114683470e-02
    73    4.253757268912e-03
    74    1.207096426874e-13
    75    6.239844814564e-02
    76    4.132330302189e-02
    77   -1.522140293316e-02
    78   -1.358980813727e-13
    79    4.487496892948e-01
    80    2.277699001588e-02
    81   -5.616308773439e-02
    82    6.041081129782e-13
    83   -2.280333927167e-03
    84   -9.335636921688e-17
    85   -1.111494564707e-15
    86    9.453986801190e-04
    87   -7.130261865749e-04
    88    9.241839751763e-04
    89    1.152572047455e-03
    90    1.123292485381e-03
    91   -5.459533690703e-03
    92    6.737458138685e-14
    93    1.748245531578e-02
    94    2.092407873632e-03
    95   -3.717720580584e-03
    96    8.081324154891e-14
    97   -2.345572289323e-01
    98    4.374005782547e-02
    99   -2.319126632421e-02
   100    4.174134227296e-13
   101   -2.447703111219e+00
   102    4.399544385925e-02
   103    5.311174454150e-01
   104    2.286765723027e-12
   105   -1.960460611517e-02
   106   -8.690823958676e-15
   107   -2.194133508049e-14
   108   -3.433111172848e-03
   109    2.477040124626e-03
   110   -9.268725678827e-03
   111   -1.600351966320e-02
   112   -5.952735454462e-03
   113    2.841779349598e-03
   114   -6.990001732768e-15
   115    5.344813642729e-02
   116   -4.573935301280e-03
   117    4.657482438101e-03
   118   -1.779235341602e-14
   119    7.920645658379e-02
   120   -3.964208595365e-02
   121   -3.485788378122e-03
   122   -4.892980640212e-14
   123    3.427849013145e-01
   124    3.356040401090e-02
   125   -4.338285606023e-02
   126   -1.048443476249e-12
   127   -2.178561082288e-03
   128   -2.579588396197e-15
   129   -2.502263073156e-15
   130    4.493992087390e-04
   131    8.703953789709e-04
   132   -1.547422011998e-02
   133   -2.671732163328e-02
   134    2.920990507988e-03
   135    1.878023348190e-02
   136   -6.056951916535e-15
   137    8.357239968065e-02
   138    3.034312712616e-03
   139    3.123374513242e-02
   140   -4.888732544647e-14
   141    2.757825977862e-01
   142    1.628669207030e-02
   143   -4.589370349476e-02
   144   -3.444440018516e-14