[Molden Format]
[Atoms] (Angs)
  C      1    6     -0.00714236     -1.70213747     -0.00000000
  H      2    1     -2.06882847     -1.44022412      0.00000000
  H      3    1     -0.12337987     -2.77567521      0.00000000
  H      4    1      0.04651892      1.98813947     -0.00000000
  C      5    6     -1.21953563      0.40211669      0.00000000
  O      6    8     -2.25921553      1.03043814      0.00000000
  C      7    6      1.28797806      0.34644937     -0.00000000
  O      8    8      2.31273661      1.00537216     -0.00000000
  N      9    7      0.03446295      0.97739857     -0.00000000
  N     10    7     -1.17287765     -0.98229824      0.00000000
  C     11    6      1.20107039     -1.10433419     -0.00000000
  H     12    1      2.11220096     -1.67699125     -0.00000000
[GTO]
1    0
S    6    1.000000
   4.56324000E+03    1.96665000E-03 
   6.82024000E+02    1.52306000E-02 
   1.54973000E+02    7.61269000E-02 
   4.44553000E+01    2.60801000E-01 
   1.30290000E+01    6.16462000E-01 
   1.82773000E+00    2.21006000E-01 
SP   3    1.000000
   2.09642000E+01    1.14660000E-01   4.02487000E-02 
   4.80331000E+00    9.19999000E-01   2.37594000E-01 
   1.45933000E+00   -3.03068000E-03   8.15854000E-01 
SP   1    1.000000
   4.83456000E-01    1.00000000E+00   1.00000000E+00 
SP   1    1.000000
   1.45585000E-01    1.00000000E+00   1.00000000E+00 
SP   1    1.000000
   4.38000000E-02    1.00000000E+00   1.00000000E+00 
D    1    1.000000
   6.26000000E-01    1.00000000E+00 

2    0
S    3    1.000000
   3.38650000E+01    2.54938000E-02 
   5.09479000E+00    1.90373000E-01 
   1.15879000E+00    8.52161000E-01 
S    1    1.000000
   3.25840000E-01    1.00000000E+00 
S    1    1.000000
   1.02741000E-01    1.00000000E+00 
S    1    1.000000
   3.60000000E-02    1.00000000E+00 
P    1    1.000000
   7.50000000E-01    1.00000000E+00 

3    0
S    3    1.000000
   3.38650000E+01    2.54938000E-02 
   5.09479000E+00    1.90373000E-01 
   1.15879000E+00    8.52161000E-01 
S    1    1.000000
   3.25840000E-01    1.00000000E+00 
S    1    1.000000
   1.02741000E-01    1.00000000E+00 
S    1    1.000000
   3.60000000E-02    1.00000000E+00 
P    1    1.000000
   7.50000000E-01    1.00000000E+00 

4    0
S    3    1.000000
   3.38650000E+01    2.54938000E-02 
   5.09479000E+00    1.90373000E-01 
   1.15879000E+00    8.52161000E-01 
S    1    1.000000
   3.25840000E-01    1.00000000E+00 
S    1    1.000000
   1.02741000E-01    1.00000000E+00 
S    1    1.000000
   3.60000000E-02    1.00000000E+00 
P    1    1.000000
   7.50000000E-01    1.00000000E+00 

5    0
S    6    1.000000
   4.56324000E+03    1.96665000E-03 
   6.82024000E+02    1.52306000E-02 
   1.54973000E+02    7.61269000E-02 
   4.44553000E+01    2.60801000E-01 
   1.30290000E+01    6.16462000E-01 
   1.82773000E+00    2.21006000E-01 
SP   3    1.000000
   2.09642000E+01    1.14660000E-01   4.02487000E-02 
   4.80331000E+00    9.19999000E-01   2.37594000E-01 
   1.45933000E+00   -3.03068000E-03   8.15854000E-01 
SP   1    1.000000
   4.83456000E-01    1.00000000E+00   1.00000000E+00 
SP   1    1.000000
   1.45585000E-01    1.00000000E+00   1.00000000E+00 
SP   1    1.000000
   4.38000000E-02    1.00000000E+00   1.00000000E+00 
D    1    1.000000
   6.26000000E-01    1.00000000E+00 

6    0
S    6    1.000000
   8.58850000E+03    1.89515000E-03 
   1.29723000E+03    1.43859000E-02 
   2.99296000E+02    7.07320000E-02 
   8.73771000E+01    2.40001000E-01 
   2.56789000E+01    5.94797000E-01 
   3.74004000E+00    2.80802000E-01 
SP   3    1.000000
   4.21175000E+01    1.13889000E-01   3.65114000E-02 
   9.62837000E+00    9.20811000E-01   2.37153000E-01 
   2.85332000E+00   -3.27447000E-03   8.19702000E-01 
SP   1    1.000000
   9.05661000E-01    1.00000000E+00   1.00000000E+00 
SP   1    1.000000
   2.55611000E-01    1.00000000E+00   1.00000000E+00 
SP   1    1.000000
   8.45000000E-02    1.00000000E+00   1.00000000E+00 
D    1    1.000000
   1.29200000E+00    1.00000000E+00 

7    0
S    6    1.000000
   4.56324000E+03    1.96665000E-03 
   6.82024000E+02    1.52306000E-02 
   1.54973000E+02    7.61269000E-02 
   4.44553000E+01    2.60801000E-01 
   1.30290000E+01    6.16462000E-01 
   1.82773000E+00    2.21006000E-01 
SP   3    1.000000
   2.09642000E+01    1.14660000E-01   4.02487000E-02 
   4.80331000E+00    9.19999000E-01   2.37594000E-01 
   1.45933000E+00   -3.03068000E-03   8.15854000E-01 
SP   1    1.000000
   4.83456000E-01    1.00000000E+00   1.00000000E+00 
SP   1    1.000000
   1.45585000E-01    1.00000000E+00   1.00000000E+00 
SP   1    1.000000
   4.38000000E-02    1.00000000E+00   1.00000000E+00 
D    1    1.000000
   6.26000000E-01    1.00000000E+00 

8    0
S    6    1.000000
   8.58850000E+03    1.89515000E-03 
   1.29723000E+03    1.43859000E-02 
   2.99296000E+02    7.07320000E-02 
   8.73771000E+01    2.40001000E-01 
   2.56789000E+01    5.94797000E-01 
   3.74004000E+00    2.80802000E-01 
SP   3    1.000000
   4.21175000E+01    1.13889000E-01   3.65114000E-02 
   9.62837000E+00    9.20811000E-01   2.37153000E-01 
   2.85332000E+00   -3.27447000E-03   8.19702000E-01 
SP   1    1.000000
   9.05661000E-01    1.00000000E+00   1.00000000E+00 
SP   1    1.000000
   2.55611000E-01    1.00000000E+00   1.00000000E+00 
SP   1    1.000000
   8.45000000E-02    1.00000000E+00   1.00000000E+00 
D    1    1.000000
   1.29200000E+00    1.00000000E+00 

9    0
S    6    1.000000
   6.29348000E+03    1.96979000E-03 
   9.49044000E+02    1.49613000E-02 
   2.18776000E+02    7.35006000E-02 
   6.36916000E+01    2.48937000E-01 
   1.88282000E+01    6.02460000E-01 
   2.72023000E+00    2.56202000E-01 
SP   3    1.000000
   3.06331000E+01    1.11906000E-01   3.83119000E-02 
   7.02614000E+00    9.21666000E-01   2.37403000E-01 
   2.11205000E+00   -2.56919000E-03   8.17592000E-01 
SP   1    1.000000
   6.84009000E-01    1.00000000E+00   1.00000000E+00 
SP   1    1.000000
   2.00878000E-01    1.00000000E+00   1.00000000E+00 
SP   1    1.000000
   6.39000000E-02    1.00000000E+00   1.00000000E+00 
D    1    1.000000
   9.13000000E-01    1.00000000E+00 

10    0
S    6    1.000000
   6.29348000E+03    1.96979000E-03 
   9.49044000E+02    1.49613000E-02 
   2.18776000E+02    7.35006000E-02 
   6.36916000E+01    2.48937000E-01 
   1.88282000E+01    6.02460000E-01 
   2.72023000E+00    2.56202000E-01 
SP   3    1.000000
   3.06331000E+01    1.11906000E-01   3.83119000E-02 
   7.02614000E+00    9.21666000E-01   2.37403000E-01 
   2.11205000E+00   -2.56919000E-03   8.17592000E-01 
SP   1    1.000000
   6.84009000E-01    1.00000000E+00   1.00000000E+00 
SP   1    1.000000
   2.00878000E-01    1.00000000E+00   1.00000000E+00 
SP   1    1.000000
   6.39000000E-02    1.00000000E+00   1.00000000E+00 
D    1    1.000000
   9.13000000E-01    1.00000000E+00 

11    0
S    6    1.000000
   4.56324000E+03    1.96665000E-03 
   6.82024000E+02    1.52306000E-02 
   1.54973000E+02    7.61269000E-02 
   4.44553000E+01    2.60801000E-01 
   1.30290000E+01    6.16462000E-01 
   1.82773000E+00    2.21006000E-01 
SP   3    1.000000
   2.09642000E+01    1.14660000E-01   4.02487000E-02 
   4.80331000E+00    9.19999000E-01   2.37594000E-01 
   1.45933000E+00   -3.03068000E-03   8.15854000E-01 
SP   1    1.000000
   4.83456000E-01    1.00000000E+00   1.00000000E+00 
SP   1    1.000000
   1.45585000E-01    1.00000000E+00   1.00000000E+00 
SP   1    1.000000
   4.38000000E-02    1.00000000E+00   1.00000000E+00 
D    1    1.000000
   6.26000000E-01    1.00000000E+00 

12    0
S    3    1.000000
   3.38650000E+01    2.54938000E-02 
   5.09479000E+00    1.90373000E-01 
   1.15879000E+00    8.52161000E-01 
S    1    1.000000
   3.25840000E-01    1.00000000E+00 
S    1    1.000000
   1.02741000E-01    1.00000000E+00 
S    1    1.000000
   3.60000000E-02    1.00000000E+00 
P    1    1.000000
   7.50000000E-01    1.00000000E+00 

[MO]
Sym=X
Ene= -0.006606
Spin=Alpha
Occup=1
     1    9.151126278921e-16
     2    1.467737455351e-15
     3   -5.463395940180e-16
     4   -1.713933059473e-15
     5   -1.242496032906e-01
     6   -1.737800728497e-14
     7    3.194921452512e-15
     8    1.265019242021e-14
     9   -2.058822323741e-01
    10    3.884644218806e-14
    11    5.136871450730e-14
    12   -6.694997193057e-14
    13   -1.446330646507e-01
    14   -9.772308082408e-12
    15   -1.897886601312e-12
    16   -2.227530140258e-12
    17   -2.129546012683e-02
    18   -6.553196606390e-15
    19    1.750993344442e-03
    20   -1.404853198979e-02
    21   -3.470923562213e-16
    22   -6.131382930328e-15
    23   -1.160137042044e-15
    24   -7.572003776838e-14
    25    2.689813218719e-14
    26   -1.052065589623e-13
    27   -1.690217824872e-14
    28    5.004664889209e-15
    29   -1.278626276980e-02
    30   -1.612081668069e-15
    31   -3.257904488494e-15
    32   -3.868262584232e-14
    33   -6.881716953308e-13
    34   -1.194434793184e-14
    35    1.789308498967e-15
    36   -9.515842692075e-03
    37   -6.523440306027e-15
    38    1.360493070548e-13
    39   -3.626981283061e-13
    40   -9.039754796956e-14
    41   -5.286463030054e-15
    42    1.430355317147e-15
    43   -2.085938711923e-03
    44    2.630762127295e-16
    45    3.437624443818e-16
    46    3.067567658307e-15
    47    1.212377491628e-15
    48    3.650245944844e-02
    49    1.045363783092e-14
    50    1.877524642038e-14
    51   -2.591044802974e-14
    52    6.245754477418e-02
    53   -1.019837980103e-13
    54    3.390473682501e-14
    55    2.484967215793e-13
    56    6.556085863107e-02
    57    1.714907787904e-12
    58    3.517351097047e-13
    59   -4.502426458197e-13
    60    1.110791892565e-02
    61    3.803612623566e-14
    62   -3.392868198406e-02
    63    2.967318151096e-02
    64    4.672949716987e-15
    65    1.732705634460e-14
    66    1.797962403359e-15
    67    4.289917659390e-15
    68    4.292439891755e-15
    69   -1.769380360115e-15
    70    1.406883450138e-01
    71   -3.818070648673e-14
    72    2.342597486821e-14
    73   -9.734142166035e-16
    74    2.156107505963e-01
    75    1.292748318236e-13
    76   -5.938387849563e-15
    77   -5.531659857892e-14
    78    2.018537355439e-01
    79   -4.622926966914e-13
    80   -1.609451415930e-13
    81    1.241762768846e-13
    82    3.251014557842e-02
    83    2.457730038285e-15
    84    9.931318653202e-03
    85   -6.617704713663e-03
    86   -9.299059166986e-16
    87   -1.679918934409e-15
    88   -2.835130522034e-16
    89    3.179430383805e-16
    90   -2.649887809645e-17
    91    1.945764625193e-15
    92    1.022704077427e-02
    93    3.840744819485e-15
    94    2.116035032754e-14
    95   -4.975295714209e-15
    96    1.708454737057e-02
    97   -2.856552294491e-13
    98    6.649802631731e-15
    99    1.442442555607e-13
   100    2.910450337217e-02
   101   -3.957699569448e-12
   102    1.026291348874e-12
   103    5.792788716173e-13
   104   -1.379857464251e-03
   105    7.851070641454e-15
   106    2.216547049300e-02
   107    1.638952494983e-02
   108   -1.374836381349e-14
   109    8.754931024822e-16
   110    2.695454530762e-16
   111    4.086317765313e-15
   112    3.680047142352e-16
   113   -2.460752260441e-15
   114    7.863997359302e-02
   115   -2.595025668932e-14
   116   -3.969895461249e-15
   117   -7.024126849133e-15
   118    1.202783032715e-01
   119    3.634862673922e-14
   120    7.484145518959e-15
   121   -7.513244007391e-15
   122    1.148529692381e-01
   123    7.597121414686e-14
   124   -6.810040662967e-14
   125   -1.031353308234e-13
   126    2.699303027860e-02
   127    1.480228130612e-15
   128   -4.755332253808e-03
   129   -3.237280115865e-03
   130    1.351269068814e-15
   131   -1.458316238750e-15
   132   -1.529237153906e-15
   133   -2.466554484453e-15
   134    1.713447366504e-16
   135    3.060410617520e-15
   136   -4.367454283234e-02
   137    2.194092854042e-14
   138    6.310869552921e-16
   139    1.895763758189e-14
   140   -6.596985996599e-02
   141   -7.886238988082e-14
   142    4.995071249833e-14
   143   -1.858060867913e-13
   144   -9.641390440238e-02
   145    3.613287306549e-13
   146    7.060762718804e-14
   147    6.034573343331e-13
   148   -2.302886831382e-02
   149    8.646520120647e-15
   150   -1.694294556205e-03
   151    1.565649002462e-03
   152    8.162789481182e-15
   153    9.636370335905e-16
   154   -9.875940734949e-17
   155    1.456405696171e-15
   156    4.079562488620e-15
   157    2.092169667507e-15
   158   -1.349055442597e-01
   159   -1.596836861705e-14
   160    1.325968982466e-14
   161    2.222124886160e-14
   162   -2.127254936784e-01
   163    2.281340812414e-13
   164   -1.195543060642e-13
   165   -2.160341306192e-14
   166   -2.051252748470e-01
   167    6.116951479972e-13
   168    2.698975392038e-13
   169    3.720107181596e-13
   170   -1.424602169853e-02
   171    2.805021807204e-15
   172   -7.839723036453e-03
   173    4.971296805513e-03
   174    2.909394640339e-15
   175   -1.924237471815e-15
   176    2.057499535328e-15
   177    4.079507619957e-15
   178   -3.542559964757e-16
   179    4.988812421194e-15
   180   -8.587613191992e-02
   181   -3.025173670930e-14
   182    1.936630551827e-14
   183   -8.609205949685e-15
   184   -1.436390370437e-01
   185    1.001312773541e-13
   186   -7.940943341880e-14
   187    1.711067482999e-13
   188   -1.214531687105e-01
   189    1.160056755273e-11
   190   -3.306156501213e-12
   191    3.874792281144e-13
   192    8.392366181880e-03
   193   -9.260565818897e-15
   194    1.584045327126e-02
   195    7.280623453651e-03
   196   -1.960352110270e-15
   197   -7.789636316021e-15
   198    6.473402255693e-15
   199   -1.271607417062e-14
   200    1.322832209721e-13
   201    9.318722426899e-13
   202    1.094501121228e-14
   203    1.108350966011e-14
   204   -6.046085387352e-03
Sym=X
Ene= -0.849862
Spin=Alpha
Occup=1
     1    1.835663435021e-15
     2    3.894815671121e-15
     3   -8.404530199096e-16
     4   -6.024888883172e-16
     5   -8.526755300192e-02
     6   -4.200904930391e-14
     7    1.416918686594e-14
     8   -8.654384304279e-15
     9   -1.429027703095e-01
    10   -9.082043798503e-14
    11   -4.689338186344e-14
    12   -1.007589608822e-13
    13   -1.649076254380e-01
    14    7.164659655935e-12
    15    1.317797646190e-12
    16    1.338693898698e-12
    17   -2.319983569806e-02
    18   -2.182084993791e-15
    19   -3.729539102646e-02
    20   -9.431675727011e-04
    21    6.116360431703e-15
    22    1.794685639491e-17
    23    4.544446805721e-16
    24    1.347590652622e-13
    25   -9.345167731904e-14
    26    8.076982725909e-14
    27    2.736480051906e-15
    28    2.454997770246e-15
    29    1.627356235330e-02
    30   -1.917242413434e-15
    31   -9.139162187810e-15
    32   -9.263233038641e-14
    33    2.326094154810e-13
    34   -3.205776310731e-15
    35    4.000180113818e-15
    36   -6.632222463721e-03
    37   -9.418778636140e-16
    38   -1.181747360940e-13
    39    1.654323106478e-13
    40    8.963655282782e-14
    41   -1.035988112209e-14
    42    8.907400348973e-15
    43    3.022153342731e-04
    44    3.705125392018e-16
    45    1.268710462564e-15
    46    4.251559220571e-15
    47   -2.525738419878e-15
    48    1.221439956839e-02
    49   -6.020284846919e-15
    50    1.083868785566e-14
    51   -3.605571815458e-15
    52    2.547888143513e-02
    53    1.013957550219e-14
    54   -1.094875861871e-13
    55   -2.550898950140e-13
    56   -1.058565996243e-02
    57   -1.165586637966e-12
    58   -2.004093570675e-13
    59    2.712066146081e-13
    60   -2.652783571801e-02
    61    2.485848578752e-14
    62    2.039078698402e-02
    63   -3.413531982822e-02
    64    1.996992337591e-15
    65    1.279659572797e-14
    66   -2.285650381325e-16
    67    3.015810413997e-15
    68    1.586518355770e-15
    69   -3.333673505365e-16
    70   -9.894253545094e-02
    71   -2.165924406850e-14
    72    2.771111608460e-15
    73   -5.390774169866e-15
    74   -1.509203814232e-01
    75    8.320306930577e-14
    76    5.391029323426e-14
    77    3.043040455388e-14
    78   -1.532844031188e-01
    79   -4.248853956145e-15
    80   -9.882219301392e-15
    81   -8.390881654444e-15
    82   -3.058983847397e-02
    83    3.505385935943e-15
    84   -5.060922957957e-03
    85    2.463146273267e-03
    86   -2.255677385569e-15
    87    3.133142959651e-16
    88   -1.033666106984e-16
    89    3.205108999093e-15
    90    6.590745770135e-15
    91   -4.577384280024e-15
    92   -6.365604891788e-03
    93   -1.271632127892e-14
    94   -1.350935877036e-14
    95    1.389666078216e-14
    96   -1.349169189914e-02
    97   -2.162364057646e-14
    98   -1.568672599802e-13
    99   -1.059071489384e-13
   100    4.815193874595e-03
   101    3.424498135331e-12
   102   -6.704590359863e-13
   103   -5.856864518121e-13
   104    3.079411477540e-02
   105    8.933371138586e-15
   106    1.767481143419e-02
   107    2.822066706168e-02
   108   -1.885823628812e-15
   109   -2.608454723200e-15
   110   -2.079439497188e-16
   111    1.612228946681e-15
   112    2.781059914700e-15
   113    1.917233256183e-16
   114    8.331122478734e-02
   115   -1.380245123419e-14
   116    7.883695642731e-15
   117    1.460153178438e-15
   118    1.266206862432e-01
   119    1.088340914616e-13
   120   -4.856115527356e-14
   121   -2.841759763007e-14
   122    1.299115895939e-01
   123    1.091296152575e-13
   124   -4.608644046751e-14
   125    3.673045932732e-14
   126    2.777372539406e-02
   127   -8.894173933074e-16
   128   -4.439216345688e-03
   129   -2.033297040229e-03
   130    1.403260553848e-15
   131   -4.610374044499e-16
   132   -3.678246408258e-16
   133   -3.297921565272e-15
   134    3.966172923696e-16
   135   -4.039049787081e-15
   136    5.386684643160e-03
   137    9.063750553084e-15
   138    3.648286174660e-16
   139   -3.085884856375e-14
   140    8.617438220368e-03
   141    1.214764963449e-13
   142   -7.002141351574e-14
   143    2.260539821617e-13
   144    1.121846466552e-02
   145   -2.461377069824e-13
   146   -2.576157586760e-13
   147   -3.629626898227e-13
   148   -2.950687651716e-03
   149    3.441115640392e-15
   150   -9.647051758067e-04
   151    1.368718119462e-04
   152    2.865356764136e-16
   153    2.723727572605e-15
   154   -1.306859757454e-15
   155   -2.309298154362e-15
   156   -3.701103117403e-15
   157   -1.259736128440e-15
   158    1.632294334786e-01
   159    2.283853830506e-14
   160   -2.661580494306e-14
   161    3.764571817959e-15
   162    2.576206162800e-01
   163   -1.558057815156e-13
   164    2.344462013489e-13
   165   -1.999344277292e-14
   166    3.189409336443e-01
   167   -3.137947689109e-13
   168   -2.849558548388e-13
   169   -9.890152401671e-14
   170    9.937584363488e-02
   171    7.270901937634e-15
   172   -4.677142481426e-03
   173    5.844212486947e-03
   174   -2.195884750589e-15
   175   -3.653005679816e-15
   176   -9.298668903443e-16
   177    5.290908272894e-15
   178    2.031413247292e-15
   179   -3.135621031290e-15
   180   -1.491915325572e-01
   181   -5.009080590131e-14
   182    8.827971716952e-15
   183   -5.665038771351e-15
   184   -2.476826164773e-01
   185    2.474412804141e-13
   186   -3.256860148518e-15
   187   -2.537223802047e-14
   188   -2.607500287006e-01
   189   -8.887533887190e-12
   190    2.271472293541e-12
   191   -3.932575450599e-13
   192   -4.787492269221e-02
   193   -1.383159257931e-14
   194    1.442494300369e-02
   195    1.651858991021e-03
   196   -3.690161455205e-15
   197   -9.137380883905e-15
   198    6.230769340122e-15
   199   -3.820264211521e-14
   200   -5.610112217214e-14
   201   -5.834130047764e-13
   202    1.448191846114e-14
   203    1.858698030726e-15
   204   -1.217429319245e-02
Sym=X
Ene= 0.849862
Spin=Alpha
Occup=0
     1   -1.563103154484e-02
     2   -2.748683362575e-02
     3    3.946585525089e-03
     4   -5.460200614029e-02
     5   -1.444781520424e-15
     6    9.540000576769e-02
     7    4.374427685332e-04
     8   -8.604449234752e-02
     9   -2.711569586765e-14
    10    2.611157189896e-01
    11    2.430428403574e-02
    12   -1.938570741092e-01
    13    1.137062065227e-13
    14    4.829786598274e-01
    15    1.370974373484e-01
    16   -1.152682451120e+00
    17   -9.206014148152e-13
    18   -7.447340829385e-03
    19   -4.087260851132e-15
    20    2.981234352413e-14
    21    2.004299851123e-02
    22   -3.937253737048e-03
    23   -1.527686750364e-02
    24   -7.274229193036e-02
    25   -3.908984507775e-01
    26   -8.093510016346e-01
    27    1.377972819626e-02
    28    1.045156988133e-02
    29   -1.386380314714e-14
    30    1.551553056467e-03
    31   -1.687662893625e-02
    32   -3.276505766079e-01
    33   -1.643582882565e+00
    34    5.422467281879e-03
    35    1.335474670374e-02
    36   -1.214491250548e-14
    37   -6.949176021535e-03
    38   -1.369291070811e-02
    39   -5.096473706855e-02
    40   -1.667234039267e-02
    41   -3.231093020062e-04
    42   -4.022587804095e-03
    43   -4.224982713680e-15
    44   -7.166798678254e-04
    45   -1.926028980178e-03
    46   -2.648941226690e-03
    47   -7.048187089827e-04
    48    5.398667692474e-14
    49    2.808058657754e-02
    50   -5.988252380005e-04
    51   -5.947117457908e-03
    52    5.463727670213e-14
    53   -1.204352829273e-01
    54   -6.472380766202e-02
    55    2.798728712569e-02
    56    2.394404737103e-13
    57    1.795078147266e-02
    58   -1.280760474217e-01
    59   -2.121114099637e-01
    60    2.029242020495e-12
    61   -7.834076600210e-03
    62    1.865379005736e-14
    63    4.970032057964e-15
    64   -7.221927249298e-04
    65    1.334584255239e-02
    66   -4.418791478048e-03
    67   -7.684889671133e-03
    68   -1.002703039586e-02
    69   -3.140287854095e-03
    70   -4.144185711252e-14
    71    2.573559735585e-02
    72   -1.251979514034e-02
    73   -4.947001138245e-03
    74   -1.205993830285e-13
    75    4.206413260414e-02
    76   -9.227198728548e-03
    77   -1.196456860892e-02
    78    1.547699917683e-13
    79   -5.252042227247e-02
    80   -4.395474841149e-02
    81    6.436545332071e-02
    82   -9.525325725721e-13
    83   -1.416180592256e-03
    84    4.145432088555e-15
    85    5.617330846501e-16
    86    2.755387500306e-04
    87   -1.827526181327e-03
    88   -5.204010470149e-03
    89   -9.339752814552e-03
    90   -1.056321450906e-05
    91   -1.510034494824e-02
    92   -1.998172939926e-14
    93    3.786862081445e-02
    94   -3.022351253191e-03
    95   -2.281787542911e-02
    96   -3.227182907009e-14
    97    2.859455679073e-02
    98    5.513068495185e-02
    99   -3.589449972511e-03
   100   -2.001981224240e-13
   101   -4.582164654259e-01
   102   -1.661756390281e-01
   103    4.308435655411e-02
   104   -2.668834714583e-12
   105   -3.475943207300e-03
   106    9.723044168113e-15
   107    1.085076376440e-14
   108   -1.505643415457e-03
   109   -5.298836136063e-03
   110   -1.379298769676e-03
   111   -2.434168662971e-03
   112    1.469045414721e-03
   113    9.685073902114e-03
   114   -3.799268185702e-15
   115    9.432081583655e-03
   116    2.532229489502e-03
   117    1.455488561932e-02
   118   -4.688363306170e-15
   119   -4.125543203773e-03
   120   -3.271133493676e-03
   121    1.760922273427e-02
   122   -4.376004340716e-14
   123    4.605319379281e-03
   124    4.455710244835e-02
   125    4.276324059215e-02
   126    1.052528312952e-12
   127   -5.478571526100e-04
   128    3.507371974940e-15
   129    4.286576527040e-15
   130   -2.077531183169e-04
   131    6.318652369838e-04
   132   -1.014397748791e-02
   133   -1.755604504268e-02
   134   -9.729246246969e-03
   135   -4.110920093756e-03
   136   -2.014119619770e-14
   137    5.617470252724e-02
   138   -1.489000542734e-02
   139   -8.232379391719e-03
   140   -5.411256563068e-14
   141    1.593550611915e-01
   142   -3.268769321166e-02
   143   -3.791589117561e-02
   144    6.767301549490e-14
   145    4.858457297380e-01
   146   -3.322105256710e-02
   147   -4.317648494203e-02
   148    4.788135274779e-14
   149   -1.927609172561e-03
   150   -6.933271536150e-15
   151    2.152274965747e-15
   152    2.745346251350e-03
   153   -9.591004922886e-04
   154   -2.188430208917e-02
   155   -3.786956631128e-02
   156   -3.867641423783e-02
   157   -2.384052246208e-02
   158   -8.667263384946e-15
   159    1.228020100215e-01
   160   -5.968444230352e-02
   161   -3.558596530572e-02
   162   -2.827851975208e-14
   163    3.496210287321e-01
   164   -8.860933769185e-02
   165   -4.417371949096e-02
   166    1.382699421484e-14
   167    8.102092982870e-01
   168   -2.098737894092e-01
   169    6.051224163344e-02
   170   -6.251657893222e-13
   171   -5.046295638042e-03
   172    1.146664965367e-14
   173    2.486991415490e-15
   174   -7.587040821518e-03
   175   -9.124480456965e-03
   176   -1.003507224568e-02
   177   -1.731559272639e-02
   178    1.323525788824e-02
   179   -9.937581660639e-03
   180    2.614018731231e-14
   181    5.443172688337e-02
   182    2.163759671169e-02
   183   -1.191850572136e-02
   184    3.579384702486e-14
   185    2.026730901381e-01
   186    4.006641961898e-03
   187    3.423735808507e-04
   188    9.284735083229e-14
   189    9.512151519099e-01
   190    1.500544933658e-01
   191    4.184365867697e-01
   192    1.782787789999e-12
   193   -5.157160836777e-03
   194    4.103711781153e-15
   195   -1.157800667848e-14
   196   -1.015121319091e-02
   197    1.088693098089e-02
   198   -7.626698345973e-03
   199   -2.439665705308e-02
   200   -9.736044303738e-02
   201   -3.547126272381e-01
   202   -5.153197353536e-03
   203    4.011074043175e-03
   204    2.789402474835e-14
Sym=X
Ene= 0.006606
Spin=Alpha
Occup=0
     1   -1.582895243161e-02
     2   -2.735574665730e-02
     3    6.832342191164e-03
     4   -7.049897399088e-02
     5   -4.910229196296e-16
     6    9.826824275756e-02
     7    2.596388759066e-02
     8   -1.120642869533e-01
     9   -3.923032124416e-14
    10    1.398019474452e-01
    11    1.643492155956e-01
    12   -1.830110696161e-01
    13   -3.580375763919e-14
    14    1.101622616912e-01
    15   -5.636447868918e-02
    16   -5.455798572095e-01
    17    8.244160730861e-13
    18   -1.135239241012e-03
    19    5.473628437372e-14
    20   -1.308775210918e-13
    21    1.515061808513e-02
    22   -2.767382358812e-02
    23    1.144279646773e-02
    24    8.029345144804e-02
    25    4.720756847177e-01
    26    7.317667654407e-01
    27   -2.507232571196e-02
    28   -1.119244475178e-02
    29    7.173415368926e-15
    30   -9.420176005231e-03
    31   -3.142659885376e-02
    32   -3.856155898082e-01
    33   -1.069655711096e+00
    34   -1.889973755724e-03
    35    2.012088627166e-02
    36   -6.742700087014e-14
    37    8.874482849027e-04
    38   -6.110199993570e-03
    39    1.049041376865e-02
    40    5.262374864265e-02
    41   -1.614237693248e-03
    42    1.623052891845e-03
    43    3.283806509017e-14
    44   -1.465723780404e-03
    45   -2.036675597501e-03
    46    7.813723243357e-03
    47   -3.995946088245e-03
    48    2.183012041558e-15
    49   -1.725933465036e-02
    50    1.471016752783e-02
    51   -7.060521301824e-03
    52    7.139733804160e-14
    53    1.025664780847e-01
    54    1.255896235867e-02
    55    1.870983815229e-02
    56   -2.143869672863e-13
    57    7.934523321569e-01
    58   -9.085711278872e-02
    59   -1.205089062828e-01
    60   -2.172417107426e-12
    61    1.875112150270e-02
    62   -4.903420610957e-15
    63   -1.059170112738e-14
    64   -4.434294540377e-03
    65   -1.929528580271e-02
    66    1.058250118918e-02
    67    1.820608432148e-02
    68    1.940791226541e-02
    69    1.319431609661e-02
    70   -5.510065577608e-14
    71   -5.998224348253e-02
    72    2.631595701582e-02
    73    2.065862987290e-02
    74    7.209764447964e-14
    75   -1.354523707398e-01
    76    1.126510814256e-02
    77    2.867552628215e-02
    78   -8.634875129673e-13
    79   -2.080407546379e-01
    80    4.786953688576e-02
    81    1.768770671072e-02
    82    2.263947850908e-12
    83    4.672158325474e-03
    84   -1.272657789027e-14
    85   -4.177379834725e-16
    86   -1.268504801418e-04
    87    3.251582092436e-03
    88   -5.610567544612e-03
    89   -1.028365169080e-02
    90    2.536206447169e-03
    91   -1.357415184199e-02
    92   -3.440268419495e-14
    93    4.639030085371e-02
    94    2.891369340125e-04
    95   -2.657099061781e-02
    96   -6.147491614307e-14
    97    1.105966365018e-01
    98    5.530821560702e-02
    99   -7.876679760677e-02
   100   -7.174637168230e-14
   101    7.530313523586e-01
   102   -2.368981107639e-01
   103   -2.924772926369e-01
   104    3.709523723550e-12
   105   -4.592473421243e-03
   106   -5.711872705588e-15
   107   -3.405310988486e-14
   108    1.367685637504e-04
   109   -1.333023485044e-02
   110   -1.930589417771e-03
   111   -3.383081124360e-03
   112    1.052724784369e-02
   113    7.936070079836e-03
   114    1.661805770449e-13
   115    1.277268626207e-02
   116    1.321757047272e-02
   117    1.081767526121e-02
   118    2.583127180649e-13
   119    2.411156244051e-02
   120    1.209145024246e-02
   121    1.627666209323e-02
   122    4.174601413112e-13
   123   -7.431244751366e-03
   124    4.950975572670e-02
   125    5.628583163188e-02
   126   -2.129914753486e-12
   127   -1.488688465092e-03
   128   -5.577124681173e-15
   129   -8.867738088560e-15
   130   -3.523592412492e-04
   131    1.128208392755e-03
   132    3.152677535767e-03
   133    5.187201507303e-03
   134    2.751775256214e-02
   135   -4.664424573194e-04
   136   -4.717214266290e-15
   137   -1.215745463761e-02
   138    3.850601943025e-02
   139   -4.316363104051e-03
   140   -6.693460937496e-14
   141   -4.681759766647e-02
   142    1.207512579026e-01
   143    2.005374708664e-02
   144    3.164580449736e-13