[Molden Format]
[Atoms] (Angs)
  C      1    6     -0.00714236     -1.70213747     -0.00000000
  H      2    1     -2.06882847     -1.44022412      0.00000000
  H      3    1     -0.12337987     -2.77567521      0.00000000
  H      4    1      0.04651892      1.98813947     -0.00000000
  C      5    6     -1.21953563      0.40211669      0.00000000
  O      6    8     -2.25921553      1.03043814      0.00000000
  C      7    6      1.28797806      0.34644937     -0.00000000
  O      8    8      2.31273661      1.00537216     -0.00000000
  N      9    7      0.03446295      0.97739857     -0.00000000
  N     10    7     -1.17287765     -0.98229824      0.00000000
  C     11    6      1.20107039     -1.10433419     -0.00000000
  H     12    1      2.11220096     -1.67699125     -0.00000000
[GTO]
1    0
S    6    1.000000
   4.56324000E+03    1.96665000E-03 
   6.82024000E+02    1.52306000E-02 
   1.54973000E+02    7.61269000E-02 
   4.44553000E+01    2.60801000E-01 
   1.30290000E+01    6.16462000E-01 
   1.82773000E+00    2.21006000E-01 
SP   3    1.000000
   2.09642000E+01    1.14660000E-01   4.02487000E-02 
   4.80331000E+00    9.19999000E-01   2.37594000E-01 
   1.45933000E+00   -3.03068000E-03   8.15854000E-01 
SP   1    1.000000
   4.83456000E-01    1.00000000E+00   1.00000000E+00 
SP   1    1.000000
   1.45585000E-01    1.00000000E+00   1.00000000E+00 
SP   1    1.000000
   4.38000000E-02    1.00000000E+00   1.00000000E+00 
D    1    1.000000
   6.26000000E-01    1.00000000E+00 

2    0
S    3    1.000000
   3.38650000E+01    2.54938000E-02 
   5.09479000E+00    1.90373000E-01 
   1.15879000E+00    8.52161000E-01 
S    1    1.000000
   3.25840000E-01    1.00000000E+00 
S    1    1.000000
   1.02741000E-01    1.00000000E+00 
S    1    1.000000
   3.60000000E-02    1.00000000E+00 
P    1    1.000000
   7.50000000E-01    1.00000000E+00 

3    0
S    3    1.000000
   3.38650000E+01    2.54938000E-02 
   5.09479000E+00    1.90373000E-01 
   1.15879000E+00    8.52161000E-01 
S    1    1.000000
   3.25840000E-01    1.00000000E+00 
S    1    1.000000
   1.02741000E-01    1.00000000E+00 
S    1    1.000000
   3.60000000E-02    1.00000000E+00 
P    1    1.000000
   7.50000000E-01    1.00000000E+00 

4    0
S    3    1.000000
   3.38650000E+01    2.54938000E-02 
   5.09479000E+00    1.90373000E-01 
   1.15879000E+00    8.52161000E-01 
S    1    1.000000
   3.25840000E-01    1.00000000E+00 
S    1    1.000000
   1.02741000E-01    1.00000000E+00 
S    1    1.000000
   3.60000000E-02    1.00000000E+00 
P    1    1.000000
   7.50000000E-01    1.00000000E+00 

5    0
S    6    1.000000
   4.56324000E+03    1.96665000E-03 
   6.82024000E+02    1.52306000E-02 
   1.54973000E+02    7.61269000E-02 
   4.44553000E+01    2.60801000E-01 
   1.30290000E+01    6.16462000E-01 
   1.82773000E+00    2.21006000E-01 
SP   3    1.000000
   2.09642000E+01    1.14660000E-01   4.02487000E-02 
   4.80331000E+00    9.19999000E-01   2.37594000E-01 
   1.45933000E+00   -3.03068000E-03   8.15854000E-01 
SP   1    1.000000
   4.83456000E-01    1.00000000E+00   1.00000000E+00 
SP   1    1.000000
   1.45585000E-01    1.00000000E+00   1.00000000E+00 
SP   1    1.000000
   4.38000000E-02    1.00000000E+00   1.00000000E+00 
D    1    1.000000
   6.26000000E-01    1.00000000E+00 

6    0
S    6    1.000000
   8.58850000E+03    1.89515000E-03 
   1.29723000E+03    1.43859000E-02 
   2.99296000E+02    7.07320000E-02 
   8.73771000E+01    2.40001000E-01 
   2.56789000E+01    5.94797000E-01 
   3.74004000E+00    2.80802000E-01 
SP   3    1.000000
   4.21175000E+01    1.13889000E-01   3.65114000E-02 
   9.62837000E+00    9.20811000E-01   2.37153000E-01 
   2.85332000E+00   -3.27447000E-03   8.19702000E-01 
SP   1    1.000000
   9.05661000E-01    1.00000000E+00   1.00000000E+00 
SP   1    1.000000
   2.55611000E-01    1.00000000E+00   1.00000000E+00 
SP   1    1.000000
   8.45000000E-02    1.00000000E+00   1.00000000E+00 
D    1    1.000000
   1.29200000E+00    1.00000000E+00 

7    0
S    6    1.000000
   4.56324000E+03    1.96665000E-03 
   6.82024000E+02    1.52306000E-02 
   1.54973000E+02    7.61269000E-02 
   4.44553000E+01    2.60801000E-01 
   1.30290000E+01    6.16462000E-01 
   1.82773000E+00    2.21006000E-01 
SP   3    1.000000
   2.09642000E+01    1.14660000E-01   4.02487000E-02 
   4.80331000E+00    9.19999000E-01   2.37594000E-01 
   1.45933000E+00   -3.03068000E-03   8.15854000E-01 
SP   1    1.000000
   4.83456000E-01    1.00000000E+00   1.00000000E+00 
SP   1    1.000000
   1.45585000E-01    1.00000000E+00   1.00000000E+00 
SP   1    1.000000
   4.38000000E-02    1.00000000E+00   1.00000000E+00 
D    1    1.000000
   6.26000000E-01    1.00000000E+00 

8    0
S    6    1.000000
   8.58850000E+03    1.89515000E-03 
   1.29723000E+03    1.43859000E-02 
   2.99296000E+02    7.07320000E-02 
   8.73771000E+01    2.40001000E-01 
   2.56789000E+01    5.94797000E-01 
   3.74004000E+00    2.80802000E-01 
SP   3    1.000000
   4.21175000E+01    1.13889000E-01   3.65114000E-02 
   9.62837000E+00    9.20811000E-01   2.37153000E-01 
   2.85332000E+00   -3.27447000E-03   8.19702000E-01 
SP   1    1.000000
   9.05661000E-01    1.00000000E+00   1.00000000E+00 
SP   1    1.000000
   2.55611000E-01    1.00000000E+00   1.00000000E+00 
SP   1    1.000000
   8.45000000E-02    1.00000000E+00   1.00000000E+00 
D    1    1.000000
   1.29200000E+00    1.00000000E+00 

9    0
S    6    1.000000
   6.29348000E+03    1.96979000E-03 
   9.49044000E+02    1.49613000E-02 
   2.18776000E+02    7.35006000E-02 
   6.36916000E+01    2.48937000E-01 
   1.88282000E+01    6.02460000E-01 
   2.72023000E+00    2.56202000E-01 
SP   3    1.000000
   3.06331000E+01    1.11906000E-01   3.83119000E-02 
   7.02614000E+00    9.21666000E-01   2.37403000E-01 
   2.11205000E+00   -2.56919000E-03   8.17592000E-01 
SP   1    1.000000
   6.84009000E-01    1.00000000E+00   1.00000000E+00 
SP   1    1.000000
   2.00878000E-01    1.00000000E+00   1.00000000E+00 
SP   1    1.000000
   6.39000000E-02    1.00000000E+00   1.00000000E+00 
D    1    1.000000
   9.13000000E-01    1.00000000E+00 

10    0
S    6    1.000000
   6.29348000E+03    1.96979000E-03 
   9.49044000E+02    1.49613000E-02 
   2.18776000E+02    7.35006000E-02 
   6.36916000E+01    2.48937000E-01 
   1.88282000E+01    6.02460000E-01 
   2.72023000E+00    2.56202000E-01 
SP   3    1.000000
   3.06331000E+01    1.11906000E-01   3.83119000E-02 
   7.02614000E+00    9.21666000E-01   2.37403000E-01 
   2.11205000E+00   -2.56919000E-03   8.17592000E-01 
SP   1    1.000000
   6.84009000E-01    1.00000000E+00   1.00000000E+00 
SP   1    1.000000
   2.00878000E-01    1.00000000E+00   1.00000000E+00 
SP   1    1.000000
   6.39000000E-02    1.00000000E+00   1.00000000E+00 
D    1    1.000000
   9.13000000E-01    1.00000000E+00 

11    0
S    6    1.000000
   4.56324000E+03    1.96665000E-03 
   6.82024000E+02    1.52306000E-02 
   1.54973000E+02    7.61269000E-02 
   4.44553000E+01    2.60801000E-01 
   1.30290000E+01    6.16462000E-01 
   1.82773000E+00    2.21006000E-01 
SP   3    1.000000
   2.09642000E+01    1.14660000E-01   4.02487000E-02 
   4.80331000E+00    9.19999000E-01   2.37594000E-01 
   1.45933000E+00   -3.03068000E-03   8.15854000E-01 
SP   1    1.000000
   4.83456000E-01    1.00000000E+00   1.00000000E+00 
SP   1    1.000000
   1.45585000E-01    1.00000000E+00   1.00000000E+00 
SP   1    1.000000
   4.38000000E-02    1.00000000E+00   1.00000000E+00 
D    1    1.000000
   6.26000000E-01    1.00000000E+00 

12    0
S    3    1.000000
   3.38650000E+01    2.54938000E-02 
   5.09479000E+00    1.90373000E-01 
   1.15879000E+00    8.52161000E-01 
S    1    1.000000
   3.25840000E-01    1.00000000E+00 
S    1    1.000000
   1.02741000E-01    1.00000000E+00 
S    1    1.000000
   3.60000000E-02    1.00000000E+00 
P    1    1.000000
   7.50000000E-01    1.00000000E+00 

[MO]
Sym=X
Ene= -0.002526
Spin=Alpha
Occup=1
     1    1.035641859453e-15
     2    4.182628852194e-15
     3    4.223417329479e-15
     4    6.657970878796e-16
     5   -1.255774798935e-01
     6   -3.191981258423e-14
     7    2.180882861838e-15
     8    2.023846180341e-14
     9   -2.095563631816e-01
    10    2.325531926732e-13
    11   -7.484561398331e-14
    12    2.390768214645e-13
    13   -1.506359064297e-01
    14   -6.157283190399e-12
    15   -1.218397453665e-12
    16   -1.117671356778e-12
    17   -2.050550370232e-02
    18   -1.042148130269e-14
    19    1.110143580723e-02
    20   -1.482286933575e-02
    21    8.749957104105e-15
    22   -1.131226120810e-14
    23   -2.188586585351e-15
    24   -1.467515387600e-13
    25    1.534380026628e-14
    26   -7.710689501121e-14
    27   -2.621252797484e-14
    28    6.270199625556e-15
    29   -1.380957106235e-02
    30   -5.825512780374e-15
    31    7.737607312114e-14
    32    6.360154490712e-14
    33   -2.327767436213e-13
    34   -9.533997763533e-15
    35    8.059842716141e-15
    36   -1.045928683735e-02
    37    5.867997031320e-16
    38    1.660968634274e-13
    39   -1.840112549122e-14
    40   -4.822032616714e-15
    41   -1.726358604320e-15
    42   -3.038329491133e-15
    43    8.459780748507e-03
    44   -1.634762778384e-15
    45   -4.325827868206e-15
    46    4.250031333544e-15
    47   -7.871384013938e-17
    48    4.849442597955e-02
    49    4.127905885119e-14
    50    2.168297210646e-14
    51   -2.800873954937e-14
    52    8.216574621318e-02
    53   -3.327860017077e-13
    54    1.538826222808e-13
    55    2.457210887004e-13
    56    7.284800661699e-02
    57    1.653414208865e-12
    58    3.972731345426e-13
    59   -4.455863050656e-13
    60    1.190444866616e-02
    61    4.882861250197e-14
    62   -6.346874505005e-03
    63    3.337316816650e-02
    64    3.259633675728e-15
    65    2.217623684409e-14
    66    2.897096985564e-15
    67    5.714523831100e-15
    68    4.559127796294e-15
    69    1.605880575512e-15
    70    8.650324723707e-02
    71   -4.619628301156e-14
    72    2.102491913575e-14
    73    4.453962885223e-16
    74    1.342637016141e-01
    75    1.814619668859e-13
    76    3.586046277236e-14
    77   -7.857095846091e-14
    78    1.250109218738e-01
    79   -1.476506821351e-13
    80   -9.703802377447e-14
    81    5.429402296675e-14
    82    1.111204931580e-02
    83    2.230546295532e-15
    84    7.857406617813e-03
    85   -4.520707286070e-03
    86   -5.905134176304e-16
    87   -2.249763728721e-15
    88    1.196842349971e-15
    89    3.025652084432e-15
    90    1.742915046357e-15
    91   -2.799153497808e-15
    92    1.755792742229e-02
    93    6.058055055046e-15
    94    8.561220885867e-15
    95   -7.276560318415e-15
    96    3.057019147020e-02
    97   -2.884648740306e-13
    98    1.644974570498e-13
    99    1.385916513360e-13
   100    2.099691620569e-02
   101   -2.840186565707e-12
   102    1.037883881749e-12
   103    3.884519316646e-13
   104   -9.504651934010e-04
   105    7.835662503324e-15
   106   -5.866146108171e-03
   107    1.566573407161e-02
   108   -1.672741770935e-14
   109    1.814411068809e-15
   110    4.273170707307e-16
   111    2.228058395637e-15
   112   -3.606540340740e-15
   113    8.399383428319e-16
   114    1.662530972671e-02
   115   -1.717047909140e-14
   116   -1.311463357577e-14
   117   -6.776136412594e-16
   118    2.573865109298e-02
   119   -5.152200340833e-15
   120    2.746075037739e-14
   121   -4.357826466733e-15
   122    2.232778353928e-02
   123   -3.754630927677e-14
   124   -1.505859140475e-13
   125   -6.655625543495e-14
   126    5.573222474593e-04
   127    1.986708834318e-15
   128   -1.860399231963e-03
   129   -9.088546700325e-04
   130    1.984253792569e-15
   131   -1.689805350792e-15
   132   -1.873471613193e-15
   133   -2.533962645895e-15
   134    7.689950226377e-15
   135    3.796580466462e-15
   136    9.139020133801e-02
   137    3.275839490179e-14
   138    1.065036215701e-14
   139    4.640421979494e-14
   140    1.483853877671e-01
   141   -1.617585695047e-13
   142    6.310114143574e-14
   143   -3.593269502699e-13
   144    1.442225148245e-01
   145    6.701567393125e-13
   146    6.724806096828e-14
   147    1.268886868829e-13
   148    1.816552949169e-02
   149    8.909466341273e-15
   150   -3.908008277247e-03
   151   -3.586318934598e-03
   152    8.698371182536e-15
   153    3.515208379813e-15
   154    1.008440176017e-15
   155    2.390389310362e-15
   156    6.483551539952e-15
   157    3.311435276241e-16
   158   -1.502009960978e-01
   159   -1.951806322885e-14
   160    2.915065067211e-14
   161    2.472887398936e-14
   162   -2.419054549646e-01
   163    1.683336630277e-13
   164   -3.580968994514e-13
   165   -1.474430382376e-14
   166   -2.467287674674e-01
   167   -1.775718258154e-13
   168    1.780678168907e-13
   169    1.036246469228e-13
   170   -2.772016605021e-02
   171    4.006534349344e-15
   172   -1.031088211206e-02
   173    6.915782332611e-03
   174    1.916185395158e-15
   175    8.425091229440e-16
   176    1.798293903671e-15
   177    4.514563483442e-15
   178    9.214840541820e-16
   179    4.765661358947e-15
   180   -9.310407010191e-02
   181   -3.943510280025e-14
   182    2.608509599258e-14
   183    2.481393621712e-14
   184   -1.579843736858e-01
   185    1.692578684132e-13
   186    5.554730570409e-14
   187   -7.297857291275e-14
   188   -1.235526897712e-01
   189    7.452160897383e-12
   190   -1.761951656649e-12
   191   -1.888758358567e-13
   192    4.706773061460e-03
   193   -1.484159243503e-14
   194    1.349972743821e-02
   195    6.924979506659e-03
   196   -2.674237207913e-15
   197   -1.079746090176e-14
   198    4.665402655095e-15
   199   -4.970737874332e-14
   200   -2.266005136491e-13
   201    1.011366049726e-13
   202    1.849875580628e-14
   203    1.577159305565e-14
   204   -5.903500876474e-03
Sym=X
Ene= -0.004206
Spin=Alpha
Occup=1
     1    7.230807431475e-16
     2    2.293761995941e-15
     3    3.807906060241e-15
     4   -2.052640935232e-15
     5   -1.254086725852e-02
     6   -3.440007111469e-14
     7    3.980303840150e-14
     8   -2.856523686430e-14
     9   -2.286780063634e-02
    10   -1.476813471690e-13
    11   -1.110737021448e-14
    12   -4.103818288082e-13
    13   -3.356494865225e-02
    14    4.532556986062e-12
    15    2.644845355955e-12
    16   -2.240005334848e-12
    17   -4.737891047632e-05
    18    2.270463866330e-15
    19   -1.708033118846e-02
    20    2.585904423340e-03
    21   -1.027908935889e-14
    22    1.233559311460e-14
    23   -1.857914165645e-14
    24    5.481630974199e-14
    25   -1.276303255384e-12
    26   -1.763241780956e-13
    27   -9.374836983937e-16
    28   -3.093739725524e-15
    29    7.888406864830e-03
    30   -1.000968108584e-14
    31   -1.156888715456e-13
    32   -6.400995579843e-13
    33   -1.414195888564e-12
    34    3.624868025916e-15
    35   -7.100253225165e-15
    36   -2.441659067640e-04
    37   -5.806021367588e-15
    38    1.378586342624e-14
    39    5.432793051597e-14
    40   -5.715539838681e-15
    41   -7.160411367220e-15
    42   -2.617798206683e-15
    43   -1.743399046423e-03
    44    2.518591552817e-15
    45    7.495051720172e-15
    46    1.780668653671e-15
    47    1.291811411993e-14
    48    1.017801054909e-01
    49   -2.340561314595e-14
    50    5.522332542324e-15
    51    2.209589494342e-14
    52    1.735667919416e-01
    53    6.736473556445e-14
    54   -3.696104473362e-13
    55    5.948155508180e-13
    56    1.054928903977e-01
    57   -1.860564172411e-13
    58   -4.382050223237e-13
    59    3.964404445281e-13
    60    2.180614302607e-02
    61   -1.257814890347e-14
    62   -2.523979256232e-02
    63    1.759049042820e-03
    64    1.044950940598e-15
    65   -3.293978501400e-16
    66   -1.921404812542e-15
    67   -3.861135006040e-15
    68   -6.138810966581e-15
    69   -1.278294673763e-15
    70    1.058612130928e-01
    71    1.488955736759e-14
    72    4.824502354503e-15
    73   -4.067105564299e-15
    74    1.616165917730e-01
    75   -1.185263114305e-13
    76   -1.397363481232e-13
    77    3.199095611185e-14
    78    1.364815019844e-01
    79   -7.623469402268e-13
    80    9.887957308603e-14
    81    1.640524064067e-13
    82   -1.747889771771e-04
    83   -1.720181667244e-15
    84    1.330589096309e-02
    85   -8.036198615052e-03
    86   -1.135545563542e-16
    87    1.371867389768e-15
    88   -1.022178905258e-14
    89   -1.826980892799e-14
    90   -6.433772351979e-15
    91   -5.606028297587e-16
    92   -1.327621115883e-01
    93    5.073154608254e-14
    94   -8.947513100313e-15
    95   -1.675009068574e-14
    96   -2.274271781549e-01
    97    4.119374353489e-14
    98    2.278905741072e-13
    99    6.136548571134e-14
   100   -1.473558883946e-01
   101   -5.675202773401e-12
   102   -1.376401837694e-12
   103    1.001885087266e-12
   104   -3.088309832557e-02
   105    1.796227052495e-15
   106   -3.111963081929e-02
   107   -1.836350143926e-02
   108    8.012361181830e-16
   109    1.213183005255e-15
   110    4.658519471385e-15
   111    7.250717513402e-15
   112    4.233513401974e-15
   113   -4.074694713475e-15
   114   -1.525860807269e-01
   115   -1.846263856392e-14
   116    3.071641583065e-14
   117   -1.310512172615e-14
   118   -2.331916676835e-01
   119   -1.217217988791e-13
   120   -9.555763090333e-14
   121    1.325441457229e-14
   122   -1.983553875573e-01
   123   -2.193170949507e-13
   124    8.293412424182e-13
   125    2.407283776441e-13
   126   -3.827420524732e-03
   127   -2.053889345710e-15
   128    1.829247054476e-02
   129    1.110724550792e-02
   130    2.137755084046e-15
   131    2.477083717824e-15
   132   -1.608996472201e-15
   133   -3.931474148535e-17
   134   -1.759974390349e-14
   135    7.952375650473e-15
   136   -1.687448367800e-02
   137   -2.887298895074e-14
   138   -3.468700094542e-14
   139    8.668579350208e-15
   140   -2.633922197245e-02
   141    3.298385803157e-13
   142    2.759252844512e-14
   143   -7.659624894102e-14
   144   -1.965117324648e-02
   145   -3.099853788065e-13
   146    9.356523802219e-13
   147   -2.279497581472e-13
   148    1.557730389161e-03
   149   -6.511758964468e-15
   150   -1.005474910676e-02
   151    6.753528145060e-04
   152    1.200620049931e-15
   153   -4.067190129418e-15
   154   -1.854858180982e-15
   155   -1.774844164272e-15
   156   -2.533289867584e-15
   157    1.209256847286e-14
   158    8.312725467710e-02
   159   -4.686990132557e-14
   160   -1.854327629527e-14
   161   -1.562461759017e-15
   162    1.346681137471e-01
   163    6.051575643359e-13
   164    2.195281022128e-13
   165    2.481498276430e-13
   166    1.300156781325e-01
   167    2.850382385841e-12
   168   -1.487150898005e-12
   169   -3.583855451077e-13
   170    7.890459128058e-03
   171    1.036541506459e-15
   172    1.264154513540e-04
   173    6.442952836616e-03
   174    2.769308935547e-15
   175   -2.731320398028e-15
   176    7.570587134588e-15
   177    1.221938560162e-14
   178   -1.732606576614e-14
   179    1.854536676647e-15
   180   -3.499826176512e-02
   181   -1.817745913406e-14
   182    5.592052901255e-15
   183   -1.227268570185e-14
   184   -5.670812387099e-02
   185   -2.320832206748e-13
   186   -5.540074887433e-13
   187    3.057359420207e-13
   188   -3.545367882162e-02
   189   -2.526088840827e-13
   190   -1.899683782888e-13
   191    5.160824431610e-12
   192    3.283641107194e-03
   193   -5.500625439792e-15
   194    2.268931165437e-03
   195   -7.359771130702e-03
   196   -2.968569407240e-15
   197   -5.989923730260e-15
   198    1.166964204532e-14
   199    6.963396951972e-14
   200    1.323892788251e-12
   201    1.966156170309e-12
   202   -3.176717660235e-15
   203   -1.887734282303e-15
   204   -3.812533629465e-03
Sym=X
Ene= -0.008734
Spin=Alpha
Occup=1
     1    9.489884878291e-03
     2    1.622395191444e-02
     3    3.600899518497e-03
     4   -3.235171614221e-02
     5    2.331171574111e-15
     6   -4.410532607482e-02
     7    6.777326392919e-03
     8   -5.376280658686e-02
     9   -2.309260550851e-15
    10   -1.036285510595e-01
    11   -1.094576530632e-02
    12   -7.302991949108e-02
    13    1.899272408506e-14
    14   -3.832907782280e-01
    15   -4.763396706770e-02
    16   -8.650613385802e-02
    17   -1.221611512428e-13
    18    1.059636255354e-03
    19    3.849681845953e-16
    20   -2.692922649969e-15
    21   -1.328459947225e-02
    22    5.611708884435e-03
    23    3.379122031156e-03
    24   -9.288267503461e-03
    25   -2.381884954465e-02
    26    3.638415298562e-02
    27   -9.419336726117e-04
    28   -1.158346822387e-04
    29   -4.611440323299e-15
    30    2.683220864445e-02
    31    4.597938436253e-02
    32    2.425241803060e-02
    33   -1.878538097114e-02
    34   -4.498253234527e-05
    35   -2.186107576033e-04
    36   -5.081145020470e-15
    37    8.765986139493e-03
    38    3.197424719110e-02
    39    4.018825998949e-02
    40   -6.511638421880e-02
    41   -6.912781147657e-04
    42   -2.598028615694e-03
    43    1.043067944791e-14
    44   -9.285238276868e-03
    45   -1.592874464675e-02
    46    1.012075894524e-02
    47    6.982455619475e-03
    48    5.164115940209e-15
    49    4.758627620617e-02
    50    1.390066485220e-02
    51    1.032003187309e-02
    52   -6.609699260257e-15
    53    7.898570185385e-02
    54    8.038038083487e-02
    55    1.093434004030e-01
    56    3.533825549809e-14
    57    1.018762371860e-01
    58    8.390844181468e-02
    59    8.890984717212e-02
    60    1.533998535251e-13
    61    3.073735482503e-05
    62   -5.232356518528e-15
    63   -7.023102722133e-15
    64   -5.427563905910e-02
    65   -1.966074872529e-02
    66    1.020798278859e-02
    67    1.712149072298e-02
    68    1.029367818285e-01
    69    1.538133265085e-01
    70    4.349480591326e-15
    71   -4.720646850836e-02
    72    1.577556709125e-01
    73    2.345544218911e-01
    74    3.363337855974e-15
    75   -6.144075406539e-02
    76    1.380991973570e-01
    77    2.247787100299e-01
    78    1.595657802262e-14
    79   -1.839499996969e-02
    80    8.928996748161e-03
    81    2.729052531746e-02
    82   -1.005357872364e-13
    83   -5.785116640548e-04
    84    2.830156036913e-16
    85   -1.011099579928e-15
    86    1.117799271374e-02
    87    4.558225904866e-03
    88   -7.619724276520e-03
    89   -1.320236093731e-02
    90   -3.033214377725e-02
    91   -1.922433476658e-02
    92   -3.170175860144e-15
    93    3.385961420095e-02
    94   -4.962074101470e-02
    95   -3.640709890349e-02
    96    1.180660927391e-15
    97    6.332881816521e-02
    98   -7.759599192972e-02
    99    3.791704002429e-02
   100   -3.484481805455e-14
   101   -2.535205826979e-01
   102   -9.560842083856e-03
   103    1.367346860031e-01
   104   -2.705421090793e-13
   105    9.155102615699e-04
   106    4.034177452420e-15
   107   -4.537562262347e-15
   108   -5.004169276678e-02
   109    1.820375686386e-02
   110   -4.945492927898e-03
   111   -8.205455109398e-03
   112   -6.928057469617e-02
   113    1.708886046473e-01
   114   -7.075140678160e-15
   115    2.082011219455e-02
   116   -1.069308541060e-01
   117    2.600125941873e-01
   118   -1.468623009147e-14
   119    4.178278892471e-02
   120   -1.155514531619e-01
   121    2.424232731238e-01
   122   -3.015323826226e-14
   123    3.486440960089e-02
   124   -2.030981512250e-02
   125    1.936920937097e-02
   126    1.711243573030e-13
   127    1.244263507870e-03
   128    2.055956651147e-15
   129    8.705253124795e-16
   130    8.538716420859e-03
   131   -7.180749166684e-03
   132    2.466581789572e-02
   133    4.143134019135e-02
   134   -1.687840373174e-03
   135    3.256710944974e-02
   136   -9.623713685096e-15
   137   -1.145010319060e-01
   138   -7.085127274072e-03
   139    3.787150735406e-02
   140   -2.367465077211e-14
   141   -2.941012195706e-01
   142    1.403562748484e-02
   143    6.593537582859e-02
   144    9.635113959713e-15
   145   -3.162077958416e-01
   146    3.085320111386e-02
   147    3.970249962209e-02
   148    4.920235635790e-15
   149   -3.614776026497e-03
   150    2.119124192761e-16
   151    3.731339074585e-15
   152    3.128002855447e-03
   153   -9.878267836838e-04
   154   -1.083429103373e-02
   155   -1.801204813308e-02
   156   -2.264190341771e-02
   157    5.163640669318e-02
   158    6.392718881815e-16
   159    4.657867719606e-02
   160   -3.879856859932e-02
   161    7.099487832973e-02
   162    1.157431258555e-15
   163    1.445283227596e-01
   164   -2.609228295591e-02
   165    8.989914422916e-02
   166   -8.549679376321e-15
   167    2.213299336063e-01
   168    1.862323410727e-02
   169    3.638559634310e-02
   170    2.751631551124e-14
   171    3.013051526996e-03
   172    7.666578779614e-16
   173    2.898738280838e-15
   174   -7.375682286621e-04
   175    1.935749357663e-03
   176   -9.369620550356e-03
   177   -1.572759762372e-02
   178    3.657663126232e-03
   179    5.588249707688e-02
   180   -3.159868776630e-16
   181    4.374948568499e-02
   182    7.024754119467e-03
   183    7.792000933637e-02
   184   -3.098653130380e-15
   185    1.425393369446e-01
   186   -2.316828259117e-02
   187    8.932775421288e-02
   188    1.923966000654e-15
   189    5.997335571676e-01
   190   -1.087689516776e-01
   191    6.106843853526e-02
   192    1.779305154430e-13
   193    2.226512863520e-04
   194    3.266479354122e-15
   195   -1.379587943020e-15
   196   -3.696239298534e-03
   197    1.608372870031e-04
   198   -1.447476482172e-02
   199   -2.527201281662e-02
   200   -3.376282571740e-03
   201    3.502778969443e-02
   202    2.051746606521e-03
   203   -3.208988483355e-04
   204   -6.540660844506e-15
Sym=X
Ene= -0.040970
Spin=Alpha
Occup=1
     1   -7.276927858152e-07
     2   -1.551637751425e-04
     3    3.090116325357e-02
     4   -6.572342250699e-03
     5    1.579995831541e-15
     6    1.834942757321e-03
     7    5.379975153106e-02
     8   -8.693566583000e-03
     9   -5.343770986758e-15
    10    3.183172618574e-02
    11    5.361997481803e-02
    12    2.696269465317e-02
    13    2.876284245810e-14
    14    3.028175564373e-01
    15    1.032198113641e-01
    16    8.634689351703e-02
    17   -9.931625376985e-14
    18    3.791822714168e-04
    19   -4.528543910179e-15
    20   -1.914789633627e-14
    21    9.641713088714e-04
    22   -2.210047797252e-03
    23    6.056604334485e-05
    24   -1.315885392198e-02
    25   -4.050796117314e-02
    26    2.372034860076e-02
    27   -9.757961949270e-04
    28   -1.290649173446e-03
    29   -4.972768750789e-15
    30    1.050754446459e-03
    31    9.141431569098e-03
    32    3.578785704694e-03
    33    4.105120981172e-02
    34    1.908112018624e-03
    35    1.564019661521e-03
    36   -2.025412521129e-14
    37   -9.011412650053e-03
    38   -1.337814016783e-02
    39    1.320312915277e-02
    40    1.128105422303e-02
    41   -6.122677399338e-04
    42   -2.975446236188e-05
    43    4.980734851412e-15
    44    3.730763822837e-03
    45    6.484632163200e-03
    46   -1.854923211050e-02
    47   -3.545134509192e-03
    48    5.402094717091e-15
    49   -1.752619625252e-02
    50   -3.427836021338e-02
    51   -1.014236181398e-02
    52    3.407770445961e-14
    53   -4.229159973695e-02
    54    3.285129216838e-02
    55    9.784907604007e-02
    56   -6.066676597009e-14
    57   -4.233356162718e-02
    58    4.478097461823e-02
    59    6.948092946282e-02
    60    1.108688253193e-13
    61    8.479237076174e-06
    62   -1.598000875406e-16
    63    1.088973386600e-15
    64   -4.893871719339e-02
    65   -3.279848453490e-02
    66    1.029026575757e-04
    67    1.546455756154e-04
    68    1.087253181238e-01
    69    1.537240988289e-01
    70    2.617946244265e-15
    71    2.527362573364e-04
    72    1.650784539872e-01
    73    2.355402610483e-01
    74    9.865659725590e-15
    75   -5.533816487698e-03
    76    1.561181249144e-01
    77    2.301123167220e-01
    78   -4.068649473451e-15
    79   -2.022668092311e-02
    80    8.486914037406e-03
    81    2.676830697208e-02
    82   -3.813264091660e-14
    83   -3.574302366394e-04
    84    7.478933946259e-16
    85   -1.199181615307e-15
    86    1.025583797542e-02
    87    4.205512810058e-03
    88   -1.217829693908e-03
    89   -1.935542953654e-03
    90   -1.650673004800e-02
    91    2.332091112534e-02
    92    4.795848934281e-15
    93    5.119824227492e-03
    94   -2.990275815886e-02
    95    4.770836683233e-02
    96    2.257688961701e-14
    97    2.068251763403e-02
    98    2.086224162438e-02
    99   -7.296588950697e-02
   100   -5.496357612720e-14
   101    2.838655690495e-01
   102    2.433053380418e-02
   103   -1.224417709974e-01
   104   -2.193970285755e-13
   105   -8.840173256294e-04
   106   -1.275989852445e-14
   107   -3.828308839651e-15
   108    5.052279484891e-02
   109   -3.023303354827e-02
   110    1.471893740661e-03
   111    2.396822893467e-03
   112    1.052564475628e-01
   113   -1.579295595462e-01
   114   -3.107495829801e-15
   115   -5.454978114779e-03
   116    1.598196951036e-01
   117   -2.417326266469e-01
   118    2.332621898537e-15
   119   -4.383742379016e-03
   120    1.597524453483e-01
   121   -2.371309769575e-01
   122   -1.507439448373e-14
   123    2.153147713152e-02
   124    3.905672016174e-03
   125   -2.991286831206e-02
   126    1.015672129776e-13
   127    3.624979849187e-04
   128    4.826256174500e-16
   129    5.699500819869e-16
   130   -8.716420408219e-03
   131    4.372247345330e-03
   132   -1.691747543108e-03
   133   -3.117159689082e-03
   134    9.130780064099e-02
   135   -1.207923805309e-02
   136   -5.796617322028e-15
   137    1.158177551668e-02
   138    1.316054985416e-01
   139   -1.991388992405e-02
   140   -4.881500047441e-15
   141    1.265633198194e-02
   142    1.661159451911e-01
   143   -2.242561601188e-02
   144    1.324749210734e-14