n-62-29-30 10.66.29
Q-Chem Developer Version! Running on 10.66.29.*
                  Welcome to Q-Chem
     A Quantum Leap Into The Future Of Chemistry


 Q-Chem 5.1, Q-Chem, Inc., Pleasanton, CA (2018)

 Yihan Shao,  Zhengting Gan,  E. Epifanovsky,  A. T. B. Gilbert,  M. Wormit,  
 J. Kussmann,  A. W. Lange,  A. Behn,  Jia Deng,  Xintian Feng,  D. Ghosh,  
 M. Goldey,  P. R. Horn,  L. D. Jacobson,  I. Kaliman,  T. Kus,  A. Landau,  
 Jie Liu,  E. I. Proynov,  R. M. Richard,  R. P. Steele,  E. J. Sundstrom,  
 H. L. Woodcock III,  P. M. Zimmerman,  D. Zuev,  B. Albrecht,  E. Alguire,  
 S. A. Baeppler,  D. Barton,  Z. Benda,  Y. A. Bernard,  E. J. Berquist,  
 K. B. Bravaya,  H. Burton,  D. Casanova,  Chun-Min Chang,  Yunqing Chen,  
 A. Chien,  K. D. Closser,  M. P. Coons,  S. Coriani,  S. Dasgupta,  
 A. L. Dempwolff,  M. Diedenhofen,  Hainam Do,  R. G. Edgar,  Po-Tung Fang,  
 S. Faraji,  S. Fatehi,  Qingguo Feng,  K. D. Fenk,  J. Fosso-Tande,  
 Qinghui Ge,  A. Ghysels,  G. Gidofalvi,  J. Gomes,  J. Gonthier,  A. Gunina,  
 M. W. D. Hanson-Heine,  P. H. P. Harbach,  A. W. Hauser,  J. E. Herr,  
 E. G. Hohenstein,  Z. C. Holden,  Kerwin Hui,  T.-C. Jagau,  Hyunjun Ji,  
 B. Kaduk,  K. Khistyaev,  Jaehoon Kim,  P. Klunzinger,  K. Koh,  
 D. Kosenkov,  L. Koulias,  T. Kowalczyk,  C. M. Krauter,  A. Kunitsa,  
 Ka Un Lao,  A. Laurent,  K. V. Lawler,  Joonho Lee,  D. Lefrancois,  
 S. Lehtola,  D. S. Levine,  Yi-Pei Li,  You-Sheng Lin,  Fenglai Liu,  
 E. Livshits,  A. Luenser,  P. Manohar,  E. Mansoor,  S. F. Manzer,  
 Shan-Ping Mao,  Yuezhi Mao,  N. Mardirossian,  A. V. Marenich,  
 T. Markovich,  L. A. Martinez-Martinez,  S. A. Maurer,  N. J. Mayhall,  
 S. C. McKenzie,  J.-M. Mewes,  A. F. Morrison,  J. W. Mullinax,  K. Nanda,  
 T. S. Nguyen-Beck,  R. Olivares-Amaya,  J. A. Parkhill,  T. M. Perrine,  
 F. Plasser,  P. Pokhilko,  S. Prager,  A. Prociuk,  E. Ramos,  D. R. Rehn,  
 F. Rob,  M. Schneider,  N. Sergueev,  S. M. Sharada,  S. Sharma,  
 D. W. Small,  T. Stauch,  T. Stein,  Yu-Chuan Su,  A. J. W. Thom,  
 A. Tkatchenko,  T. Tsuchimochi,  N. M. Tubman,  L. Vogt,  M. L. Vidal,  
 O. Vydrov,  M. A. Watson,  J. Wenzel,  M. de Wergifosse,  T. A. Wesolowski,  
 A. White,  J. Witte,  A. Yamada,  Jun Yang,  K. Yao,  S. Yeganeh,  
 S. R. Yost,  Zhi-Qiang You,  A. Zech,  Igor Ying Zhang,  Xing Zhang,  
 Yan Zhao,  Ying Zhu,  B. R. Brooks,  G. K. L. Chan,  C. J. Cramer,  
 M. S. Gordon,  W. J. Hehre,  A. Klamt,  M. W. Schmidt,  C. D. Sherrill,  
 D. G. Truhlar,  A. Aspuru-Guzik,  R. Baer,  A. T. Bell,  N. A. Besley,  
 Jeng-Da Chai,  R. A. DiStasio Jr.,  A. Dreuw,  B. D. Dunietz,  
 T. R. Furlani,  Chao-Ping Hsu,  Yousung Jung,  Jing Kong,  D. S. Lambrecht,  
 WanZhen Liang,  C. Ochsenfeld,  V. A. Rassolov,  L. V. Slipchenko,  
 J. E. Subotnik,  T. Van Voorhis,  J. M. Herbert,  A. I. Krylov,  
 P. M. W. Gill,  M. Head-Gordon

 Contributors to earlier versions of Q-Chem not listed above: 
 R. D. Adamson,  B. Austin,  J. Baker,  G. J. O. Beran,  K. Brandhorst,  
 S. T. Brown,  E. F. C. Byrd,  A. K. Chakraborty,  C.-L. Cheng,  
 Siu Hung Chien,  D. M. Chipman,  D. L. Crittenden,  H. Dachsel,  
 R. J. Doerksen,  A. D. Dutoi,  L. Fusti-Molnar,  W. A. Goddard III,  
 A. Golubeva-Zadorozhnaya,  S. R. Gwaltney,  G. Hawkins,  A. Heyden,  
 S. Hirata,  G. Kedziora,  F. J. Keil,  C. Kelley,  Jihan Kim,  R. A. King,  
 R. Z. Khaliullin,  P. P. Korambath,  W. Kurlancheek,  A. M. Lee,  M. S. Lee,  
 S. V. Levchenko,  Ching Yeh Lin,  D. Liotard,  R. C. Lochan,  I. Lotan,  
 P. E. Maslen,  N. Nair,  D. P. O'Neill,  D. Neuhauser,  E. Neuscamman,  
 C. M. Oana,  R. Olson,  B. Peters,  R. Peverati,  P. A. Pieniazek,  
 Y. M. Rhee,  J. Ritchie,  M. A. Rohrdanz,  E. Rosta,  N. J. Russ,  
 H. F. Schaefer III,  N. E. Schultz,  N. Shenvi,  A. C. Simmonett,  A. Sodt,  
 D. Stuck,  K. S. Thanthiriwatte,  V. Vanovschi,  Tao Wang,  A. Warshel,  
 C. F. Williams,  Q. Wu,  X. Xu,  W. Zhang

 Please cite Q-Chem as follows:
 Y. Shao et al., Mol. Phys. 113, 184-215 (2015)
 DOI: 10.1080/00268976.2014.952696

 Q-Chem 5.1.0 for Intel X86 EM64T Linux

 Parts of Q-Chem use Armadillo 8.300.2 (Tropical Shenanigans).
 http://arma.sourceforge.net/

 Q-Chem begins on Thu Sep 20 16:17:43 2018  

Host: 
0

     Scratch files written to /work1/malop/qc_7247416.hnode2//

Checking the input file for inconsistencies... 	...done.

--------------------------------------------------------------
User input:
--------------------------------------------------------------
$comment 
URACIL Sn N-edge
optimizion: mp2/cc-pvtz
$end

$molecule
0 1
C        0.052842   -1.701332    0.000000    
H       -2.016793   -1.512231    0.000000    
H       -0.025494   -2.778299    0.000000    
H       -0.023568    1.988544    0.000000    
C       -1.232948    0.358893    0.000000    
O       -2.294123    0.950188    0.000000    
C        1.274970    0.391620    0.000000    
O        2.275873    1.086244    0.000000    
N        0.000000    0.978006    0.000000    
N       -1.137535   -1.023018    0.000000    
C        1.239239   -1.061325    0.000000    
H        2.169983   -1.601520    0.000000    
$end

$rem
    jobtype = sp
    method = eom-ccsd
    ee_singlets    [3,3]
    cvs_ee_singlets    [8,10]
    basis = 6-311++G**
    n_frozen_core = 4
    cc_trans_prop = 2
   eom_preconv_singles = true
   use_libqints = 1   !use new int library (will be def in trunk)
   thresh = 14   !this already should be default, but just in case
   scf_convergence = 12   !v. tight scf convergence, to reduce noise
   cc_convergence = 12   !tight CC, for the same reason
   basis_lin_dep_thresh = 8  !default is 6, use smaller, just in case
   cc_memory = 100000
   EOM_DAVIDSON_MAX_ITER 200
   EOM_DAVIDSON_MAXVECTORS = 1000
   eom_davidson_convergence = 4 
$end
--------------------------------------------------------------
 ----------------------------------------------------------------
             Standard Nuclear Orientation (Angstroms)
    I     Atom           X                Y                Z
 ----------------------------------------------------------------
    1      C      -0.0071423615    -1.7021374661    -0.0000000000
    2      H      -2.0688284730    -1.4402241233     0.0000000000
    3      H      -0.1233798667    -2.7756752113     0.0000000000
    4      H       0.0465189185     1.9881394681    -0.0000000000
    5      C      -1.2195356258     0.4021166886     0.0000000000
    6      O      -2.2592155329     1.0304381418     0.0000000000
    7      C       1.2879780632     0.3464493659    -0.0000000000
    8      O       2.3127366072     1.0053721559    -0.0000000000
    9      N       0.0344629504     0.9773985746    -0.0000000000
   10      N      -1.1728776526    -0.9822982369     0.0000000000
   11      C       1.2010703878    -1.1043341925    -0.0000000000
   12      H       2.1122009607    -1.6769912546    -0.0000000000
 ----------------------------------------------------------------
 Molecular Point Group                 Cs    NOp =  2
 Largest Abelian Subgroup              Cs    NOp =  2
 Nuclear Repulsion Energy =   357.0116303482 hartrees
 There are       29 alpha and       29 beta electrons
 Requested basis set is 6-311++G(d,p)
 There are 68 shells and 204 basis functions
MEM_TOTAL is adjusted to CC_MEMORY + MEM_STATIC!
 Total memory of 100192MB is distributed as follows: 
   QALLOC including MEM_STATIC uses 192MB
   MEM_STATIC is set to 192MB
   CCMAN JOB total memory use is  100000MB
 Warning: actual memory use might exceed 100192MB

 Total QAlloc Memory Limit    192 MB
 Mega-Array Size       188 MB
 MEM_STATIC part       192 MB

                       Distance Matrix (Angstroms)
             C (  1)   H (  2)   H (  3)   H (  4)   C (  5)   O (  6)
   H (  2)  2.078256
   H (  3)  1.079812  2.359703
   H (  4)  3.690667  4.028445  4.766843
   C (  5)  2.428535  2.028674  3.361535  2.029375
   O (  6)  3.541017  2.477987  4.364435  2.496718  1.214793
   C (  7)  2.423643  3.802677  3.426309  2.058244  2.508132  3.612537
   O (  8)  3.565452  5.017873  4.497886  2.470136  3.583415  4.572021
   N (  9)  2.679859  3.204487  3.756392  1.010813  1.379660  2.294292
   N ( 10)  1.370076  1.006193  2.077895  3.210986  1.385201  2.287190
   C ( 11)  1.348016  3.287105  2.132498  3.300967  2.851092  4.065813
   H ( 12)  2.119492  4.187728  2.490969  4.207164  3.927233  5.141931
             C (  7)   O (  8)   N (  9)   N ( 10)   C ( 11)
   O (  8)  1.218322
   N (  9)  1.403352  2.278445
   N ( 10)  2.796673  4.012523  2.301756
   C ( 11)  1.453384  2.384672  2.386333  2.377083
   H ( 12)  2.184870  2.689849  3.370872  3.357728  1.076148
 
 A cutoff of  1.0D-14 yielded   2246 shell pairs
 There are     20506 function pairs (     22152 Cartesian)
 
 -------------------------------------------------------
 OpenMP Integral Computing Module                       
 Release: version 1.0, May 2013, Q-Chem Inc. Pittsburgh 
 -------------------------------------------------------
 Integral Job Info:
 Integral job number is                      11
 Integral operator is                         1
 short-range coefficients                     0
 long-range coefficients              100000000
 Omega coefficients                           0
 if combine SR and LR in K                    0
 Integral screening is                        0
 Integral computing path is                   2
 max size of driver memory is            800000
 size of driver memory is                593474
 size of scratch memory is              2361544
 max col of scratch BK array               1296
 max len of scratch array in speh3          155
 max len of scratch index in speh4           18
 max int batch size is                      520
 min int batch size is                       52
 fixed nKL is                                52
 max L of basis functions is                  2
 order of int derivative is                   0
 number of shells is                         68
 number of basis is                         212
 number of cartesian basis is               212
 number of contracted shell pairs          2246
 number of primitive shell pairs           6171
 maxK2 (contraction) of shell pair           36
 max number of K2 of shell pair               1
 max number of CS2 of shell pair            315
 max number of PS2 of shell pair           1128
 mem total for path MDJ                  546230
 -------------------------------------------------------
 Smallest overlap matrix eigenvalue = 1.32E-05

 Scale SEOQF with 1.000000e-01/1.000000e-01/1.000000e-01

 Standard Electronic Orientation quadrupole field applied
 Nucleus-field energy     =     0.0000000098 hartrees
 Guess from superposition of atomic densities
 Warning:  Energy on first SCF cycle will be non-variational
 SAD guess density has 58.000000 electrons

 -----------------------------------------------------------------------
  General SCF calculation program by
  Eric Jon Sundstrom, Paul Horn, Yuezhi Mao, Dmitri Zuev, Alec White,
  David Stuck, Shaama M.S., Shane Yost, Joonho Lee, David Small,
  Daniel Levine, Susi Lehtola, Hugh Burton, Evgeny Epifanovsky
 -----------------------------------------------------------------------
 Hartree-Fock
 A restricted SCF calculation will be
 performed using DIIS
 SCF converges when DIIS error is below 1.0e-12
 ---------------------------------------
  Cycle       Energy         DIIS error
 ---------------------------------------
    1    -415.5118963559      5.16e-02  
    2    -412.3400668808      6.88e-03  
    3    -412.4467157910      5.86e-03  
    4    -412.5749217527      6.51e-04  
    5    -412.5785863070      2.36e-04  
    6    -412.5790950778      8.43e-05  
    7    -412.5792187176      4.35e-05  
    8    -412.5792467617      1.78e-05  
    9    -412.5792501784      5.81e-06  
   10    -412.5792505216      1.82e-06  
   11    -412.5792505599      8.51e-07  
   12    -412.5792505691      2.12e-07  
   13    -412.5792505697      9.06e-08  
   14    -412.5792505698      2.72e-08  
   15    -412.5792505698      1.10e-08  
   16    -412.5792505698      3.50e-09  
   17    -412.5792505698      1.06e-09  
   18    -412.5792505698      3.22e-10  
   19    -412.5792505698      9.06e-11  
   20    -412.5792505698      1.70e-11  
   21    -412.5792505698      5.15e-12  
   22    -412.5792505698      1.59e-12  
   23    -412.5792505698      3.77e-13  Convergence criterion met
 ---------------------------------------
 SCF time:   CPU 202.96s  wall 20.00s 
 SCF   energy in the final basis set =     -412.5792505698


 ------------------------------------------------------------------------------

   CCMAN2: suite of methods based on coupled cluster
           and equation of motion theories.

   Components:
   * libvmm-1.3-trunk
     by Evgeny Epifanovsky, Ilya Kaliman.
   * libtensor-2.5-trunk
     by Evgeny Epifanovsky, Michael Wormit, Dmitry Zuev, Sam Manzer, 
        Ilya Kaliman.
   * libcc-2.5-trunk
     by Evgeny Epifanovsky, Arik Landau, Tomasz Kus, Kirill Khistyaev, 
        Dmitry Zuev, Prashant Manohar, Xintian Feng, Anna Krylov, 
        Matthew Goldey, Alec White, Thomas Jagau, Kaushik Nanda, 
        Anastasia Gunina, Alexander Kunitsa, Joonho Lee.

   CCMAN original authors:
   Anna I. Krylov, C. David Sherrill, Steven R. Gwaltney,
   Edward F. C. Byrd (2000)
   Sergey V. Levchenko, Lyudmila V. Slipchenko, Tao Wang,
   Ana-Maria C. Cristian (2003)
   Piotr A. Pieniazek, C. Melania Oana, Evgeny Epifanovsky (2007)
   Prashant Manohar (2009)

 ------------------------------------------------------------------------------


 Calculation will run on 10 cores with 100000MB of RAM.

 
 Alpha MOs, Restricted
 -- Occupied --                  
-20.551 -20.545 -15.648 -15.631 -11.426 -11.387 -11.345 -11.260
  1 A'    2 A'    3 A'    4 A'    5 A'    6 A'    7 A'    8 A'                 
 -1.442  -1.404  -1.319  -1.250  -1.093  -0.938  -0.907  -0.812
  9 A'   10 A'   11 A'   12 A'   13 A'   14 A'   15 A'   16 A'                 
 -0.770  -0.719  -0.681  -0.671  -0.657  -0.619  -0.605  -0.573
 17 A'   18 A'   19 A'    1 A"   20 A'   21 A'   22 A'    2 A"                 
 -0.528  -0.487  -0.452  -0.439  -0.371
  3 A"   23 A'   24 A'    4 A"    5 A"                                         
 -- Virtual --                   
  0.023   0.048   0.061   0.071   0.074   0.091   0.102   0.109
 25 A'   26 A'   27 A'   28 A'    6 A"    7 A"   29 A'   30 A'                 
  0.129   0.134   0.138   0.146   0.158   0.161   0.167   0.176
  8 A"   31 A'    9 A"   32 A'   33 A'   10 A"   34 A'   35 A'                 
  0.186   0.192   0.198   0.199   0.219   0.229   0.243   0.251
 11 A"   36 A'   37 A'   38 A'   39 A'   40 A'   12 A"   41 A'                 
  0.256   0.286   0.292   0.298   0.310   0.320   0.339   0.354
 42 A'   13 A"   14 A"   43 A'   44 A'   45 A'   46 A'   47 A'                 
  0.369   0.383   0.386   0.397   0.407   0.408   0.415   0.428
 15 A"   48 A'   49 A'   50 A'   51 A'   16 A"   52 A'   53 A'                 
  0.430   0.443   0.469   0.485   0.497   0.518   0.556   0.557
 54 A'   55 A'   56 A'   57 A'   58 A'   59 A'   60 A'   61 A'                 
  0.634   0.668   0.697   0.706   0.739   0.742   0.758   0.771
 62 A'   63 A'   17 A"   64 A'   18 A"   65 A'   19 A"   66 A'                 
  0.786   0.796   0.832   0.854   0.907   0.928   0.945   0.967
 67 A'   20 A"   68 A'   69 A'   70 A'   71 A'   72 A'   73 A'                 
  0.976   0.996   1.014   1.019   1.048   1.056   1.081   1.099
 74 A'   75 A'   21 A"   76 A'   77 A'   22 A"   78 A'   79 A'                 
  1.140   1.209   1.225   1.242   1.251   1.302   1.358   1.359
 80 A'   81 A'   23 A"   24 A"   82 A'   83 A'   25 A"   84 A'                 
  1.376   1.398   1.415   1.419   1.432   1.438   1.457   1.501
 26 A"   27 A"   85 A'   28 A"   86 A'   87 A'   29 A"   88 A'                 
  1.511   1.528   1.575   1.746   1.779   1.796   1.811   1.883
 30 A"   89 A'   90 A'   91 A'   92 A'   93 A'   31 A"   94 A'                 
  1.896   1.909   1.925   1.951   1.970   2.011   2.011   2.067
 32 A"   95 A'   33 A"   96 A'   97 A'   34 A"   98 A'   99 A'                 
  2.118   2.137   2.187   2.220   2.223   2.272   2.292   2.339
100 A'  101 A'  102 A'   35 A"  103 A'  104 A'  105 A'   36 A"                 
  2.345   2.529   2.556   2.580   2.642   2.659   2.723   2.798
106 A'  107 A'   37 A"  108 A'   38 A"  109 A'   39 A"  110 A'                 
  2.820   2.848   2.915   2.960   3.000   3.015   3.041   3.070
 40 A"  111 A'  112 A'  113 A'  114 A'  115 A'  116 A'   41 A"                 
  3.144   3.170   3.173   3.207   3.260   3.263   3.291   3.307
 42 A"   43 A"  117 A'  118 A'   44 A"  119 A'  120 A'   45 A"                 
  3.314   3.343   3.394   3.506   3.568   3.751   3.762   3.799
121 A'   46 A"  122 A'  123 A'  124 A'   47 A"   48 A"  125 A'                 
  3.831   3.872   3.908   3.954   4.016   4.052   4.098   4.282
126 A'  127 A'  128 A'  129 A'  130 A'  131 A'  132 A'  133 A'                 
  4.289   4.337   4.416   4.485   4.623   5.193   5.283   5.348
 49 A"   50 A"  134 A'  135 A'  136 A'  137 A'  138 A'  139 A'                 
  5.600   5.627   5.686   5.763   5.857   6.328   6.365  24.853
 51 A"   52 A"  140 A'  141 A'  142 A'  143 A'  144 A'  145 A'                 
 24.967  25.028  25.324  36.989  37.046  51.709  51.753
146 A'  147 A'  148 A'  149 A'  150 A'  151 A'  152 A'                         
 
 Beta MOs, Restricted
 -- Occupied --                  
-20.551 -20.545 -15.648 -15.631 -11.426 -11.387 -11.345 -11.260
  1 A'    2 A'    3 A'    4 A'    5 A'    6 A'    7 A'    8 A'                 
 -1.442  -1.404  -1.319  -1.250  -1.093  -0.938  -0.907  -0.812
  9 A'   10 A'   11 A'   12 A'   13 A'   14 A'   15 A'   16 A'                 
 -0.770  -0.719  -0.681  -0.671  -0.657  -0.619  -0.605  -0.573
 17 A'   18 A'   19 A'    1 A"   20 A'   21 A'   22 A'    2 A"                 
 -0.528  -0.487  -0.452  -0.439  -0.371
  3 A"   23 A'   24 A'    4 A"    5 A"                                         
 -- Virtual --                   
  0.023   0.048   0.061   0.071   0.074   0.091   0.102   0.109
 25 A'   26 A'   27 A'   28 A'    6 A"    7 A"   29 A'   30 A'                 
  0.129   0.134   0.138   0.146   0.158   0.161   0.167   0.176
  8 A"   31 A'    9 A"   32 A'   33 A'   10 A"   34 A'   35 A'                 
  0.186   0.192   0.198   0.199   0.219   0.229   0.243   0.251
 11 A"   36 A'   37 A'   38 A'   39 A'   40 A'   12 A"   41 A'                 
  0.256   0.286   0.292   0.298   0.310   0.320   0.339   0.354
 42 A'   13 A"   14 A"   43 A'   44 A'   45 A'   46 A'   47 A'                 
  0.369   0.383   0.386   0.397   0.407   0.408   0.415   0.428
 15 A"   48 A'   49 A'   50 A'   51 A'   16 A"   52 A'   53 A'                 
  0.430   0.443   0.469   0.485   0.497   0.518   0.556   0.557
 54 A'   55 A'   56 A'   57 A'   58 A'   59 A'   60 A'   61 A'                 
  0.634   0.668   0.697   0.706   0.739   0.742   0.758   0.771
 62 A'   63 A'   17 A"   64 A'   18 A"   65 A'   19 A"   66 A'                 
  0.786   0.796   0.832   0.854   0.907   0.928   0.945   0.967
 67 A'   20 A"   68 A'   69 A'   70 A'   71 A'   72 A'   73 A'                 
  0.976   0.996   1.014   1.019   1.048   1.056   1.081   1.099
 74 A'   75 A'   21 A"   76 A'   77 A'   22 A"   78 A'   79 A'                 
  1.140   1.209   1.225   1.242   1.251   1.302   1.358   1.359
 80 A'   81 A'   23 A"   24 A"   82 A'   83 A'   25 A"   84 A'                 
  1.376   1.398   1.415   1.419   1.432   1.438   1.457   1.501
 26 A"   27 A"   85 A'   28 A"   86 A'   87 A'   29 A"   88 A'                 
  1.511   1.528   1.575   1.746   1.779   1.796   1.811   1.883
 30 A"   89 A'   90 A'   91 A'   92 A'   93 A'   31 A"   94 A'                 
  1.896   1.909   1.925   1.951   1.970   2.011   2.011   2.067
 32 A"   95 A'   33 A"   96 A'   97 A'   34 A"   98 A'   99 A'                 
  2.118   2.137   2.187   2.220   2.223   2.272   2.292   2.339
100 A'  101 A'  102 A'   35 A"  103 A'  104 A'  105 A'   36 A"                 
  2.345   2.529   2.556   2.580   2.642   2.659   2.723   2.798
106 A'  107 A'   37 A"  108 A'   38 A"  109 A'   39 A"  110 A'                 
  2.820   2.848   2.915   2.960   3.000   3.015   3.041   3.070
 40 A"  111 A'  112 A'  113 A'  114 A'  115 A'  116 A'   41 A"                 
  3.144   3.170   3.173   3.207   3.260   3.263   3.291   3.307
 42 A"   43 A"  117 A'  118 A'   44 A"  119 A'  120 A'   45 A"                 
  3.314   3.343   3.394   3.506   3.568   3.751   3.762   3.799
121 A'   46 A"  122 A'  123 A'  124 A'   47 A"   48 A"  125 A'                 
  3.831   3.872   3.908   3.954   4.016   4.052   4.098   4.282
126 A'  127 A'  128 A'  129 A'  130 A'  131 A'  132 A'  133 A'                 
  4.289   4.337   4.416   4.485   4.623   5.193   5.283   5.348
 49 A"   50 A"  134 A'  135 A'  136 A'  137 A'  138 A'  139 A'                 
  5.600   5.627   5.686   5.763   5.857   6.328   6.365  24.853
 51 A"   52 A"  140 A'  141 A'  142 A'  143 A'  144 A'  145 A'                 
 24.967  25.028  25.324  36.989  37.046  51.709  51.753
146 A'  147 A'  148 A'  149 A'  150 A'  151 A'  152 A'                         

 Occupation and symmetry of molecular orbitals

 Point group: Cs (2 irreducible representations).

                           A'   A"    All 
 ------------------------------------------
 All molecular orbitals:
  - Alpha                  152  52    204 
  - Beta                   152  52    204 
 ------------------------------------------
 Alpha orbitals:
  - Frozen occupied        4    0     4   
  - Active occupied        20   5     25  
  - Active virtual         128  47    175 
  - Frozen virtual         0    0     0   
 ------------------------------------------
 Beta orbitals:
  - Frozen occupied        4    0     4   
  - Active occupied        20   5     25  
  - Active virtual         128  47    175 
  - Frozen virtual         0    0     0   
 ------------------------------------------

 Import integrals:   CPU 0.00 s  wall 0.00 s

 Import integrals:   CPU 284.00 s  wall 33.65 s

 MP2 amplitudes:   CPU 1.94 s  wall 1.28 s

           CCSD T amplitudes will be solved using DIIS.

           Start     Size      MaxIter   EConv     TConv     
           3         7         100       1.00e-12  1.00e-11  
 ------------------------------------------------------------------------------
           Energy (a.u.)   Ediff      Tdiff       Comment
 ------------------------------------------------------------------------------
          -413.92454238                           
     1    -413.89910957   2.54e-02   1.01e+00     
     2    -413.94363748   4.45e-02   1.36e-01     
     3    -413.93991318   3.72e-03   5.68e-02     
     4    -413.94453529   4.62e-03   2.39e-02     Switched to DIIS steps.
     5    -413.94615543   1.62e-03   1.34e-02     
     6    -413.94630390   1.48e-04   3.41e-03     
     7    -413.94630674   2.83e-06   1.38e-03     
     8    -413.94630257   4.17e-06   4.32e-04     
     9    -413.94630513   2.56e-06   1.76e-04     
    10    -413.94630503   1.01e-07   5.40e-05     
    11    -413.94630555   5.19e-07   3.22e-05     
    12    -413.94630553   1.90e-08   1.68e-05     
    13    -413.94630545   7.37e-08   8.31e-06     
    14    -413.94630536   9.04e-08   3.21e-06     
    15    -413.94630535   1.77e-08   1.46e-06     
    16    -413.94630532   2.38e-08   6.74e-07     
    17    -413.94630532   6.22e-09   2.65e-07     
    18    -413.94630531   2.17e-09   1.22e-07     
    19    -413.94630531   7.27e-10   3.90e-08     
    20    -413.94630531   2.63e-10   2.39e-08     
    21    -413.94630531   4.87e-11   9.31e-09     
    22    -413.94630531   2.67e-11   5.24e-09     
    23    -413.94630531   1.20e-11   2.23e-09     
    24    -413.94630531   1.68e-11   1.19e-09     
    25    -413.94630531   2.71e-12   6.09e-10     
    26    -413.94630531   1.22e-12   3.08e-10     
    27    -413.94630531   9.02e-14   1.45e-10     
    28    -413.94630531   3.40e-14   6.84e-11     
    29    -413.94630531   1.31e-13   4.09e-11     
    30    -413.94630531   9.99e-14   1.65e-11     
    31    -413.94630531   3.82e-14   9.13e-12     
 ------------------------------------------------------------------------------
          -413.94630531                           CCSD T converged.

 SCF energy                 = -412.57925057
 MP2 energy                 = -413.92454238
 CCSD correlation energy     =   -1.36705474
 CCSD total energy           = -413.94630531

 CCSD  T1^2 = 0.0266  T2^2 = 0.4132  Leading amplitudes:

 Amplitude    Orbitals with energies
  0.0317       2 (A") A                  ->    9 (A") A                   
              -0.5735                          0.1381                     
  0.0317       2 (A") B                  ->    9 (A") B                   
              -0.5735                          0.1381                     
 -0.0317       2 (A") A                  ->    6 (A") A                   
              -0.5735                          0.0738                     
 -0.0317       2 (A") B                  ->    6 (A") B                   
              -0.5735                          0.0738                     

 Amplitude    Orbitals with energies
 -0.0511       5 (A") A      5 (A") B    ->    6 (A") A      6 (A") B     
              -0.3713       -0.3713            0.0738        0.0738       
  0.0511       5 (A") A      5 (A") B    ->    6 (A") B      6 (A") A     
              -0.3713       -0.3713            0.0738        0.0738       
  0.0511       5 (A") B      5 (A") A    ->    6 (A") A      6 (A") B     
              -0.3713       -0.3713            0.0738        0.0738       
 -0.0511       5 (A") B      5 (A") A    ->    6 (A") B      6 (A") A     
              -0.3713       -0.3713            0.0738        0.0738       

 Computing CCSD intermediates for later calculations
 Finished.

           CCSD Lambda amplitudes will be solved using DIIS.
           Start     Size      MaxIter   EConv     LConv     
           3         7         100       1.00e-12  1.00e-11  
 ------------------------------------------------------------------------------
            Enorm      Ldiff       Comment
 ------------------------------------------------------------------------------
     1     7.17e-02   4.17e-02     
     2     2.67e-02   9.13e-03     
     3     1.21e-02   4.92e-04     
     4     5.02e-03   1.66e-03     Switched to DIIS steps.
     5     1.46e-03   9.46e-04     
     6     6.43e-04   2.02e-04     
     7     2.27e-04   5.43e-05     
     8     9.72e-05   1.04e-05     
     9     4.02e-05   3.56e-06     
    10     1.94e-05   1.41e-06     
    11     8.59e-06   1.80e-07     
    12     3.36e-06   1.78e-07     
    13     1.38e-06   2.25e-08     
    14     5.82e-07   6.74e-09     
    15     2.43e-07   3.98e-08     
    16     1.06e-07   7.65e-09     
    17     5.18e-08   5.35e-09     
    18     2.19e-08   4.15e-09     
    19     1.05e-08   7.61e-11     
    20     5.23e-09   1.35e-10     
    21     2.34e-09   1.13e-10     
    22     1.07e-09   1.49e-10     
    23     5.24e-10   7.51e-11     
    24     2.27e-10   1.81e-11     
    25     1.09e-10   9.42e-12     
    26     5.77e-11   3.33e-12     
    27     2.73e-11   1.15e-12     
    28     1.34e-11   7.31e-14     
    29     6.27e-12   6.06e-14     
    30     3.14e-12   1.81e-13     
    31     1.36e-12   3.77e-14     
    32     7.08e-13   2.35e-14     
 ------------------------------------------------------------------------------
                                   CCSD Lambda converged.

 CCSD calculation:   CPU 4601.80 s  wall 559.35 s

        Solving for EOMEE-CCSD A' singlet states.

       EOMEE-CCSD-SINGLES right amplitudes will be solved using Davidson.
        Amplitudes will be solved using standard  algorithm.
     Hard-coded thresholds: 
     LinDepThresh=1.00e-15  NormThresh=1.00e-06  ReorthogonThresh=1.00e-02

      Roots     MaxVec    MaxIter   Precond   Conv      Shift    
      3         1000      200       1         1.00e-04  0.00e+00  
 ------------------------------------------------------------------------------
      Iter ConvRoots NVecs ResNorm Current eigenvalues (eV)
 ------------------------------------------------------------------------------
      0    0      3     7.89e-03   10.3858   10.8300   12.5718   
      1    0      6     2.93e-02   10.0879   10.7279   12.4599   
      2    0      9     3.68e-03   9.7677   10.4999   12.0973   
      3    0      12    1.66e-03   9.7238   10.4566   11.7990   
      4    2      15    1.08e-03   9.7195*  10.4472*  11.6582   
      5    2      16    2.61e-04   9.7195*  10.4471*  11.5968   
      6    2      17    3.52e-04   9.7195*  10.4465*  11.5679   
      7    2      18    7.44e-04   9.7195*  10.4457*  11.5061   
      8    2      19    6.99e-04   9.7195*  10.4455*  11.4326   
      9    2      20    2.52e-04   9.7195*  10.4455*  11.3934   
      10   2      21    7.96e-05   9.7195*  10.4455*  11.3816   
      11   3      22    5.04e-05   9.7195*  10.4455*  11.3770*  

     Davidson procedure converged

 EOMEE transition 1/A'
 Total energy = -413.58912145 a.u.  Excitation energy = 9.7195 eV.
 R1^2 = 1.0000  Res^2 = 3.43e-05
 Conv-d = yes

 Amplitude    Transitions between orbitals
  0.6429       5 (A") A                  ->    6 (A") A                   
  0.6429       5 (A") B                  ->    6 (A") B                   
 -0.2089       5 (A") A                  ->    7 (A") A                   
 -0.2089       5 (A") B                  ->    7 (A") B                   

              Summary of significant orbitals:

               Number  Type             Irrep      Energy
               29      Occ  Alpha       5 (A")     -0.3713
               29      Occ  Beta        5 (A")     -0.3713
               34      Vir  Alpha       6 (A")      0.0738
               35      Vir  Alpha       7 (A")      0.0908
               34      Vir  Beta        6 (A")      0.0738
               35      Vir  Beta        7 (A")      0.0908


 EOMEE transition 2/A'
 Total energy = -413.56244145 a.u.  Excitation energy = 10.4455 eV.
 R1^2 = 1.0000  Res^2 = 3.88e-05
 Conv-d = yes

 Amplitude    Transitions between orbitals
  0.6116       5 (A") A                  ->    7 (A") A                   
  0.6116       5 (A") B                  ->    7 (A") B                   
 -0.2357       5 (A") A                  ->    8 (A") A                   
 -0.2357       5 (A") B                  ->    8 (A") B                   
  0.2258       5 (A") A                  ->    6 (A") A                   
  0.2258       5 (A") B                  ->    6 (A") B                   

              Summary of significant orbitals:

               Number  Type             Irrep      Energy
               29      Occ  Alpha       5 (A")     -0.3713
               29      Occ  Beta        5 (A")     -0.3713
               34      Vir  Alpha       6 (A")      0.0738
               35      Vir  Alpha       7 (A")      0.0908
               38      Vir  Alpha       8 (A")      0.1287
               34      Vir  Beta        6 (A")      0.0738
               35      Vir  Beta        7 (A")      0.0908
               38      Vir  Beta        8 (A")      0.1287


 EOMEE transition 3/A'
 Total energy = -413.52820703 a.u.  Excitation energy = 11.3770 eV.
 R1^2 = 1.0000  Res^2 = 7.83e-05
 Conv-d = yes

 Amplitude    Transitions between orbitals
  0.4563       5 (A") A                  ->    8 (A") A                   
  0.4563       5 (A") B                  ->    8 (A") B                   
  0.4202       5 (A") A                  ->    9 (A") A                   
  0.4202       5 (A") B                  ->    9 (A") B                   
 -0.1772       4 (A") A                  ->    6 (A") A                   
 -0.1772       4 (A") B                  ->    6 (A") B                   
  0.1484       5 (A") A                  ->    7 (A") A                   
  0.1484       5 (A") B                  ->    7 (A") B                   
 -0.1164       5 (A") A                  ->    10 (A") A                  
 -0.1164       5 (A") B                  ->    10 (A") B                  

              Summary of significant orbitals:

               Number  Type             Irrep      Energy
               28      Occ  Alpha       4 (A")     -0.4386
               29      Occ  Alpha       5 (A")     -0.3713
               28      Occ  Beta        4 (A")     -0.4386
               29      Occ  Beta        5 (A")     -0.3713
               34      Vir  Alpha       6 (A")      0.0738
               35      Vir  Alpha       7 (A")      0.0908
               38      Vir  Alpha       8 (A")      0.1287
               40      Vir  Alpha       9 (A")      0.1381
               43      Vir  Alpha      10 (A")      0.1606
               34      Vir  Beta        6 (A")      0.0738
               35      Vir  Beta        7 (A")      0.0908
               38      Vir  Beta        8 (A")      0.1287
               40      Vir  Beta        9 (A")      0.1381
               43      Vir  Beta       10 (A")      0.1606


        EOMEE-CCSD/MP2 right amplitudes will be solved using Davidson.
        Amplitudes will be solved using standard  algorithm.
     Hard-coded thresholds: 
     LinDepThresh=1.00e-15  NormThresh=1.00e-06  ReorthogonThresh=1.00e-02

      Roots     MaxVec    MaxIter   Precond   Conv      Shift    
      3         1000      200       1         1.00e-04  0.00e+00  
 ------------------------------------------------------------------------------
      Iter ConvRoots NVecs ResNorm Current eigenvalues (eV)
 ------------------------------------------------------------------------------
      0    0      3     2.33e-01   9.7195   10.4455   11.3770   
      1    0      6     3.95e-01   7.7313   8.8444   9.3252   
      2    0      9     1.34e-02   5.9848   7.5174   7.7399   
      3    0      12    5.07e-03   5.7706   7.2273   7.6610   
      4    0      15    2.66e-03   5.6962   7.0895   7.6431   
      5    0      18    1.03e-03   5.6798   7.0003   7.6364   
      6    0      21    3.05e-04   5.6711   6.9703   7.6311   
      7    1      24    3.21e-04   5.6695*  6.9569   7.6238   
      8    1      26    6.56e-04   5.6694*  6.9374   7.6159   
      9    1      28    6.97e-03   5.6695*  6.8977   7.4185   
      10   1      30    2.79e-03   5.6694*  6.8244   7.1823   
      11   1      32    7.60e-04   5.6694*  6.7805   7.1198   
      12   1      34    3.68e-04   5.6694*  6.7601   7.1000   
      13   1      36    2.41e-04   5.6693*  6.7508   7.0904   
      14   1      38    1.65e-04   5.6693*  6.7437   7.0847   
      15   1      40    1.16e-04   5.6693*  6.7386   7.0775   
      16   3      42    5.35e-05   5.6693*  6.7361*  7.0743*  

     Davidson procedure converged

 EOMEE transition 1/A'
 Total energy = -413.73796125 a.u.  Excitation energy = 5.6693 eV.
 R0^2 = 0.0002  R1^2 = 0.9103  R2^2 = 0.0897  Res^2 = 3.33e-05
 Conv-d = yes

 Amplitude    Transitions between orbitals
 -0.5478       5 (A") A                  ->    6 (A") A                   
 -0.5478       5 (A") B                  ->    6 (A") B                   
  0.2719       5 (A") A                  ->    7 (A") A                   
  0.2719       5 (A") B                  ->    7 (A") B                   
  0.1445       5 (A") A                  ->    9 (A") A                   
  0.1445       5 (A") B                  ->    9 (A") B                   

              Summary of significant orbitals:

               Number  Type             Irrep      Energy
               29      Occ  Alpha       5 (A")     -0.3713
               29      Occ  Beta        5 (A")     -0.3713
               34      Vir  Alpha       6 (A")      0.0738
               35      Vir  Alpha       7 (A")      0.0908
               40      Vir  Alpha       9 (A")      0.1381
               34      Vir  Beta        6 (A")      0.0738
               35      Vir  Beta        7 (A")      0.0908
               40      Vir  Beta        9 (A")      0.1381


 EOMEE transition 2/A'
 Total energy = -413.69875734 a.u.  Excitation energy = 6.7361 eV.
 R0^2 = 0.0000  R1^2 = 0.8871  R2^2 = 0.1129  Res^2 = 4.89e-05
 Conv-d = yes

 Amplitude    Transitions between orbitals
  0.5535       4 (A") A                  ->    6 (A") A                   
  0.5535       4 (A") B                  ->    6 (A") B                   
 -0.2182       4 (A") A                  ->    9 (A") A                   
 -0.2182       4 (A") B                  ->    9 (A") B                   
 -0.2081       4 (A") A                  ->    7 (A") A                   
 -0.2081       4 (A") B                  ->    7 (A") B                   

              Summary of significant orbitals:

               Number  Type             Irrep      Energy
               28      Occ  Alpha       4 (A")     -0.4386
               28      Occ  Beta        4 (A")     -0.4386
               34      Vir  Alpha       6 (A")      0.0738
               35      Vir  Alpha       7 (A")      0.0908
               40      Vir  Alpha       9 (A")      0.1381
               34      Vir  Beta        6 (A")      0.0738
               35      Vir  Beta        7 (A")      0.0908
               40      Vir  Beta        9 (A")      0.1381


 EOMEE transition 3/A'
 Total energy = -413.68632864 a.u.  Excitation energy = 7.0743 eV.
 R0^2 = 0.0003  R1^2 = 0.9023  R2^2 = 0.0977  Res^2 = 7.83e-05
 Conv-d = yes

 Amplitude    Transitions between orbitals
 -0.3585       5 (A") A                  ->    9 (A") A                   
 -0.3585       5 (A") B                  ->    9 (A") B                   
  0.3367       5 (A") A                  ->    10 (A") A                  
  0.3367       5 (A") B                  ->    10 (A") B                  
 -0.3082       5 (A") A                  ->    8 (A") A                   
 -0.3082       5 (A") B                  ->    8 (A") B                   
  0.2382       5 (A") A                  ->    11 (A") A                  
  0.2382       5 (A") B                  ->    11 (A") B                  

              Summary of significant orbitals:

               Number  Type             Irrep      Energy
               29      Occ  Alpha       5 (A")     -0.3713
               29      Occ  Beta        5 (A")     -0.3713
               38      Vir  Alpha       8 (A")      0.1287
               40      Vir  Alpha       9 (A")      0.1381
               43      Vir  Alpha      10 (A")      0.1606
               46      Vir  Alpha      11 (A")      0.1862
               38      Vir  Beta        8 (A")      0.1287
               40      Vir  Beta        9 (A")      0.1381
               43      Vir  Beta       10 (A")      0.1606
               46      Vir  Beta       11 (A")      0.1862


      EOM-CCSD/MP2 left amplitudes will be solved using Davidson.
        Amplitudes will be solved using MOM  algorithm.
     Hard-coded thresholds: 
     LinDepThresh=1.00e-15  NormThresh=1.00e-06  ReorthogonThresh=1.00e-02

      Roots     MaxVec    MaxIter   Precond   Conv      Shift    
      3         1000      200       1         1.00e-04  0.00e+00  
 ------------------------------------------------------------------------------
      Iter ConvRoots NVecs ResNorm Current eigenvalues (eV)
 ------------------------------------------------------------------------------
      0    0      3     1.31e-02   5.6693   6.7361   7.0743   
      1    0      6     1.49e-02   5.6689   6.7357   7.0739   
      2    0      9     4.34e-04   5.6691   6.7358   7.0740   
      3    3      12    5.47e-05   5.6690*  6.7357*  7.0737*  

     Davidson procedure converged

        Solving for EOMEE-CCSD A" singlet states.

       EOMEE-CCSD-SINGLES right amplitudes will be solved using Davidson.
        Amplitudes will be solved using standard  algorithm.
     Hard-coded thresholds: 
     LinDepThresh=1.00e-15  NormThresh=1.00e-06  ReorthogonThresh=1.00e-02

      Roots     MaxVec    MaxIter   Precond   Conv      Shift    
      3         1000      200       1         1.00e-04  0.00e+00  
 ------------------------------------------------------------------------------
      Iter ConvRoots NVecs ResNorm Current eigenvalues (eV)
 ------------------------------------------------------------------------------
      0    0      3     1.72e-03   9.4599   10.2800   10.7205   
      1    0      6     2.28e-02   9.1956   10.0558   10.5700   
      2    0      9     2.12e-03   8.9952   9.8691   10.2415   
      3    1      12    6.36e-04   8.9848*  9.8570   10.1298   
      4    2      14    1.81e-04   8.9842*  9.8558*  10.0999   
      5    2      15    7.99e-05   8.9842*  9.8558*  10.0931   
      6    3      16    3.28e-05   8.9842*  9.8558*  10.0917*  

     Davidson procedure converged

 EOMEE transition 1/A"
 Total energy = -413.61614370 a.u.  Excitation energy = 8.9842 eV.
 R1^2 = 1.0000  Res^2 = 3.05e-05
 Conv-d = yes

 Amplitude    Transitions between orbitals
  0.6402       5 (A") A                  ->    25 (A') A                  
  0.6402       5 (A") B                  ->    25 (A') B                  
 -0.1499       5 (A") A                  ->    29 (A') A                  
 -0.1499       5 (A") B                  ->    29 (A') B                  
  0.1151       5 (A") A                  ->    31 (A') A                  
  0.1151       5 (A") B                  ->    31 (A') B                  
  0.1116       5 (A") A                  ->    27 (A') A                  
  0.1116       5 (A") B                  ->    27 (A') B                  
  0.1108       5 (A") A                  ->    33 (A') A                  
  0.1108       5 (A") B                  ->    33 (A') B                  

              Summary of significant orbitals:

               Number  Type             Irrep      Energy
               29      Occ  Alpha       5 (A")     -0.3713
               29      Occ  Beta        5 (A")     -0.3713
               30      Vir  Alpha      25 (A')      0.0232
               32      Vir  Alpha      27 (A')      0.0607
               36      Vir  Alpha      29 (A')      0.1020
               39      Vir  Alpha      31 (A')      0.1338
               42      Vir  Alpha      33 (A')      0.1581
               30      Vir  Beta       25 (A')      0.0232
               32      Vir  Beta       27 (A')      0.0607
               36      Vir  Beta       29 (A')      0.1020
               39      Vir  Beta       31 (A')      0.1338
               42      Vir  Beta       33 (A')      0.1581


 EOMEE transition 2/A"
 Total energy = -413.58411264 a.u.  Excitation energy = 9.8558 eV.
 R1^2 = 1.0000  Res^2 = 2.20e-05
 Conv-d = yes

 Amplitude    Transitions between orbitals
  0.6510       5 (A") A                  ->    26 (A') A                  
  0.6510       5 (A") B                  ->    26 (A') B                  
  0.1367       5 (A") A                  ->    35 (A') A                  
  0.1367       5 (A") B                  ->    35 (A') B                  

              Summary of significant orbitals:

               Number  Type             Irrep      Energy
               29      Occ  Alpha       5 (A")     -0.3713
               29      Occ  Beta        5 (A")     -0.3713
               31      Vir  Alpha      26 (A')      0.0482
               45      Vir  Alpha      35 (A')      0.1764
               31      Vir  Beta       26 (A')      0.0482
               45      Vir  Beta       35 (A')      0.1764


 EOMEE transition 3/A"
 Total energy = -413.57544132 a.u.  Excitation energy = 10.0917 eV.
 R1^2 = 1.0000  Res^2 = 4.59e-05
 Conv-d = yes

 Amplitude    Transitions between orbitals
 -0.4984       5 (A") A                  ->    27 (A') A                  
 -0.4984       5 (A") B                  ->    27 (A') B                  
  0.4147       5 (A") A                  ->    29 (A') A                  
  0.4147       5 (A") B                  ->    29 (A') B                  
  0.1686       5 (A") A                  ->    25 (A') A                  
  0.1686       5 (A") B                  ->    25 (A') B                  

              Summary of significant orbitals:

               Number  Type             Irrep      Energy
               29      Occ  Alpha       5 (A")     -0.3713
               29      Occ  Beta        5 (A")     -0.3713
               30      Vir  Alpha      25 (A')      0.0232
               32      Vir  Alpha      27 (A')      0.0607
               36      Vir  Alpha      29 (A')      0.1020
               30      Vir  Beta       25 (A')      0.0232
               32      Vir  Beta       27 (A')      0.0607
               36      Vir  Beta       29 (A')      0.1020


        EOMEE-CCSD/MP2 right amplitudes will be solved using Davidson.
        Amplitudes will be solved using standard  algorithm.
     Hard-coded thresholds: 
     LinDepThresh=1.00e-15  NormThresh=1.00e-06  ReorthogonThresh=1.00e-02

      Roots     MaxVec    MaxIter   Precond   Conv      Shift    
      3         1000      200       1         1.00e-04  0.00e+00  
 ------------------------------------------------------------------------------
      Iter ConvRoots NVecs ResNorm Current eigenvalues (eV)
 ------------------------------------------------------------------------------
      0    0      3     1.60e-01   8.9842   9.8558   10.0917   
      1    0      6     4.70e-01   7.4394   8.3766   8.4974   
      2    0      9     9.78e-03   6.1739   7.1691   7.2549   
      3    0      12    2.38e-03   6.0919   7.0913   7.1622   
      4    0      15    4.65e-04   6.0750   7.0693   7.1366   
      5    0      18    2.95e-04   6.0714   7.0623   7.1257   
      6    1      21    1.45e-04   6.0693*  7.0569   7.1185   
      7    1      23    8.88e-05   6.0693*  7.0532   7.1133   
      8    1      25    1.90e-04   6.0693*  7.0510   7.1106   
      9    1      27    1.64e-02   6.0693*  6.9037   7.0603   
      10   2      29    1.24e-02   5.9349   6.0693*  7.0519*  
      11   2      30    4.99e-03   5.3346   6.0692*  7.0507*  
      12   2      31    1.05e-03   5.2068   6.0693*  7.0503*  
      13   2      32    3.33e-04   5.1678   6.0692*  7.0502*  
      14   2      33    1.19e-04   5.1550   6.0693*  7.0501*  
      15   2      34    6.12e-05   5.1514   6.0692*  7.0499*  
      16   3      35    4.88e-05   5.1482*  6.0692*  7.0499*  

     Davidson procedure converged

 EOMEE transition 1/A"
 Total energy = -413.75711326 a.u.  Excitation energy = 5.1482 eV.
 R0^2 = 0.0000  R1^2 = 0.9083  R2^2 = 0.0917  Res^2 = 9.27e-05
 Conv-d = yes

 Amplitude    Transitions between orbitals
 -0.4935       24 (A') A                 ->    6 (A") A                   
 -0.4935       24 (A') B                 ->    6 (A") B                   
  0.2731       24 (A') A                 ->    9 (A") A                   
  0.2731       24 (A') B                 ->    9 (A") B                   
  0.2243       24 (A') A                 ->    7 (A") A                   
  0.2243       24 (A') B                 ->    7 (A") B                   
 -0.1395       24 (A') A                 ->    10 (A") A                  
 -0.1395       24 (A') B                 ->    10 (A") B                  
  0.1314       23 (A') A                 ->    6 (A") A                   
  0.1314       23 (A') B                 ->    6 (A") B                   
  0.1022       24 (A') A                 ->    13 (A") A                  
  0.1022       24 (A') B                 ->    13 (A") B                  

              Summary of significant orbitals:

               Number  Type             Irrep      Energy
               26      Occ  Alpha      23 (A')     -0.4867
               27      Occ  Alpha      24 (A')     -0.4519
               26      Occ  Beta       23 (A')     -0.4867
               27      Occ  Beta       24 (A')     -0.4519
               34      Vir  Alpha       6 (A")      0.0738
               35      Vir  Alpha       7 (A")      0.0908
               40      Vir  Alpha       9 (A")      0.1381
               43      Vir  Alpha      10 (A")      0.1606
               55      Vir  Alpha      13 (A")      0.2862
               34      Vir  Beta        6 (A")      0.0738
               35      Vir  Beta        7 (A")      0.0908
               40      Vir  Beta        9 (A")      0.1381
               43      Vir  Beta       10 (A")      0.1606
               55      Vir  Beta       13 (A")      0.2862


 EOMEE transition 2/A"
 Total energy = -413.72326472 a.u.  Excitation energy = 6.0692 eV.
 R0^2 = 0.0000  R1^2 = 0.9274  R2^2 = 0.0726  Res^2 = 2.40e-05
 Conv-d = yes

 Amplitude    Transitions between orbitals
 -0.5933       5 (A") A                  ->    25 (A') A                  
 -0.5933       5 (A") B                  ->    25 (A') B                  
 -0.1511       5 (A") A                  ->    27 (A') A                  
 -0.1511       5 (A") B                  ->    27 (A') B                  
  0.1340       5 (A") A                  ->    29 (A') A                  
  0.1340       5 (A") B                  ->    29 (A') B                  
 -0.1257       5 (A") A                  ->    33 (A') A                  
 -0.1257       5 (A") B                  ->    33 (A') B                  
 -0.1253       5 (A") A                  ->    31 (A') A                  
 -0.1253       5 (A") B                  ->    31 (A') B                  

              Summary of significant orbitals:

               Number  Type             Irrep      Energy
               29      Occ  Alpha       5 (A")     -0.3713
               29      Occ  Beta        5 (A")     -0.3713
               30      Vir  Alpha      25 (A')      0.0232
               32      Vir  Alpha      27 (A')      0.0607
               36      Vir  Alpha      29 (A')      0.1020
               39      Vir  Alpha      31 (A')      0.1338
               42      Vir  Alpha      33 (A')      0.1581
               30      Vir  Beta       25 (A')      0.0232
               32      Vir  Beta       27 (A')      0.0607
               36      Vir  Beta       29 (A')      0.1020
               39      Vir  Beta       31 (A')      0.1338
               42      Vir  Beta       33 (A')      0.1581


 EOMEE transition 3/A"
 Total energy = -413.68722615 a.u.  Excitation energy = 7.0499 eV.
 R0^2 = 0.0000  R1^2 = 0.9306  R2^2 = 0.0694  Res^2 = 2.98e-05
 Conv-d = yes

 Amplitude    Transitions between orbitals
 -0.5793       5 (A") A                  ->    26 (A') A                  
 -0.5793       5 (A") B                  ->    26 (A') B                  
 -0.1641       5 (A") A                  ->    27 (A') A                  
 -0.1641       5 (A") B                  ->    27 (A') B                  
 -0.1376       5 (A") A                  ->    35 (A') A                  
 -0.1376       5 (A") B                  ->    35 (A') B                  
  0.1350       5 (A") A                  ->    25 (A') A                  
  0.1350       5 (A") B                  ->    25 (A') B                  
 -0.1006       5 (A") A                  ->    34 (A') A                  
 -0.1006       5 (A") B                  ->    34 (A') B                  

              Summary of significant orbitals:

               Number  Type             Irrep      Energy
               29      Occ  Alpha       5 (A")     -0.3713
               29      Occ  Beta        5 (A")     -0.3713
               30      Vir  Alpha      25 (A')      0.0232
               31      Vir  Alpha      26 (A')      0.0482
               32      Vir  Alpha      27 (A')      0.0607
               44      Vir  Alpha      34 (A')      0.1673
               45      Vir  Alpha      35 (A')      0.1764
               30      Vir  Beta       25 (A')      0.0232
               31      Vir  Beta       26 (A')      0.0482
               32      Vir  Beta       27 (A')      0.0607
               44      Vir  Beta       34 (A')      0.1673
               45      Vir  Beta       35 (A')      0.1764


      EOM-CCSD/MP2 left amplitudes will be solved using Davidson.
        Amplitudes will be solved using MOM  algorithm.
     Hard-coded thresholds: 
     LinDepThresh=1.00e-15  NormThresh=1.00e-06  ReorthogonThresh=1.00e-02

      Roots     MaxVec    MaxIter   Precond   Conv      Shift    
      3         1000      200       1         1.00e-04  0.00e+00  
 ------------------------------------------------------------------------------
      Iter ConvRoots NVecs ResNorm Current eigenvalues (eV)
 ------------------------------------------------------------------------------
      0    0      3     9.47e-03   5.1482   6.0692   7.0499   
      1    0      6     1.67e-02   5.1478   6.0692   7.0497   
      2    0      9     4.25e-04   5.1482   6.0691   7.0498   
      3    3      12    4.02e-05   5.1477*  6.0689*  7.0496*  

     Davidson procedure converged

 EOMEE-CCSD calculation:   CPU 5373.11 s  wall 686.72 s

        Solving for CVS-EOMEE-CCSD A' singlet states.

       EOMEE-CCSD-SINGLES right amplitudes will be solved using Davidson.
        Amplitudes will be solved using standard  algorithm.
     Hard-coded thresholds: 
     LinDepThresh=1.00e-15  NormThresh=1.00e-06  ReorthogonThresh=1.00e-02

      Roots     MaxVec    MaxIter   Precond   Conv      Shift    
      8         1000      200       1         1.00e-04  0.00e+00  
 ------------------------------------------------------------------------------
      Iter ConvRoots NVecs ResNorm Current eigenvalues (eV)
 ------------------------------------------------------------------------------
      0    0      8     3.12e-03   421.8044   422.1852   423.1305   423.4925   423.7632   424.1525   424.3841   424.7111   
      1    0      16    4.12e-02   420.7301   421.2718   422.9666   423.2546   423.6338   423.7626   424.1749   424.5355   
      2    0      24    4.45e-03   418.4586   418.7795   421.7756   422.2437   422.6723   422.8769   423.3076   423.7442   
      3    0      32    4.38e-03   418.3132   418.4840   421.3753   421.7790   421.9375   422.3903   422.9141   423.1836   
      4    1      40    3.03e-03   418.3044   418.4741*  421.3424   421.7383   421.7866   421.8817   422.8724   423.1768   
      5    5      47    2.27e-04   418.3037*  418.4737*  421.3384*  421.7249   421.7605   421.7659   422.8704*  423.1753*  
      6    8      50    1.68e-05   418.3037*  418.4737*  421.3384*  421.7219*  421.7572*  421.7622*  422.8703*  423.1752*  

     Davidson procedure converged

        CVS-EOMEE-CCSD/MP2 right amplitudes will be solved using Davidson.
        Amplitudes will be solved using standard  algorithm.
     Hard-coded thresholds: 
     LinDepThresh=1.00e-15  NormThresh=1.00e-06  ReorthogonThresh=1.00e-02

      Roots     MaxVec    MaxIter   Precond   Conv      Shift    
      8         1000      200       1         1.00e-04  0.00e+00  
 ------------------------------------------------------------------------------
      Iter ConvRoots NVecs ResNorm Current eigenvalues (eV)
 ------------------------------------------------------------------------------
      0    0      8     2.68e+00   418.3037   418.4737   421.3384   421.7219   421.7572   421.7622   422.8703   423.1752   
      1    0      16    1.73e+00   415.6171   415.8293   418.4101   418.7933   419.0288   419.1430   419.7324   419.9549   
      2    0      24    8.75e-02   404.8507   405.2945   406.3187   406.9669   407.5268   407.8863   409.4734   410.0499   
      3    0      32    3.86e-02   404.2100   404.6166   405.6188   406.2735   406.7249   407.0377   408.4715   409.1568   
      4    0      40    1.02e-02   404.0999   404.4815   405.5516   406.1922   406.4919   406.7348   407.9302   408.7735   
      5    0      48    1.95e-02   404.0539   404.4165   405.4912   406.1539   406.3120   406.4432   407.3774   408.4517   
      6    0      56    7.43e-03   404.0285   404.3741   405.4434   406.1128   406.1730   406.2353   406.9988   408.1887   
      7    0      64    8.67e-03   404.0088   404.3431   405.4122   406.0523   406.0837   406.1146   406.7193   407.9100   
Found complex roots...
      8    0      72    3.74e-03   404.0045   404.3356   405.4035   406.0099   406.0588   406.0941   406.5492   407.6575   
      9    0      80    3.54e-03   404.0033   404.3331   405.3983   405.9835   406.0430   406.0779   406.4461   407.4775   
      10   2      88    1.77e-03   404.0026*  404.3314*  405.3960   405.9664   406.0337   406.0686   406.3880   407.3533   
Found complex roots...
      11   3      94    1.31e-03   404.0025*  404.3313*  405.3953*  405.9577   406.0295   406.0652   406.3579   407.2643   
      12   3      99    8.17e-04   404.0025*  404.3313*  405.3951*  405.9531   406.0272   406.0627   406.3411   407.1855   
      13   3      104   4.99e-04   404.0025*  404.3313*  405.3947*  405.9498   406.0254   406.0596   406.3304   407.1566   
      14   6      109   3.55e-04   404.0024*  404.3312*  405.3945*  405.9478*  406.0234*  406.0589*  406.3220   407.1097   
      15   6      111   3.36e-04   404.0024*  404.3312*  405.3945*  405.9482*  406.0233*  406.0589*  406.3186   407.0977   
      16   6      113   2.44e-04   404.0024*  404.3312*  405.3945*  405.9480*  406.0228*  406.0589*  406.3123   407.0707   
      17   6      115   2.02e-04   404.0024*  404.3312*  405.3945*  405.9480*  406.0228*  406.0589*  406.3093   407.0583   
      18   6      117   1.53e-04   404.0024*  404.3312*  405.3944*  405.9479*  406.0225*  406.0590*  406.3053   407.0457   
      19   6      119   9.10e-05   404.0023*  404.3312*  405.3945*  405.9479*  406.0226*  406.0589*  406.3053   407.0396   
      20   7      121   5.18e-05   404.0023*  404.3312*  405.3945*  405.9479*  406.0225*  406.0589*  406.3033*  407.0363   
      21   8      122   4.34e-05   404.0024*  404.3312*  405.3945*  405.9479*  406.0225*  406.0590*  406.3033*  407.0345*  

     Davidson procedure converged

 EOMEE transition 1/A'
 Total energy = -399.09949169 a.u.  Excitation energy = 404.0023 eV.
 R0^2 = 0.0000  R1^2 = 0.8322  R2_CCVV^2 = 0.0008  R2_COVV^2 = 0.0835  Res^2 = 7.13e-06
 Conv-d = yes

 Amplitude    Transitions between orbitals
 -0.4357       3 (A') A                  ->    25 (A') A                  
 -0.4357       3 (A') B                  ->    25 (A') B                  
 -0.2436       3 (A') A                  ->    26 (A') A                  
 -0.2436       3 (A') B                  ->    26 (A') B                  
 -0.1716       3 (A') A                  ->    40 (A') A                  
 -0.1716       3 (A') B                  ->    40 (A') B                  
  0.1546       3 (A') A                  ->    39 (A') A                  
  0.1546       3 (A') B                  ->    39 (A') B                  
 -0.1503       3 (A') A                  ->    33 (A') A                  
 -0.1503       3 (A') B                  ->    33 (A') B                  
 -0.1393       3 (A') A                  ->    27 (A') A                  
 -0.1393       3 (A') B                  ->    27 (A') B                  
 -0.1393       3 (A') A                  ->    31 (A') A                  
 -0.1393       3 (A') B                  ->    31 (A') B                  
  0.1280       3 (A') A                  ->    28 (A') A                  
  0.1280       3 (A') B                  ->    28 (A') B                  

              Summary of significant orbitals:

               Number  Type             Irrep      Energy
               3       Occ  Alpha       3 (A')    -15.6481
               3       Occ  Beta        3 (A')    -15.6481
               30      Vir  Alpha      25 (A')      0.0232
               31      Vir  Alpha      26 (A')      0.0482
               32      Vir  Alpha      27 (A')      0.0607
               33      Vir  Alpha      28 (A')      0.0708
               39      Vir  Alpha      31 (A')      0.1338
               42      Vir  Alpha      33 (A')      0.1581
               50      Vir  Alpha      39 (A')      0.2188
               51      Vir  Alpha      40 (A')      0.2293
               30      Vir  Beta       25 (A')      0.0232
               31      Vir  Beta       26 (A')      0.0482
               32      Vir  Beta       27 (A')      0.0607
               33      Vir  Beta       28 (A')      0.0708
               39      Vir  Beta       31 (A')      0.1338
               42      Vir  Beta       33 (A')      0.1581
               50      Vir  Beta       39 (A')      0.2188
               51      Vir  Beta       40 (A')      0.2293


 EOMEE transition 2/A'
 Total energy = -399.08740708 a.u.  Excitation energy = 404.3312 eV.
 R0^2 = 0.0000  R1^2 = 0.8302  R2_CCVV^2 = 0.0008  R2_COVV^2 = 0.0845  Res^2 = 3.27e-05
 Conv-d = yes

 Amplitude    Transitions between orbitals
 -0.4574       4 (A') A                  ->    27 (A') A                  
 -0.4574       4 (A') B                  ->    27 (A') B                  
 -0.2233       4 (A') A                  ->    28 (A') A                  
 -0.2233       4 (A') B                  ->    28 (A') B                  
 -0.2118       4 (A') A                  ->    40 (A') A                  
 -0.2118       4 (A') B                  ->    40 (A') B                  
 -0.1477       4 (A') A                  ->    41 (A') A                  
 -0.1477       4 (A') B                  ->    41 (A') B                  
 -0.1394       4 (A') A                  ->    25 (A') A                  
 -0.1394       4 (A') B                  ->    25 (A') B                  
  0.1080       4 (A') A                  ->    34 (A') A                  
  0.1080       4 (A') B                  ->    34 (A') B                  

              Summary of significant orbitals:

               Number  Type             Irrep      Energy
               4       Occ  Alpha       4 (A')    -15.6305
               4       Occ  Beta        4 (A')    -15.6305
               30      Vir  Alpha      25 (A')      0.0232
               32      Vir  Alpha      27 (A')      0.0607
               33      Vir  Alpha      28 (A')      0.0708
               44      Vir  Alpha      34 (A')      0.1673
               51      Vir  Alpha      40 (A')      0.2293
               53      Vir  Alpha      41 (A')      0.2510
               30      Vir  Beta       25 (A')      0.0232
               32      Vir  Beta       27 (A')      0.0607
               33      Vir  Beta       28 (A')      0.0708
               44      Vir  Beta       34 (A')      0.1673
               51      Vir  Beta       40 (A')      0.2293
               53      Vir  Beta       41 (A')      0.2510


 EOMEE transition 3/A'
 Total energy = -399.04833297 a.u.  Excitation energy = 405.3944 eV.
 R0^2 = 0.0000  R1^2 = 0.8200  R2_CCVV^2 = 0.0008  R2_COVV^2 = 0.0896  Res^2 = 1.16e-05
 Conv-d = yes

 Amplitude    Transitions between orbitals
  0.4596       4 (A') A                  ->    25 (A') A                  
  0.4596       4 (A') B                  ->    25 (A') B                  
 -0.3168       4 (A') A                  ->    29 (A') A                  
 -0.3168       4 (A') B                  ->    29 (A') B                  
 -0.1860       4 (A') A                  ->    28 (A') A                  
 -0.1860       4 (A') B                  ->    28 (A') B                  

              Summary of significant orbitals:

               Number  Type             Irrep      Energy
               4       Occ  Alpha       4 (A')    -15.6305
               4       Occ  Beta        4 (A')    -15.6305
               30      Vir  Alpha      25 (A')      0.0232
               33      Vir  Alpha      28 (A')      0.0708
               36      Vir  Alpha      29 (A')      0.1020
               30      Vir  Beta       25 (A')      0.0232
               33      Vir  Beta       28 (A')      0.0708
               36      Vir  Beta       29 (A')      0.1020


 EOMEE transition 4/A'
 Total energy = -399.02799254 a.u.  Excitation energy = 405.9479 eV.
 R0^2 = 0.0000  R1^2 = 0.8221  R2_CCVV^2 = 0.0008  R2_COVV^2 = 0.0886  Res^2 = 3.90e-05
 Conv-d = yes

 Amplitude    Transitions between orbitals
  0.4230       3 (A') A                  ->    29 (A') A                  
  0.4230       3 (A') B                  ->    29 (A') B                  
 -0.2570       3 (A') A                  ->    27 (A') A                  
 -0.2570       3 (A') B                  ->    27 (A') B                  
  0.2313       3 (A') A                  ->    26 (A') A                  
  0.2313       3 (A') B                  ->    26 (A') B                  
 -0.1796       3 (A') A                  ->    25 (A') A                  
 -0.1796       3 (A') B                  ->    25 (A') B                  
 -0.1388       3 (A') A                  ->    28 (A') A                  
 -0.1388       3 (A') B                  ->    28 (A') B                  
  0.1353       3 (A') A                  ->    43 (A') A                  
  0.1353       3 (A') B                  ->    43 (A') B                  
 -0.1076       3 (A') A                  ->    39 (A') A                  
 -0.1076       3 (A') B                  ->    39 (A') B                  

              Summary of significant orbitals:

               Number  Type             Irrep      Energy
               3       Occ  Alpha       3 (A')    -15.6481
               3       Occ  Beta        3 (A')    -15.6481
               30      Vir  Alpha      25 (A')      0.0232
               31      Vir  Alpha      26 (A')      0.0482
               32      Vir  Alpha      27 (A')      0.0607
               33      Vir  Alpha      28 (A')      0.0708
               36      Vir  Alpha      29 (A')      0.1020
               50      Vir  Alpha      39 (A')      0.2188
               57      Vir  Alpha      43 (A')      0.2976
               30      Vir  Beta       25 (A')      0.0232
               31      Vir  Beta       26 (A')      0.0482
               32      Vir  Beta       27 (A')      0.0607
               33      Vir  Beta       28 (A')      0.0708
               36      Vir  Beta       29 (A')      0.1020
               50      Vir  Beta       39 (A')      0.2188
               57      Vir  Beta       43 (A')      0.2976


 EOMEE transition 5/A'
 Total energy = -399.02525428 a.u.  Excitation energy = 406.0224 eV.
 R0^2 = 0.0000  R1^2 = 0.8182  R2_CCVV^2 = 0.0008  R2_COVV^2 = 0.0905  Res^2 = 3.86e-05
 Conv-d = yes

 Amplitude    Transitions between orbitals
 -0.3659       4 (A') A                  ->    29 (A') A                  
 -0.3659       4 (A') B                  ->    29 (A') B                  
 -0.3245       4 (A') A                  ->    25 (A') A                  
 -0.3245       4 (A') B                  ->    25 (A') B                  
 -0.2245       4 (A') A                  ->    26 (A') A                  
 -0.2245       4 (A') B                  ->    26 (A') B                  
  0.1733       4 (A') A                  ->    27 (A') A                  
  0.1733       4 (A') B                  ->    27 (A') B                  
 -0.1654       4 (A') A                  ->    31 (A') A                  
 -0.1654       4 (A') B                  ->    31 (A') B                  
 -0.1225       4 (A') A                  ->    40 (A') A                  
 -0.1225       4 (A') B                  ->    40 (A') B                  
 -0.1121       4 (A') A                  ->    43 (A') A                  
 -0.1121       4 (A') B                  ->    43 (A') B                  

              Summary of significant orbitals:

               Number  Type             Irrep      Energy
               4       Occ  Alpha       4 (A')    -15.6305
               4       Occ  Beta        4 (A')    -15.6305
               30      Vir  Alpha      25 (A')      0.0232
               31      Vir  Alpha      26 (A')      0.0482
               32      Vir  Alpha      27 (A')      0.0607
               36      Vir  Alpha      29 (A')      0.1020
               39      Vir  Alpha      31 (A')      0.1338
               51      Vir  Alpha      40 (A')      0.2293
               57      Vir  Alpha      43 (A')      0.2976
               30      Vir  Beta       25 (A')      0.0232
               31      Vir  Beta       26 (A')      0.0482
               32      Vir  Beta       27 (A')      0.0607
               36      Vir  Beta       29 (A')      0.1020
               39      Vir  Beta       31 (A')      0.1338
               51      Vir  Beta       40 (A')      0.2293
               57      Vir  Beta       43 (A')      0.2976


 EOMEE transition 6/A'
 Total energy = -399.02391307 a.u.  Excitation energy = 406.0589 eV.
 R0^2 = 0.0000  R1^2 = 0.8190  R2_CCVV^2 = 0.0008  R2_COVV^2 = 0.0901  Res^2 = 4.26e-05
 Conv-d = yes

 Amplitude    Transitions between orbitals
  0.3564       3 (A') A                  ->    27 (A') A                  
  0.3564       3 (A') B                  ->    27 (A') B                  
 -0.3370       3 (A') A                  ->    25 (A') A                  
 -0.3370       3 (A') B                  ->    25 (A') B                  
  0.2737       3 (A') A                  ->    26 (A') A                  
  0.2737       3 (A') B                  ->    26 (A') B                  
 -0.1407       3 (A') A                  ->    28 (A') A                  
 -0.1407       3 (A') B                  ->    28 (A') B                  
 -0.1201       3 (A') A                  ->    29 (A') A                  
 -0.1201       3 (A') B                  ->    29 (A') B                  

              Summary of significant orbitals:

               Number  Type             Irrep      Energy
               3       Occ  Alpha       3 (A')    -15.6481
               3       Occ  Beta        3 (A')    -15.6481
               30      Vir  Alpha      25 (A')      0.0232
               31      Vir  Alpha      26 (A')      0.0482
               32      Vir  Alpha      27 (A')      0.0607
               33      Vir  Alpha      28 (A')      0.0708
               36      Vir  Alpha      29 (A')      0.1020
               30      Vir  Beta       25 (A')      0.0232
               31      Vir  Beta       26 (A')      0.0482
               32      Vir  Beta       27 (A')      0.0607
               33      Vir  Beta       28 (A')      0.0708
               36      Vir  Beta       29 (A')      0.1020


 EOMEE transition 7/A'
 Total energy = -399.01493442 a.u.  Excitation energy = 406.3033 eV.
 R0^2 = 0.0000  R1^2 = 0.8149  R2_CCVV^2 = 0.0007  R2_COVV^2 = 0.0922  Res^2 = 7.83e-05
 Conv-d = yes

 Amplitude    Transitions between orbitals
 -0.5459       4 (A') A                  ->    26 (A') A                  
 -0.5459       4 (A') B                  ->    26 (A') B                  
  0.2001       4 (A') A                  ->    25 (A') A                  
  0.2001       4 (A') B                  ->    25 (A') B                  
 -0.1245       4 (A') A                  ->    27 (A') A                  
 -0.1245       4 (A') B                  ->    27 (A') B                  
 -0.1229       4 (A') A                  ->    35 (A') A                  
 -0.1229       4 (A') B                  ->    35 (A') B                  

              Summary of significant orbitals:

               Number  Type             Irrep      Energy
               4       Occ  Alpha       4 (A')    -15.6305
               4       Occ  Beta        4 (A')    -15.6305
               30      Vir  Alpha      25 (A')      0.0232
               31      Vir  Alpha      26 (A')      0.0482
               32      Vir  Alpha      27 (A')      0.0607
               45      Vir  Alpha      35 (A')      0.1764
               30      Vir  Beta       25 (A')      0.0232
               31      Vir  Beta       26 (A')      0.0482
               32      Vir  Beta       27 (A')      0.0607
               45      Vir  Beta       35 (A')      0.1764


 EOMEE transition 8/A'
 Total energy = -398.98806217 a.u.  Excitation energy = 407.0345 eV.
 R0^2 = 0.0000  R1^2 = 0.8183  R2_CCVV^2 = 0.0008  R2_COVV^2 = 0.0905  Res^2 = 9.71e-05
 Conv-d = yes

 Amplitude    Transitions between orbitals
 -0.3805       3 (A') A                  ->    26 (A') A                  
 -0.3805       3 (A') B                  ->    26 (A') B                  
  0.2291       3 (A') A                  ->    27 (A') A                  
  0.2291       3 (A') B                  ->    27 (A') B                  
 -0.2180       3 (A') A                  ->    28 (A') A                  
 -0.2180       3 (A') B                  ->    28 (A') B                  
  0.1961       3 (A') A                  ->    29 (A') A                  
  0.1961       3 (A') B                  ->    29 (A') B                  
  0.1559       3 (A') A                  ->    30 (A') A                  
  0.1559       3 (A') B                  ->    30 (A') B                  
  0.1397       3 (A') A                  ->    32 (A') A                  
  0.1397       3 (A') B                  ->    32 (A') B                  
  0.1289       3 (A') A                  ->    40 (A') A                  
  0.1289       3 (A') B                  ->    40 (A') B                  

              Summary of significant orbitals:

               Number  Type             Irrep      Energy
               3       Occ  Alpha       3 (A')    -15.6481
               3       Occ  Beta        3 (A')    -15.6481
               31      Vir  Alpha      26 (A')      0.0482
               32      Vir  Alpha      27 (A')      0.0607
               33      Vir  Alpha      28 (A')      0.0708
               36      Vir  Alpha      29 (A')      0.1020
               37      Vir  Alpha      30 (A')      0.1094
               41      Vir  Alpha      32 (A')      0.1457
               51      Vir  Alpha      40 (A')      0.2293
               31      Vir  Beta       26 (A')      0.0482
               32      Vir  Beta       27 (A')      0.0607
               33      Vir  Beta       28 (A')      0.0708
               36      Vir  Beta       29 (A')      0.1020
               37      Vir  Beta       30 (A')      0.1094
               41      Vir  Beta       32 (A')      0.1457
               51      Vir  Beta       40 (A')      0.2293


      CVS-EOM-CCSD/MP2 left amplitudes will be solved using Davidson.
        Amplitudes will be solved using MOM  algorithm.
     Hard-coded thresholds: 
     LinDepThresh=1.00e-15  NormThresh=1.00e-06  ReorthogonThresh=1.00e-02

      Roots     MaxVec    MaxIter   Precond   Conv      Shift    
      8         1000      200       1         1.00e-04  0.00e+00  
 ------------------------------------------------------------------------------
      Iter ConvRoots NVecs ResNorm Current eigenvalues (eV)
 ------------------------------------------------------------------------------
      0    0      8     5.39e-02   404.0024   404.3312   405.3945   405.9479   406.0225   406.0590   406.3033   407.0345   
      1    0      16    3.08e-02   404.0023   404.3309   405.3944   405.9475   406.0224   406.0584   406.3029   407.0336   
      2    0      24    3.18e-04   404.0024   404.3313   405.3944   405.9479   406.0228   406.0588   406.3030   407.0342   
      3    7      32    1.19e-04   404.0024*  404.3313*  405.3944*  405.9478*  406.0228*  406.0587*  406.3028*  407.0338   
      4    7      33    1.78e-04   404.0024*  404.3313*  405.3944*  405.9479*  406.0228*  406.0587*  406.3028*  407.0342   
      5    8      34    5.18e-05   404.0024*  404.3313*  405.3944*  405.9478*  406.0228*  406.0587*  406.3028*  407.0340*  

     Davidson procedure converged

        Solving for CVS-EOMEE-CCSD A" singlet states.

       EOMEE-CCSD-SINGLES right amplitudes will be solved using Davidson.
        Amplitudes will be solved using standard  algorithm.
     Hard-coded thresholds: 
     LinDepThresh=1.00e-15  NormThresh=1.00e-06  ReorthogonThresh=1.00e-02

      Roots     MaxVec    MaxIter   Precond   Conv      Shift    
      10        1000      200       1         1.00e-04  0.00e+00  
 ------------------------------------------------------------------------------
      Iter ConvRoots NVecs ResNorm Current eigenvalues (eV)
 ------------------------------------------------------------------------------
      0    0      10    6.94e-03   421.7857   422.0198   423.2631   423.4463   423.6567   424.3247   425.0383   425.1582   425.2106   426.0277   
      1    0      20    1.63e-02   421.0656   421.3296   422.7777   423.1753   423.3764   423.6073   424.9131   425.0855   425.1674   425.8451   
      2    0      30    3.79e-04   418.9702   419.2606   422.1840   422.2461   422.9157   423.2657   424.6213   424.9858   424.9860   425.2415   
      3    10     40    6.63e-06   418.9521*  419.2512*  422.1807*  422.2399*  422.9124*  423.2635*  424.5963*  424.9663*  424.9819*  425.2216*  

     Davidson procedure converged

        CVS-EOMEE-CCSD/MP2 right amplitudes will be solved using Davidson.
        Amplitudes will be solved using standard  algorithm.
     Hard-coded thresholds: 
     LinDepThresh=1.00e-15  NormThresh=1.00e-06  ReorthogonThresh=1.00e-02

      Roots     MaxVec    MaxIter   Precond   Conv      Shift    
      10        1000      200       1         1.00e-04  0.00e+00  
 ------------------------------------------------------------------------------
      Iter ConvRoots NVecs ResNorm Current eigenvalues (eV)
 ------------------------------------------------------------------------------
      0    0      10    2.82e+00   418.9521   419.2512   422.1807   422.2399   422.9124   423.2635   424.5963   424.9663   424.9819   425.2216   
      1    0      20    2.03e+00   416.0021   416.3293   418.6566   418.7847   419.7111   420.0303   421.3936   421.7119   421.7917   422.0047   
      2    0      30    8.79e-02   404.3733   404.5695   405.2568   405.9386   406.8069   407.0437   408.3198   408.6506   408.8224   409.2284   
      3    0      40    1.15e-02   403.7050   403.9462   404.6834   405.2796   406.2184   406.4600   407.7087   408.0248   408.0847   408.5118   
Found complex roots...
      4    0      50    1.74e-03   403.6152   403.8854   404.6508   405.2008   406.1934   406.4398   407.6899   407.9860   408.0098   408.4324   
      5    0      60    1.52e-03   403.5904   403.8721   404.6431   405.1797   406.1878   406.4358   407.6845   407.9336   408.0063   408.3920   
      6    0      70    9.81e-04   403.5702   403.8638   404.6371   405.1646   406.1842   406.4321   407.6742   407.8741   408.0012   408.3303   
      7    1      80    7.17e-04   403.5600   403.8589   404.6349   405.1557   406.1813   406.4304*  407.6570   407.8250   407.9974   408.2726   
      8    7      89    2.20e-04   403.5589*  403.8579*  404.6343*  405.1535*  406.1808*  406.4303*  407.6429   407.8065   407.9957*  408.2529   
      9    7      92    1.01e-04   403.5587*  403.8579*  404.6341*  405.1535*  406.1805*  406.4303*  407.6351   407.8007   407.9957*  408.2482   
      10   9      95    5.30e-05   403.5586*  403.8579*  404.6340*  405.1534*  406.1803*  406.4302*  407.6278   407.7985*  407.9957*  408.2460*  
      11   9      96    3.45e-05   403.5586*  403.8579*  404.6341*  405.1534*  406.1803*  406.4302*  407.6255   407.7982*  407.9957*  408.2460*  
      12   10     97    2.60e-05   403.5586*  403.8579*  404.6341*  405.1534*  406.1803*  406.4302*  407.6243*  407.7982*  407.9957*  408.2460*  

     Davidson procedure converged

 EOMEE transition 1/A"
 Total energy = -399.11580084 a.u.  Excitation energy = 403.5586 eV.
 R0^2 = 0.0000  R1^2 = 0.8224  R2_CCVV^2 = 0.0008  R2_COVV^2 = 0.0884  Res^2 = 9.68e-06
 Conv-d = yes

 Amplitude    Transitions between orbitals
  0.5052       4 (A') A                  ->    6 (A") A                   
  0.5052       4 (A') B                  ->    6 (A") B                   
 -0.2615       4 (A') A                  ->    7 (A") A                   
[...]
 State A: cvs_eomee_ccsd/rhfref/singlets: 4/A"
 State B: cvs_eomee_ccsd/rhfref/singlets: 7/A"
 Transition dipole moment (a.u.):
   A->B: 0.000600 (X -0.000028, Y -0.000599, Z 0.000000)
   B->A: 0.000525 (X 0.000000, Y -0.000525, Z 0.000000)
 Oscillator strength (a.u.): 0.000000
 Norm of one-particle transition density matrix:
   A->B: 0.072389;   B->A: 0.067679
   ||gamma^AB||*||gamma^BA||: 0.004899

 ------------------------------------------------------------------------------
 State A: cvs_eomee_ccsd/rhfref/singlets: 4/A"
 State B: cvs_eomee_ccsd/rhfref/singlets: 8/A"
 Transition dipole moment (a.u.):
   A->B: 0.000663 (X 0.000546, Y 0.000377, Z 0.000000)
   B->A: 0.000713 (X -0.000252, Y 0.000667, Z 0.000000)
 Oscillator strength (a.u.): 0.000000
 Norm of one-particle transition density matrix:
   A->B: 0.041731;   B->A: 0.041380
   ||gamma^AB||*||gamma^BA||: 0.001727

 ------------------------------------------------------------------------------
 State A: cvs_eomee_ccsd/rhfref/singlets: 4/A"
 State B: cvs_eomee_ccsd/rhfref/singlets: 9/A"
 Transition dipole moment (a.u.):
   A->B: 0.085529 (X 0.039768, Y 0.075721, Z 0.000000)
   B->A: 0.070499 (X 0.049617, Y 0.050083, Z 0.000000)
 Oscillator strength (a.u.): 0.000401
 Norm of one-particle transition density matrix:
   A->B: 0.697305;   B->A: 0.694403
   ||gamma^AB||*||gamma^BA||: 0.484211

 ------------------------------------------------------------------------------
 State A: cvs_eomee_ccsd/rhfref/singlets: 4/A"
 State B: cvs_eomee_ccsd/rhfref/singlets: 10/A"
 Transition dipole moment (a.u.):
   A->B: 0.797686 (X -0.730831, Y 0.319670, Z 0.000000)
   B->A: 0.781072 (X -0.716377, Y 0.311253, Z 0.000000)
 Oscillator strength (a.u.): 0.047206
 Norm of one-particle transition density matrix:
   A->B: 0.695070;   B->A: 0.692056
   ||gamma^AB||*||gamma^BA||: 0.481027

 ------------------------------------------------------------------------------
 State A: cvs_eomee_ccsd/rhfref/singlets: 5/A"
 State B: cvs_eomee_ccsd/rhfref/singlets: 6/A"
 Transition dipole moment (a.u.):
   A->B: 0.000628 (X 0.000545, Y -0.000313, Z 0.000000)
   B->A: 0.000618 (X 0.000534, Y -0.000311, Z 0.000000)
 Oscillator strength (a.u.): 0.000000
 Norm of one-particle transition density matrix:
   A->B: 0.445276;   B->A: 0.445994
   ||gamma^AB||*||gamma^BA||: 0.198591

 ------------------------------------------------------------------------------
 State A: cvs_eomee_ccsd/rhfref/singlets: 5/A"
 State B: cvs_eomee_ccsd/rhfref/singlets: 7/A"
 Transition dipole moment (a.u.):
   A->B: 2.313962 (X -0.785179, Y -2.176675, Z 0.000000)
   B->A: 2.321766 (X -0.810809, Y -2.175589, Z 0.000000)
 Oscillator strength (a.u.): 0.190047
 Norm of one-particle transition density matrix:
   A->B: 0.703846;   B->A: 0.703715
   ||gamma^AB||*||gamma^BA||: 0.495307

 ------------------------------------------------------------------------------
 State A: cvs_eomee_ccsd/rhfref/singlets: 5/A"
 State B: cvs_eomee_ccsd/rhfref/singlets: 8/A"
 Transition dipole moment (a.u.):
   A->B: 1.375423 (X 1.218163, Y -0.638645, Z 0.000000)
   B->A: 1.353808 (X 1.227087, Y -0.571888, Z 0.000000)
 Oscillator strength (a.u.): 0.073726
 Norm of one-particle transition density matrix:
   A->B: 0.701000;   B->A: 0.700985
   ||gamma^AB||*||gamma^BA||: 0.491391

 ------------------------------------------------------------------------------
 State A: cvs_eomee_ccsd/rhfref/singlets: 5/A"
 State B: cvs_eomee_ccsd/rhfref/singlets: 9/A"
 Transition dipole moment (a.u.):
   A->B: 0.002680 (X 0.002430, Y -0.001129, Z 0.000000)
   B->A: 0.003502 (X 0.003254, Y -0.001296, Z 0.000000)
 Oscillator strength (a.u.): 0.000000
 Norm of one-particle transition density matrix:
   A->B: 0.237274;   B->A: 0.234624
   ||gamma^AB||*||gamma^BA||: 0.055670

 ------------------------------------------------------------------------------
 State A: cvs_eomee_ccsd/rhfref/singlets: 5/A"
 State B: cvs_eomee_ccsd/rhfref/singlets: 10/A"
 Transition dipole moment (a.u.):
   A->B: 0.132885 (X 0.131964, Y -0.015619, Z 0.000000)
   B->A: 0.135180 (X 0.134039, Y -0.017530, Z 0.000000)
 Oscillator strength (a.u.): 0.000909
 Norm of one-particle transition density matrix:
   A->B: 0.180873;   B->A: 0.177807
   ||gamma^AB||*||gamma^BA||: 0.032160

 ------------------------------------------------------------------------------
 State A: cvs_eomee_ccsd/rhfref/singlets: 6/A"
 State B: cvs_eomee_ccsd/rhfref/singlets: 7/A"
 Transition dipole moment (a.u.):
   A->B: 0.001217 (X -0.001204, Y 0.000177, Z 0.000000)
   B->A: 0.001179 (X -0.001165, Y 0.000182, Z 0.000000)
 Oscillator strength (a.u.): 0.000000
 Norm of one-particle transition density matrix:
   A->B: 0.286093;   B->A: 0.281723
   ||gamma^AB||*||gamma^BA||: 0.080599

 ------------------------------------------------------------------------------
 State A: cvs_eomee_ccsd/rhfref/singlets: 6/A"
 State B: cvs_eomee_ccsd/rhfref/singlets: 8/A"
 Transition dipole moment (a.u.):
   A->B: 0.001027 (X 0.000209, Y 0.001005, Z 0.000000)
   B->A: 0.001613 (X -0.001412, Y 0.000780, Z 0.000000)
 Oscillator strength (a.u.): 0.000000
 Norm of one-particle transition density matrix:
   A->B: 0.042690;   B->A: 0.037536
   ||gamma^AB||*||gamma^BA||: 0.001602

 ------------------------------------------------------------------------------
 State A: cvs_eomee_ccsd/rhfref/singlets: 6/A"
 State B: cvs_eomee_ccsd/rhfref/singlets: 9/A"
 Transition dipole moment (a.u.):
   A->B: 2.514714 (X -0.741885, Y 2.402789, Z 0.000000)
   B->A: 2.509277 (X -0.747924, Y 2.395221, Z 0.000000)
 Oscillator strength (a.u.): 0.242015
 Norm of one-particle transition density matrix:
   A->B: 0.704354;   B->A: 0.703780
   ||gamma^AB||*||gamma^BA||: 0.495710

 ------------------------------------------------------------------------------
 State A: cvs_eomee_ccsd/rhfref/singlets: 6/A"
 State B: cvs_eomee_ccsd/rhfref/singlets: 10/A"
 Transition dipole moment (a.u.):
   A->B: 1.523887 (X -1.511436, Y -0.194403, Z 0.000000)
   B->A: 1.519686 (X -1.508446, Y -0.184491, Z 0.000000)
 Oscillator strength (a.u.): 0.103021
 Norm of one-particle transition density matrix:
   A->B: 0.701444;   B->A: 0.700620
   ||gamma^AB||*||gamma^BA||: 0.491446

 ------------------------------------------------------------------------------
 State A: cvs_eomee_ccsd/rhfref/singlets: 7/A"
 State B: cvs_eomee_ccsd/rhfref/singlets: 8/A"
 Transition dipole moment (a.u.):
   A->B: 0.428324 (X 0.062734, Y 0.423705, Z 0.000000)
   B->A: 0.413412 (X 0.004374, Y 0.413389, Z 0.000000)
 Oscillator strength (a.u.): 0.000748
 Norm of one-particle transition density matrix:
   A->B: 0.700817;   B->A: 0.700889
   ||gamma^AB||*||gamma^BA||: 0.491195

 ------------------------------------------------------------------------------
 State A: cvs_eomee_ccsd/rhfref/singlets: 7/A"
 State B: cvs_eomee_ccsd/rhfref/singlets: 9/A"
 Transition dipole moment (a.u.):
   A->B: 0.003727 (X -0.000618, Y -0.003675, Z 0.000000)
   B->A: 0.003203 (X -0.000554, Y -0.003155, Z 0.000000)
 Oscillator strength (a.u.): 0.000000
 Norm of one-particle transition density matrix:
   A->B: 0.396336;   B->A: 0.398937
   ||gamma^AB||*||gamma^BA||: 0.158113

 ------------------------------------------------------------------------------
 State A: cvs_eomee_ccsd/rhfref/singlets: 7/A"
 State B: cvs_eomee_ccsd/rhfref/singlets: 10/A"
 Transition dipole moment (a.u.):
   A->B: 0.081039 (X 0.005361, Y 0.080862, Z 0.000000)
   B->A: 0.079701 (X 0.005269, Y 0.079527, Z 0.000000)
 Oscillator strength (a.u.): 0.000098
 Norm of one-particle transition density matrix:
   A->B: 0.155725;   B->A: 0.144745
   ||gamma^AB||*||gamma^BA||: 0.022540

 ------------------------------------------------------------------------------
 State A: cvs_eomee_ccsd/rhfref/singlets: 8/A"
 State B: cvs_eomee_ccsd/rhfref/singlets: 9/A"
 Transition dipole moment (a.u.):
   A->B: 0.002009 (X 0.001431, Y -0.001411, Z 0.000000)
   B->A: 0.003356 (X 0.001398, Y -0.003051, Z 0.000000)
 Oscillator strength (a.u.): 0.000000
 Norm of one-particle transition density matrix:
   A->B: 0.159793;   B->A: 0.172389
   ||gamma^AB||*||gamma^BA||: 0.027547

 ------------------------------------------------------------------------------
 State A: cvs_eomee_ccsd/rhfref/singlets: 8/A"
 State B: cvs_eomee_ccsd/rhfref/singlets: 10/A"
 Transition dipole moment (a.u.):
   A->B: 0.037054 (X 0.010309, Y -0.035591, Z 0.000000)
   B->A: 0.033412 (X 0.011539, Y -0.031356, Z 0.000000)
 Oscillator strength (a.u.): 0.000014
 Norm of one-particle transition density matrix:
   A->B: 0.399128;   B->A: 0.396659
   ||gamma^AB||*||gamma^BA||: 0.158318

 ------------------------------------------------------------------------------
 State A: cvs_eomee_ccsd/rhfref/singlets: 9/A"
 State B: cvs_eomee_ccsd/rhfref/singlets: 10/A"
 Transition dipole moment (a.u.):
   A->B: 1.233245 (X 0.060722, Y 1.231750, Z 0.000000)
   B->A: 1.222536 (X 0.085136, Y 1.219568, Z 0.000000)
 Oscillator strength (a.u.): 0.009244
 Norm of one-particle transition density matrix:
   A->B: 0.701501;   B->A: 0.701250
   ||gamma^AB||*||gamma^BA||: 0.491928


 All requested transition properties have been computed

 Transition Properties:   CPU 3923.25 s  wall 733.87 s

 Total ccman2 time:   CPU 27506.27 s  wall 4002.07 s

 
 --------------------------------------------------------------
             Orbital Energies (a.u.) and Symmetries
 --------------------------------------------------------------
 
 Alpha MOs, Restricted
 -- Occupied --                  
-20.551 -20.545 -15.648 -15.631 -11.426 -11.387 -11.345 -11.260
  1 A'    2 A'    3 A'    4 A'    5 A'    6 A'    7 A'    8 A'                 
 -1.442  -1.404  -1.319  -1.250  -1.093  -0.938  -0.907  -0.812
  9 A'   10 A'   11 A'   12 A'   13 A'   14 A'   15 A'   16 A'                 
 -0.770  -0.719  -0.681  -0.671  -0.657  -0.619  -0.605  -0.573
 17 A'   18 A'   19 A'    1 A"   20 A'   21 A'   22 A'    2 A"                 
 -0.528  -0.487  -0.452  -0.439  -0.371
  3 A"   23 A'   24 A'    4 A"    5 A"                                         
 -- Virtual --                   
  0.023   0.048   0.061   0.071   0.074   0.091   0.102   0.109
 25 A'   26 A'   27 A'   28 A'    6 A"    7 A"   29 A'   30 A'                 
  0.129   0.134   0.138   0.146   0.158   0.161   0.167   0.176
  8 A"   31 A'    9 A"   32 A'   33 A'   10 A"   34 A'   35 A'                 
  0.186   0.192   0.198   0.199   0.219   0.229   0.243   0.251
 11 A"   36 A'   37 A'   38 A'   39 A'   40 A'   12 A"   41 A'                 
  0.256   0.286   0.292   0.298   0.310   0.320   0.339   0.354
 42 A'   13 A"   14 A"   43 A'   44 A'   45 A'   46 A'   47 A'                 
  0.369   0.383   0.386   0.397   0.407   0.408   0.415   0.428
 15 A"   48 A'   49 A'   50 A'   51 A'   16 A"   52 A'   53 A'                 
  0.430   0.443   0.469   0.485   0.497   0.518   0.556   0.557
 54 A'   55 A'   56 A'   57 A'   58 A'   59 A'   60 A'   61 A'                 
  0.634   0.668   0.697   0.706   0.739   0.742   0.758   0.771
 62 A'   63 A'   17 A"   64 A'   18 A"   65 A'   19 A"   66 A'                 
  0.786   0.796   0.832   0.854   0.907   0.928   0.945   0.967
 67 A'   20 A"   68 A'   69 A'   70 A'   71 A'   72 A'   73 A'                 
  0.976   0.996   1.014   1.019   1.048   1.056   1.081   1.099
 74 A'   75 A'   21 A"   76 A'   77 A'   22 A"   78 A'   79 A'                 
  1.140   1.209   1.225   1.242   1.251   1.302   1.358   1.359
 80 A'   81 A'   23 A"   24 A"   82 A'   83 A'   25 A"   84 A'                 
  1.376   1.398   1.415   1.419   1.432   1.438   1.457   1.501
 26 A"   27 A"   85 A'   28 A"   86 A'   87 A'   29 A"   88 A'                 
  1.511   1.528   1.575   1.746   1.779   1.796   1.811   1.883
 30 A"   89 A'   90 A'   91 A'   92 A'   93 A'   31 A"   94 A'                 
  1.896   1.909   1.925   1.951   1.970   2.011   2.011   2.067
 32 A"   95 A'   33 A"   96 A'   97 A'   34 A"   98 A'   99 A'                 
  2.118   2.137   2.187   2.220   2.223   2.272   2.292   2.339
100 A'  101 A'  102 A'   35 A"  103 A'  104 A'  105 A'   36 A"                 
  2.345   2.529   2.556   2.580   2.642   2.659   2.723   2.798
106 A'  107 A'   37 A"  108 A'   38 A"  109 A'   39 A"  110 A'                 
  2.820   2.848   2.915   2.960   3.000   3.015   3.041   3.070
 40 A"  111 A'  112 A'  113 A'  114 A'  115 A'  116 A'   41 A"                 
  3.144   3.170   3.173   3.207   3.260   3.263   3.291   3.307
 42 A"   43 A"  117 A'  118 A'   44 A"  119 A'  120 A'   45 A"                 
  3.314   3.343   3.394   3.506   3.568   3.751   3.762   3.799
121 A'   46 A"  122 A'  123 A'  124 A'   47 A"   48 A"  125 A'                 
  3.831   3.872   3.908   3.954   4.016   4.052   4.098   4.282
126 A'  127 A'  128 A'  129 A'  130 A'  131 A'  132 A'  133 A'                 
  4.289   4.337   4.416   4.485   4.623   5.193   5.283   5.348
 49 A"   50 A"  134 A'  135 A'  136 A'  137 A'  138 A'  139 A'                 
  5.600   5.627   5.686   5.763   5.857   6.328   6.365  24.853
 51 A"   52 A"  140 A'  141 A'  142 A'  143 A'  144 A'  145 A'                 
 24.967  25.028  25.324  36.989  37.046  51.709  51.753
146 A'  147 A'  148 A'  149 A'  150 A'  151 A'  152 A'                         
 
 Beta MOs, Restricted
 -- Occupied --                  
-20.551 -20.545 -15.648 -15.631 -11.426 -11.387 -11.345 -11.260
  1 A'    2 A'    3 A'    4 A'    5 A'    6 A'    7 A'    8 A'                 
 -1.442  -1.404  -1.319  -1.250  -1.093  -0.938  -0.907  -0.812
  9 A'   10 A'   11 A'   12 A'   13 A'   14 A'   15 A'   16 A'                 
 -0.770  -0.719  -0.681  -0.671  -0.657  -0.619  -0.605  -0.573
 17 A'   18 A'   19 A'    1 A"   20 A'   21 A'   22 A'    2 A"                 
 -0.528  -0.487  -0.452  -0.439  -0.371
  3 A"   23 A'   24 A'    4 A"    5 A"                                         
 -- Virtual --                   
  0.023   0.048   0.061   0.071   0.074   0.091   0.102   0.109
 25 A'   26 A'   27 A'   28 A'    6 A"    7 A"   29 A'   30 A'                 
  0.129   0.134   0.138   0.146   0.158   0.161   0.167   0.176
  8 A"   31 A'    9 A"   32 A'   33 A'   10 A"   34 A'   35 A'                 
  0.186   0.192   0.198   0.199   0.219   0.229   0.243   0.251
 11 A"   36 A'   37 A'   38 A'   39 A'   40 A'   12 A"   41 A'                 
  0.256   0.286   0.292   0.298   0.310   0.320   0.339   0.354
 42 A'   13 A"   14 A"   43 A'   44 A'   45 A'   46 A'   47 A'                 
  0.369   0.383   0.386   0.397   0.407   0.408   0.415   0.428
 15 A"   48 A'   49 A'   50 A'   51 A'   16 A"   52 A'   53 A'                 
  0.430   0.443   0.469   0.485   0.497   0.518   0.556   0.557
 54 A'   55 A'   56 A'   57 A'   58 A'   59 A'   60 A'   61 A'                 
  0.634   0.668   0.697   0.706   0.739   0.742   0.758   0.771
 62 A'   63 A'   17 A"   64 A'   18 A"   65 A'   19 A"   66 A'                 
  0.786   0.796   0.832   0.854   0.907   0.928   0.945   0.967
 67 A'   20 A"   68 A'   69 A'   70 A'   71 A'   72 A'   73 A'                 
  0.976   0.996   1.014   1.019   1.048   1.056   1.081   1.099
 74 A'   75 A'   21 A"   76 A'   77 A'   22 A"   78 A'   79 A'                 
  1.140   1.209   1.225   1.242   1.251   1.302   1.358   1.359
 80 A'   81 A'   23 A"   24 A"   82 A'   83 A'   25 A"   84 A'                 
  1.376   1.398   1.415   1.419   1.432   1.438   1.457   1.501
 26 A"   27 A"   85 A'   28 A"   86 A'   87 A'   29 A"   88 A'                 
  1.511   1.528   1.575   1.746   1.779   1.796   1.811   1.883
 30 A"   89 A'   90 A'   91 A'   92 A'   93 A'   31 A"   94 A'                 
  1.896   1.909   1.925   1.951   1.970   2.011   2.011   2.067
 32 A"   95 A'   33 A"   96 A'   97 A'   34 A"   98 A'   99 A'                 
  2.118   2.137   2.187   2.220   2.223   2.272   2.292   2.339
100 A'  101 A'  102 A'   35 A"  103 A'  104 A'  105 A'   36 A"                 
  2.345   2.529   2.556   2.580   2.642   2.659   2.723   2.798
106 A'  107 A'   37 A"  108 A'   38 A"  109 A'   39 A"  110 A'                 
  2.820   2.848   2.915   2.960   3.000   3.015   3.041   3.070
 40 A"  111 A'  112 A'  113 A'  114 A'  115 A'  116 A'   41 A"                 
  3.144   3.170   3.173   3.207   3.260   3.263   3.291   3.307
 42 A"   43 A"  117 A'  118 A'   44 A"  119 A'  120 A'   45 A"                 
  3.314   3.343   3.394   3.506   3.568   3.751   3.762   3.799
121 A'   46 A"  122 A'  123 A'  124 A'   47 A"   48 A"  125 A'                 
  3.831   3.872   3.908   3.954   4.016   4.052   4.098   4.282
126 A'  127 A'  128 A'  129 A'  130 A'  131 A'  132 A'  133 A'                 
  4.289   4.337   4.416   4.485   4.623   5.193   5.283   5.348
 49 A"   50 A"  134 A'  135 A'  136 A'  137 A'  138 A'  139 A'                 
  5.600   5.627   5.686   5.763   5.857   6.328   6.365  24.853
 51 A"   52 A"  140 A'  141 A'  142 A'  143 A'  144 A'  145 A'                 
 24.967  25.028  25.324  36.989  37.046  51.709  51.753
146 A'  147 A'  148 A'  149 A'  150 A'  151 A'  152 A'                         
 --------------------------------------------------------------
 
          Ground-State Mulliken Net Atomic Charges

     Atom                 Charge (a.u.)
  ----------------------------------------
      1 C                     0.093026
      2 H                     0.387156
      3 H                     0.226193
      4 H                     0.406725
      5 C                     0.569769
      6 O                    -0.441367
      7 C                     0.218011
      8 O                    -0.408517
      9 N                    -0.591918
     10 N                    -0.546948
     11 C                    -0.160334
     12 H                     0.248204
  ----------------------------------------
  Sum of atomic charges =    -0.000000

 -----------------------------------------------------------------
                    Cartesian Multipole Moments
 -----------------------------------------------------------------
    Charge (ESU x 10^10)
                -0.0000
    Dipole Moment (Debye)
         X      -1.3855      Y      -4.9595      Z      -0.0000
       Tot       5.1494
    Quadrupole Moments (Debye-Ang)
        XX     -60.6980     XY       2.5046     YY     -38.3422
        XZ      -0.0000     YZ      -0.0000     ZZ     -46.9622
    Octopole Moments (Debye-Ang^2)
       XXX     -11.3896    XXY     -34.8658    XYY      -5.2070
       YYY      -9.1039    XXZ      -0.0000    XYZ      -0.0000
       YYZ      -0.0000    XZZ      -1.9258    YZZ       4.3435
       ZZZ      -0.0000
    Hexadecapole Moments (Debye-Ang^3)
      XXXX    -728.0727   XXXY      12.7532   XXYY    -176.8292
      XYYY      13.2972   YYYY    -303.9036   XXXZ      -0.0000
      XXYZ      -0.0000   XYYZ       0.0000   YYYZ      -0.0000
      XXZZ    -114.0606   XYZZ       2.9926   YYZZ     -75.6239
      XZZZ      -0.0000   YZZZ      -0.0000   ZZZZ     -46.6065
 -----------------------------------------------------------------
Archival summary:
1\1\n-62-29-30\SP\ProcedureUnspecified\BasisUnspecified\2244\malop\ThuSep2017:25:112018ThuSep2017:25:112018\0\\#,ProcedureUnspecified,BasisUnspecified,\\0,1\N\H,1,1.01081\C,1,1.37966,2,115.327\O,3,1.21479,1,124.21,2,-0,0\N,3,1.3852,1,112.713,2,-180,0\H,5,1.00619,3,115.142,1,-180,0\C,5,1.37008,3,123.626,1,-0,0\H,7,1.07981,5,115.516,3,-180,0\C,7,1.34802,5,121.979,3,-0,0\H,9,1.07615,7,121.525,5,180,0\C,1,1.40335,2,116.035,3,-180,0\O,11,1.21832,1,120.541,2,-0,0\\HF=-412.579251\\@

 Total job time:  4047.73s(wall), 27739.63s(cpu) 
 Thu Sep 20 17:25:11 2018

        *************************************************************
        *                                                           *
        *  Thank you very much for using Q-Chem.  Have a nice day.  *
        *                                                           *
        *************************************************************


