n-62-23-14 10.66.23
Q-Chem Developer Version! Running on 10.66.23.*
                  Welcome to Q-Chem
     A Quantum Leap Into The Future Of Chemistry


 Q-Chem 5.1, Q-Chem, Inc., Pleasanton, CA (2018)

 Yihan Shao,  Zhengting Gan,  E. Epifanovsky,  A. T. B. Gilbert,  M. Wormit,  
 J. Kussmann,  A. W. Lange,  A. Behn,  Jia Deng,  Xintian Feng,  D. Ghosh,  
 M. Goldey,  P. R. Horn,  L. D. Jacobson,  I. Kaliman,  T. Kus,  A. Landau,  
 Jie Liu,  E. I. Proynov,  R. M. Richard,  R. P. Steele,  E. J. Sundstrom,  
 H. L. Woodcock III,  P. M. Zimmerman,  D. Zuev,  B. Albrecht,  E. Alguire,  
 S. A. Baeppler,  D. Barton,  Z. Benda,  Y. A. Bernard,  E. J. Berquist,  
 K. B. Bravaya,  H. Burton,  D. Casanova,  Chun-Min Chang,  Yunqing Chen,  
 A. Chien,  K. D. Closser,  M. P. Coons,  S. Coriani,  S. Dasgupta,  
 A. L. Dempwolff,  M. Diedenhofen,  Hainam Do,  R. G. Edgar,  Po-Tung Fang,  
 S. Faraji,  S. Fatehi,  Qingguo Feng,  K. D. Fenk,  J. Fosso-Tande,  
 Qinghui Ge,  A. Ghysels,  G. Gidofalvi,  J. Gomes,  J. Gonthier,  A. Gunina,  
 M. W. D. Hanson-Heine,  P. H. P. Harbach,  A. W. Hauser,  J. E. Herr,  
 E. G. Hohenstein,  Z. C. Holden,  Kerwin Hui,  T.-C. Jagau,  Hyunjun Ji,  
 B. Kaduk,  K. Khistyaev,  Jaehoon Kim,  P. Klunzinger,  K. Koh,  
 D. Kosenkov,  L. Koulias,  T. Kowalczyk,  C. M. Krauter,  A. Kunitsa,  
 Ka Un Lao,  A. Laurent,  K. V. Lawler,  Joonho Lee,  D. Lefrancois,  
 S. Lehtola,  D. S. Levine,  Yi-Pei Li,  You-Sheng Lin,  Fenglai Liu,  
 E. Livshits,  A. Luenser,  P. Manohar,  E. Mansoor,  S. F. Manzer,  
 Shan-Ping Mao,  Yuezhi Mao,  N. Mardirossian,  A. V. Marenich,  
 T. Markovich,  L. A. Martinez-Martinez,  S. A. Maurer,  N. J. Mayhall,  
 S. C. McKenzie,  J.-M. Mewes,  A. F. Morrison,  J. W. Mullinax,  K. Nanda,  
 T. S. Nguyen-Beck,  R. Olivares-Amaya,  J. A. Parkhill,  T. M. Perrine,  
 F. Plasser,  P. Pokhilko,  S. Prager,  A. Prociuk,  E. Ramos,  D. R. Rehn,  
 F. Rob,  M. Schneider,  N. Sergueev,  S. M. Sharada,  S. Sharma,  
 D. W. Small,  T. Stauch,  T. Stein,  Yu-Chuan Su,  A. J. W. Thom,  
 A. Tkatchenko,  T. Tsuchimochi,  N. M. Tubman,  L. Vogt,  M. L. Vidal,  
 O. Vydrov,  M. A. Watson,  J. Wenzel,  M. de Wergifosse,  T. A. Wesolowski,  
 A. White,  J. Witte,  A. Yamada,  Jun Yang,  K. Yao,  S. Yeganeh,  
 S. R. Yost,  Zhi-Qiang You,  A. Zech,  Igor Ying Zhang,  Xing Zhang,  
 Yan Zhao,  Ying Zhu,  B. R. Brooks,  G. K. L. Chan,  C. J. Cramer,  
 M. S. Gordon,  W. J. Hehre,  A. Klamt,  M. W. Schmidt,  C. D. Sherrill,  
 D. G. Truhlar,  A. Aspuru-Guzik,  R. Baer,  A. T. Bell,  N. A. Besley,  
 Jeng-Da Chai,  R. A. DiStasio Jr.,  A. Dreuw,  B. D. Dunietz,  
 T. R. Furlani,  Chao-Ping Hsu,  Yousung Jung,  Jing Kong,  D. S. Lambrecht,  
 WanZhen Liang,  C. Ochsenfeld,  V. A. Rassolov,  L. V. Slipchenko,  
 J. E. Subotnik,  T. Van Voorhis,  J. M. Herbert,  A. I. Krylov,  
 P. M. W. Gill,  M. Head-Gordon

 Contributors to earlier versions of Q-Chem not listed above: 
 R. D. Adamson,  B. Austin,  J. Baker,  G. J. O. Beran,  K. Brandhorst,  
 S. T. Brown,  E. F. C. Byrd,  A. K. Chakraborty,  C.-L. Cheng,  
 Siu Hung Chien,  D. M. Chipman,  D. L. Crittenden,  H. Dachsel,  
 R. J. Doerksen,  A. D. Dutoi,  L. Fusti-Molnar,  W. A. Goddard III,  
 A. Golubeva-Zadorozhnaya,  S. R. Gwaltney,  G. Hawkins,  A. Heyden,  
 S. Hirata,  G. Kedziora,  F. J. Keil,  C. Kelley,  Jihan Kim,  R. A. King,  
 R. Z. Khaliullin,  P. P. Korambath,  W. Kurlancheek,  A. M. Lee,  M. S. Lee,  
 S. V. Levchenko,  Ching Yeh Lin,  D. Liotard,  R. C. Lochan,  I. Lotan,  
 P. E. Maslen,  N. Nair,  D. P. O'Neill,  D. Neuhauser,  E. Neuscamman,  
 C. M. Oana,  R. Olson,  B. Peters,  R. Peverati,  P. A. Pieniazek,  
 Y. M. Rhee,  J. Ritchie,  M. A. Rohrdanz,  E. Rosta,  N. J. Russ,  
 H. F. Schaefer III,  N. E. Schultz,  N. Shenvi,  A. C. Simmonett,  A. Sodt,  
 D. Stuck,  K. S. Thanthiriwatte,  V. Vanovschi,  Tao Wang,  A. Warshel,  
 C. F. Williams,  Q. Wu,  X. Xu,  W. Zhang

 Please cite Q-Chem as follows:
 Y. Shao et al., Mol. Phys. 113, 184-215 (2015)
 DOI: 10.1080/00268976.2014.952696

 Q-Chem 5.1.0 for Intel X86 EM64T Linux

 Parts of Q-Chem use Armadillo 8.300.2 (Tropical Shenanigans).
 http://arma.sourceforge.net/

 Q-Chem begins on Thu Sep 20 14:28:22 2018  

Host: 
0

     Scratch files written to /work1/malop/qc_7246364.hnode2//

Checking the input file for inconsistencies... 	...done.

--------------------------------------------------------------
User input:
--------------------------------------------------------------
$comment 
URACIL O-edge
optimizion: mp2/cc-pvtz
$end

$molecule
0 1
C        0.052842   -1.701332    0.000000    
H       -2.016793   -1.512231    0.000000    
H       -0.025494   -2.778299    0.000000    
H       -0.023568    1.988544    0.000000    
C       -1.232948    0.358893    0.000000    
O       -2.294123    0.950188    0.000000    
C        1.274970    0.391620    0.000000    
O        2.275873    1.086244    0.000000    
N        0.000000    0.978006    0.000000    
N       -1.137535   -1.023018    0.000000    
C        1.239239   -1.061325    0.000000    
H        2.169983   -1.601520    0.000000  
$end

$rem
    jobtype = sp
    method = eom-ccsd
    cvs_ip_states      [2,2]
    basis = 6-311++G**
    n_frozen_core = 2
$end
--------------------------------------------------------------
 ----------------------------------------------------------------
             Standard Nuclear Orientation (Angstroms)
    I     Atom           X                Y                Z
 ----------------------------------------------------------------
    1      C      -0.0071423615    -1.7021374661    -0.0000000000
    2      H      -2.0688284730    -1.4402241233     0.0000000000
    3      H      -0.1233798667    -2.7756752113     0.0000000000
    4      H       0.0465189185     1.9881394681    -0.0000000000
    5      C      -1.2195356258     0.4021166886     0.0000000000
    6      O      -2.2592155329     1.0304381418     0.0000000000
    7      C       1.2879780632     0.3464493659    -0.0000000000
    8      O       2.3127366072     1.0053721559    -0.0000000000
    9      N       0.0344629504     0.9773985746    -0.0000000000
   10      N      -1.1728776526    -0.9822982369     0.0000000000
   11      C       1.2010703878    -1.1043341925    -0.0000000000
   12      H       2.1122009607    -1.6769912546    -0.0000000000
 ----------------------------------------------------------------
 Molecular Point Group                 Cs    NOp =  2
 Largest Abelian Subgroup              Cs    NOp =  2
 Nuclear Repulsion Energy =   357.0116303482 hartrees
 There are       29 alpha and       29 beta electrons
 Requested basis set is 6-311++G(d,p)
 There are 68 shells and 204 basis functions
 Total memory of 2000MB is distributed as follows: 
   QALLOC including MEM_STATIC uses 192MB
   MEM_STATIC is set to 192MB
   CCMAN JOB total memory use is  1808MB
 Warning: actual memory use might exceed 2000MB

 Total QAlloc Memory Limit    192 MB
 Mega-Array Size       188 MB
 MEM_STATIC part       192 MB

                       Distance Matrix (Angstroms)
             C (  1)   H (  2)   H (  3)   H (  4)   C (  5)   O (  6)
   H (  2)  2.078256
   H (  3)  1.079812  2.359703
   H (  4)  3.690667  4.028445  4.766843
   C (  5)  2.428535  2.028674  3.361535  2.029375
   O (  6)  3.541017  2.477987  4.364435  2.496718  1.214793
   C (  7)  2.423643  3.802677  3.426309  2.058244  2.508132  3.612537
   O (  8)  3.565452  5.017873  4.497886  2.470136  3.583415  4.572021
   N (  9)  2.679859  3.204487  3.756392  1.010813  1.379660  2.294292
   N ( 10)  1.370076  1.006193  2.077895  3.210986  1.385201  2.287190
   C ( 11)  1.348016  3.287105  2.132498  3.300967  2.851092  4.065813
   H ( 12)  2.119492  4.187728  2.490969  4.207164  3.927233  5.141931
             C (  7)   O (  8)   N (  9)   N ( 10)   C ( 11)
   O (  8)  1.218322
   N (  9)  1.403352  2.278445
   N ( 10)  2.796673  4.012523  2.301756
   C ( 11)  1.453384  2.384672  2.386333  2.377083
   H ( 12)  2.184870  2.689849  3.370872  3.357728  1.076148
 
 A cutoff of  1.0D-14 yielded   2246 shell pairs
 There are     20506 function pairs (     22152 Cartesian)
 
 -------------------------------------------------------
 OpenMP Integral Computing Module                       
 Release: version 1.0, May 2013, Q-Chem Inc. Pittsburgh 
 -------------------------------------------------------
 Integral Job Info:
 Integral job number is                      11
 Integral operator is                         1
 short-range coefficients                     0
 long-range coefficients              100000000
 Omega coefficients                           0
 if combine SR and LR in K                    0
 Integral screening is                        0
 Integral computing path is                   2
 max size of driver memory is            800000
 size of driver memory is                593474
 size of scratch memory is              2361544
 max col of scratch BK array               1296
 max len of scratch array in speh3          155
 max len of scratch index in speh4           18
 max int batch size is                      520
 min int batch size is                       52
 fixed nKL is                                52
 max L of basis functions is                  2
 order of int derivative is                   0
 number of shells is                         68
 number of basis is                         212
 number of cartesian basis is               212
 number of contracted shell pairs          2246
 number of primitive shell pairs           6171
 maxK2 (contraction) of shell pair           36
 max number of K2 of shell pair               1
 max number of CS2 of shell pair            315
 max number of PS2 of shell pair           1128
 mem total for path MDJ                  546230
 -------------------------------------------------------
 Smallest overlap matrix eigenvalue = 1.32E-05

 Scale SEOQF with 1.000000e-01/1.000000e-01/1.000000e-01

 Standard Electronic Orientation quadrupole field applied
 Nucleus-field energy     =     0.0000000098 hartrees
 Guess from superposition of atomic densities
 Warning:  Energy on first SCF cycle will be non-variational
 SAD guess density has 58.000000 electrons

 -----------------------------------------------------------------------
  General SCF calculation program by
  Eric Jon Sundstrom, Paul Horn, Yuezhi Mao, Dmitri Zuev, Alec White,
  David Stuck, Shaama M.S., Shane Yost, Joonho Lee, David Small,
  Daniel Levine, Susi Lehtola, Hugh Burton, Evgeny Epifanovsky
 -----------------------------------------------------------------------
 Hartree-Fock
 using 10 threads for integral computing
 -------------------------------------------------------
 OpenMP Integral computing Module                
 Release: version 1.0, May 2013, Q-Chem Inc. Pittsburgh 
 -------------------------------------------------------
 A restricted SCF calculation will be
 performed using DIIS
 SCF converges when DIIS error is below 1.0e-08
 ---------------------------------------
  Cycle       Energy         DIIS error
 ---------------------------------------
    1    -415.5118963648      5.16e-02  
    2    -412.3400668885      6.88e-03  
    3    -412.4467157986      5.86e-03  
    4    -412.5749217604      6.51e-04  
    5    -412.5785863147      2.36e-04  
    6    -412.5790950855      8.43e-05  
    7    -412.5792187254      4.35e-05  
    8    -412.5792467694      1.78e-05  
    9    -412.5792501861      5.81e-06  
   10    -412.5792505293      1.82e-06  
   11    -412.5792505676      8.51e-07  
   12    -412.5792505768      2.12e-07  
   13    -412.5792505774      9.06e-08  
   14    -412.5792505775      2.72e-08  
   15    -412.5792505776      1.10e-08  
   16    -412.5792505776      3.50e-09  Convergence criterion met
 ---------------------------------------
 SCF time:   CPU 74.11s  wall 8.00s 
 SCF   energy in the final basis set =     -412.5792505776


 ------------------------------------------------------------------------------

   CCMAN2: suite of methods based on coupled cluster
           and equation of motion theories.

   Components:
   * libvmm-1.3-trunk
     by Evgeny Epifanovsky, Ilya Kaliman.
   * libtensor-2.5-trunk
     by Evgeny Epifanovsky, Michael Wormit, Dmitry Zuev, Sam Manzer, 
        Ilya Kaliman.
   * libcc-2.5-trunk
     by Evgeny Epifanovsky, Arik Landau, Tomasz Kus, Kirill Khistyaev, 
        Dmitry Zuev, Prashant Manohar, Xintian Feng, Anna Krylov, 
        Matthew Goldey, Alec White, Thomas Jagau, Kaushik Nanda, 
        Anastasia Gunina, Alexander Kunitsa, Joonho Lee.

   CCMAN original authors:
   Anna I. Krylov, C. David Sherrill, Steven R. Gwaltney,
   Edward F. C. Byrd (2000)
   Sergey V. Levchenko, Lyudmila V. Slipchenko, Tao Wang,
   Ana-Maria C. Cristian (2003)
   Piotr A. Pieniazek, C. Melania Oana, Evgeny Epifanovsky (2007)
   Prashant Manohar (2009)

 ------------------------------------------------------------------------------


 Calculation will run on 10 cores with 1808MB of RAM.

 
 Alpha MOs, Restricted
 -- Occupied --                  
-20.551 -20.545 -15.648 -15.631 -11.426 -11.387 -11.345 -11.260
  1 A'    2 A'    3 A'    4 A'    5 A'    6 A'    7 A'    8 A'                 
 -1.442  -1.404  -1.319  -1.250  -1.093  -0.938  -0.907  -0.812
  9 A'   10 A'   11 A'   12 A'   13 A'   14 A'   15 A'   16 A'                 
 -0.770  -0.719  -0.681  -0.671  -0.657  -0.619  -0.605  -0.573
 17 A'   18 A'   19 A'    1 A"   20 A'   21 A'   22 A'    2 A"                 
 -0.528  -0.487  -0.452  -0.439  -0.371
  3 A"   23 A'   24 A'    4 A"    5 A"                                         
 -- Virtual --                   
  0.023   0.048   0.061   0.071   0.074   0.091   0.102   0.109
 25 A'   26 A'   27 A'   28 A'    6 A"    7 A"   29 A'   30 A'                 
  0.129   0.134   0.138   0.146   0.158   0.161   0.167   0.176
  8 A"   31 A'    9 A"   32 A'   33 A'   10 A"   34 A'   35 A'                 
  0.186   0.192   0.198   0.199   0.219   0.229   0.243   0.251
 11 A"   36 A'   37 A'   38 A'   39 A'   40 A'   12 A"   41 A'                 
  0.256   0.286   0.292   0.298   0.310   0.320   0.339   0.354
 42 A'   13 A"   14 A"   43 A'   44 A'   45 A'   46 A'   47 A'                 
  0.369   0.383   0.386   0.397   0.407   0.408   0.415   0.428
 15 A"   48 A'   49 A'   50 A'   51 A'   16 A"   52 A'   53 A'                 
  0.430   0.443   0.469   0.485   0.497   0.518   0.556   0.557
 54 A'   55 A'   56 A'   57 A'   58 A'   59 A'   60 A'   61 A'                 
  0.634   0.668   0.697   0.706   0.739   0.742   0.758   0.771
 62 A'   63 A'   17 A"   64 A'   18 A"   65 A'   19 A"   66 A'                 
  0.786   0.796   0.832   0.854   0.907   0.928   0.945   0.967
 67 A'   20 A"   68 A'   69 A'   70 A'   71 A'   72 A'   73 A'                 
  0.976   0.996   1.014   1.019   1.048   1.056   1.081   1.099
 74 A'   75 A'   21 A"   76 A'   77 A'   22 A"   78 A'   79 A'                 
  1.140   1.209   1.225   1.242   1.251   1.302   1.358   1.359
 80 A'   81 A'   23 A"   24 A"   82 A'   83 A'   25 A"   84 A'                 
  1.376   1.398   1.415   1.419   1.432   1.438   1.457   1.501
 26 A"   27 A"   85 A'   28 A"   86 A'   87 A'   29 A"   88 A'                 
  1.511   1.528   1.575   1.746   1.779   1.796   1.811   1.883
 30 A"   89 A'   90 A'   91 A'   92 A'   93 A'   31 A"   94 A'                 
  1.896   1.909   1.925   1.951   1.970   2.011   2.011   2.067
 32 A"   95 A'   33 A"   96 A'   97 A'   34 A"   98 A'   99 A'                 
  2.118   2.137   2.187   2.220   2.223   2.272   2.292   2.339
100 A'  101 A'  102 A'   35 A"  103 A'  104 A'  105 A'   36 A"                 
  2.345   2.529   2.556   2.580   2.642   2.659   2.723   2.798
106 A'  107 A'   37 A"  108 A'   38 A"  109 A'   39 A"  110 A'                 
  2.820   2.848   2.915   2.960   3.000   3.015   3.041   3.070
 40 A"  111 A'  112 A'  113 A'  114 A'  115 A'  116 A'   41 A"                 
  3.144   3.170   3.173   3.207   3.260   3.263   3.291   3.307
 42 A"   43 A"  117 A'  118 A'   44 A"  119 A'  120 A'   45 A"                 
  3.314   3.343   3.394   3.506   3.568   3.751   3.762   3.799
121 A'   46 A"  122 A'  123 A'  124 A'   47 A"   48 A"  125 A'                 
  3.831   3.872   3.908   3.954   4.016   4.052   4.098   4.282
126 A'  127 A'  128 A'  129 A'  130 A'  131 A'  132 A'  133 A'                 
  4.289   4.337   4.416   4.485   4.623   5.193   5.283   5.348
 49 A"   50 A"  134 A'  135 A'  136 A'  137 A'  138 A'  139 A'                 
  5.600   5.627   5.686   5.763   5.857   6.328   6.365  24.853
 51 A"   52 A"  140 A'  141 A'  142 A'  143 A'  144 A'  145 A'                 
 24.967  25.028  25.324  36.989  37.046  51.709  51.753
146 A'  147 A'  148 A'  149 A'  150 A'  151 A'  152 A'                         
 
 Beta MOs, Restricted
 -- Occupied --                  
-20.551 -20.545 -15.648 -15.631 -11.426 -11.387 -11.345 -11.260
  1 A'    2 A'    3 A'    4 A'    5 A'    6 A'    7 A'    8 A'                 
 -1.442  -1.404  -1.319  -1.250  -1.093  -0.938  -0.907  -0.812
  9 A'   10 A'   11 A'   12 A'   13 A'   14 A'   15 A'   16 A'                 
 -0.770  -0.719  -0.681  -0.671  -0.657  -0.619  -0.605  -0.573
 17 A'   18 A'   19 A'    1 A"   20 A'   21 A'   22 A'    2 A"                 
 -0.528  -0.487  -0.452  -0.439  -0.371
  3 A"   23 A'   24 A'    4 A"    5 A"                                         
 -- Virtual --                   
  0.023   0.048   0.061   0.071   0.074   0.091   0.102   0.109
 25 A'   26 A'   27 A'   28 A'    6 A"    7 A"   29 A'   30 A'                 
  0.129   0.134   0.138   0.146   0.158   0.161   0.167   0.176
  8 A"   31 A'    9 A"   32 A'   33 A'   10 A"   34 A'   35 A'                 
  0.186   0.192   0.198   0.199   0.219   0.229   0.243   0.251
 11 A"   36 A'   37 A'   38 A'   39 A'   40 A'   12 A"   41 A'                 
  0.256   0.286   0.292   0.298   0.310   0.320   0.339   0.354
 42 A'   13 A"   14 A"   43 A'   44 A'   45 A'   46 A'   47 A'                 
  0.369   0.383   0.386   0.397   0.407   0.408   0.415   0.428
 15 A"   48 A'   49 A'   50 A'   51 A'   16 A"   52 A'   53 A'                 
  0.430   0.443   0.469   0.485   0.497   0.518   0.556   0.557
 54 A'   55 A'   56 A'   57 A'   58 A'   59 A'   60 A'   61 A'                 
  0.634   0.668   0.697   0.706   0.739   0.742   0.758   0.771
 62 A'   63 A'   17 A"   64 A'   18 A"   65 A'   19 A"   66 A'                 
  0.786   0.796   0.832   0.854   0.907   0.928   0.945   0.967
 67 A'   20 A"   68 A'   69 A'   70 A'   71 A'   72 A'   73 A'                 
  0.976   0.996   1.014   1.019   1.048   1.056   1.081   1.099
 74 A'   75 A'   21 A"   76 A'   77 A'   22 A"   78 A'   79 A'                 
  1.140   1.209   1.225   1.242   1.251   1.302   1.358   1.359
 80 A'   81 A'   23 A"   24 A"   82 A'   83 A'   25 A"   84 A'                 
  1.376   1.398   1.415   1.419   1.432   1.438   1.457   1.501
 26 A"   27 A"   85 A'   28 A"   86 A'   87 A'   29 A"   88 A'                 
  1.511   1.528   1.575   1.746   1.779   1.796   1.811   1.883
 30 A"   89 A'   90 A'   91 A'   92 A'   93 A'   31 A"   94 A'                 
  1.896   1.909   1.925   1.951   1.970   2.011   2.011   2.067
 32 A"   95 A'   33 A"   96 A'   97 A'   34 A"   98 A'   99 A'                 
  2.118   2.137   2.187   2.220   2.223   2.272   2.292   2.339
100 A'  101 A'  102 A'   35 A"  103 A'  104 A'  105 A'   36 A"                 
  2.345   2.529   2.556   2.580   2.642   2.659   2.723   2.798
106 A'  107 A'   37 A"  108 A'   38 A"  109 A'   39 A"  110 A'                 
  2.820   2.848   2.915   2.960   3.000   3.015   3.041   3.070
 40 A"  111 A'  112 A'  113 A'  114 A'  115 A'  116 A'   41 A"                 
  3.144   3.170   3.173   3.207   3.260   3.263   3.291   3.307
 42 A"   43 A"  117 A'  118 A'   44 A"  119 A'  120 A'   45 A"                 
  3.314   3.343   3.394   3.506   3.568   3.751   3.762   3.799
121 A'   46 A"  122 A'  123 A'  124 A'   47 A"   48 A"  125 A'                 
  3.831   3.872   3.908   3.954   4.016   4.052   4.098   4.282
126 A'  127 A'  128 A'  129 A'  130 A'  131 A'  132 A'  133 A'                 
  4.289   4.337   4.416   4.485   4.623   5.193   5.283   5.348
 49 A"   50 A"  134 A'  135 A'  136 A'  137 A'  138 A'  139 A'                 
  5.600   5.627   5.686   5.763   5.857   6.328   6.365  24.853
 51 A"   52 A"  140 A'  141 A'  142 A'  143 A'  144 A'  145 A'                 
 24.967  25.028  25.324  36.989  37.046  51.709  51.753
146 A'  147 A'  148 A'  149 A'  150 A'  151 A'  152 A'                         

 Occupation and symmetry of molecular orbitals

 Point group: Cs (2 irreducible representations).

                           A'   A"    All 
 ------------------------------------------
 All molecular orbitals:
  - Alpha                  152  52    204 
  - Beta                   152  52    204 
 ------------------------------------------
 Alpha orbitals:
  - Frozen occupied        2    0     2   
  - Active occupied        22   5     27  
  - Active virtual         128  47    175 
  - Frozen virtual         0    0     0   
 ------------------------------------------
 Beta orbitals:
  - Frozen occupied        2    0     2   
  - Active occupied        22   5     27  
  - Active virtual         128  47    175 
  - Frozen virtual         0    0     0   
 ------------------------------------------

 Import integrals:   CPU 0.00 s  wall 0.00 s

 Import integrals:   CPU 299.20 s  wall 59.49 s

 MP2 amplitudes:   CPU 4.71 s  wall 5.79 s

           CCSD T amplitudes will be solved using DIIS.

           Start     Size      MaxIter   EConv     TConv     
           3         7         100       1.00e-06  1.00e-04  
 ------------------------------------------------------------------------------
           Energy (a.u.)   Ediff      Tdiff       Comment
 ------------------------------------------------------------------------------
          -413.96353498                           
     1    -413.93870201   2.48e-02   1.02e+00     Step took 02.49.
     2    -413.98340763   4.47e-02   1.36e-01     
     3    -413.97960676   3.80e-03   5.68e-02     
     4    -413.98423051   4.62e-03   2.40e-02     Switched to DIIS steps.
     5    -413.98584327   1.61e-03   1.33e-02     
     6    -413.98599181   1.49e-04   3.42e-03     
     7    -413.98599458   2.77e-06   1.38e-03     
     8    -413.98599039   4.19e-06   4.33e-04     
     9    -413.98599297   2.58e-06   1.76e-04     
    10    -413.98599286   1.10e-07   5.46e-05     
 ------------------------------------------------------------------------------
          -413.98599286                           CCSD T converged.

 SCF energy                 = -412.57925058
 MP2 energy                 = -413.96353498
 CCSD correlation energy     =   -1.40674228
 CCSD total energy           = -413.98599286

 CCSD  T1^2 = 0.0265  T2^2 = 0.4136  Leading amplitudes:

 Amplitude    Orbitals with energies
  0.0317       2 (A") A                  ->    9 (A") A                   
              -0.5735                          0.1381                     
  0.0317       2 (A") B                  ->    9 (A") B                   
              -0.5735                          0.1381                     
  0.0316       2 (A") A                  ->    6 (A") A                   
              -0.5735                          0.0738                     
  0.0316       2 (A") B                  ->    6 (A") B                   
              -0.5735                          0.0738                     

 Amplitude    Orbitals with energies
 -0.0511       5 (A") A      5 (A") B    ->    6 (A") A      6 (A") B     
              -0.3713       -0.3713            0.0738        0.0738       
  0.0511       5 (A") A      5 (A") B    ->    6 (A") B      6 (A") A     
              -0.3713       -0.3713            0.0738        0.0738       
  0.0511       5 (A") B      5 (A") A    ->    6 (A") A      6 (A") B     
              -0.3713       -0.3713            0.0738        0.0738       
 -0.0511       5 (A") B      5 (A") A    ->    6 (A") B      6 (A") A     
              -0.3713       -0.3713            0.0738        0.0738       

 Computing CCSD intermediates for later calculations
 CCSD calculation:   CPU 3106.52 s  wall 2596.66 s

        Solving for CVS-EOMIP-CCSD A' transitions.

      CVS-EOMIP-CCSD/MP2 right amplitudes will be solved using Davidson.
        Amplitudes will be solved using standard  algorithm.
     Hard-coded thresholds: 
     LinDepThresh=1.00e-15  NormThresh=1.00e-06  ReorthogonThresh=1.00e-02

      Roots     MaxVec    MaxIter   Precond   Conv      Shift    
      2         60        60        1         1.00e-05  0.00e+00  
 ------------------------------------------------------------------------------
      Iter ConvRoots NVecs ResNorm Current eigenvalues (eV)
 ------------------------------------------------------------------------------
      0    0      2     1.90e+00   559.4624   559.5323   
      1    0      4     1.45e+00   556.2317   556.2965   
      2    0      6     6.89e-02   540.3823   540.5610   
      3    0      8     1.73e-03   539.6953   539.8791   
      4    0      10    1.64e-04   539.6848   539.8682   
      5    2      12    8.80e-06   539.6806*  539.8647*  

     Davidson procedure converged

 EOMIP transition 1/A'
 Total energy = -394.15309581 a.u.  Excitation energy = 539.6806 eV.
 R1^2 = 0.9012  R2_CCVV^2 = 0.0005  R2_COVV^2 = 0.0986  Res^2 = 8.55e-06
 Conv-d = yes

 Amplitude    Transitions between orbitals
 -0.9493       2 (A') A                  ->    infty        

              Summary of significant orbitals:

               Number  Type             Irrep      Energy
               2       Occ  Alpha       2 (A')    -20.5450


 EOMIP transition 2/A'
 Total energy = -394.14633133 a.u.  Excitation energy = 539.8646 eV.
 R1^2 = 0.9026  R2_CCVV^2 = 0.0005  R2_COVV^2 = 0.0972  Res^2 = 9.05e-06
 Conv-d = yes

 Amplitude    Transitions between orbitals
 -0.9500       1 (A') A                  ->    infty        

              Summary of significant orbitals:

               Number  Type             Irrep      Energy
               1       Occ  Alpha       1 (A')    -20.5505


        Solving for CVS-EOMIP-CCSD A" transitions.

Warning! Not enough singles to form guess subspace. Doubles guess vectors will be generated.
In case of poor EOM convergence, reduce requested IP_STATES.

      CVS-EOMIP-CCSD/MP2 right amplitudes will be solved using Davidson.
        Amplitudes will be solved using standard  algorithm.
     Hard-coded thresholds: 
     LinDepThresh=1.00e-15  NormThresh=1.00e-06  ReorthogonThresh=1.00e-02

      Roots     MaxVec    MaxIter   Precond   Conv      Shift    
      2         60        60        1         1.00e-05  0.00e+00  
 ------------------------------------------------------------------------------
      Iter ConvRoots NVecs ResNorm Current eigenvalues (eV)
 ------------------------------------------------------------------------------
      0    0      3     4.74e-02   572.2799   572.2971   
      1    0      5     8.48e-02   570.5060   570.5294   
      2    0      7     4.45e-02   569.3524   569.4409   
      3    0      9     1.04e-02   568.7932   569.0102   
      4    0      11    1.92e-02   568.4937   568.7431   
      5    0      13    2.21e-02   568.0417   568.4383   
      6    0      15    8.40e-03   567.8143   568.3176   
      7    0      17    2.23e-02   567.5279   568.1792   
      8    0      19    1.25e-02   566.9548   567.9970   
      9    0      21    4.64e-02   566.2522   567.5766   
      10   0      23    1.06e-02   565.7084   567.1563   
      11   0      25    1.27e-02   565.5351   566.7211   
      12   0      27    5.59e-03   565.4712   566.3763   
      13   0      29    1.50e-02   565.4418   565.9001   
      14   0      31    1.16e-02   565.3255   565.4880   
      15   0      33    2.62e-02   564.1079   565.1517   
      16   0      35    1.36e-02   563.3590   564.7522   
      17   0      37    3.36e-02   563.0001   563.7991   
      18   0      39    4.39e-03   562.8757   563.0963   
      19   0      41    1.80e-03   562.8410   562.9531   
      20   0      43    2.64e-04   562.8347   562.9221   
      21   0      45    2.48e-04   562.8304   562.9101   
      22   0      47    8.92e-05   562.8275   562.9032   
      23   0      49    6.75e-05   562.8259   562.8999   
      24   1      51    3.39e-05   562.8255*  562.8979   
      25   1      52    2.72e-05   562.8255*  562.8965   
      26   1      53    8.03e-06   562.8255*  562.8955   
      27   2      54    4.24e-06   562.8255*  562.8950*  

     Davidson procedure converged

 EOMIP transition 1/A"
 Total energy = -393.30253521 a.u.  Excitation energy = 562.8255 eV.
 R1^2 = 0.0000  R2_CCVV^2 = 0.0000  R2_COVV^2 = 1.0000  Res^2 = 2.76e-06
 Conv-d = yes

 Amplitude    Transitions between orbitals
 -0.4545       1 (A') A      24 (A') A   ->    10 (A") A    
  0.4544       1 (A') B      24 (A') A   ->    10 (A") B    
  0.4542       1 (A') A      24 (A') B   ->    10 (A") B    
  0.3128       1 (A') A      24 (A') A   ->    11 (A") A    
 -0.3127       1 (A') B      24 (A') A   ->    11 (A") B    
 -0.3126       1 (A') A      24 (A') B   ->    11 (A") B    
 -0.2679       1 (A') A      24 (A') A   ->    15 (A") A    
  0.2678       1 (A') B      24 (A') A   ->    15 (A") B    
  0.2677       1 (A') A      24 (A') B   ->    15 (A") B    
  0.2171       1 (A') A      24 (A') A   ->    9 (A") A     
 -0.2171       1 (A') B      24 (A') A   ->    9 (A") B     
 -0.2170       1 (A') A      24 (A') B   ->    9 (A") B     
  0.2020       1 (A') B      23 (A') A   ->    10 (A") B    
 -0.2019       1 (A') A      23 (A') A   ->    10 (A") A    
  0.2019       1 (A') A      23 (A') B   ->    10 (A") B    
 -0.1856       1 (A') A      24 (A') A   ->    8 (A") A     
  0.1856       1 (A') B      24 (A') A   ->    8 (A") B     
  0.1855       1 (A') A      24 (A') B   ->    8 (A") B     
 -0.1387       1 (A') B      23 (A') A   ->    11 (A") B    
  0.1387       1 (A') A      23 (A') A   ->    11 (A") A    
 -0.1387       1 (A') A      23 (A') B   ->    11 (A") B    
  0.1226       1 (A') A      24 (A') A   ->    25 (A") A    
 -0.1225       1 (A') B      24 (A') A   ->    25 (A") B    
 -0.1225       1 (A') A      24 (A') B   ->    25 (A") B    
  0.1208       1 (A') A      24 (A') A   ->    16 (A") A    
 -0.1208       1 (A') B      24 (A') A   ->    16 (A") B    
 -0.1208       1 (A') A      24 (A') B   ->    16 (A") B    
  0.1175       1 (A') A      24 (A') A   ->    27 (A") A    
 -0.1175       1 (A') B      24 (A') A   ->    27 (A") B    
 -0.1175       1 (A') A      24 (A') B   ->    27 (A") B    
  0.1172       1 (A') B      23 (A') A   ->    15 (A") B    
 -0.1172       1 (A') A      23 (A') A   ->    15 (A") A    
  0.1171       1 (A') A      23 (A') B   ->    15 (A") B    
 -0.1162       1 (A') B      24 (A') A   ->    7 (A") B     
  0.1162       1 (A') A      24 (A') A   ->    7 (A") A     
 -0.1162       1 (A') A      24 (A') B   ->    7 (A") B     

              Summary of significant orbitals:

               Number  Type             Irrep      Energy
               1       Occ  Alpha       1 (A')    -20.5505
               1       Occ  Beta        1 (A')    -20.5505
               26      Occ  Alpha      23 (A')     -0.4867
               27      Occ  Alpha      24 (A')     -0.4519
               26      Occ  Beta       23 (A')     -0.4867
               27      Occ  Beta       24 (A')     -0.4519
               35      Vir  Alpha       7 (A")      0.0908
               38      Vir  Alpha       8 (A")      0.1287
               40      Vir  Alpha       9 (A")      0.1381
               43      Vir  Alpha      10 (A")      0.1606
               46      Vir  Alpha      11 (A")      0.1862
               62      Vir  Alpha      15 (A")      0.3695
               67      Vir  Alpha      16 (A")      0.4084
               108     Vir  Alpha      25 (A")      1.3580
               111     Vir  Alpha      27 (A")      1.3979
               35      Vir  Beta        7 (A")      0.0908
               38      Vir  Beta        8 (A")      0.1287
               40      Vir  Beta        9 (A")      0.1381
               43      Vir  Beta       10 (A")      0.1606
               46      Vir  Beta       11 (A")      0.1862
               62      Vir  Beta       15 (A")      0.3695
               67      Vir  Beta       16 (A")      0.4084
               108     Vir  Beta       25 (A")      1.3580
               111     Vir  Beta       27 (A")      1.3979


 EOMIP transition 2/A"
 Total energy = -393.29998014 a.u.  Excitation energy = 562.8950 eV.
 R1^2 = 0.0000  R2_CCVV^2 = 0.0000  R2_COVV^2 = 1.0000  Res^2 = 5.72e-06
 Conv-d = yes

 Amplitude    Transitions between orbitals
 -0.6378       1 (A') A      24 (A') B   ->    10 (A") B    
  0.4401       1 (A') A      24 (A') B   ->    11 (A") B    
 -0.3824       1 (A') A      24 (A') B   ->    15 (A") B    
  0.3373       1 (A') B      24 (A') A   ->    10 (A") B    
  0.3026       1 (A') A      24 (A') B   ->    9 (A") B     
 -0.3003       1 (A') A      24 (A') A   ->    10 (A") A    
 -0.2884       1 (A') A      23 (A') B   ->    10 (A") B    
 -0.2610       1 (A') A      24 (A') B   ->    8 (A") B     
 -0.2321       1 (A') B      24 (A') A   ->    11 (A") B    
  0.2079       1 (A') A      24 (A') A   ->    11 (A") A    
  0.1987       1 (A') A      23 (A') B   ->    11 (A") B    
  0.1974       1 (A') B      24 (A') A   ->    15 (A") B    
 -0.1852       1 (A') A      24 (A') A   ->    15 (A") A    
  0.1745       1 (A') A      24 (A') B   ->    25 (A") B    
 -0.1707       1 (A') A      23 (A') B   ->    15 (A") B    
  0.1681       1 (A') A      24 (A') B   ->    16 (A") B    
  0.1673       1 (A') A      24 (A') B   ->    7 (A") B     
  0.1654       1 (A') A      24 (A') B   ->    27 (A") B    
 -0.1617       1 (A') B      24 (A') A   ->    9 (A") B     
  0.1516       1 (A') B      23 (A') A   ->    10 (A") B    
  0.1408       1 (A') A      24 (A') A   ->    9 (A") A     
  0.1380       1 (A') B      24 (A') A   ->    8 (A") B     
 -0.1371       1 (A') A      24 (A') B   ->    6 (A") B     
 -0.1366       1 (A') A      23 (A') A   ->    10 (A") A    
  0.1363       1 (A') A      23 (A') B   ->    9 (A") B     
 -0.1356       1 (A') A      24 (A') B   ->    13 (A") B    
  0.1308       1 (A') A      24 (A') B   ->    26 (A") B    
 -0.1229       1 (A') A      24 (A') A   ->    8 (A") A     
 -0.1183       1 (A') A      23 (A') B   ->    8 (A") B     
 -0.1041       1 (A') B      23 (A') A   ->    11 (A") B    

              Summary of significant orbitals:

               Number  Type             Irrep      Energy
               1       Occ  Alpha       1 (A')    -20.5505
               1       Occ  Beta        1 (A')    -20.5505
               26      Occ  Alpha      23 (A')     -0.4867
               27      Occ  Alpha      24 (A')     -0.4519
               26      Occ  Beta       23 (A')     -0.4867
               27      Occ  Beta       24 (A')     -0.4519
               38      Vir  Alpha       8 (A")      0.1287
               40      Vir  Alpha       9 (A")      0.1381
               43      Vir  Alpha      10 (A")      0.1606
               46      Vir  Alpha      11 (A")      0.1862
               62      Vir  Alpha      15 (A")      0.3695
               34      Vir  Beta        6 (A")      0.0738
               35      Vir  Beta        7 (A")      0.0908
               38      Vir  Beta        8 (A")      0.1287
               40      Vir  Beta        9 (A")      0.1381
               43      Vir  Beta       10 (A")      0.1606
               46      Vir  Beta       11 (A")      0.1862
               55      Vir  Beta       13 (A")      0.2862
               62      Vir  Beta       15 (A")      0.3695
               67      Vir  Beta       16 (A")      0.4084
               108     Vir  Beta       25 (A")      1.3580
               110     Vir  Beta       26 (A")      1.3757
               111     Vir  Beta       27 (A")      1.3979


 CVS-EOMIP-CCSD calculation:   CPU 386.78 s  wall 416.83 s

 Total ccman2 time:   CPU 3823.21 s  wall 3084.23 s

 
 --------------------------------------------------------------
             Orbital Energies (a.u.) and Symmetries
 --------------------------------------------------------------
 
 Alpha MOs, Restricted
 -- Occupied --                  
-20.551 -20.545 -15.648 -15.631 -11.426 -11.387 -11.345 -11.260
  1 A'    2 A'    3 A'    4 A'    5 A'    6 A'    7 A'    8 A'                 
 -1.442  -1.404  -1.319  -1.250  -1.093  -0.938  -0.907  -0.812
  9 A'   10 A'   11 A'   12 A'   13 A'   14 A'   15 A'   16 A'                 
 -0.770  -0.719  -0.681  -0.671  -0.657  -0.619  -0.605  -0.573
 17 A'   18 A'   19 A'    1 A"   20 A'   21 A'   22 A'    2 A"                 
 -0.528  -0.487  -0.452  -0.439  -0.371
  3 A"   23 A'   24 A'    4 A"    5 A"                                         
 -- Virtual --                   
  0.023   0.048   0.061   0.071   0.074   0.091   0.102   0.109
 25 A'   26 A'   27 A'   28 A'    6 A"    7 A"   29 A'   30 A'                 
  0.129   0.134   0.138   0.146   0.158   0.161   0.167   0.176
  8 A"   31 A'    9 A"   32 A'   33 A'   10 A"   34 A'   35 A'                 
  0.186   0.192   0.198   0.199   0.219   0.229   0.243   0.251
 11 A"   36 A'   37 A'   38 A'   39 A'   40 A'   12 A"   41 A'                 
  0.256   0.286   0.292   0.298   0.310   0.320   0.339   0.354
 42 A'   13 A"   14 A"   43 A'   44 A'   45 A'   46 A'   47 A'                 
  0.369   0.383   0.386   0.397   0.407   0.408   0.415   0.428
 15 A"   48 A'   49 A'   50 A'   51 A'   16 A"   52 A'   53 A'                 
  0.430   0.443   0.469   0.485   0.497   0.518   0.556   0.557
 54 A'   55 A'   56 A'   57 A'   58 A'   59 A'   60 A'   61 A'                 
  0.634   0.668   0.697   0.706   0.739   0.742   0.758   0.771
 62 A'   63 A'   17 A"   64 A'   18 A"   65 A'   19 A"   66 A'                 
  0.786   0.796   0.832   0.854   0.907   0.928   0.945   0.967
 67 A'   20 A"   68 A'   69 A'   70 A'   71 A'   72 A'   73 A'                 
  0.976   0.996   1.014   1.019   1.048   1.056   1.081   1.099
 74 A'   75 A'   21 A"   76 A'   77 A'   22 A"   78 A'   79 A'                 
  1.140   1.209   1.225   1.242   1.251   1.302   1.358   1.359
 80 A'   81 A'   23 A"   24 A"   82 A'   83 A'   25 A"   84 A'                 
  1.376   1.398   1.415   1.419   1.432   1.438   1.457   1.501
 26 A"   27 A"   85 A'   28 A"   86 A'   87 A'   29 A"   88 A'                 
  1.511   1.528   1.575   1.746   1.779   1.796   1.811   1.883
 30 A"   89 A'   90 A'   91 A'   92 A'   93 A'   31 A"   94 A'                 
  1.896   1.909   1.925   1.951   1.970   2.011   2.011   2.067
 32 A"   95 A'   33 A"   96 A'   97 A'   34 A"   98 A'   99 A'                 
  2.118   2.137   2.187   2.220   2.223   2.272   2.292   2.339
100 A'  101 A'  102 A'   35 A"  103 A'  104 A'  105 A'   36 A"                 
  2.345   2.529   2.556   2.580   2.642   2.659   2.723   2.798
106 A'  107 A'   37 A"  108 A'   38 A"  109 A'   39 A"  110 A'                 
  2.820   2.848   2.915   2.960   3.000   3.015   3.041   3.070
 40 A"  111 A'  112 A'  113 A'  114 A'  115 A'  116 A'   41 A"                 
  3.144   3.170   3.173   3.207   3.260   3.263   3.291   3.307
 42 A"   43 A"  117 A'  118 A'   44 A"  119 A'  120 A'   45 A"                 
  3.314   3.343   3.394   3.506   3.568   3.751   3.762   3.799
121 A'   46 A"  122 A'  123 A'  124 A'   47 A"   48 A"  125 A'                 
  3.831   3.872   3.908   3.954   4.016   4.052   4.098   4.282
126 A'  127 A'  128 A'  129 A'  130 A'  131 A'  132 A'  133 A'                 
  4.289   4.337   4.416   4.485   4.623   5.193   5.283   5.348
 49 A"   50 A"  134 A'  135 A'  136 A'  137 A'  138 A'  139 A'                 
  5.600   5.627   5.686   5.763   5.857   6.328   6.365  24.853
 51 A"   52 A"  140 A'  141 A'  142 A'  143 A'  144 A'  145 A'                 
 24.967  25.028  25.324  36.989  37.046  51.709  51.753
146 A'  147 A'  148 A'  149 A'  150 A'  151 A'  152 A'                         
 
 Beta MOs, Restricted
 -- Occupied --                  
-20.551 -20.545 -15.648 -15.631 -11.426 -11.387 -11.345 -11.260
  1 A'    2 A'    3 A'    4 A'    5 A'    6 A'    7 A'    8 A'                 
 -1.442  -1.404  -1.319  -1.250  -1.093  -0.938  -0.907  -0.812
  9 A'   10 A'   11 A'   12 A'   13 A'   14 A'   15 A'   16 A'                 
 -0.770  -0.719  -0.681  -0.671  -0.657  -0.619  -0.605  -0.573
 17 A'   18 A'   19 A'    1 A"   20 A'   21 A'   22 A'    2 A"                 
 -0.528  -0.487  -0.452  -0.439  -0.371
  3 A"   23 A'   24 A'    4 A"    5 A"                                         
 -- Virtual --                   
  0.023   0.048   0.061   0.071   0.074   0.091   0.102   0.109
 25 A'   26 A'   27 A'   28 A'    6 A"    7 A"   29 A'   30 A'                 
  0.129   0.134   0.138   0.146   0.158   0.161   0.167   0.176
  8 A"   31 A'    9 A"   32 A'   33 A'   10 A"   34 A'   35 A'                 
  0.186   0.192   0.198   0.199   0.219   0.229   0.243   0.251
 11 A"   36 A'   37 A'   38 A'   39 A'   40 A'   12 A"   41 A'                 
  0.256   0.286   0.292   0.298   0.310   0.320   0.339   0.354
 42 A'   13 A"   14 A"   43 A'   44 A'   45 A'   46 A'   47 A'                 
  0.369   0.383   0.386   0.397   0.407   0.408   0.415   0.428
 15 A"   48 A'   49 A'   50 A'   51 A'   16 A"   52 A'   53 A'                 
  0.430   0.443   0.469   0.485   0.497   0.518   0.556   0.557
 54 A'   55 A'   56 A'   57 A'   58 A'   59 A'   60 A'   61 A'                 
  0.634   0.668   0.697   0.706   0.739   0.742   0.758   0.771
 62 A'   63 A'   17 A"   64 A'   18 A"   65 A'   19 A"   66 A'                 
  0.786   0.796   0.832   0.854   0.907   0.928   0.945   0.967
 67 A'   20 A"   68 A'   69 A'   70 A'   71 A'   72 A'   73 A'                 
  0.976   0.996   1.014   1.019   1.048   1.056   1.081   1.099
 74 A'   75 A'   21 A"   76 A'   77 A'   22 A"   78 A'   79 A'                 
  1.140   1.209   1.225   1.242   1.251   1.302   1.358   1.359
 80 A'   81 A'   23 A"   24 A"   82 A'   83 A'   25 A"   84 A'                 
  1.376   1.398   1.415   1.419   1.432   1.438   1.457   1.501
 26 A"   27 A"   85 A'   28 A"   86 A'   87 A'   29 A"   88 A'                 
  1.511   1.528   1.575   1.746   1.779   1.796   1.811   1.883
 30 A"   89 A'   90 A'   91 A'   92 A'   93 A'   31 A"   94 A'                 
  1.896   1.909   1.925   1.951   1.970   2.011   2.011   2.067
 32 A"   95 A'   33 A"   96 A'   97 A'   34 A"   98 A'   99 A'                 
  2.118   2.137   2.187   2.220   2.223   2.272   2.292   2.339
100 A'  101 A'  102 A'   35 A"  103 A'  104 A'  105 A'   36 A"                 
  2.345   2.529   2.556   2.580   2.642   2.659   2.723   2.798
106 A'  107 A'   37 A"  108 A'   38 A"  109 A'   39 A"  110 A'                 
  2.820   2.848   2.915   2.960   3.000   3.015   3.041   3.070
 40 A"  111 A'  112 A'  113 A'  114 A'  115 A'  116 A'   41 A"                 
  3.144   3.170   3.173   3.207   3.260   3.263   3.291   3.307
 42 A"   43 A"  117 A'  118 A'   44 A"  119 A'  120 A'   45 A"                 
  3.314   3.343   3.394   3.506   3.568   3.751   3.762   3.799
121 A'   46 A"  122 A'  123 A'  124 A'   47 A"   48 A"  125 A'                 
  3.831   3.872   3.908   3.954   4.016   4.052   4.098   4.282
126 A'  127 A'  128 A'  129 A'  130 A'  131 A'  132 A'  133 A'                 
  4.289   4.337   4.416   4.485   4.623   5.193   5.283   5.348
 49 A"   50 A"  134 A'  135 A'  136 A'  137 A'  138 A'  139 A'                 
  5.600   5.627   5.686   5.763   5.857   6.328   6.365  24.853
 51 A"   52 A"  140 A'  141 A'  142 A'  143 A'  144 A'  145 A'                 
 24.967  25.028  25.324  36.989  37.046  51.709  51.753
146 A'  147 A'  148 A'  149 A'  150 A'  151 A'  152 A'                         
 --------------------------------------------------------------
 
          Ground-State Mulliken Net Atomic Charges

     Atom                 Charge (a.u.)
  ----------------------------------------
      1 C                     0.093025
      2 H                     0.387156
      3 H                     0.226193
      4 H                     0.406725
      5 C                     0.569769
      6 O                    -0.441367
      7 C                     0.218010
      8 O                    -0.408517
      9 N                    -0.591918
     10 N                    -0.546948
     11 C                    -0.160334
     12 H                     0.248204
  ----------------------------------------
  Sum of atomic charges =    -0.000000

 -----------------------------------------------------------------
                    Cartesian Multipole Moments
 -----------------------------------------------------------------
    Charge (ESU x 10^10)
                -0.0000
    Dipole Moment (Debye)
         X      -1.3855      Y      -4.9595      Z       0.0000
       Tot       5.1494
    Quadrupole Moments (Debye-Ang)
        XX     -60.6980     XY       2.5046     YY     -38.3422
        XZ       0.0000     YZ      -0.0000     ZZ     -46.9622
    Octopole Moments (Debye-Ang^2)
       XXX     -11.3896    XXY     -34.8658    XYY      -5.2070
       YYY      -9.1039    XXZ       0.0000    XYZ       0.0000
       YYZ       0.0000    XZZ      -1.9258    YZZ       4.3435
       ZZZ       0.0000
    Hexadecapole Moments (Debye-Ang^3)
      XXXX    -728.0727   XXXY      12.7532   XXYY    -176.8292
      XYYY      13.2972   YYYY    -303.9036   XXXZ       0.0000
      XXYZ       0.0000   XYYZ       0.0000   YYYZ      -0.0000
      XXZZ    -114.0606   XYZZ       2.9926   YYZZ     -75.6239
      XZZZ       0.0000   YZZZ      -0.0000   ZZZZ     -46.6065
 -----------------------------------------------------------------
Archival summary:
1\1\n-62-23-14\SP\ProcedureUnspecified\BasisUnspecified\2244\malop\ThuSep2015:19:562018ThuSep2015:19:562018\0\\#,ProcedureUnspecified,BasisUnspecified,\\0,1\N\H,1,1.01081\C,1,1.37966,2,115.327\O,3,1.21479,1,124.21,2,-0,0\N,3,1.3852,1,112.713,2,-180,0\H,5,1.00619,3,115.142,1,180,0\C,5,1.37008,3,123.626,1,-0,0\H,7,1.07981,5,115.516,3,-180,0\C,7,1.34802,5,121.979,3,0,0\H,9,1.07615,7,121.525,5,-180,0\C,1,1.40335,2,116.035,3,180,0\O,11,1.21832,1,120.541,2,-0,0\\HF=-412.579251\\@

 Total job time:  3093.65s(wall), 3904.53s(cpu) 
 Thu Sep 20 15:19:56 2018

        *************************************************************
        *                                                           *
        *  Thank you very much for using Q-Chem.  Have a nice day.  *
        *                                                           *
        *************************************************************


