n-62-24-6 10.66.24
Q-Chem Developer Version! Running on 10.66.24.*
                  Welcome to Q-Chem
     A Quantum Leap Into The Future Of Chemistry


 Q-Chem 5.1, Q-Chem, Inc., Pleasanton, CA (2018)

 Yihan Shao,  Zhengting Gan,  E. Epifanovsky,  A. T. B. Gilbert,  M. Wormit,  
 J. Kussmann,  A. W. Lange,  A. Behn,  Jia Deng,  Xintian Feng,  D. Ghosh,  
 M. Goldey,  P. R. Horn,  L. D. Jacobson,  I. Kaliman,  T. Kus,  A. Landau,  
 Jie Liu,  E. I. Proynov,  R. M. Richard,  R. P. Steele,  E. J. Sundstrom,  
 H. L. Woodcock III,  P. M. Zimmerman,  D. Zuev,  B. Albrecht,  E. Alguire,  
 S. A. Baeppler,  D. Barton,  Z. Benda,  Y. A. Bernard,  E. J. Berquist,  
 K. B. Bravaya,  H. Burton,  D. Casanova,  Chun-Min Chang,  Yunqing Chen,  
 A. Chien,  K. D. Closser,  M. P. Coons,  S. Coriani,  S. Dasgupta,  
 A. L. Dempwolff,  M. Diedenhofen,  Hainam Do,  R. G. Edgar,  Po-Tung Fang,  
 S. Faraji,  S. Fatehi,  Qingguo Feng,  K. D. Fenk,  J. Fosso-Tande,  
 Qinghui Ge,  A. Ghysels,  G. Gidofalvi,  J. Gomes,  J. Gonthier,  A. Gunina,  
 M. W. D. Hanson-Heine,  P. H. P. Harbach,  A. W. Hauser,  J. E. Herr,  
 E. G. Hohenstein,  Z. C. Holden,  Kerwin Hui,  T.-C. Jagau,  Hyunjun Ji,  
 B. Kaduk,  K. Khistyaev,  Jaehoon Kim,  P. Klunzinger,  K. Koh,  
 D. Kosenkov,  L. Koulias,  T. Kowalczyk,  C. M. Krauter,  A. Kunitsa,  
 Ka Un Lao,  A. Laurent,  K. V. Lawler,  Joonho Lee,  D. Lefrancois,  
 S. Lehtola,  D. S. Levine,  Yi-Pei Li,  You-Sheng Lin,  Fenglai Liu,  
 E. Livshits,  A. Luenser,  P. Manohar,  E. Mansoor,  S. F. Manzer,  
 Shan-Ping Mao,  Yuezhi Mao,  N. Mardirossian,  A. V. Marenich,  
 T. Markovich,  L. A. Martinez-Martinez,  S. A. Maurer,  N. J. Mayhall,  
 S. C. McKenzie,  J.-M. Mewes,  A. F. Morrison,  J. W. Mullinax,  K. Nanda,  
 T. S. Nguyen-Beck,  R. Olivares-Amaya,  J. A. Parkhill,  T. M. Perrine,  
 F. Plasser,  P. Pokhilko,  S. Prager,  A. Prociuk,  E. Ramos,  D. R. Rehn,  
 F. Rob,  M. Schneider,  N. Sergueev,  S. M. Sharada,  S. Sharma,  
 D. W. Small,  T. Stauch,  T. Stein,  Yu-Chuan Su,  A. J. W. Thom,  
 A. Tkatchenko,  T. Tsuchimochi,  N. M. Tubman,  L. Vogt,  M. L. Vidal,  
 O. Vydrov,  M. A. Watson,  J. Wenzel,  M. de Wergifosse,  T. A. Wesolowski,  
 A. White,  J. Witte,  A. Yamada,  Jun Yang,  K. Yao,  S. Yeganeh,  
 S. R. Yost,  Zhi-Qiang You,  A. Zech,  Igor Ying Zhang,  Xing Zhang,  
 Yan Zhao,  Ying Zhu,  B. R. Brooks,  G. K. L. Chan,  C. J. Cramer,  
 M. S. Gordon,  W. J. Hehre,  A. Klamt,  M. W. Schmidt,  C. D. Sherrill,  
 D. G. Truhlar,  A. Aspuru-Guzik,  R. Baer,  A. T. Bell,  N. A. Besley,  
 Jeng-Da Chai,  R. A. DiStasio Jr.,  A. Dreuw,  B. D. Dunietz,  
 T. R. Furlani,  Chao-Ping Hsu,  Yousung Jung,  Jing Kong,  D. S. Lambrecht,  
 WanZhen Liang,  C. Ochsenfeld,  V. A. Rassolov,  L. V. Slipchenko,  
 J. E. Subotnik,  T. Van Voorhis,  J. M. Herbert,  A. I. Krylov,  
 P. M. W. Gill,  M. Head-Gordon

 Contributors to earlier versions of Q-Chem not listed above: 
 R. D. Adamson,  B. Austin,  J. Baker,  G. J. O. Beran,  K. Brandhorst,  
 S. T. Brown,  E. F. C. Byrd,  A. K. Chakraborty,  C.-L. Cheng,  
 Siu Hung Chien,  D. M. Chipman,  D. L. Crittenden,  H. Dachsel,  
 R. J. Doerksen,  A. D. Dutoi,  L. Fusti-Molnar,  W. A. Goddard III,  
 A. Golubeva-Zadorozhnaya,  S. R. Gwaltney,  G. Hawkins,  A. Heyden,  
 S. Hirata,  G. Kedziora,  F. J. Keil,  C. Kelley,  Jihan Kim,  R. A. King,  
 R. Z. Khaliullin,  P. P. Korambath,  W. Kurlancheek,  A. M. Lee,  M. S. Lee,  
 S. V. Levchenko,  Ching Yeh Lin,  D. Liotard,  R. C. Lochan,  I. Lotan,  
 P. E. Maslen,  N. Nair,  D. P. O'Neill,  D. Neuhauser,  E. Neuscamman,  
 C. M. Oana,  R. Olson,  B. Peters,  R. Peverati,  P. A. Pieniazek,  
 Y. M. Rhee,  J. Ritchie,  M. A. Rohrdanz,  E. Rosta,  N. J. Russ,  
 H. F. Schaefer III,  N. E. Schultz,  N. Shenvi,  A. C. Simmonett,  A. Sodt,  
 D. Stuck,  K. S. Thanthiriwatte,  V. Vanovschi,  Tao Wang,  A. Warshel,  
 C. F. Williams,  Q. Wu,  X. Xu,  W. Zhang

 Please cite Q-Chem as follows:
 Y. Shao et al., Mol. Phys. 113, 184-215 (2015)
 DOI: 10.1080/00268976.2014.952696

 Q-Chem 5.1.0 for Intel X86 EM64T Linux

 Parts of Q-Chem use Armadillo 8.300.2 (Tropical Shenanigans).
 http://arma.sourceforge.net/

 Q-Chem begins on Thu Sep 27 15:04:50 2018  

Host: 
0

     Scratch files written to /work1/malop/qc_7299231.hnode2//

Checking the input file for inconsistencies... 	...done.

--------------------------------------------------------------
User input:
--------------------------------------------------------------
$comment 
URACIL N-edge
optimizion: mp2/cc-pvtz
$end

$molecule
0 1
Gh      0.0000000000     0.0000000000     0.0000000000
C      -0.0071423615    -1.7021374661     0.0000000000
H      -2.0688284730    -1.4402241233     0.0000000000
H      -0.1233798667    -2.7756752113     0.0000000000
H       0.0465189185     1.9881394681     0.0000000000
C      -1.2195356258     0.4021166886     0.0000000000
O      -2.2592155329     1.0304381418     0.0000000000
C       1.2879780632     0.3464493659     0.0000000000
O       2.3127366072     1.0053721559     0.0000000000
N       0.0344629504     0.9773985746     0.0000000000
N      -1.1728776526    -0.9822982369     0.0000000000
C       1.2010703878    -1.1043341925     0.0000000000
H       2.1122009607    -1.6769912546     0.0000000000
$end

$rem
    jobtype = sp
    method = eom-ccsd
    cvs_ee_singlets    [15,15]
    eom_preconv_singles = true
    basis = gen
    n_frozen_core = 4
    cc_trans_prop = true
   use_libqints = 1   !use new int library (will be def in trunk)
   thresh = 14   !this already should be default, but just in case
   scf_convergence = 12   !v. tight scf convergence, to reduce noise
   cc_convergence = 12   !tight CC, for the same reason
   basis_lin_dep_thresh = 8  !default is 6, use smaller, just in case
   cc_memory = 100000
   EOM_DAVIDSON_MAX_ITER 200
   EOM_DAVIDSON_MAXVECTORS = 1000
   eom_davidson_convergence = 4 
   eom_shift = 14800
$end

$basis
Gh   0
S   1   1.00
        0.0112533427        1.0000000000
S   1   1.00
        0.0058583805        1.0000000000
S   1   1.00
        0.0033459739        1.0000000000
S   1   1.00
        0.0020484225        1.0000000000
S   1   1.00
        0.0013236424        1.0000000000
P   1   1.00
        0.0192542060        1.0000000000
P   1   1.00
        0.0099882106        1.0000000000
P   1   1.00
        0.0056893607        1.0000000000
P   1   1.00
        0.0034756797        1.0000000000
P   1   1.00
        0.0022420590        1.0000000000
D   1   1.00
        0.0274456919        1.0000000000
D   1   1.00
        0.0142043987        1.0000000000
D   1   1.00
        0.0080765930        1.0000000000
D   1   1.00
        0.0049271863        1.0000000000
D   1   1.00
        0.0031748110        1.0000000000
****
C    0
S    6    1.000000
   4.56324000E+03    1.96665000E-03
   6.82024000E+02    1.52306000E-02
   1.54973000E+02    7.61269000E-02
   4.44553000E+01    2.60801000E-01
   1.30290000E+01    6.16462000E-01
   1.82773000E+00    2.21006000E-01
SP   3    1.000000
   2.09642000E+01    1.14660000E-01   4.02487000E-02
   4.80331000E+00    9.19999000E-01   2.37594000E-01
   1.45933000E+00   -3.03068000E-03   8.15854000E-01
SP   1    1.000000
   4.83456000E-01    1.00000000E+00   1.00000000E+00
SP   1    1.000000
   1.45585000E-01    1.00000000E+00   1.00000000E+00
SP   1    1.000000
   4.38000000E-02    1.00000000E+00   1.00000000E+00
D    1    1.000000
   6.26000000E-01    1.00000000E+00
****
H    0
S    3    1.000000
   3.38650000E+01    2.54938000E-02
   5.09479000E+00    1.90373000E-01
   1.15879000E+00    8.52161000E-01
S    1    1.000000
   3.25840000E-01    1.00000000E+00
S    1    1.000000
   1.02741000E-01    1.00000000E+00
S    1    1.000000
   3.60000000E-02    1.00000000E+00
P    1    1.000000
   7.50000000E-01    1.00000000E+00
****
H    0
S    3    1.000000
   3.38650000E+01    2.54938000E-02
   5.09479000E+00    1.90373000E-01
   1.15879000E+00    8.52161000E-01
S    1    1.000000
   3.25840000E-01    1.00000000E+00
S    1    1.000000
   1.02741000E-01    1.00000000E+00
S    1    1.000000
   3.60000000E-02    1.00000000E+00
P    1    1.000000
   7.50000000E-01    1.00000000E+00
****
H    0
S    3    1.000000
   3.38650000E+01    2.54938000E-02
   5.09479000E+00    1.90373000E-01
   1.15879000E+00    8.52161000E-01
S    1    1.000000
   3.25840000E-01    1.00000000E+00
S    1    1.000000
   1.02741000E-01    1.00000000E+00
S    1    1.000000
   3.60000000E-02    1.00000000E+00
P    1    1.000000
   7.50000000E-01    1.00000000E+00
****
C    0
S    6    1.000000
   4.56324000E+03    1.96665000E-03
   6.82024000E+02    1.52306000E-02
   1.54973000E+02    7.61269000E-02
   4.44553000E+01    2.60801000E-01
   1.30290000E+01    6.16462000E-01
   1.82773000E+00    2.21006000E-01
SP   3    1.000000
   2.09642000E+01    1.14660000E-01   4.02487000E-02
   4.80331000E+00    9.19999000E-01   2.37594000E-01
   1.45933000E+00   -3.03068000E-03   8.15854000E-01
SP   1    1.000000
   4.83456000E-01    1.00000000E+00   1.00000000E+00
SP   1    1.000000
   1.45585000E-01    1.00000000E+00   1.00000000E+00
SP   1    1.000000
   4.38000000E-02    1.00000000E+00   1.00000000E+00
D    1    1.000000
   6.26000000E-01    1.00000000E+00
****
O    0
S    6    1.000000
   8.58850000E+03    1.89515000E-03
   1.29723000E+03    1.43859000E-02
   2.99296000E+02    7.07320000E-02
   8.73771000E+01    2.40001000E-01
   2.56789000E+01    5.94797000E-01
   3.74004000E+00    2.80802000E-01
SP   3    1.000000
   4.21175000E+01    1.13889000E-01   3.65114000E-02
   9.62837000E+00    9.20811000E-01   2.37153000E-01
   2.85332000E+00   -3.27447000E-03   8.19702000E-01
SP   1    1.000000
   9.05661000E-01    1.00000000E+00   1.00000000E+00
SP   1    1.000000
   2.55611000E-01    1.00000000E+00   1.00000000E+00
SP   1    1.000000
   8.45000000E-02    1.00000000E+00   1.00000000E+00
D    1    1.000000
   1.29200000E+00    1.00000000E+00
****
C    0
S    6    1.000000
   4.56324000E+03    1.96665000E-03
   6.82024000E+02    1.52306000E-02
   1.54973000E+02    7.61269000E-02
   4.44553000E+01    2.60801000E-01
   1.30290000E+01    6.16462000E-01
   1.82773000E+00    2.21006000E-01
SP   3    1.000000
   2.09642000E+01    1.14660000E-01   4.02487000E-02
   4.80331000E+00    9.19999000E-01   2.37594000E-01
   1.45933000E+00   -3.03068000E-03   8.15854000E-01
SP   1    1.000000
   4.83456000E-01    1.00000000E+00   1.00000000E+00
SP   1    1.000000
   1.45585000E-01    1.00000000E+00   1.00000000E+00
SP   1    1.000000
   4.38000000E-02    1.00000000E+00   1.00000000E+00
D    1    1.000000
   6.26000000E-01    1.00000000E+00
****
O    0
S    6    1.000000
   8.58850000E+03    1.89515000E-03
   1.29723000E+03    1.43859000E-02
   2.99296000E+02    7.07320000E-02
   8.73771000E+01    2.40001000E-01
   2.56789000E+01    5.94797000E-01
   3.74004000E+00    2.80802000E-01
SP   3    1.000000
   4.21175000E+01    1.13889000E-01   3.65114000E-02
   9.62837000E+00    9.20811000E-01   2.37153000E-01
   2.85332000E+00   -3.27447000E-03   8.19702000E-01
SP   1    1.000000
   9.05661000E-01    1.00000000E+00   1.00000000E+00
SP   1    1.000000
   2.55611000E-01    1.00000000E+00   1.00000000E+00
SP   1    1.000000
   8.45000000E-02    1.00000000E+00   1.00000000E+00
D    1    1.000000
   1.29200000E+00    1.00000000E+00
****
N    0
S    6    1.000000
   6.29348000E+03    1.96979000E-03
   9.49044000E+02    1.49613000E-02
   2.18776000E+02    7.35006000E-02
   6.36916000E+01    2.48937000E-01
   1.88282000E+01    6.02460000E-01
   2.72023000E+00    2.56202000E-01
SP   3    1.000000
   3.06331000E+01    1.11906000E-01   3.83119000E-02
   7.02614000E+00    9.21666000E-01   2.37403000E-01
   2.11205000E+00   -2.56919000E-03   8.17592000E-01
SP   1    1.000000
   6.84009000E-01    1.00000000E+00   1.00000000E+00
SP   1    1.000000
   2.00878000E-01    1.00000000E+00   1.00000000E+00
SP   1    1.000000
   6.39000000E-02    1.00000000E+00   1.00000000E+00
D    1    1.000000
   9.13000000E-01    1.00000000E+00
****
N    0
S    6    1.000000
   6.29348000E+03    1.96979000E-03
   9.49044000E+02    1.49613000E-02
   2.18776000E+02    7.35006000E-02
   6.36916000E+01    2.48937000E-01
   1.88282000E+01    6.02460000E-01
   2.72023000E+00    2.56202000E-01
SP   3    1.000000
   3.06331000E+01    1.11906000E-01   3.83119000E-02
   7.02614000E+00    9.21666000E-01   2.37403000E-01
   2.11205000E+00   -2.56919000E-03   8.17592000E-01
SP   1    1.000000
   6.84009000E-01    1.00000000E+00   1.00000000E+00
SP   1    1.000000
   2.00878000E-01    1.00000000E+00   1.00000000E+00
SP   1    1.000000
   6.39000000E-02    1.00000000E+00   1.00000000E+00
D    1    1.000000
   9.13000000E-01    1.00000000E+00
****
C    0
S    6    1.000000
   4.56324000E+03    1.96665000E-03
   6.82024000E+02    1.52306000E-02
   1.54973000E+02    7.61269000E-02
   4.44553000E+01    2.60801000E-01
   1.30290000E+01    6.16462000E-01
   1.82773000E+00    2.21006000E-01
SP   3    1.000000
   2.09642000E+01    1.14660000E-01   4.02487000E-02
   4.80331000E+00    9.19999000E-01   2.37594000E-01
   1.45933000E+00   -3.03068000E-03   8.15854000E-01
SP   1    1.000000
   4.83456000E-01    1.00000000E+00   1.00000000E+00
SP   1    1.000000
   1.45585000E-01    1.00000000E+00   1.00000000E+00
SP   1    1.000000
   4.38000000E-02    1.00000000E+00   1.00000000E+00
D    1    1.000000
   6.26000000E-01    1.00000000E+00
****
H    0
S    3    1.000000
   3.38650000E+01    2.54938000E-02
   5.09479000E+00    1.90373000E-01
   1.15879000E+00    8.52161000E-01
S    1    1.000000
   3.25840000E-01    1.00000000E+00
S    1    1.000000
   1.02741000E-01    1.00000000E+00
S    1    1.000000
   3.60000000E-02    1.00000000E+00
P    1    1.000000
   7.50000000E-01    1.00000000E+00
****
$end
--------------------------------------------------------------
 ----------------------------------------------------------------
             Standard Nuclear Orientation (Angstroms)
    I     Atom           X                Y                Z
 ----------------------------------------------------------------
    1      GH      0.0000000000     0.0000000000     0.0000000000
    2      C       0.0071423614    -1.7021374661     0.0000000000
    3      H       2.0688284730    -1.4402241234     0.0000000000
    4      H       0.1233798666    -2.7756752113     0.0000000000
    5      H      -0.0465189184     1.9881394681     0.0000000000
    6      C       1.2195356258     0.4021166886     0.0000000000
    7      O       2.2592155330     1.0304381417     0.0000000000
    8      C      -1.2879780632     0.3464493660     0.0000000000
    9      O      -2.3127366071     1.0053721560     0.0000000000
   10      N      -0.0344629504     0.9773985746     0.0000000000
   11      N       1.1728776526    -0.9822982369     0.0000000000
   12      C      -1.2010703878    -1.1043341925     0.0000000000
   13      H      -2.1122009608    -1.6769912545     0.0000000000
 ----------------------------------------------------------------
 Molecular Point Group                 Cs    NOp =  2
 Largest Abelian Subgroup              Cs    NOp =  2
 Nuclear Repulsion Energy =   357.0116303478 hartrees
 There are       29 alpha and       29 beta electrons

 Q-Chem warning in module forms1/BasisType.C, line 1685:

 Setting pure/cartesian flag to 2111 for general basis


 Requested basis set is non-standard
 There are 83 shells and 249 basis functions
MEM_TOTAL is adjusted to CC_MEMORY + MEM_STATIC!
 Total memory of 100192MB is distributed as follows: 
   QALLOC including MEM_STATIC uses 192MB
   MEM_STATIC is set to 192MB
   CCMAN JOB total memory use is  100000MB
 Warning: actual memory use might exceed 100192MB

 Total QAlloc Memory Limit    192 MB
 Mega-Array Size       188 MB
 MEM_STATIC part       192 MB

                       Distance Matrix (Angstroms)
             GH(  1)   C (  2)   H (  3)   H (  4)   H (  5)   C (  6)
   C (  2)  1.702152
   H (  3)  2.520773  2.078256
   H (  4)  2.778416  1.079812  2.359703
   H (  5)  1.988684  3.690667  4.028445  4.766843
   C (  6)  1.284120  2.428535  2.028674  3.361535  2.029375
   O (  7)  2.483114  3.541017  2.477987  4.364435  2.496718  1.214793
   C (  8)  1.333760  2.423643  3.802677  3.426309  2.058244  2.508132
   O (  9)  2.521810  3.565452  5.017873  4.497886  2.470136  3.583415
   N ( 10)  0.978006  2.679859  3.204487  3.756392  1.010813  1.379660
   N ( 11)  1.529886  1.370076  1.006193  2.077895  3.210986  1.385201
   C ( 12)  1.631602  1.348016  3.287105  2.132498  3.300967  2.851092
   H ( 13)  2.696978  2.119492  4.187728  2.490969  4.207164  3.927233
             O (  7)   C (  8)   O (  9)   N ( 10)   N ( 11)   C ( 12)
   C (  8)  3.612537
   O (  9)  4.572021  1.218322
   N ( 10)  2.294292  1.403352  2.278445
   N ( 11)  2.287190  2.796673  4.012523  2.301756
   C ( 12)  4.065813  1.453384  2.384672  2.386333  2.377083
   H ( 13)  5.141931  2.184870  2.689849  3.370872  3.357728  1.076148

 
 A cutoff of  1.0D-14 yielded   3386 shell pairs
 There are     30786 function pairs (     34117 Cartesian)
 
 -------------------------------------------------------
 OpenMP Integral Computing Module                       
 Release: version 1.0, May 2013, Q-Chem Inc. Pittsburgh 
 -------------------------------------------------------
 Integral Job Info:
 Integral job number is                      11
 Integral operator is                         1
 short-range coefficients                     0
 long-range coefficients              100000000
 Omega coefficients                           0
 if combine SR and LR in K                    0
 Integral screening is                        0
 Integral computing path is                   2
 max size of driver memory is            800000
 size of driver memory is                593474
 size of scratch memory is              2361544
 max col of scratch BK array               1296
 max len of scratch array in speh3          155
 max len of scratch index in speh4           18
 max int batch size is                      520
 min int batch size is                       52
 fixed nKL is                                52
 max L of basis functions is                  2
 order of int derivative is                   0
 number of shells is                         83
 number of basis is                         262
 number of cartesian basis is               262
 number of contracted shell pairs          3386
 number of primitive shell pairs           8271
 maxK2 (contraction) of shell pair           36
 max number of K2 of shell pair               1
 max number of CS2 of shell pair            435
 max number of PS2 of shell pair           1128
 mem total for path MDJ                  570252
 -------------------------------------------------------
 Smallest overlap matrix eigenvalue = 8.17E-06

 Scale SEOQF with 1.000000e-02/1.000000e-02/1.000000e-02

 Standard Electronic Orientation quadrupole field applied
 Nucleus-field energy     =     0.0000000010 hartrees
 Guess MOs from core Hamiltonian diagonalization

 -----------------------------------------------------------------------
  General SCF calculation program by
  Eric Jon Sundstrom, Paul Horn, Yuezhi Mao, Dmitri Zuev, Alec White,
  David Stuck, Shaama M.S., Shane Yost, Joonho Lee, David Small,
  Daniel Levine, Susi Lehtola, Hugh Burton, Evgeny Epifanovsky
 -----------------------------------------------------------------------
 Hartree-Fock
 A restricted SCF calculation will be
 performed using DIIS
 SCF converges when DIIS error is below 1.0e-12
 ---------------------------------------
  Cycle       Energy         DIIS error
 ---------------------------------------
    1    -322.0016090431      1.23e-01  
    2    -296.8535098229      6.76e-02  
    3    -303.3792079835      8.28e-02  
    4    -391.1860010165      4.40e-02  
    5    -398.9337278678      3.51e-02  
    6    -409.9286195664      1.85e-02  
    7    -412.3025534200      5.33e-03  
    8    -412.5246263016      2.27e-03  
    9    -412.5600426297      1.38e-03  
   10    -412.5773997653      3.06e-04  
   11    -412.5792385082      1.25e-04  
   12    -412.5795406929      5.71e-05  
   13    -412.5796214771      2.15e-05  
   14    -412.5796292183      8.58e-06  
   15    -412.5796299328      2.34e-06  
   16    -412.5796299963      5.28e-07  
   17    -412.5796300009      2.48e-07  
   18    -412.5796300018      1.08e-07  
   19    -412.5796300020      2.91e-08  
   20    -412.5796300020      6.42e-09  
   21    -412.5796300020      2.35e-09  
   22    -412.5796300020      6.88e-10  
   23    -412.5796300020      1.79e-10  
   24    -412.5796300020      5.12e-11  
   25    -412.5796300020      1.98e-11  
   26    -412.5796300020      4.24e-12  
   27    -412.5796300020      1.17e-12  
   28    -412.5796300020      3.62e-13  Convergence criterion met
 ---------------------------------------
 SCF time:   CPU 514.65s  wall 52.00s 
 SCF   energy in the final basis set =     -412.5796300020


 ------------------------------------------------------------------------------

   CCMAN2: suite of methods based on coupled cluster
           and equation of motion theories.

   Components:
   * libvmm-1.3-trunk
     by Evgeny Epifanovsky, Ilya Kaliman.
   * libtensor-2.5-trunk
     by Evgeny Epifanovsky, Michael Wormit, Dmitry Zuev, Sam Manzer, 
        Ilya Kaliman.
   * libcc-2.5-trunk
     by Evgeny Epifanovsky, Arik Landau, Tomasz Kus, Kirill Khistyaev, 
        Dmitry Zuev, Prashant Manohar, Xintian Feng, Anna Krylov, 
        Matthew Goldey, Alec White, Thomas Jagau, Kaushik Nanda, 
        Anastasia Gunina, Alexander Kunitsa, Joonho Lee.

   CCMAN original authors:
   Anna I. Krylov, C. David Sherrill, Steven R. Gwaltney,
   Edward F. C. Byrd (2000)
   Sergey V. Levchenko, Lyudmila V. Slipchenko, Tao Wang,
   Ana-Maria C. Cristian (2003)
   Piotr A. Pieniazek, C. Melania Oana, Evgeny Epifanovsky (2007)
   Prashant Manohar (2009)

 ------------------------------------------------------------------------------


 Calculation will run on 10 cores with 100000MB of RAM.

 
 Alpha MOs, Restricted
 -- Occupied --                  
-20.550 -20.545 -15.648 -15.630 -11.426 -11.387 -11.345 -11.260
  1 A'    2 A'    3 A'    4 A'    5 A'    6 A'    7 A'    8 A'                 
 -1.442  -1.404  -1.319  -1.250  -1.093  -0.938  -0.906  -0.812
  9 A'   10 A'   11 A'   12 A'   13 A'   14 A'   15 A'   16 A'                 
 -0.770  -0.718  -0.681  -0.671  -0.657  -0.619  -0.605  -0.573
 17 A'   18 A'   19 A'    1 A"   20 A'   21 A'   22 A'    2 A"                 
 -0.528  -0.487  -0.452  -0.438  -0.371
  3 A"   23 A'   24 A'    4 A"    5 A"                                         
 -- Virtual --                   
 -0.001   0.003   0.003   0.003   0.005   0.008   0.008   0.008
 25 A'   26 A'    6 A"   27 A'   28 A'   29 A'    7 A"   30 A'                 
  0.008   0.008   0.009   0.011   0.012   0.014   0.020   0.021
  8 A"   31 A'   32 A'    9 A"   33 A'   34 A'   35 A'   10 A"                 
  0.021   0.022   0.022   0.023   0.026   0.028   0.031   0.042
 36 A'   11 A"   37 A'   38 A'   12 A"   39 A'   40 A'   41 A'                 
  0.043   0.043   0.045   0.045   0.050   0.053   0.057   0.062
 42 A'   13 A"   14 A"   43 A'   44 A'   15 A"   45 A'   46 A'                 
  0.077   0.080   0.083   0.086   0.086   0.088   0.095   0.103
 16 A"   47 A'   48 A'   17 A"   49 A'   18 A"   50 A'   51 A'                 
  0.104   0.107   0.113   0.115   0.126   0.142   0.146   0.154
 52 A'   19 A"   53 A'   54 A'   55 A'   56 A'   20 A"   57 A'                 
  0.158   0.162   0.162   0.171   0.184   0.190   0.194   0.199
 58 A'   59 A'   21 A"   22 A"   23 A"   24 A"   60 A'   61 A'                 
  0.213   0.217   0.220   0.221   0.229   0.232   0.240   0.247
 62 A'   63 A'   25 A"   64 A'   65 A'   66 A'   67 A'   68 A'                 
  0.265   0.278   0.281   0.307   0.319   0.320   0.331   0.332
 26 A"   69 A'   70 A'   27 A"   71 A'   72 A'   73 A'   28 A"                 
  0.333   0.351   0.364   0.381   0.395   0.403   0.412   0.414
 29 A"   74 A'   75 A'   76 A'   77 A'   78 A'   79 A'   30 A"                 
  0.434   0.441   0.448   0.453   0.462   0.470   0.475   0.485
 31 A"   80 A'   81 A'   82 A'   83 A'   84 A'   85 A'   86 A'                 
  0.521   0.531   0.551   0.584   0.607   0.648   0.699   0.748
 87 A'   88 A'   89 A'   90 A'   91 A'   92 A'   93 A'   94 A'                 
  0.758   0.758   0.778   0.781   0.802   0.819   0.849   0.858
 32 A"   95 A'   33 A"   96 A'   34 A"   97 A'   98 A'   35 A"                 
  0.887   0.921   0.951   0.966   0.981   1.005   1.008   1.028
 99 A'  100 A'  101 A'  102 A'  103 A'  104 A'  105 A'  106 A'                 
  1.064   1.072   1.092   1.098   1.123   1.197   1.227   1.242
107 A'   36 A"   37 A"  108 A'  109 A'  110 A'   38 A"   39 A"                 
  1.259   1.295   1.321   1.368   1.371   1.390   1.411   1.424
111 A'  112 A'  113 A'   40 A"  114 A'   41 A"   42 A"   43 A"                 
  1.440   1.460   1.464   1.501   1.520   1.529   1.579   1.600
115 A'  116 A'   44 A"  117 A'   45 A"  118 A'  119 A'  120 A'                 
  1.757   1.786   1.813   1.814   1.889   1.897   1.921   1.928
121 A'  122 A'  123 A'   46 A"  124 A'   47 A"  125 A'   48 A"                 
  1.957   1.982   2.012   2.017   2.078   2.128   2.145   2.192
126 A'  127 A'   49 A"  128 A'  129 A'  130 A'  131 A'  132 A'                 
  2.225   2.236   2.284   2.299   2.339   2.363   2.535   2.571
 50 A"  133 A'  134 A'  135 A'   51 A"  136 A'  137 A'   52 A"                 
  2.592   2.643   2.670   2.728   2.810   2.823   2.858   2.936
138 A'   53 A"  139 A'   54 A"  140 A'   55 A"  141 A'  142 A'                 
  2.968   3.015   3.036   3.062   3.107   3.176   3.179   3.198
143 A'  144 A'  145 A'  146 A'   56 A"  147 A'   57 A"   58 A"                 
  3.213   3.262   3.277   3.297   3.309   3.328   3.354   3.405
148 A'   59 A"  149 A'  150 A'   60 A"  151 A'   61 A"  152 A'                 
  3.514   3.593   3.753   3.764   3.808   3.840   3.875   3.915
153 A'  154 A'   62 A"   63 A"  155 A'  156 A'  157 A'  158 A'                 
  3.961   4.019   4.057   4.105   4.298   4.322   4.364   4.426
159 A'  160 A'  161 A'  162 A'  163 A'   64 A"   65 A"  164 A'                 
  4.496   4.631   5.198   5.287   5.355   5.622   5.643   5.692
165 A'  166 A'  167 A'  168 A'  169 A'   66 A"   67 A"  170 A'                 
  5.780   5.866   6.353   6.405  24.873  24.989  25.037  25.327
171 A'  172 A'  173 A'  174 A'  175 A'  176 A'  177 A'  178 A'                 
 37.002  37.050  51.718  51.755
179 A'  180 A'  181 A'  182 A'                                                 
 
 Beta MOs, Restricted
 -- Occupied --                  
-20.550 -20.545 -15.648 -15.630 -11.426 -11.387 -11.345 -11.260
  1 A'    2 A'    3 A'    4 A'    5 A'    6 A'    7 A'    8 A'                 
 -1.442  -1.404  -1.319  -1.250  -1.093  -0.938  -0.906  -0.812
  9 A'   10 A'   11 A'   12 A'   13 A'   14 A'   15 A'   16 A'                 
 -0.770  -0.718  -0.681  -0.671  -0.657  -0.619  -0.605  -0.573
 17 A'   18 A'   19 A'    1 A"   20 A'   21 A'   22 A'    2 A"                 
 -0.528  -0.487  -0.452  -0.438  -0.371
  3 A"   23 A'   24 A'    4 A"    5 A"                                         
 -- Virtual --                   
 -0.001   0.003   0.003   0.003   0.005   0.008   0.008   0.008
 25 A'   26 A'    6 A"   27 A'   28 A'   29 A'    7 A"   30 A'                 
  0.008   0.008   0.009   0.011   0.012   0.014   0.020   0.021
  8 A"   31 A'   32 A'    9 A"   33 A'   34 A'   35 A'   10 A"                 
  0.021   0.022   0.022   0.023   0.026   0.028   0.031   0.042
 36 A'   11 A"   37 A'   38 A'   12 A"   39 A'   40 A'   41 A'                 
  0.043   0.043   0.045   0.045   0.050   0.053   0.057   0.062
 42 A'   13 A"   14 A"   43 A'   44 A'   15 A"   45 A'   46 A'                 
  0.077   0.080   0.083   0.086   0.086   0.088   0.095   0.103
 16 A"   47 A'   48 A'   17 A"   49 A'   18 A"   50 A'   51 A'                 
  0.104   0.107   0.113   0.115   0.126   0.142   0.146   0.154
 52 A'   19 A"   53 A'   54 A'   55 A'   56 A'   20 A"   57 A'                 
  0.158   0.162   0.162   0.171   0.184   0.190   0.194   0.199
 58 A'   59 A'   21 A"   22 A"   23 A"   24 A"   60 A'   61 A'                 
  0.213   0.217   0.220   0.221   0.229   0.232   0.240   0.247
 62 A'   63 A'   25 A"   64 A'   65 A'   66 A'   67 A'   68 A'                 
  0.265   0.278   0.281   0.307   0.319   0.320   0.331   0.332
 26 A"   69 A'   70 A'   27 A"   71 A'   72 A'   73 A'   28 A"                 
  0.333   0.351   0.364   0.381   0.395   0.403   0.412   0.414
 29 A"   74 A'   75 A'   76 A'   77 A'   78 A'   79 A'   30 A"                 
  0.434   0.441   0.448   0.453   0.462   0.470   0.475   0.485
 31 A"   80 A'   81 A'   82 A'   83 A'   84 A'   85 A'   86 A'                 
  0.521   0.531   0.551   0.584   0.607   0.648   0.699   0.748
 87 A'   88 A'   89 A'   90 A'   91 A'   92 A'   93 A'   94 A'                 
  0.758   0.758   0.778   0.781   0.802   0.819   0.849   0.858
 32 A"   95 A'   33 A"   96 A'   34 A"   97 A'   98 A'   35 A"                 
  0.887   0.921   0.951   0.966   0.981   1.005   1.008   1.028
 99 A'  100 A'  101 A'  102 A'  103 A'  104 A'  105 A'  106 A'                 
  1.064   1.072   1.092   1.098   1.123   1.197   1.227   1.242
107 A'   36 A"   37 A"  108 A'  109 A'  110 A'   38 A"   39 A"                 
  1.259   1.295   1.321   1.368   1.371   1.390   1.411   1.424
111 A'  112 A'  113 A'   40 A"  114 A'   41 A"   42 A"   43 A"                 
  1.440   1.460   1.464   1.501   1.520   1.529   1.579   1.600
115 A'  116 A'   44 A"  117 A'   45 A"  118 A'  119 A'  120 A'                 
  1.757   1.786   1.813   1.814   1.889   1.897   1.921   1.928
121 A'  122 A'  123 A'   46 A"  124 A'   47 A"  125 A'   48 A"                 
  1.957   1.982   2.012   2.017   2.078   2.128   2.145   2.192
126 A'  127 A'   49 A"  128 A'  129 A'  130 A'  131 A'  132 A'                 
  2.225   2.236   2.284   2.299   2.339   2.363   2.535   2.571
 50 A"  133 A'  134 A'  135 A'   51 A"  136 A'  137 A'   52 A"                 
  2.592   2.643   2.670   2.728   2.810   2.823   2.858   2.936
138 A'   53 A"  139 A'   54 A"  140 A'   55 A"  141 A'  142 A'                 
  2.968   3.015   3.036   3.062   3.107   3.176   3.179   3.198
143 A'  144 A'  145 A'  146 A'   56 A"  147 A'   57 A"   58 A"                 
  3.213   3.262   3.277   3.297   3.309   3.328   3.354   3.405
148 A'   59 A"  149 A'  150 A'   60 A"  151 A'   61 A"  152 A'                 
  3.514   3.593   3.753   3.764   3.808   3.840   3.875   3.915
153 A'  154 A'   62 A"   63 A"  155 A'  156 A'  157 A'  158 A'                 
  3.961   4.019   4.057   4.105   4.298   4.322   4.364   4.426
159 A'  160 A'  161 A'  162 A'  163 A'   64 A"   65 A"  164 A'                 
  4.496   4.631   5.198   5.287   5.355   5.622   5.643   5.692
165 A'  166 A'  167 A'  168 A'  169 A'   66 A"   67 A"  170 A'                 
  5.780   5.866   6.353   6.405  24.873  24.989  25.037  25.327
171 A'  172 A'  173 A'  174 A'  175 A'  176 A'  177 A'  178 A'                 
 37.002  37.050  51.718  51.755
179 A'  180 A'  181 A'  182 A'                                                 

 Occupation and symmetry of molecular orbitals

 Point group: Cs (2 irreducible representations).

                           A'   A"    All 
 ------------------------------------------
 All molecular orbitals:
  - Alpha                  182  67    249 
  - Beta                   182  67    249 
 ------------------------------------------
 Alpha orbitals:
  - Frozen occupied        4    0     4   
  - Active occupied        20   5     25  
  - Active virtual         158  62    220 
  - Frozen virtual         0    0     0   
 ------------------------------------------
 Beta orbitals:
  - Frozen occupied        4    0     4   
  - Active occupied        20   5     25  
  - Active virtual         158  62    220 
  - Frozen virtual         0    0     0   
 ------------------------------------------

 Import integrals:   CPU 0.00 s  wall 0.00 s

 Import integrals:   CPU 775.29 s  wall 87.95 s

 MP2 amplitudes:   CPU 2.63 s  wall 1.89 s

           CCSD T amplitudes will be solved using DIIS.

           Start     Size      MaxIter   EConv     TConv     
           3         7         100       1.00e-12  1.00e-11  
 ------------------------------------------------------------------------------
           Energy (a.u.)   Ediff      Tdiff       Comment
 ------------------------------------------------------------------------------
          -413.92593308                           
     1    -413.90042397   2.55e-02   1.01e+00     
     2    -413.94499197   4.46e-02   1.36e-01     
     3    -413.94125373   3.74e-03   5.68e-02     
     4    -413.94587796   4.62e-03   2.39e-02     Switched to DIIS steps.
     5    -413.94749773   1.62e-03   1.34e-02     
     6    -413.94764640   1.49e-04   3.41e-03     
     7    -413.94764929   2.89e-06   1.38e-03     
     8    -413.94764513   4.16e-06   4.32e-04     
     9    -413.94764768   2.55e-06   1.75e-04     
    10    -413.94764758   1.05e-07   5.41e-05     
    11    -413.94764811   5.30e-07   3.25e-05     
    12    -413.94764809   2.35e-08   1.67e-05     
    13    -413.94764802   6.98e-08   8.46e-06     
    14    -413.94764792   9.11e-08   3.27e-06     
    15    -413.94764791   1.73e-08   1.48e-06     
    16    -413.94764788   2.33e-08   6.88e-07     
    17    -413.94764788   6.25e-09   2.72e-07     
    18    -413.94764788   2.03e-09   1.22e-07     
    19    -413.94764788   7.03e-10   3.98e-08     
    20    -413.94764787   2.42e-10   2.49e-08     
    21    -413.94764787   3.94e-11   9.41e-09     
    22    -413.94764787   3.53e-11   5.47e-09     
    23    -413.94764787   8.80e-12   2.37e-09     
    24    -413.94764787   1.89e-11   1.31e-09     
    25    -413.94764787   3.76e-12   6.77e-10     
    26    -413.94764787   1.19e-12   3.50e-10     
    27    -413.94764787   1.74e-13   1.60e-10     
    28    -413.94764787   2.23e-13   7.74e-11     
    29    -413.94764787   2.10e-13   4.58e-11     
    30    -413.94764787   1.31e-13   1.83e-11     
    31    -413.94764787   3.09e-14   9.92e-12     
 ------------------------------------------------------------------------------
          -413.94764787                           CCSD T converged.

 SCF energy                 = -412.57963000
 MP2 energy                 = -413.92593308
 CCSD correlation energy     =   -1.36801787
 CCSD total energy           = -413.94764787

 CCSD  T1^2 = 0.0266  T2^2 = 0.4135  Leading amplitudes:

 Amplitude    Orbitals with energies
  0.0358       2 (A") A                  ->    20 (A") A                  
              -0.5733                          0.1465                     
  0.0358       2 (A") B                  ->    20 (A") B                  
              -0.5733                          0.1465                     
  0.0313       2 (A") A                  ->    16 (A") A                  
              -0.5733                          0.0766                     
  0.0313       2 (A") B                  ->    16 (A") B                  
              -0.5733                          0.0766                     

 Amplitude    Orbitals with energies
 -0.0506       5 (A") A      5 (A") B    ->    16 (A") A     16 (A") B    
              -0.3712       -0.3712            0.0766        0.0766       
  0.0506       5 (A") A      5 (A") B    ->    16 (A") B     16 (A") A    
              -0.3712       -0.3712            0.0766        0.0766       
  0.0506       5 (A") B      5 (A") A    ->    16 (A") A     16 (A") B    
              -0.3712       -0.3712            0.0766        0.0766       
 -0.0506       5 (A") B      5 (A") A    ->    16 (A") B     16 (A") A    
              -0.3712       -0.3712            0.0766        0.0766       

 Computing CCSD intermediates for later calculations
 Finished.

           CCSD Lambda amplitudes will be solved using DIIS.
           Start     Size      MaxIter   EConv     LConv     
           3         7         100       1.00e-12  1.00e-11  
 ------------------------------------------------------------------------------
            Enorm      Ldiff       Comment
 ------------------------------------------------------------------------------
     1     7.17e-02   4.18e-02     
     2     2.67e-02   9.13e-03     
     3     1.21e-02   4.93e-04     
     4     5.02e-03   1.66e-03     Switched to DIIS steps.
     5     1.46e-03   9.46e-04     
     6     6.44e-04   2.03e-04     
     7     2.27e-04   5.43e-05     
     8     9.76e-05   1.04e-05     
     9     4.05e-05   3.56e-06     
    10     1.96e-05   1.41e-06     
    11     8.67e-06   1.81e-07     
    12     3.42e-06   1.81e-07     
    13     1.40e-06   2.11e-08     
    14     5.93e-07   4.70e-09     
    15     2.48e-07   4.01e-08     
    16     1.08e-07   7.45e-09     
    17     5.31e-08   5.01e-09     
    18     2.25e-08   4.21e-09     
    19     1.08e-08   1.20e-10     
    20     5.36e-09   1.21e-10     
    21     2.45e-09   9.88e-11     
    22     1.13e-09   1.50e-10     
    23     5.60e-10   7.89e-11     
    24     2.44e-10   1.97e-11     
    25     1.18e-10   1.00e-11     
    26     6.27e-11   3.61e-12     
    27     2.98e-11   1.33e-12     
    28     1.45e-11   2.32e-13     
    29     6.81e-12   9.66e-14     
    30     3.49e-12   2.05e-13     
    31     1.57e-12   2.95e-14     
    32     8.20e-13   2.98e-14     
 ------------------------------------------------------------------------------
                                   CCSD Lambda converged.

 CCSD calculation:   CPU 11745.74 s  wall 1338.43 s

        Solving for CVS-EOMEE-CCSD A' singlet states.

       EOMEE-CCSD-SINGLES right amplitudes will be solved using Davidson.
        Amplitudes will be solved using shifted  algorithm.
     Hard-coded thresholds: 
     LinDepThresh=1.00e-15  NormThresh=1.00e-06  ReorthogonThresh=1.00e-02

      Roots     MaxVec    MaxIter   Precond   Conv      Shift    
      15        1000      200       1         1.00e-04  1.48e+01  
 ------------------------------------------------------------------------------
      Iter ConvRoots NVecs ResNorm Current eigenvalues (eV)
 ------------------------------------------------------------------------------
      0    5      15    3.16e-04   423.1056   423.6119   423.7169   423.8146   424.0280   424.0936   424.2229   424.2936*  424.4033   424.4309*  424.5173*  424.5365*  424.5910*  424.6059   424.8424   
Rerun orthogonalization...
      1    0      25    2.54e-02   421.5905   422.0197   423.0415   423.4484   423.5394   423.8039   423.8060   423.8785   424.1380   424.2368   424.2744   424.2847   424.2934   424.3643   424.3988   
      2    0      40    6.62e-03   419.0991   419.5771   421.9352   422.5860   423.1710   423.2540   423.5074   423.6039   423.8252   423.8375   423.8958   423.9594   424.1095   424.1414   424.2008   
      3    0      55    3.95e-03   418.3953   418.5135   421.3509   421.8453   422.6521   423.0091   423.1725   423.2725   423.3881   423.4790   423.5559   423.7291   423.8056   424.0030   424.0871   
      4    2      70    1.19e-03   418.3228   418.4730   421.3184   421.7476   422.2477   422.8703   422.9996*  423.1396   423.3209   423.4024   423.4841   423.7231*  423.7896   423.9739   424.0059   
      5    9      83    1.53e-03   418.3060   418.4723*  421.3170*  421.7416*  421.8509   422.7848   422.9988*  423.1205   423.3169*  423.3993*  423.4772   423.7227*  423.7500   423.7888*  423.9625*  
      6    10     89    7.22e-03   418.3036*  418.4723*  421.3170*  421.7165   421.7415*  422.6975   422.9988*  423.1197*  423.2535   423.3168*  423.3656   423.3992*  423.4882   423.7227*  423.7888*  
      7    11     94    6.97e-04   418.3032*  418.4723*  421.3169*  421.6992   421.7414*  421.8526   422.7754   422.9988*  423.1197*  423.2782   423.3168*  423.3992*  423.4836*  423.7227*  423.7888*  
      8    13     98    8.33e-05   418.3032*  418.4723*  421.3169*  421.6982*  421.7412*  421.7654   422.7709*  422.9988*  423.1197*  423.2708   423.3168*  423.3992*  423.4833*  423.7227*  423.7888*  
      9    15     100   9.56e-06   418.3032*  418.4723*  421.3169*  421.6981*  421.7411*  421.7601*  422.7705*  422.9988*  423.1197*  423.2700*  423.3168*  423.3992*  423.4833*  423.7227*  423.7888*  

     Davidson procedure converged

        CVS-EOMEE-CCSD/MP2 right amplitudes will be solved using Davidson.
        Amplitudes will be solved using shifted  algorithm.
     Hard-coded thresholds: 
     LinDepThresh=1.00e-15  NormThresh=1.00e-06  ReorthogonThresh=1.00e-02

      Roots     MaxVec    MaxIter   Precond   Conv      Shift    
      15        1000      200       1         1.00e-04  1.48e+01  
 ------------------------------------------------------------------------------
      Iter ConvRoots NVecs ResNorm Current eigenvalues (eV)
 ------------------------------------------------------------------------------
      0    0      15    2.73e+00   418.3032   418.4723   421.3169   421.6981   421.7411   421.7601   422.7705   422.9988   423.1197   423.2700   423.3168   423.3992   423.4833   423.7227   423.7888   
      1    0      30    1.85e+00   415.6123   415.8230   418.3558   418.7418   418.9988   419.1384   419.6396   419.7917   420.0672   420.1425   420.1760   420.2353   420.3189   420.5450   420.6037   
      2    0      45    9.13e-02   404.7682   405.0919   406.0582   406.5244   406.6003   406.7121   406.8609   407.2597   407.2882   407.5862   407.6045   408.9581   409.0218   409.8286   410.0352   
      3    0      60    2.20e-02   404.1478   404.4715   405.3954   405.8934   405.9442   406.0630   406.1808   406.5797   406.6242   406.8769   406.8956   408.1991   408.2543   408.9167   409.1401   
      4    0      75    5.00e-03   404.0591   404.3829   405.3428   405.8397   405.9045   406.0281   406.1529   406.5441   406.6031   406.8099   406.8450   407.9549   408.0142   408.5082   408.7550   
      5    0      90    9.81e-03   404.0248   404.3464   405.3176   405.8198   405.8890   406.0142   406.1388   406.5319   406.5977   406.7826   406.8267   407.6965   407.7949   408.1488   408.4375   
      6    0      105   4.84e-03   404.0078   404.3275   405.3016   405.8022   405.8744   406.0002   406.1287   406.5210   406.5917   406.7574   406.8080   407.3815   407.5726   407.8910   408.1953   
      7    0      120   5.77e-03   403.9977   404.3163   405.2907   405.7860   405.8600   405.9883   406.1200   406.5110   406.5853   406.7321   406.7828   407.1070   407.3653   407.6615   407.9134   
      8    2      135   2.62e-03   403.9955*  404.3139*  405.2865   405.7817   405.8556   405.9852   406.1150   406.5062   406.5810   406.7192   406.7708   407.0083   407.2562   407.4915   407.6269   
      9    2      148   2.73e-03   403.9953*  404.3136*  405.2841   405.7787   405.8533   405.9830   406.1117   406.5034   406.5780   406.7146   406.7617   406.9515   407.1759   407.3679   407.4320   
      10   4      161   1.70e-03   403.9952*  404.3135*  405.2830*  405.7758   405.8519*  405.9808   406.1100   406.5011   406.5757   406.7099   406.7535   406.9147   407.1040   407.2574   407.2722   
      11   9      172   1.35e-03   403.9950*  404.3133*  405.2826*  405.7749*  405.8514*  405.9800*  406.1090*  406.4999*  406.5746*  406.7077   406.7464   406.8880   407.0606   407.1307   407.2057   
      12   9      178   9.14e-04   403.9949*  404.3131*  405.2823*  405.7747*  405.8511*  405.9796*  406.1086*  406.4993*  406.5739*  406.7053   406.7405   406.8705   407.0227   407.0513   407.1475   
      13   10     184   6.14e-04   403.9949*  404.3131*  405.2821*  405.7744*  405.8510*  405.9792*  406.1084*  406.4987*  406.5734*  406.7041*  406.7357   406.8561   406.9781   407.0205   407.1081   
      14   10     189   4.34e-04   403.9949*  404.3131*  405.2819*  405.7743*  405.8509*  405.9790*  406.1084*  406.4982*  406.5732*  406.7041*  406.7318   406.8472   406.9478   406.9999   407.0788   
      15   10     194   3.75e-04   403.9949*  404.3131*  405.2819*  405.7743*  405.8509*  405.9789*  406.1084*  406.4979*  406.5730*  406.7041*  406.7299   406.8411   406.9246   406.9889   407.0556   
      16   10     199   3.14e-04   403.9949*  404.3131*  405.2820*  405.7743*  405.8509*  405.9789*  406.1084*  406.4979*  406.5729*  406.7041*  406.7284   406.8365   406.9039   406.9810   407.0353   
      17   10     204   2.43e-04   403.9949*  404.3131*  405.2819*  405.7743*  405.8509*  405.9789*  406.1084*  406.4979*  406.5728*  406.7040*  406.7263   406.8323   406.8878   406.9732   407.0188   
Found complex roots...
      18   11     209   1.78e-04   403.9949*  404.3130*  405.2819*  405.7743*  405.8509*  405.9789*  406.1083*  406.4976*  406.5728*  406.7039*  406.7247*  406.8269   406.8751   406.9679   407.0045   
      19   11     213   1.35e-04   403.9949*  404.3130*  405.2819*  405.7742*  405.8509*  405.9788*  406.1083*  406.4976*  406.5727*  406.7039*  406.7238*  406.8243   406.8685   406.9636   406.9956   
Found complex roots...
      20   11     217   1.10e-04   403.9949*  404.3130*  405.2819*  405.7743*  405.8509*  405.9788*  406.1083*  406.4976*  406.5727*  406.7039*  406.7237*  406.8229   406.8654   406.9630   406.9866   
Found complex roots...
      21   12     221   8.64e-05   403.9949*  404.3131*  405.2819*  405.7743*  405.8509*  405.9788*  406.1083*  406.4976*  406.5727*  406.7038*  406.7234*  406.8220*  406.8601   406.9601   406.9821   
Found complex roots...
      22   11     224   1.08e-04   403.9949*  404.3131*  405.2819*  405.7742*  405.8509*  405.9788*  406.1083*  406.4976*  406.5727*  406.7038*  406.7234*  406.8216   406.8587   406.9591   406.9754   
Found complex roots...
      23   11     228   4.34e-03   403.9949*  404.3131*  405.2819*  405.7742*  405.8509*  405.9788*  406.1083*  406.4975*  406.5727*  406.7038*  406.7230*  406.8191   406.8547   406.9423   406.9629   
Found complex roots...
      24   9      232   7.59e-03   403.9949*  404.3131*  405.2819*  405.7742*  405.8509*  405.9788*  406.1084*  406.4976*  406.5727*  406.7035   406.7229   406.8201   406.8382   406.9549   406.9761   
Found complex roots...
      25   10     238   5.07e-01   402.1243   403.9949*  404.3131*  405.2819*  405.7742*  405.8508*  405.9788*  406.1083*  406.4975*  406.5727*  406.7023*  406.7230   406.8206   406.8562   406.9581   
Found complex roots...
      26   11     243   6.94e-04   403.9949*  404.3130*  405.2819*  405.7741*  405.8509*  405.9788*  406.1083*  406.4974*  406.5727*  406.7023*  406.7224*  406.8194   406.8549   406.9536   406.9625   
Found complex roots...
      27   5      247   3.41e-01   403.9949*  404.3129   404.9519   405.2819*  405.7741   405.8509   405.9787*  406.1086   406.4977   406.5727*  406.7023*  406.7224   406.8199   406.8427   406.9552   
      28   9      257   1.02e-02   403.9949*  404.3130*  405.2819*  405.7739*  405.8507*  405.9787*  406.1081*  406.4975   406.5725*  406.7022*  406.7209   406.8180   406.8537   406.9485   406.9570   
      29   14     263   4.27e-05   403.9949*  404.3129*  405.2819*  405.7739*  405.8507*  405.9787*  406.1080*  406.4973*  406.5724*  406.7022*  406.7221*  406.8186*  406.8544*  406.9570*  406.9616   
      30   14     264   4.51e-05   403.9949*  404.3129*  405.2819*  405.7739*  405.8507*  405.9787*  406.1080*  406.4973*  406.5724*  406.7022*  406.7220*  406.8186*  406.8544*  406.9570*  406.9595   
      31   13     265   1.09e-03   403.9949*  404.3129*  405.2819*  405.7739*  405.8507*  405.9787*  406.1079*  406.4974*  406.5724*  406.7022*  406.7220*  406.8175   406.8544*  406.9492   406.9570*  
      32   14     267   4.84e-05   403.9949*  404.3129*  405.2819*  405.7739*  405.8507*  405.9787*  406.1080*  406.4973*  406.5724*  406.7022*  406.7219*  406.8181*  406.8544*  406.9570*  406.9594   
      33   14     268   3.49e-05   403.9949*  404.3129*  405.2819*  405.7739*  405.8507*  405.9787*  406.1080*  406.4973*  406.5724*  406.7022*  406.7219*  406.8182*  406.8544*  406.9570*  406.9577   
Found complex roots...
      34   14     269   1.20e-04   403.9949*  404.3129*  405.2819*  405.7739*  405.8507*  405.9787*  406.1080*  406.4973*  406.5724*  406.7022*  406.7219*  406.8178*  406.8543*  406.9539   406.9570*  
Found complex roots...
      35   14     270   8.31e-05   403.9949*  404.3129*  405.2819*  405.7739*  405.8507*  405.9787*  406.1080*  406.4973*  406.5724*  406.7022*  406.7220*  406.8182*  406.8543*  406.9570*  406.9575   
Found complex roots...
      36   14     271   2.96e-05   403.9949*  404.3129*  405.2819*  405.7739*  405.8507*  405.9787*  406.1080*  406.4973*  406.5724*  406.7022*  406.7219*  406.8180*  406.8543*  406.9565   406.9570*  
Found complex roots...
      37   14     272   3.80e-05   403.9949*  404.3129*  405.2819*  405.7739*  405.8507*  405.9787*  406.1080*  406.4973*  406.5724*  406.7022*  406.7219*  406.8180*  406.8543*  406.9551   406.9570*  
Found complex roots...
      38   12     273   3.86e-01   403.9949*  404.3129*  404.6799   405.2819*  405.7739*  405.8507*  405.9787*  406.1080*  406.4973*  406.5724   406.7022*  406.7219*  406.8183   406.8543*  406.9570*  
Found complex roots...
      39   15     276   2.85e-05   403.9949*  404.3129*  405.2819*  405.7739*  405.8507*  405.9787*  406.1079*  406.4973*  406.5724*  406.7022*  406.7219*  406.8177*  406.8543*  406.9553*  406.9570*  

     Davidson procedure converged

 EOMEE transition 1/A'
 Total energy = -399.10110917 a.u.  Excitation energy = 403.9949 eV.
 R0^2 = 0.0000  R1^2 = 0.8321  R2_CCVV^2 = 0.0008  R2_COVV^2 = 0.0835  Res^2 = 1.46e-05
 Conv-d = yes

 Amplitude    Transitions between orbitals
 -0.1727       3 (A') A                  ->    48 (A') A                  
 -0.1727       3 (A') B                  ->    48 (A') B                  
  0.1682       3 (A') A                  ->    25 (A') A                  
  0.1682       3 (A') B                  ->    25 (A') B                  
 -0.1660       3 (A') A                  ->    69 (A') A                  
 -0.1660       3 (A') B                  ->    69 (A') B                  
 -0.1609       3 (A') A                  ->    44 (A') A                  
 -0.1609       3 (A') B                  ->    44 (A') B                  
 -0.1557       3 (A') A                  ->    45 (A') A                  
 -0.1557       3 (A') B                  ->    45 (A') B                  
  0.1506       3 (A') A                  ->    38 (A') A                  
  0.1506       3 (A') B                  ->    38 (A') B                  
 -0.1479       3 (A') A                  ->    42 (A') A                  
 -0.1479       3 (A') B                  ->    42 (A') B                  
  0.1429       3 (A') A                  ->    54 (A') A                  
  0.1429       3 (A') B                  ->    54 (A') B                  
  0.1340       3 (A') A                  ->    32 (A') A                  
  0.1340       3 (A') B                  ->    32 (A') B                  
 -0.1283       3 (A') A                  ->    52 (A') A                  
 -0.1283       3 (A') B                  ->    52 (A') B                  
  0.1121       3 (A') A                  ->    28 (A') A                  
  0.1121       3 (A') B                  ->    28 (A') B                  
 -0.1119       3 (A') A                  ->    34 (A') A                  
 -0.1119       3 (A') B                  ->    34 (A') B                  
  0.1117       3 (A') A                  ->    39 (A') A                  
  0.1117       3 (A') B                  ->    39 (A') B                  
 -0.1063       3 (A') A                  ->    26 (A') A                  
 -0.1063       3 (A') B                  ->    26 (A') B                  

              Summary of significant orbitals:

               Number  Type             Irrep      Energy
               3       Occ  Alpha       3 (A')    -15.6480
               3       Occ  Beta        3 (A')    -15.6480
               30      Vir  Alpha      25 (A')     -0.0009
               31      Vir  Alpha      26 (A')      0.0027
               34      Vir  Alpha      28 (A')      0.0046
               40      Vir  Alpha      32 (A')      0.0094
               43      Vir  Alpha      34 (A')      0.0142
               49      Vir  Alpha      38 (A')      0.0232
               51      Vir  Alpha      39 (A')      0.0275
               54      Vir  Alpha      42 (A')      0.0430
               58      Vir  Alpha      44 (A')      0.0502
               60      Vir  Alpha      45 (A')      0.0574
               64      Vir  Alpha      48 (A')      0.0834
               70      Vir  Alpha      52 (A')      0.1042
               73      Vir  Alpha      54 (A')      0.1153
               95      Vir  Alpha      69 (A')      0.2778
               30      Vir  Beta       25 (A')     -0.0009
               31      Vir  Beta       26 (A')      0.0027
               34      Vir  Beta       28 (A')      0.0046
               40      Vir  Beta       32 (A')      0.0094
               43      Vir  Beta       34 (A')      0.0142
               49      Vir  Beta       38 (A')      0.0232
               51      Vir  Beta       39 (A')      0.0275
               54      Vir  Beta       42 (A')      0.0430
               58      Vir  Beta       44 (A')      0.0502
               60      Vir  Beta       45 (A')      0.0574
               64      Vir  Beta       48 (A')      0.0834
               70      Vir  Beta       52 (A')      0.1042
               73      Vir  Beta       54 (A')      0.1153
               95      Vir  Beta       69 (A')      0.2778


 EOMEE transition 2/A'
 Total energy = -399.08942032 a.u.  Excitation energy = 404.3129 eV.
 R0^2 = 0.0000  R1^2 = 0.8298  R2_CCVV^2 = 0.0008  R2_COVV^2 = 0.0847  Res^2 = 4.66e-06
 Conv-d = yes

 Amplitude    Transitions between orbitals
 -0.2736       4 (A') A                  ->    46 (A') A                  
 -0.2736       4 (A') B                  ->    46 (A') B                  
 -0.2367       4 (A') A                  ->    40 (A') A                  
 -0.2367       4 (A') B                  ->    40 (A') B                  
  0.2133       4 (A') A                  ->    57 (A') A                  
  0.2133       4 (A') B                  ->    57 (A') B                  
  0.1713       4 (A') A                  ->    55 (A') A                  
  0.1713       4 (A') B                  ->    55 (A') B                  
  0.1480       4 (A') A                  ->    34 (A') A                  
  0.1480       4 (A') B                  ->    34 (A') B                  
 -0.1409       4 (A') A                  ->    52 (A') A                  
 -0.1409       4 (A') B                  ->    52 (A') B                  
 -0.1267       4 (A') A                  ->    47 (A') A                  
 -0.1267       4 (A') B                  ->    47 (A') B                  
  0.1257       4 (A') A                  ->    45 (A') A                  
  0.1257       4 (A') B                  ->    45 (A') B                  
  0.1147       4 (A') A                  ->    66 (A') A                  
  0.1147       4 (A') B                  ->    66 (A') B                  
  0.1146       4 (A') A                  ->    72 (A') A                  
  0.1146       4 (A') B                  ->    72 (A') B                  
 -0.1063       4 (A') A                  ->    71 (A') A                  
 -0.1063       4 (A') B                  ->    71 (A') B                  
 -0.1058       4 (A') A                  ->    44 (A') A                  
 -0.1058       4 (A') B                  ->    44 (A') B                  
  0.1037       4 (A') A                  ->    51 (A') A                  
  0.1037       4 (A') B                  ->    51 (A') B                  
 -0.1001       4 (A') A                  ->    54 (A') A                  
 -0.1001       4 (A') B                  ->    54 (A') B                  

              Summary of significant orbitals:

               Number  Type             Irrep      Energy
               4       Occ  Alpha       4 (A')    -15.6304
               4       Occ  Beta        4 (A')    -15.6304
               43      Vir  Alpha      34 (A')      0.0142
               52      Vir  Alpha      40 (A')      0.0308
               58      Vir  Alpha      44 (A')      0.0502
               60      Vir  Alpha      45 (A')      0.0574
               61      Vir  Alpha      46 (A')      0.0621
               63      Vir  Alpha      47 (A')      0.0804
               69      Vir  Alpha      51 (A')      0.1032
               70      Vir  Alpha      52 (A')      0.1042
               73      Vir  Alpha      54 (A')      0.1153
               74      Vir  Alpha      55 (A')      0.1259
               77      Vir  Alpha      57 (A')      0.1535
               91      Vir  Alpha      66 (A')      0.2317
               98      Vir  Alpha      71 (A')      0.3194
               99      Vir  Alpha      72 (A')      0.3200
               43      Vir  Beta       34 (A')      0.0142
               52      Vir  Beta       40 (A')      0.0308
               58      Vir  Beta       44 (A')      0.0502
               60      Vir  Beta       45 (A')      0.0574
               61      Vir  Beta       46 (A')      0.0621
               63      Vir  Beta       47 (A')      0.0804
               69      Vir  Beta       51 (A')      0.1032
               70      Vir  Beta       52 (A')      0.1042
               73      Vir  Beta       54 (A')      0.1153
               74      Vir  Beta       55 (A')      0.1259
               77      Vir  Beta       57 (A')      0.1535
               91      Vir  Beta       66 (A')      0.2317
               98      Vir  Beta       71 (A')      0.3194
               99      Vir  Beta       72 (A')      0.3200


 EOMEE transition 3/A'
 Total energy = -399.05381111 a.u.  Excitation energy = 405.2819 eV.
 R0^2 = 0.0000  R1^2 = 0.8206  R2_CCVV^2 = 0.0008  R2_COVV^2 = 0.0893  Res^2 = 7.53e-06
 Conv-d = yes

 Amplitude    Transitions between orbitals
 -0.2203       4 (A') A                  ->    25 (A') A                  
 -0.2203       4 (A') B                  ->    25 (A') B                  
  0.2008       4 (A') A                  ->    44 (A') A                  
  0.2008       4 (A') B                  ->    44 (A') B                  
 -0.1897       4 (A') A                  ->    38 (A') A                  
 -0.1897       4 (A') B                  ->    38 (A') B                  
 -0.1819       4 (A') A                  ->    57 (A') A                  
 -0.1819       4 (A') B                  ->    57 (A') B                  
  0.1564       4 (A') A                  ->    47 (A') A                  
  0.1564       4 (A') B                  ->    47 (A') B                  
 -0.1538       4 (A') A                  ->    32 (A') A                  
 -0.1538       4 (A') B                  ->    32 (A') B                  
 -0.1438       4 (A') A                  ->    28 (A') A                  
 -0.1438       4 (A') B                  ->    28 (A') B                  
  0.1401       4 (A') A                  ->    34 (A') A                  
  0.1401       4 (A') B                  ->    34 (A') B                  
  0.1275       4 (A') A                  ->    26 (A') A                  
  0.1275       4 (A') B                  ->    26 (A') B                  
  0.1223       4 (A') A                  ->    52 (A') A                  
  0.1223       4 (A') B                  ->    52 (A') B                  
 -0.1217       4 (A') A                  ->    46 (A') A                  
 -0.1217       4 (A') B                  ->    46 (A') B                  
 -0.1184       4 (A') A                  ->    40 (A') A                  
 -0.1184       4 (A') B                  ->    40 (A') B                  
  0.1091       4 (A') A                  ->    50 (A') A                  
  0.1091       4 (A') B                  ->    50 (A') B                  
  0.1058       4 (A') A                  ->    55 (A') A                  
  0.1058       4 (A') B                  ->    55 (A') B                  

              Summary of significant orbitals:

               Number  Type             Irrep      Energy
               4       Occ  Alpha       4 (A')    -15.6304
               4       Occ  Beta        4 (A')    -15.6304
               30      Vir  Alpha      25 (A')     -0.0009
               31      Vir  Alpha      26 (A')      0.0027
               34      Vir  Alpha      28 (A')      0.0046
               40      Vir  Alpha      32 (A')      0.0094
               43      Vir  Alpha      34 (A')      0.0142
               49      Vir  Alpha      38 (A')      0.0232
               52      Vir  Alpha      40 (A')      0.0308
               58      Vir  Alpha      44 (A')      0.0502
               61      Vir  Alpha      46 (A')      0.0621
               63      Vir  Alpha      47 (A')      0.0804
               68      Vir  Alpha      50 (A')      0.0950
               70      Vir  Alpha      52 (A')      0.1042
               74      Vir  Alpha      55 (A')      0.1259
               77      Vir  Alpha      57 (A')      0.1535
               30      Vir  Beta       25 (A')     -0.0009
               31      Vir  Beta       26 (A')      0.0027
               34      Vir  Beta       28 (A')      0.0046
               40      Vir  Beta       32 (A')      0.0094
               43      Vir  Beta       34 (A')      0.0142
               49      Vir  Beta       38 (A')      0.0232
               52      Vir  Beta       40 (A')      0.0308
               58      Vir  Beta       44 (A')      0.0502
               61      Vir  Beta       46 (A')      0.0621
               63      Vir  Beta       47 (A')      0.0804
               68      Vir  Beta       50 (A')      0.0950
               70      Vir  Beta       52 (A')      0.1042
               74      Vir  Beta       55 (A')      0.1259
               77      Vir  Beta       57 (A')      0.1535


 EOMEE transition 4/A'
 Total energy = -399.03573071 a.u.  Excitation energy = 405.7739 eV.
 R0^2 = 0.0000  R1^2 = 0.8216  R2_CCVV^2 = 0.0008  R2_COVV^2 = 0.0888  Res^2 = 2.24e-05
 Conv-d = yes

 Amplitude    Transitions between orbitals
  0.2842       3 (A') A                  ->    46 (A') A                  
  0.2842       3 (A') B                  ->    46 (A') B                  
 -0.2563       3 (A') A                  ->    55 (A') A                  
 -0.2563       3 (A') B                  ->    55 (A') B                  
  0.2367       3 (A') A                  ->    40 (A') A                  
  0.2367       3 (A') B                  ->    40 (A') B                  
 -0.1753       3 (A') A                  ->    34 (A') A                  
 -0.1753       3 (A') B                  ->    34 (A') B                  
 -0.1517       3 (A') A                  ->    41 (A') A                  
 -0.1517       3 (A') B                  ->    41 (A') B                  
 -0.1477       3 (A') A                  ->    47 (A') A                  
 -0.1477       3 (A') B                  ->    47 (A') B                  
  0.1462       3 (A') A                  ->    48 (A') A                  
  0.1462       3 (A') B                  ->    48 (A') B                  
  0.1166       3 (A') A                  ->    69 (A') A                  
  0.1166       3 (A') B                  ->    69 (A') B                  
  0.1015       3 (A') A                  ->    28 (A') A                  
  0.1015       3 (A') B                  ->    28 (A') B                  
  0.1012       3 (A') A                  ->    25 (A') A                  
  0.1012       3 (A') B                  ->    25 (A') B                  

              Summary of significant orbitals:

               Number  Type             Irrep      Energy
               3       Occ  Alpha       3 (A')    -15.6480
               3       Occ  Beta        3 (A')    -15.6480
               30      Vir  Alpha      25 (A')     -0.0009
               34      Vir  Alpha      28 (A')      0.0046
               43      Vir  Alpha      34 (A')      0.0142
               52      Vir  Alpha      40 (A')      0.0308
               53      Vir  Alpha      41 (A')      0.0415
               61      Vir  Alpha      46 (A')      0.0621
               63      Vir  Alpha      47 (A')      0.0804
               64      Vir  Alpha      48 (A')      0.0834
               74      Vir  Alpha      55 (A')      0.1259
               95      Vir  Alpha      69 (A')      0.2778
               30      Vir  Beta       25 (A')     -0.0009
               34      Vir  Beta       28 (A')      0.0046
               43      Vir  Beta       34 (A')      0.0142
               52      Vir  Beta       40 (A')      0.0308
               53      Vir  Beta       41 (A')      0.0415
               61      Vir  Beta       46 (A')      0.0621
               63      Vir  Beta       47 (A')      0.0804
               64      Vir  Beta       48 (A')      0.0834
               74      Vir  Beta       55 (A')      0.1259
               95      Vir  Beta       69 (A')      0.2778


 EOMEE transition 5/A'
 Total energy = -399.03290812 a.u.  Excitation energy = 405.8507 eV.
 R0^2 = 0.0000  R1^2 = 0.8172  R2_CCVV^2 = 0.0008  R2_COVV^2 = 0.0910  Res^2 = 1.41e-05
 Conv-d = yes

 Amplitude    Transitions between orbitals
 -0.2115       4 (A') A                  ->    41 (A') A                  
 -0.2115       4 (A') B                  ->    41 (A') B                  
 -0.2023       4 (A') A                  ->    47 (A') A                  
 -0.2023       4 (A') B                  ->    47 (A') B                  
 -0.1925       4 (A') A                  ->    35 (A') A                  
 -0.1925       4 (A') B                  ->    35 (A') B                  
 -0.1869       4 (A') A                  ->    25 (A') A                  
 -0.1869       4 (A') B                  ->    25 (A') B                  
  0.1856       4 (A') A                  ->    57 (A') A                  
  0.1856       4 (A') B                  ->    57 (A') B                  
 -0.1624       4 (A') A                  ->    32 (A') A                  
 -0.1624       4 (A') B                  ->    32 (A') B                  
  0.1545       4 (A') A                  ->    46 (A') A                  
  0.1545       4 (A') B                  ->    46 (A') B                  
 -0.1365       4 (A') A                  ->    55 (A') A                  
 -0.1365       4 (A') B                  ->    55 (A') B                  
  0.1293       4 (A') A                  ->    26 (A') A                  
  0.1293       4 (A') B                  ->    26 (A') B                  
  0.1264       4 (A') A                  ->    40 (A') A                  
  0.1264       4 (A') B                  ->    40 (A') B                  
 -0.1176       4 (A') A                  ->    38 (A') A                  
 -0.1176       4 (A') B                  ->    38 (A') B                  

              Summary of significant orbitals:

               Number  Type             Irrep      Energy
               4       Occ  Alpha       4 (A')    -15.6304
               4       Occ  Beta        4 (A')    -15.6304
               30      Vir  Alpha      25 (A')     -0.0009
               31      Vir  Alpha      26 (A')      0.0027
               40      Vir  Alpha      32 (A')      0.0094
               44      Vir  Alpha      35 (A')      0.0201
               49      Vir  Alpha      38 (A')      0.0232
               52      Vir  Alpha      40 (A')      0.0308
               53      Vir  Alpha      41 (A')      0.0415
               61      Vir  Alpha      46 (A')      0.0621
               63      Vir  Alpha      47 (A')      0.0804
               74      Vir  Alpha      55 (A')      0.1259
               77      Vir  Alpha      57 (A')      0.1535
               30      Vir  Beta       25 (A')     -0.0009
               31      Vir  Beta       26 (A')      0.0027
               40      Vir  Beta       32 (A')      0.0094
               44      Vir  Beta       35 (A')      0.0201
               49      Vir  Beta       38 (A')      0.0232
               52      Vir  Beta       40 (A')      0.0308
               53      Vir  Beta       41 (A')      0.0415
               61      Vir  Beta       46 (A')      0.0621
               63      Vir  Beta       47 (A')      0.0804
               74      Vir  Beta       55 (A')      0.1259
               77      Vir  Beta       57 (A')      0.1535


 EOMEE transition 6/A'
 Total energy = -399.02820340 a.u.  Excitation energy = 405.9787 eV.
 R0^2 = 0.0000  R1^2 = 0.8187  R2_CCVV^2 = 0.0008  R2_COVV^2 = 0.0903  Res^2 = 1.43e-05
 Conv-d = yes

 Amplitude    Transitions between orbitals
  0.2118       3 (A') A                  ->    45 (A') A                  
  0.2118       3 (A') B                  ->    45 (A') B                  
  0.1965       3 (A') A                  ->    25 (A') A                  
  0.1965       3 (A') B                  ->    25 (A') B                  
 -0.1938       3 (A') A                  ->    39 (A') A                  
 -0.1938       3 (A') B                  ->    39 (A') B                  
  0.1561       3 (A') A                  ->    32 (A') A                  
  0.1561       3 (A') B                  ->    32 (A') B                  
  0.1531       3 (A') A                  ->    38 (A') A                  
  0.1531       3 (A') B                  ->    38 (A') B                  
  0.1495       3 (A') A                  ->    41 (A') A                  
  0.1495       3 (A') B                  ->    41 (A') B                  
 -0.1482       3 (A') A                  ->    54 (A') A                  
 -0.1482       3 (A') B                  ->    54 (A') B                  
 -0.1435       3 (A') A                  ->    44 (A') A                  
 -0.1435       3 (A') B                  ->    44 (A') B                  
  0.1420       3 (A') A                  ->    48 (A') A                  
  0.1420       3 (A') B                  ->    48 (A') B                  
 -0.1387       3 (A') A                  ->    33 (A') A                  
 -0.1387       3 (A') B                  ->    33 (A') B                  
  0.1281       3 (A') A                  ->    35 (A') A                  
  0.1281       3 (A') B                  ->    35 (A') B                  
  0.1275       3 (A') A                  ->    47 (A') A                  
  0.1275       3 (A') B                  ->    47 (A') B                  
 -0.1247       3 (A') A                  ->    26 (A') A                  
 -0.1247       3 (A') B                  ->    26 (A') B                  
  0.1005       3 (A') A                  ->    42 (A') A                  
  0.1005       3 (A') B                  ->    42 (A') B                  

              Summary of significant orbitals:

               Number  Type             Irrep      Energy
               3       Occ  Alpha       3 (A')    -15.6480
               3       Occ  Beta        3 (A')    -15.6480
               30      Vir  Alpha      25 (A')     -0.0009
               31      Vir  Alpha      26 (A')      0.0027
               40      Vir  Alpha      32 (A')      0.0094
               42      Vir  Alpha      33 (A')      0.0118
               44      Vir  Alpha      35 (A')      0.0201
               49      Vir  Alpha      38 (A')      0.0232
               51      Vir  Alpha      39 (A')      0.0275
               53      Vir  Alpha      41 (A')      0.0415
               54      Vir  Alpha      42 (A')      0.0430
               58      Vir  Alpha      44 (A')      0.0502
               60      Vir  Alpha      45 (A')      0.0574
               63      Vir  Alpha      47 (A')      0.0804
               64      Vir  Alpha      48 (A')      0.0834
               73      Vir  Alpha      54 (A')      0.1153
               30      Vir  Beta       25 (A')     -0.0009
               31      Vir  Beta       26 (A')      0.0027
               40      Vir  Beta       32 (A')      0.0094
               42      Vir  Beta       33 (A')      0.0118
               44      Vir  Beta       35 (A')      0.0201
               49      Vir  Beta       38 (A')      0.0232
               51      Vir  Beta       39 (A')      0.0275
               53      Vir  Beta       41 (A')      0.0415
               54      Vir  Beta       42 (A')      0.0430
               58      Vir  Beta       44 (A')      0.0502
               60      Vir  Beta       45 (A')      0.0574
               63      Vir  Beta       47 (A')      0.0804
               64      Vir  Beta       48 (A')      0.0834
               73      Vir  Beta       54 (A')      0.1153


 EOMEE transition 7/A'
 Total energy = -399.02345826 a.u.  Excitation energy = 406.1079 eV.
 R0^2 = 0.0000  R1^2 = 0.8152  R2_CCVV^2 = 0.0007  R2_COVV^2 = 0.0920  Res^2 = 1.09e-05
 Conv-d = yes

 Amplitude    Transitions between orbitals
  0.3264       4 (A') A                  ->    39 (A') A                  
  0.3264       4 (A') B                  ->    39 (A') B                  
  0.2855       4 (A') A                  ->    33 (A') A                  
  0.2855       4 (A') B                  ->    33 (A') B                  
 -0.2667       4 (A') A                  ->    45 (A') A                  
 -0.2667       4 (A') B                  ->    45 (A') B                  
  0.1491       4 (A') A                  ->    54 (A') A                  
  0.1491       4 (A') B                  ->    54 (A') B                  
 -0.1444       4 (A') A                  ->    27 (A') A                  
 -0.1444       4 (A') B                  ->    27 (A') B                  
 -0.1307       4 (A') A                  ->    25 (A') A                  
 -0.1307       4 (A') B                  ->    25 (A') B                  
  0.1142       4 (A') A                  ->    36 (A') A                  
  0.1142       4 (A') B                  ->    36 (A') B                  

              Summary of significant orbitals:

               Number  Type             Irrep      Energy
               4       Occ  Alpha       4 (A')    -15.6304
               4       Occ  Beta        4 (A')    -15.6304
               30      Vir  Alpha      25 (A')     -0.0009
               33      Vir  Alpha      27 (A')      0.0035
               42      Vir  Alpha      33 (A')      0.0118
               46      Vir  Alpha      36 (A')      0.0209
               51      Vir  Alpha      39 (A')      0.0275
               60      Vir  Alpha      45 (A')      0.0574
               73      Vir  Alpha      54 (A')      0.1153
               30      Vir  Beta       25 (A')     -0.0009
               33      Vir  Beta       27 (A')      0.0035
               42      Vir  Beta       33 (A')      0.0118
               46      Vir  Beta       36 (A')      0.0209
               51      Vir  Beta       39 (A')      0.0275
               60      Vir  Beta       45 (A')      0.0574
               73      Vir  Beta       54 (A')      0.1153


 EOMEE transition 8/A'
 Total energy = -399.00914701 a.u.  Excitation energy = 406.4973 eV.
 R0^2 = 0.0000  R1^2 = 0.8180  R2_CCVV^2 = 0.0008  R2_COVV^2 = 0.0906  Res^2 = 9.62e-06
 Conv-d = yes

 Amplitude    Transitions between orbitals
  0.2747       4 (A') A                  ->    34 (A') A                  
  0.2747       4 (A') B                  ->    34 (A') B                  
 -0.2188       4 (A') A                  ->    28 (A') A                  
 -0.2188       4 (A') B                  ->    28 (A') B                  
  0.1991       4 (A') A                  ->    38 (A') A                  
  0.1991       4 (A') B                  ->    38 (A') B                  
 -0.1916       4 (A') A                  ->    25 (A') A                  
 -0.1916       4 (A') B                  ->    25 (A') B                  
 -0.1575       4 (A') A                  ->    55 (A') A                  
 -0.1575       4 (A') B                  ->    55 (A') B                  
  0.1541       4 (A') A                  ->    32 (A') A                  
  0.1541       4 (A') B                  ->    32 (A') B                  
  0.1362       4 (A') A                  ->    46 (A') A                  
  0.1362       4 (A') B                  ->    46 (A') B                  
 -0.1361       4 (A') A                  ->    44 (A') A                  
 -0.1361       4 (A') B                  ->    44 (A') B                  
 -0.1224       4 (A') A                  ->    40 (A') A                  
 -0.1224       4 (A') B                  ->    40 (A') B                  
  0.1154       4 (A') A                  ->    36 (A') A                  
  0.1154       4 (A') B                  ->    36 (A') B                  
 -0.1059       4 (A') A                  ->    42 (A') A                  
 -0.1059       4 (A') B                  ->    42 (A') B                  

              Summary of significant orbitals:

               Number  Type             Irrep      Energy
               4       Occ  Alpha       4 (A')    -15.6304
               4       Occ  Beta        4 (A')    -15.6304
               30      Vir  Alpha      25 (A')     -0.0009
               34      Vir  Alpha      28 (A')      0.0046
               40      Vir  Alpha      32 (A')      0.0094
               43      Vir  Alpha      34 (A')      0.0142
               46      Vir  Alpha      36 (A')      0.0209
               49      Vir  Alpha      38 (A')      0.0232
               52      Vir  Alpha      40 (A')      0.0308
               54      Vir  Alpha      42 (A')      0.0430
               58      Vir  Alpha      44 (A')      0.0502
               61      Vir  Alpha      46 (A')      0.0621
               74      Vir  Alpha      55 (A')      0.1259
               30      Vir  Beta       25 (A')     -0.0009
               34      Vir  Beta       28 (A')      0.0046
               40      Vir  Beta       32 (A')      0.0094
               43      Vir  Beta       34 (A')      0.0142
               46      Vir  Beta       36 (A')      0.0209
               49      Vir  Beta       38 (A')      0.0232
               52      Vir  Beta       40 (A')      0.0308
               54      Vir  Beta       42 (A')      0.0430
               58      Vir  Beta       44 (A')      0.0502
               61      Vir  Beta       46 (A')      0.0621
               74      Vir  Beta       55 (A')      0.1259


 EOMEE transition 9/A'
 Total energy = -399.00638776 a.u.  Excitation energy = 406.5724 eV.
 R0^2 = 0.0000  R1^2 = 0.8162  R2_CCVV^2 = 0.0007  R2_COVV^2 = 0.0915  Res^2 = 1.19e-05
 Conv-d = yes

 Amplitude    Transitions between orbitals
  0.3279       4 (A') A                  ->    42 (A') A                  
  0.3279       4 (A') B                  ->    42 (A') B                  
 -0.2584       4 (A') A                  ->    36 (A') A                  
 -0.2584       4 (A') B                  ->    36 (A') B                  
  0.2112       4 (A') A                  ->    48 (A') A                  
  0.2112       4 (A') B                  ->    48 (A') B                  
 -0.1676       4 (A') A                  ->    49 (A') A                  
 -0.1676       4 (A') B                  ->    49 (A') B                  
  0.1471       4 (A') A                  ->    38 (A') A                  
  0.1471       4 (A') B                  ->    38 (A') B                  
 -0.1367       4 (A') A                  ->    30 (A') A                  
 -0.1367       4 (A') B                  ->    30 (A') B                  
 -0.1184       4 (A') A                  ->    59 (A') A                  
[...]
   A->B: 0.903739;   B->A: 0.867762
   ||gamma^AB||*||gamma^BA||: 0.784230

 ------------------------------------------------------------------------------
 State A: ccsd: 0/A'
 State B: cvs_eomee_ccsd/rhfref/singlets: 15/A'
 Transition dipole moment (a.u.):
   A->B: 0.014197 (X 0.000626, Y -0.014183, Z 0.000000)
   B->A: 0.014324 (X 0.000279, Y -0.014321, Z 0.000000)
 Oscillator strength (a.u.): 0.002027
 Norm of one-particle transition density matrix:
   A->B: 0.903632;   B->A: 0.867799
   ||gamma^AB||*||gamma^BA||: 0.784170

 ------------------------------------------------------------------------------
 State A: ccsd: 0/A'
 State B: cvs_eomee_ccsd/rhfref/singlets: 1/A"
 Transition dipole moment (a.u.):
   A->B: 0.042281 (X 0.000000, Y 0.000000, Z -0.042281)
   B->A: 0.043943 (X 0.000000, Y 0.000000, Z -0.043943)
 Oscillator strength (a.u.): 0.018369
 Norm of one-particle transition density matrix:
   A->B: 0.880033;   B->A: 0.879027
   ||gamma^AB||*||gamma^BA||: 0.773573

 ------------------------------------------------------------------------------
 State A: ccsd: 0/A'
 State B: cvs_eomee_ccsd/rhfref/singlets: 2/A"
 Transition dipole moment (a.u.):
   A->B: 0.036488 (X 0.000000, Y 0.000000, Z -0.036488)
   B->A: 0.038275 (X 0.000000, Y 0.000000, Z -0.038275)
 Oscillator strength (a.u.): 0.013818
 Norm of one-particle transition density matrix:
   A->B: 0.879202;   B->A: 0.877653
   ||gamma^AB||*||gamma^BA||: 0.771634

 ------------------------------------------------------------------------------
 State A: ccsd: 0/A'
 State B: cvs_eomee_ccsd/rhfref/singlets: 3/A"
 Transition dipole moment (a.u.):
   A->B: 0.014442 (X 0.000000, Y 0.000000, Z -0.014442)
   B->A: 0.015267 (X 0.000000, Y 0.000000, Z -0.015267)
 Oscillator strength (a.u.): 0.002186
 Norm of one-particle transition density matrix:
   A->B: 0.880319;   B->A: 0.872028
   ||gamma^AB||*||gamma^BA||: 0.767663

 ------------------------------------------------------------------------------
 State A: ccsd: 0/A'
 State B: cvs_eomee_ccsd/rhfref/singlets: 4/A"
 Transition dipole moment (a.u.):
   A->B: 0.034140 (X 0.000000, Y 0.000000, Z 0.034140)
   B->A: 0.035218 (X 0.000000, Y 0.000000, Z 0.035218)
 Oscillator strength (a.u.): 0.011934
 Norm of one-particle transition density matrix:
   A->B: 0.884178;   B->A: 0.876431
   ||gamma^AB||*||gamma^BA||: 0.774921

 ------------------------------------------------------------------------------
 State A: ccsd: 0/A'
 State B: cvs_eomee_ccsd/rhfref/singlets: 5/A"
 Transition dipole moment (a.u.):
   A->B: 0.013480 (X 0.000000, Y 0.000000, Z 0.013480)
   B->A: 0.013815 (X 0.000000, Y 0.000000, Z 0.013815)
 Oscillator strength (a.u.): 0.001851
 Norm of one-particle transition density matrix:
   A->B: 0.904710;   B->A: 0.869224
   ||gamma^AB||*||gamma^BA||: 0.786396

 ------------------------------------------------------------------------------
 State A: ccsd: 0/A'
 State B: cvs_eomee_ccsd/rhfref/singlets: 6/A"
 Transition dipole moment (a.u.):
   A->B: 0.011042 (X 0.000000, Y 0.000000, Z -0.011042)
   B->A: 0.011731 (X 0.000000, Y 0.000000, Z -0.011731)
 Oscillator strength (a.u.): 0.001288
 Norm of one-particle transition density matrix:
   A->B: 0.905218;   B->A: 0.869699
   ||gamma^AB||*||gamma^BA||: 0.787267

 ------------------------------------------------------------------------------
 State A: ccsd: 0/A'
 State B: cvs_eomee_ccsd/rhfref/singlets: 7/A"
 Transition dipole moment (a.u.):
   A->B: 0.007331 (X 0.000000, Y 0.000000, Z -0.007331)
   B->A: 0.007361 (X 0.000000, Y 0.000000, Z -0.007361)
 Oscillator strength (a.u.): 0.000537
 Norm of one-particle transition density matrix:
   A->B: 0.903888;   B->A: 0.867362
   ||gamma^AB||*||gamma^BA||: 0.783997

 ------------------------------------------------------------------------------
 State A: ccsd: 0/A'
 State B: cvs_eomee_ccsd/rhfref/singlets: 8/A"
 Transition dipole moment (a.u.):
   A->B: 0.004940 (X 0.000000, Y 0.000000, Z -0.004940)
   B->A: 0.005054 (X 0.000000, Y 0.000000, Z -0.005054)
 Oscillator strength (a.u.): 0.000249
 Norm of one-particle transition density matrix:
   A->B: 0.903442;   B->A: 0.866885
   ||gamma^AB||*||gamma^BA||: 0.783180

 ------------------------------------------------------------------------------
 State A: ccsd: 0/A'
 State B: cvs_eomee_ccsd/rhfref/singlets: 9/A"
 Transition dipole moment (a.u.):
   A->B: 0.008227 (X 0.000000, Y 0.000000, Z 0.008227)
   B->A: 0.008384 (X 0.000000, Y 0.000000, Z 0.008384)
 Oscillator strength (a.u.): 0.000688
 Norm of one-particle transition density matrix:
   A->B: 0.904319;   B->A: 0.867638
   ||gamma^AB||*||gamma^BA||: 0.784621

 ------------------------------------------------------------------------------
 State A: ccsd: 0/A'
 State B: cvs_eomee_ccsd/rhfref/singlets: 10/A"
 Transition dipole moment (a.u.):
   A->B: 0.006902 (X 0.000000, Y 0.000000, Z 0.006902)
   B->A: 0.007130 (X 0.000000, Y 0.000000, Z 0.007130)
 Oscillator strength (a.u.): 0.000491
 Norm of one-particle transition density matrix:
   A->B: 0.904616;   B->A: 0.866884
   ||gamma^AB||*||gamma^BA||: 0.784197

 ------------------------------------------------------------------------------
 State A: ccsd: 0/A'
 State B: cvs_eomee_ccsd/rhfref/singlets: 11/A"
 Transition dipole moment (a.u.):
   A->B: 0.011207 (X 0.000000, Y 0.000000, Z 0.011207)
   B->A: 0.011440 (X 0.000000, Y 0.000000, Z 0.011440)
 Oscillator strength (a.u.): 0.001279
 Norm of one-particle transition density matrix:
   A->B: 0.904584;   B->A: 0.866892
   ||gamma^AB||*||gamma^BA||: 0.784177

 ------------------------------------------------------------------------------
 State A: ccsd: 0/A'
 State B: cvs_eomee_ccsd/rhfref/singlets: 12/A"
 Transition dipole moment (a.u.):
   A->B: 0.006046 (X 0.000000, Y 0.000000, Z -0.006046)
   B->A: 0.006086 (X 0.000000, Y 0.000000, Z -0.006086)
 Oscillator strength (a.u.): 0.000367
 Norm of one-particle transition density matrix:
   A->B: 0.904157;   B->A: 0.867200
   ||gamma^AB||*||gamma^BA||: 0.784085

 ------------------------------------------------------------------------------
 State A: ccsd: 0/A'
 State B: cvs_eomee_ccsd/rhfref/singlets: 13/A"
 Transition dipole moment (a.u.):
   A->B: 0.004778 (X 0.000000, Y 0.000000, Z 0.004778)
   B->A: 0.004866 (X 0.000000, Y 0.000000, Z 0.004866)
 Oscillator strength (a.u.): 0.000232
 Norm of one-particle transition density matrix:
   A->B: 0.903854;   B->A: 0.866962
   ||gamma^AB||*||gamma^BA||: 0.783606

 ------------------------------------------------------------------------------
 State A: ccsd: 0/A'
 State B: cvs_eomee_ccsd/rhfref/singlets: 14/A"
 Transition dipole moment (a.u.):
   A->B: 0.005819 (X 0.000000, Y 0.000000, Z 0.005819)
   B->A: 0.005991 (X 0.000000, Y 0.000000, Z 0.005991)
 Oscillator strength (a.u.): 0.000348
 Norm of one-particle transition density matrix:
   A->B: 0.905198;   B->A: 0.867410
   ||gamma^AB||*||gamma^BA||: 0.785178

 ------------------------------------------------------------------------------
 State A: ccsd: 0/A'
 State B: cvs_eomee_ccsd/rhfref/singlets: 15/A"
 Transition dipole moment (a.u.):
   A->B: 0.008180 (X 0.000000, Y 0.000000, Z 0.008180)
   B->A: 0.008341 (X 0.000000, Y 0.000000, Z 0.008341)
 Oscillator strength (a.u.): 0.000681
 Norm of one-particle transition density matrix:
   A->B: 0.904257;   B->A: 0.867507
   ||gamma^AB||*||gamma^BA||: 0.784450


 All requested transition properties have been computed

 Transition Properties:   CPU 442.90 s  wall 81.35 s

 Total ccman2 time:   CPU 83570.98 s  wall 11369.90 s

 
 --------------------------------------------------------------
             Orbital Energies (a.u.) and Symmetries
 --------------------------------------------------------------
 
 Alpha MOs, Restricted
 -- Occupied --                  
-20.550 -20.545 -15.648 -15.630 -11.426 -11.387 -11.345 -11.260
  1 A'    2 A'    3 A'    4 A'    5 A'    6 A'    7 A'    8 A'                 
 -1.442  -1.404  -1.319  -1.250  -1.093  -0.938  -0.906  -0.812
  9 A'   10 A'   11 A'   12 A'   13 A'   14 A'   15 A'   16 A'                 
 -0.770  -0.718  -0.681  -0.671  -0.657  -0.619  -0.605  -0.573
 17 A'   18 A'   19 A'    1 A"   20 A'   21 A'   22 A'    2 A"                 
 -0.528  -0.487  -0.452  -0.438  -0.371
  3 A"   23 A'   24 A'    4 A"    5 A"                                         
 -- Virtual --                   
 -0.001   0.003   0.003   0.003   0.005   0.008   0.008   0.008
 25 A'   26 A'    6 A"   27 A'   28 A'   29 A'    7 A"   30 A'                 
  0.008   0.008   0.009   0.011   0.012   0.014   0.020   0.021
  8 A"   31 A'   32 A'    9 A"   33 A'   34 A'   35 A'   10 A"                 
  0.021   0.022   0.022   0.023   0.026   0.028   0.031   0.042
 36 A'   11 A"   37 A'   38 A'   12 A"   39 A'   40 A'   41 A'                 
  0.043   0.043   0.045   0.045   0.050   0.053   0.057   0.062
 42 A'   13 A"   14 A"   43 A'   44 A'   15 A"   45 A'   46 A'                 
  0.077   0.080   0.083   0.086   0.086   0.088   0.095   0.103
 16 A"   47 A'   48 A'   17 A"   49 A'   18 A"   50 A'   51 A'                 
  0.104   0.107   0.113   0.115   0.126   0.142   0.146   0.154
 52 A'   19 A"   53 A'   54 A'   55 A'   56 A'   20 A"   57 A'                 
  0.158   0.162   0.162   0.171   0.184   0.190   0.194   0.199
 58 A'   59 A'   21 A"   22 A"   23 A"   24 A"   60 A'   61 A'                 
  0.213   0.217   0.220   0.221   0.229   0.232   0.240   0.247
 62 A'   63 A'   25 A"   64 A'   65 A'   66 A'   67 A'   68 A'                 
  0.265   0.278   0.281   0.307   0.319   0.320   0.331   0.332
 26 A"   69 A'   70 A'   27 A"   71 A'   72 A'   73 A'   28 A"                 
  0.333   0.351   0.364   0.381   0.395   0.403   0.412   0.414
 29 A"   74 A'   75 A'   76 A'   77 A'   78 A'   79 A'   30 A"                 
  0.434   0.441   0.448   0.453   0.462   0.470   0.475   0.485
 31 A"   80 A'   81 A'   82 A'   83 A'   84 A'   85 A'   86 A'                 
  0.521   0.531   0.551   0.584   0.607   0.648   0.699   0.748
 87 A'   88 A'   89 A'   90 A'   91 A'   92 A'   93 A'   94 A'                 
  0.758   0.758   0.778   0.781   0.802   0.819   0.849   0.858
 32 A"   95 A'   33 A"   96 A'   34 A"   97 A'   98 A'   35 A"                 
  0.887   0.921   0.951   0.966   0.981   1.005   1.008   1.028
 99 A'  100 A'  101 A'  102 A'  103 A'  104 A'  105 A'  106 A'                 
  1.064   1.072   1.092   1.098   1.123   1.197   1.227   1.242
107 A'   36 A"   37 A"  108 A'  109 A'  110 A'   38 A"   39 A"                 
  1.259   1.295   1.321   1.368   1.371   1.390   1.411   1.424
111 A'  112 A'  113 A'   40 A"  114 A'   41 A"   42 A"   43 A"                 
  1.440   1.460   1.464   1.501   1.520   1.529   1.579   1.600
115 A'  116 A'   44 A"  117 A'   45 A"  118 A'  119 A'  120 A'                 
  1.757   1.786   1.813   1.814   1.889   1.897   1.921   1.928
121 A'  122 A'  123 A'   46 A"  124 A'   47 A"  125 A'   48 A"                 
  1.957   1.982   2.012   2.017   2.078   2.128   2.145   2.192
126 A'  127 A'   49 A"  128 A'  129 A'  130 A'  131 A'  132 A'                 
  2.225   2.236   2.284   2.299   2.339   2.363   2.535   2.571
 50 A"  133 A'  134 A'  135 A'   51 A"  136 A'  137 A'   52 A"                 
  2.592   2.643   2.670   2.728   2.810   2.823   2.858   2.936
138 A'   53 A"  139 A'   54 A"  140 A'   55 A"  141 A'  142 A'                 
  2.968   3.015   3.036   3.062   3.107   3.176   3.179   3.198
143 A'  144 A'  145 A'  146 A'   56 A"  147 A'   57 A"   58 A"                 
  3.213   3.262   3.277   3.297   3.309   3.328   3.354   3.405
148 A'   59 A"  149 A'  150 A'   60 A"  151 A'   61 A"  152 A'                 
  3.514   3.593   3.753   3.764   3.808   3.840   3.875   3.915
153 A'  154 A'   62 A"   63 A"  155 A'  156 A'  157 A'  158 A'                 
  3.961   4.019   4.057   4.105   4.298   4.322   4.364   4.426
159 A'  160 A'  161 A'  162 A'  163 A'   64 A"   65 A"  164 A'                 
  4.496   4.631   5.198   5.287   5.355   5.622   5.643   5.692
165 A'  166 A'  167 A'  168 A'  169 A'   66 A"   67 A"  170 A'                 
  5.780   5.866   6.353   6.405  24.873  24.989  25.037  25.327
171 A'  172 A'  173 A'  174 A'  175 A'  176 A'  177 A'  178 A'                 
 37.002  37.050  51.718  51.755
179 A'  180 A'  181 A'  182 A'                                                 
 
 Beta MOs, Restricted
 -- Occupied --                  
-20.550 -20.545 -15.648 -15.630 -11.426 -11.387 -11.345 -11.260
  1 A'    2 A'    3 A'    4 A'    5 A'    6 A'    7 A'    8 A'                 
 -1.442  -1.404  -1.319  -1.250  -1.093  -0.938  -0.906  -0.812
  9 A'   10 A'   11 A'   12 A'   13 A'   14 A'   15 A'   16 A'                 
 -0.770  -0.718  -0.681  -0.671  -0.657  -0.619  -0.605  -0.573
 17 A'   18 A'   19 A'    1 A"   20 A'   21 A'   22 A'    2 A"                 
 -0.528  -0.487  -0.452  -0.438  -0.371
  3 A"   23 A'   24 A'    4 A"    5 A"                                         
 -- Virtual --                   
 -0.001   0.003   0.003   0.003   0.005   0.008   0.008   0.008
 25 A'   26 A'    6 A"   27 A'   28 A'   29 A'    7 A"   30 A'                 
  0.008   0.008   0.009   0.011   0.012   0.014   0.020   0.021
  8 A"   31 A'   32 A'    9 A"   33 A'   34 A'   35 A'   10 A"                 
  0.021   0.022   0.022   0.023   0.026   0.028   0.031   0.042
 36 A'   11 A"   37 A'   38 A'   12 A"   39 A'   40 A'   41 A'                 
  0.043   0.043   0.045   0.045   0.050   0.053   0.057   0.062
 42 A'   13 A"   14 A"   43 A'   44 A'   15 A"   45 A'   46 A'                 
  0.077   0.080   0.083   0.086   0.086   0.088   0.095   0.103
 16 A"   47 A'   48 A'   17 A"   49 A'   18 A"   50 A'   51 A'                 
  0.104   0.107   0.113   0.115   0.126   0.142   0.146   0.154
 52 A'   19 A"   53 A'   54 A'   55 A'   56 A'   20 A"   57 A'                 
  0.158   0.162   0.162   0.171   0.184   0.190   0.194   0.199
 58 A'   59 A'   21 A"   22 A"   23 A"   24 A"   60 A'   61 A'                 
  0.213   0.217   0.220   0.221   0.229   0.232   0.240   0.247
 62 A'   63 A'   25 A"   64 A'   65 A'   66 A'   67 A'   68 A'                 
  0.265   0.278   0.281   0.307   0.319   0.320   0.331   0.332
 26 A"   69 A'   70 A'   27 A"   71 A'   72 A'   73 A'   28 A"                 
  0.333   0.351   0.364   0.381   0.395   0.403   0.412   0.414
 29 A"   74 A'   75 A'   76 A'   77 A'   78 A'   79 A'   30 A"                 
  0.434   0.441   0.448   0.453   0.462   0.470   0.475   0.485
 31 A"   80 A'   81 A'   82 A'   83 A'   84 A'   85 A'   86 A'                 
  0.521   0.531   0.551   0.584   0.607   0.648   0.699   0.748
 87 A'   88 A'   89 A'   90 A'   91 A'   92 A'   93 A'   94 A'                 
  0.758   0.758   0.778   0.781   0.802   0.819   0.849   0.858
 32 A"   95 A'   33 A"   96 A'   34 A"   97 A'   98 A'   35 A"                 
  0.887   0.921   0.951   0.966   0.981   1.005   1.008   1.028
 99 A'  100 A'  101 A'  102 A'  103 A'  104 A'  105 A'  106 A'                 
  1.064   1.072   1.092   1.098   1.123   1.197   1.227   1.242
107 A'   36 A"   37 A"  108 A'  109 A'  110 A'   38 A"   39 A"                 
  1.259   1.295   1.321   1.368   1.371   1.390   1.411   1.424
111 A'  112 A'  113 A'   40 A"  114 A'   41 A"   42 A"   43 A"                 
  1.440   1.460   1.464   1.501   1.520   1.529   1.579   1.600
115 A'  116 A'   44 A"  117 A'   45 A"  118 A'  119 A'  120 A'                 
  1.757   1.786   1.813   1.814   1.889   1.897   1.921   1.928
121 A'  122 A'  123 A'   46 A"  124 A'   47 A"  125 A'   48 A"                 
  1.957   1.982   2.012   2.017   2.078   2.128   2.145   2.192
126 A'  127 A'   49 A"  128 A'  129 A'  130 A'  131 A'  132 A'                 
  2.225   2.236   2.284   2.299   2.339   2.363   2.535   2.571
 50 A"  133 A'  134 A'  135 A'   51 A"  136 A'  137 A'   52 A"                 
  2.592   2.643   2.670   2.728   2.810   2.823   2.858   2.936
138 A'   53 A"  139 A'   54 A"  140 A'   55 A"  141 A'  142 A'                 
  2.968   3.015   3.036   3.062   3.107   3.176   3.179   3.198
143 A'  144 A'  145 A'  146 A'   56 A"  147 A'   57 A"   58 A"                 
  3.213   3.262   3.277   3.297   3.309   3.328   3.354   3.405
148 A'   59 A"  149 A'  150 A'   60 A"  151 A'   61 A"  152 A'                 
  3.514   3.593   3.753   3.764   3.808   3.840   3.875   3.915
153 A'  154 A'   62 A"   63 A"  155 A'  156 A'  157 A'  158 A'                 
  3.961   4.019   4.057   4.105   4.298   4.322   4.364   4.426
159 A'  160 A'  161 A'  162 A'  163 A'   64 A"   65 A"  164 A'                 
  4.496   4.631   5.198   5.287   5.355   5.622   5.643   5.692
165 A'  166 A'  167 A'  168 A'  169 A'   66 A"   67 A"  170 A'                 
  5.780   5.866   6.353   6.405  24.873  24.989  25.037  25.327
171 A'  172 A'  173 A'  174 A'  175 A'  176 A'  177 A'  178 A'                 
 37.002  37.050  51.718  51.755
179 A'  180 A'  181 A'  182 A'                                                 
 --------------------------------------------------------------
 
          Ground-State Mulliken Net Atomic Charges

     Atom                 Charge (a.u.)
  ----------------------------------------
      1 GH                    0.093642
      2 C                     0.073430
      3 H                     0.358086
      4 H                     0.199253
      5 H                     0.386038
      6 C                     0.245076
      7 O                    -0.381609
      8 C                     0.043177
      9 O                    -0.346677
     10 N                    -0.390466
     11 N                    -0.386362
     12 C                    -0.136830
     13 H                     0.243243
  ----------------------------------------
  Sum of atomic charges =    -0.000000

 -----------------------------------------------------------------
                    Cartesian Multipole Moments
 -----------------------------------------------------------------
    Charge (ESU x 10^10)
                 0.0000
    Dipole Moment (Debye)
         X       1.3793      Y      -4.9598      Z       0.0000
       Tot       5.1480
    Quadrupole Moments (Debye-Ang)
        XX     -60.6794     XY      -2.4971     YY     -38.3427
        XZ      -0.0000     YZ      -0.0000     ZZ     -46.9754
    Octopole Moments (Debye-Ang^2)
       XXX      11.3080    XXY     -34.8408    XYY       5.1752
       YYY      -9.1143    XXZ       0.0000    XYZ       0.0000
       YYZ      -0.0000    XZZ       1.9176    YZZ       4.3506
       ZZZ      -0.0000
    Hexadecapole Moments (Debye-Ang^3)
      XXXX    -730.4392   XXXY     -12.6290   XXYY    -177.7443
      XYYY     -13.1844   YYYY    -307.6868   XXXZ      -0.0000
      XXYZ       0.0000   XYYZ      -0.0000   YYYZ       0.0000
      XXZZ    -115.0375   XYZZ      -3.0354   YYZZ     -76.8301
      XZZZ      -0.0000   YZZZ      -0.0000   ZZZZ     -49.6434
 -----------------------------------------------------------------
Archival summary:
1\1\n-62-24-6\SP\ProcedureUnspecified\BasisUnspecified\2244h1\malop\ThuSep2718:15:572018ThuSep2718:15:572018\0\\#,ProcedureUnspecified,BasisUnspecified,\\0,1\N\Gh,1,0.978006\H,1,1.01081,2,178.664\C,2,1.28412,1,73.7705,3,-0,0\O,4,1.21479,2,167.103,1,-0,0\C,2,1.33376,1,72.9251,3,-180,0\O,6,1.21832,2,162.314,1,-0,0\N,4,1.3852,2,69.8208,1,-180,0\H,8,1.00619,4,115.142,2,-180,0\C,8,1.37008,4,123.626,2,-0,0\H,10,1.07981,8,115.516,4,-180,0\C,10,1.34802,8,121.979,4,-0,0\H,12,1.07615,10,121.525,8,-180,0\\HF=-412.57963\\@

 Total job time:  11467.21s(wall), 84136.84s(cpu) 
 Thu Sep 27 18:15:57 2018

        *************************************************************
        *                                                           *
        *  Thank you very much for using Q-Chem.  Have a nice day.  *
        *                                                           *
        *************************************************************


