n-62-29-24 10.66.29
Q-Chem Developer Version! Running on 10.66.29.*
                  Welcome to Q-Chem
     A Quantum Leap Into The Future Of Chemistry


 Q-Chem 5.1, Q-Chem, Inc., Pleasanton, CA (2018)

 Yihan Shao,  Zhengting Gan,  E. Epifanovsky,  A. T. B. Gilbert,  M. Wormit,  
 J. Kussmann,  A. W. Lange,  A. Behn,  Jia Deng,  Xintian Feng,  D. Ghosh,  
 M. Goldey,  P. R. Horn,  L. D. Jacobson,  I. Kaliman,  T. Kus,  A. Landau,  
 Jie Liu,  E. I. Proynov,  R. M. Richard,  R. P. Steele,  E. J. Sundstrom,  
 H. L. Woodcock III,  P. M. Zimmerman,  D. Zuev,  B. Albrecht,  E. Alguire,  
 S. A. Baeppler,  D. Barton,  Z. Benda,  Y. A. Bernard,  E. J. Berquist,  
 K. B. Bravaya,  H. Burton,  D. Casanova,  Chun-Min Chang,  Yunqing Chen,  
 A. Chien,  K. D. Closser,  M. P. Coons,  S. Coriani,  S. Dasgupta,  
 A. L. Dempwolff,  M. Diedenhofen,  Hainam Do,  R. G. Edgar,  Po-Tung Fang,  
 S. Faraji,  S. Fatehi,  Qingguo Feng,  K. D. Fenk,  J. Fosso-Tande,  
 Qinghui Ge,  A. Ghysels,  G. Gidofalvi,  J. Gomes,  J. Gonthier,  A. Gunina,  
 M. W. D. Hanson-Heine,  P. H. P. Harbach,  A. W. Hauser,  J. E. Herr,  
 E. G. Hohenstein,  Z. C. Holden,  Kerwin Hui,  T.-C. Jagau,  Hyunjun Ji,  
 B. Kaduk,  K. Khistyaev,  Jaehoon Kim,  P. Klunzinger,  K. Koh,  
 D. Kosenkov,  L. Koulias,  T. Kowalczyk,  C. M. Krauter,  A. Kunitsa,  
 Ka Un Lao,  A. Laurent,  K. V. Lawler,  Joonho Lee,  D. Lefrancois,  
 S. Lehtola,  D. S. Levine,  Yi-Pei Li,  You-Sheng Lin,  Fenglai Liu,  
 E. Livshits,  A. Luenser,  P. Manohar,  E. Mansoor,  S. F. Manzer,  
 Shan-Ping Mao,  Yuezhi Mao,  N. Mardirossian,  A. V. Marenich,  
 T. Markovich,  L. A. Martinez-Martinez,  S. A. Maurer,  N. J. Mayhall,  
 S. C. McKenzie,  J.-M. Mewes,  A. F. Morrison,  J. W. Mullinax,  K. Nanda,  
 T. S. Nguyen-Beck,  R. Olivares-Amaya,  J. A. Parkhill,  T. M. Perrine,  
 F. Plasser,  P. Pokhilko,  S. Prager,  A. Prociuk,  E. Ramos,  D. R. Rehn,  
 F. Rob,  M. Schneider,  N. Sergueev,  S. M. Sharada,  S. Sharma,  
 D. W. Small,  T. Stauch,  T. Stein,  Yu-Chuan Su,  A. J. W. Thom,  
 A. Tkatchenko,  T. Tsuchimochi,  N. M. Tubman,  L. Vogt,  M. L. Vidal,  
 O. Vydrov,  M. A. Watson,  J. Wenzel,  M. de Wergifosse,  T. A. Wesolowski,  
 A. White,  J. Witte,  A. Yamada,  Jun Yang,  K. Yao,  S. Yeganeh,  
 S. R. Yost,  Zhi-Qiang You,  A. Zech,  Igor Ying Zhang,  Xing Zhang,  
 Yan Zhao,  Ying Zhu,  B. R. Brooks,  G. K. L. Chan,  C. J. Cramer,  
 M. S. Gordon,  W. J. Hehre,  A. Klamt,  M. W. Schmidt,  C. D. Sherrill,  
 D. G. Truhlar,  A. Aspuru-Guzik,  R. Baer,  A. T. Bell,  N. A. Besley,  
 Jeng-Da Chai,  R. A. DiStasio Jr.,  A. Dreuw,  B. D. Dunietz,  
 T. R. Furlani,  Chao-Ping Hsu,  Yousung Jung,  Jing Kong,  D. S. Lambrecht,  
 WanZhen Liang,  C. Ochsenfeld,  V. A. Rassolov,  L. V. Slipchenko,  
 J. E. Subotnik,  T. Van Voorhis,  J. M. Herbert,  A. I. Krylov,  
 P. M. W. Gill,  M. Head-Gordon

 Contributors to earlier versions of Q-Chem not listed above: 
 R. D. Adamson,  B. Austin,  J. Baker,  G. J. O. Beran,  K. Brandhorst,  
 S. T. Brown,  E. F. C. Byrd,  A. K. Chakraborty,  C.-L. Cheng,  
 Siu Hung Chien,  D. M. Chipman,  D. L. Crittenden,  H. Dachsel,  
 R. J. Doerksen,  A. D. Dutoi,  L. Fusti-Molnar,  W. A. Goddard III,  
 A. Golubeva-Zadorozhnaya,  S. R. Gwaltney,  G. Hawkins,  A. Heyden,  
 S. Hirata,  G. Kedziora,  F. J. Keil,  C. Kelley,  Jihan Kim,  R. A. King,  
 R. Z. Khaliullin,  P. P. Korambath,  W. Kurlancheek,  A. M. Lee,  M. S. Lee,  
 S. V. Levchenko,  Ching Yeh Lin,  D. Liotard,  R. C. Lochan,  I. Lotan,  
 P. E. Maslen,  N. Nair,  D. P. O'Neill,  D. Neuhauser,  E. Neuscamman,  
 C. M. Oana,  R. Olson,  B. Peters,  R. Peverati,  P. A. Pieniazek,  
 Y. M. Rhee,  J. Ritchie,  M. A. Rohrdanz,  E. Rosta,  N. J. Russ,  
 H. F. Schaefer III,  N. E. Schultz,  N. Shenvi,  A. C. Simmonett,  A. Sodt,  
 D. Stuck,  K. S. Thanthiriwatte,  V. Vanovschi,  Tao Wang,  A. Warshel,  
 C. F. Williams,  Q. Wu,  X. Xu,  W. Zhang

 Please cite Q-Chem as follows:
 Y. Shao et al., Mol. Phys. 113, 184-215 (2015)
 DOI: 10.1080/00268976.2014.952696

 Q-Chem 5.1.0 for Intel X86 EM64T Linux

 Parts of Q-Chem use Armadillo 8.300.2 (Tropical Shenanigans).
 http://arma.sourceforge.net/

 Q-Chem begins on Sat Sep 22 11:11:17 2018  

Host: 
0

     Scratch files written to /work1/malop/qc_7257407.hnode2//

Checking the input file for inconsistencies... 	...done.

--------------------------------------------------------------
User input:
--------------------------------------------------------------
$comment 
URACIL O-edge
optimizion: mp2/cc-pvtz
$end

$molecule
0 1
C        0.052842   -1.701332    0.000000    
H       -2.016793   -1.512231    0.000000    
H       -0.025494   -2.778299    0.000000    
H       -0.023568    1.988544    0.000000    
C       -1.232948    0.358893    0.000000    
O       -2.294123    0.950188    0.000000    
C        1.274970    0.391620    0.000000    
O        2.275873    1.086244    0.000000    
N        0.000000    0.978006    0.000000    
N       -1.137535   -1.023018    0.000000    
C        1.239239   -1.061325    0.000000    
H        2.169983   -1.601520    0.000000  
$end

$rem
    jobtype = sp
    method = eom-ccsd
    cvs_ee_singlets    [10,10]
    eom_preconv_singles = true
    basis = gen
    n_frozen_core = 2
    cc_trans_prop = true
   use_libqints = 1   !use new int library (will be def in trunk)
   thresh = 14   !this already should be default, but just in case
   scf_convergence = 12   !v. tight scf convergence, to reduce noise
   cc_convergence = 12   !tight CC, for the same reason
   basis_lin_dep_thresh = 8  !default is 6, use smaller, just in case
   cc_memory = 100000
   EOM_DAVIDSON_MAX_ITER 200
   EOM_DAVIDSON_MAXVECTORS = 1000
   eom_davidson_convergence = 4 
   eom_shift = 19590
$end

$basis
C 0
aug-cc-pVDZ
N 0
aug-cc-pVDZ
O 0
aug-cc-pVTZ
H 0
aug-cc-pVDZ
$end
--------------------------------------------------------------
 ----------------------------------------------------------------
             Standard Nuclear Orientation (Angstroms)
    I     Atom           X                Y                Z
 ----------------------------------------------------------------
    1      C      -0.0071423615    -1.7021374661    -0.0000000000
    2      H      -2.0688284730    -1.4402241233     0.0000000000
    3      H      -0.1233798667    -2.7756752113     0.0000000000
    4      H       0.0465189185     1.9881394681    -0.0000000000
    5      C      -1.2195356258     0.4021166886     0.0000000000
    6      O      -2.2592155329     1.0304381418     0.0000000000
    7      C       1.2879780632     0.3464493659    -0.0000000000
    8      O       2.3127366072     1.0053721559    -0.0000000000
    9      N       0.0344629504     0.9773985746    -0.0000000000
   10      N      -1.1728776526    -0.9822982369     0.0000000000
   11      C       1.2010703878    -1.1043341925    -0.0000000000
   12      H       2.1122009607    -1.6769912546    -0.0000000000
 ----------------------------------------------------------------
 Molecular Point Group                 Cs    NOp =  2
 Largest Abelian Subgroup              Cs    NOp =  2
 Nuclear Repulsion Energy =   357.0116303482 hartrees
 There are       29 alpha and       29 beta electrons

 Q-Chem warning in module forms1/BasisType.C, line 1685:

 Setting pure/cartesian flag to 2111 for general basis


 Requested basis set is non-standard
 There are 102 shells and 266 basis functions
MEM_TOTAL is adjusted to CC_MEMORY + MEM_STATIC!
 Total memory of 100192MB is distributed as follows: 
   QALLOC including MEM_STATIC uses 192MB
   MEM_STATIC is set to 192MB
   CCMAN JOB total memory use is  100000MB
 Warning: actual memory use might exceed 100192MB

 Total QAlloc Memory Limit    192 MB
 Mega-Array Size       188 MB
 MEM_STATIC part       192 MB

                       Distance Matrix (Angstroms)
             C (  1)   H (  2)   H (  3)   H (  4)   C (  5)   O (  6)
   H (  2)  2.078256
   H (  3)  1.079812  2.359703
   H (  4)  3.690667  4.028445  4.766843
   C (  5)  2.428535  2.028674  3.361535  2.029375
   O (  6)  3.541017  2.477987  4.364435  2.496718  1.214793
   C (  7)  2.423643  3.802677  3.426309  2.058244  2.508132  3.612537
   O (  8)  3.565452  5.017873  4.497886  2.470136  3.583415  4.572021
   N (  9)  2.679859  3.204487  3.756392  1.010813  1.379660  2.294292
   N ( 10)  1.370076  1.006193  2.077895  3.210986  1.385201  2.287190
   C ( 11)  1.348016  3.287105  2.132498  3.300967  2.851092  4.065813
   H ( 12)  2.119492  4.187728  2.490969  4.207164  3.927233  5.141931
             C (  7)   O (  8)   N (  9)   N ( 10)   C ( 11)
   O (  8)  1.218322
   N (  9)  1.403352  2.278445
   N ( 10)  2.796673  4.012523  2.301756
   C ( 11)  1.453384  2.384672  2.386333  2.377083
   H ( 12)  2.184870  2.689849  3.370872  3.357728  1.076148
 
 A cutoff of  1.0D-14 yielded   5169 shell pairs
 There are     34993 function pairs (     43298 Cartesian)
 
 -------------------------------------------------------
 OpenMP Integral Computing Module                       
 Release: version 1.0, May 2013, Q-Chem Inc. Pittsburgh 
 -------------------------------------------------------
 Integral Job Info:
 Integral job number is                      11
 Integral operator is                         1
 short-range coefficients                     0
 long-range coefficients              100000000
 Omega coefficients                           0
 if combine SR and LR in K                    0
 Integral screening is                        0
 Integral computing path is                   2
 max size of driver memory is            800000
 size of driver memory is                776718
 size of scratch memory is              6691272
 max col of scratch BK array              10000
 max len of scratch array in speh3          662
 max len of scratch index in speh4           32
 max int batch size is                      520
 min int batch size is                       52
 fixed nKL is                                52
 max L of basis functions is                  3
 order of int derivative is                   0
 number of shells is                        102
 number of basis is                         296
 number of cartesian basis is               296
 number of contracted shell pairs          5169
 number of primitive shell pairs          20185
 maxK2 (contraction) of shell pair           64
 max number of K2 of shell pair               1
 max number of CS2 of shell pair            703
 max number of PS2 of shell pair           3160
 mem total for path MDJ                  657038
 -------------------------------------------------------
 Smallest overlap matrix eigenvalue = 1.51E-05

 Scale SEOQF with 1.000000e-01/1.000000e-01/1.000000e-01

 Standard Electronic Orientation quadrupole field applied
 Nucleus-field energy     =     0.0000000098 hartrees
 Guess MOs from core Hamiltonian diagonalization

 -----------------------------------------------------------------------
  General SCF calculation program by
  Eric Jon Sundstrom, Paul Horn, Yuezhi Mao, Dmitri Zuev, Alec White,
  David Stuck, Shaama M.S., Shane Yost, Joonho Lee, David Small,
  Daniel Levine, Susi Lehtola, Hugh Burton, Evgeny Epifanovsky
 -----------------------------------------------------------------------
 Hartree-Fock
 A restricted SCF calculation will be
 performed using DIIS
 SCF converges when DIIS error is below 1.0e-12
 ---------------------------------------
  Cycle       Energy         DIIS error
 ---------------------------------------
    1    -342.2551545950      7.65e-02  
    2    -292.7045362357      6.28e-02  
    3    -335.5200386273      6.42e-02  
    4    -397.9558108036      3.40e-02  
    5    -393.0937372927      3.22e-02  
    6    -410.6350799859      1.45e-02  
    7    -412.1421510001      5.85e-03  
    8    -412.4599793603      2.78e-03  
    9    -412.5437090193      1.11e-03  
   10    -412.5585430414      4.07e-04  
   11    -412.5613660651      1.98e-04  
   12    -412.5625044072      1.17e-04  
   13    -412.5626918903      3.08e-05  
   14    -412.5627047613      9.80e-06  
   15    -412.5627058370      2.92e-06  
   16    -412.5627059517      8.28e-07  
   17    -412.5627059632      3.10e-07  
   18    -412.5627059648      8.16e-08  
   19    -412.5627059650      3.24e-08  
   20    -412.5627059650      1.23e-08  
   21    -412.5627059650      3.93e-09  
   22    -412.5627059650      1.06e-09  
   23    -412.5627059650      2.24e-10  
   24    -412.5627059650      7.17e-11  
   25    -412.5627059650      2.14e-11  
   26    -412.5627059650      8.04e-12  
   27    -412.5627059650      1.98e-12  
   28    -412.5627059650      9.27e-13  Convergence criterion met
 ---------------------------------------
 SCF time:   CPU 915.02s  wall 92.00s 
 SCF   energy in the final basis set =     -412.5627059650


 ------------------------------------------------------------------------------

   CCMAN2: suite of methods based on coupled cluster
           and equation of motion theories.

   Components:
   * libvmm-1.3-trunk
     by Evgeny Epifanovsky, Ilya Kaliman.
   * libtensor-2.5-trunk
     by Evgeny Epifanovsky, Michael Wormit, Dmitry Zuev, Sam Manzer, 
        Ilya Kaliman.
   * libcc-2.5-trunk
     by Evgeny Epifanovsky, Arik Landau, Tomasz Kus, Kirill Khistyaev, 
        Dmitry Zuev, Prashant Manohar, Xintian Feng, Anna Krylov, 
        Matthew Goldey, Alec White, Thomas Jagau, Kaushik Nanda, 
        Anastasia Gunina, Alexander Kunitsa, Joonho Lee.

   CCMAN original authors:
   Anna I. Krylov, C. David Sherrill, Steven R. Gwaltney,
   Edward F. C. Byrd (2000)
   Sergey V. Levchenko, Lyudmila V. Slipchenko, Tao Wang,
   Ana-Maria C. Cristian (2003)
   Piotr A. Pieniazek, C. Melania Oana, Evgeny Epifanovsky (2007)
   Prashant Manohar (2009)

 ------------------------------------------------------------------------------


 Calculation will run on 10 cores with 100000MB of RAM.

 
 Alpha MOs, Restricted
 -- Occupied --                  
-20.549 -20.544 -15.652 -15.635 -11.429 -11.391 -11.348 -11.262
  1 A'    2 A'    3 A'    4 A'    5 A'    6 A'    7 A'    8 A'                 
 -1.439  -1.401  -1.316  -1.249  -1.091  -0.936  -0.904  -0.809
  9 A'   10 A'   11 A'   12 A'   13 A'   14 A'   15 A'   16 A'                 
 -0.767  -0.716  -0.679  -0.669  -0.654  -0.616  -0.603  -0.572
 17 A'   18 A'   19 A'    1 A"   20 A'   21 A'   22 A'    2 A"                 
 -0.526  -0.485  -0.450  -0.437  -0.369
  3 A"   23 A'   24 A'    4 A"    5 A"                                         
 -- Virtual --                   
  0.019   0.040   0.049   0.060   0.070   0.083   0.096   0.100
 25 A'   26 A'   27 A'   28 A'    6 A"    7 A"   29 A'   30 A'                 
  0.116   0.120   0.125   0.131   0.134   0.145   0.146   0.154
 31 A'    8 A"   32 A'    9 A"   33 A'   34 A'   35 A'   10 A"                 
  0.166   0.172   0.175   0.186   0.194   0.202   0.208   0.233
 36 A'   37 A'   11 A"   38 A'   39 A'   40 A'   12 A"   13 A"                 
  0.252   0.257   0.264   0.277   0.280   0.286   0.288   0.290
 41 A'   14 A"   42 A'   43 A'   44 A'   45 A'   46 A'   15 A"                 
  0.295   0.308   0.312   0.326   0.331   0.340   0.364   0.369
 47 A'   16 A"   48 A'   49 A'   50 A'   51 A'   17 A"   52 A'                 
  0.374   0.390   0.400   0.406   0.437   0.440   0.441   0.468
 53 A'   54 A'   55 A'   56 A'   57 A'   58 A'   18 A"   59 A'                 
  0.474   0.483   0.493   0.511   0.512   0.540   0.552   0.561
 19 A"   60 A'   20 A"   21 A"   61 A'   62 A'   63 A'   64 A'                 
  0.568   0.587   0.604   0.608   0.621   0.629   0.632   0.640
 65 A'   22 A"   23 A"   66 A'   67 A'   68 A'   24 A"   69 A'                 
  0.672   0.675   0.678   0.689   0.700   0.719   0.741   0.747
 70 A'   25 A"   71 A'   72 A'   26 A"   73 A'   74 A'   75 A'                 
  0.766   0.771   0.778   0.782   0.800   0.807   0.808   0.829
 76 A'   77 A'   27 A"   78 A'   79 A'   28 A"   80 A'   81 A'                 
  0.831   0.841   0.865   0.873   0.882   0.886   0.907   0.909
 29 A"   82 A'   30 A"   83 A'   84 A'   31 A"   32 A"   85 A'                 
  0.932   0.933   0.959   0.971   0.973   0.986   0.992   1.001
 33 A"   86 A'   34 A"   87 A'   35 A"   88 A'   89 A'   90 A'                 
  1.015   1.026   1.072   1.076   1.084   1.109   1.130   1.131
 91 A'   36 A"   92 A'   37 A"   93 A'   94 A'   95 A'   38 A"                 
  1.143   1.152   1.185   1.205   1.244   1.271   1.321   1.366
 39 A"   96 A'   97 A'   98 A'   40 A"   99 A'  100 A'  101 A'                 
  1.435   1.458   1.484   1.503   1.528   1.540   1.547   1.560
102 A'   41 A"  103 A'  104 A'   42 A"  105 A'   43 A"  106 A'                 
  1.585   1.602   1.618   1.645   1.667   1.670   1.727   1.740
 44 A"  107 A'   45 A"  108 A'  109 A'   46 A"  110 A'  111 A'                 
  1.740   1.756   1.764   1.821   1.833   1.858   1.872   1.880
 47 A"   48 A"  112 A'  113 A'   49 A"  114 A'  115 A'   50 A"                 
  1.899   1.911   1.939   1.962   2.020   2.020   2.069   2.097
 51 A"  116 A'  117 A'  118 A'  119 A'   52 A"  120 A'  121 A'                 
  2.109   2.120   2.137   2.149   2.177   2.184   2.199   2.209
122 A'   53 A"   54 A"  123 A'  124 A'   55 A"   56 A"  125 A'                 
  2.223   2.247   2.264   2.288   2.302   2.317   2.339   2.346
 57 A"  126 A'   58 A"  127 A'  128 A'  129 A'  130 A'   59 A"                 
  2.376   2.389   2.408   2.455   2.460   2.480   2.500   2.505
131 A'   60 A"  132 A'   61 A"  133 A'  134 A'   62 A"  135 A'                 
  2.530   2.538   2.552   2.602   2.620   2.635   2.659   2.694
136 A'   63 A"  137 A'   64 A"  138 A'  139 A'  140 A'  141 A'                 
  2.701   2.725   2.737   2.763   2.781   2.805   2.826   2.865
 65 A"  142 A'   66 A"  143 A'  144 A'  145 A'   67 A"  146 A'                 
  2.891   2.896   2.903   2.992   3.014   3.056   3.070   3.084
147 A'  148 A'   68 A"  149 A'  150 A'  151 A'   69 A"   70 A"                 
  3.114   3.121   3.202   3.282   3.400   3.496   3.567   3.703
152 A'  153 A'  154 A'  155 A'  156 A'  157 A'  158 A'  159 A'                 
  3.742   3.851   4.106   4.627   4.668   4.677   4.695   4.931
160 A'  161 A'  162 A'   71 A"  163 A'   72 A"  164 A'  165 A'                 
  4.962   5.272   5.340   6.542   6.549   6.571   6.574   6.581
166 A'  167 A'  168 A'   73 A"   74 A"   75 A"   76 A"  169 A'                 
  6.610   6.613   6.640   6.704   6.723   6.761   6.870   6.965
170 A'   77 A"   78 A"  171 A'  172 A'  173 A'  174 A'  175 A'                 
  7.009   7.122   7.149   7.165   7.179   7.265   7.272   7.386
176 A'   79 A"   80 A"  177 A'  178 A'   81 A"   82 A"  179 A'                 
  7.417   7.628   7.648  12.838  12.880
180 A'  181 A'  182 A'  183 A'  184 A'                                         
 
 Beta MOs, Restricted
 -- Occupied --                  
-20.549 -20.544 -15.652 -15.635 -11.429 -11.391 -11.348 -11.262
  1 A'    2 A'    3 A'    4 A'    5 A'    6 A'    7 A'    8 A'                 
 -1.439  -1.401  -1.316  -1.249  -1.091  -0.936  -0.904  -0.809
  9 A'   10 A'   11 A'   12 A'   13 A'   14 A'   15 A'   16 A'                 
 -0.767  -0.716  -0.679  -0.669  -0.654  -0.616  -0.603  -0.572
 17 A'   18 A'   19 A'    1 A"   20 A'   21 A'   22 A'    2 A"                 
 -0.526  -0.485  -0.450  -0.437  -0.369
  3 A"   23 A'   24 A'    4 A"    5 A"                                         
 -- Virtual --                   
  0.019   0.040   0.049   0.060   0.070   0.083   0.096   0.100
 25 A'   26 A'   27 A'   28 A'    6 A"    7 A"   29 A'   30 A'                 
  0.116   0.120   0.125   0.131   0.134   0.145   0.146   0.154
 31 A'    8 A"   32 A'    9 A"   33 A'   34 A'   35 A'   10 A"                 
  0.166   0.172   0.175   0.186   0.194   0.202   0.208   0.233
 36 A'   37 A'   11 A"   38 A'   39 A'   40 A'   12 A"   13 A"                 
  0.252   0.257   0.264   0.277   0.280   0.286   0.288   0.290
 41 A'   14 A"   42 A'   43 A'   44 A'   45 A'   46 A'   15 A"                 
  0.295   0.308   0.312   0.326   0.331   0.340   0.364   0.369
 47 A'   16 A"   48 A'   49 A'   50 A'   51 A'   17 A"   52 A'                 
  0.374   0.390   0.400   0.406   0.437   0.440   0.441   0.468
 53 A'   54 A'   55 A'   56 A'   57 A'   58 A'   18 A"   59 A'                 
  0.474   0.483   0.493   0.511   0.512   0.540   0.552   0.561
 19 A"   60 A'   20 A"   21 A"   61 A'   62 A'   63 A'   64 A'                 
  0.568   0.587   0.604   0.608   0.621   0.629   0.632   0.640
 65 A'   22 A"   23 A"   66 A'   67 A'   68 A'   24 A"   69 A'                 
  0.672   0.675   0.678   0.689   0.700   0.719   0.741   0.747
 70 A'   25 A"   71 A'   72 A'   26 A"   73 A'   74 A'   75 A'                 
  0.766   0.771   0.778   0.782   0.800   0.807   0.808   0.829
 76 A'   77 A'   27 A"   78 A'   79 A'   28 A"   80 A'   81 A'                 
  0.831   0.841   0.865   0.873   0.882   0.886   0.907   0.909
 29 A"   82 A'   30 A"   83 A'   84 A'   31 A"   32 A"   85 A'                 
  0.932   0.933   0.959   0.971   0.973   0.986   0.992   1.001
 33 A"   86 A'   34 A"   87 A'   35 A"   88 A'   89 A'   90 A'                 
  1.015   1.026   1.072   1.076   1.084   1.109   1.130   1.131
 91 A'   36 A"   92 A'   37 A"   93 A'   94 A'   95 A'   38 A"                 
  1.143   1.152   1.185   1.205   1.244   1.271   1.321   1.366
 39 A"   96 A'   97 A'   98 A'   40 A"   99 A'  100 A'  101 A'                 
  1.435   1.458   1.484   1.503   1.528   1.540   1.547   1.560
102 A'   41 A"  103 A'  104 A'   42 A"  105 A'   43 A"  106 A'                 
  1.585   1.602   1.618   1.645   1.667   1.670   1.727   1.740
 44 A"  107 A'   45 A"  108 A'  109 A'   46 A"  110 A'  111 A'                 
  1.740   1.756   1.764   1.821   1.833   1.858   1.872   1.880
 47 A"   48 A"  112 A'  113 A'   49 A"  114 A'  115 A'   50 A"                 
  1.899   1.911   1.939   1.962   2.020   2.020   2.069   2.097
 51 A"  116 A'  117 A'  118 A'  119 A'   52 A"  120 A'  121 A'                 
  2.109   2.120   2.137   2.149   2.177   2.184   2.199   2.209
122 A'   53 A"   54 A"  123 A'  124 A'   55 A"   56 A"  125 A'                 
  2.223   2.247   2.264   2.288   2.302   2.317   2.339   2.346
 57 A"  126 A'   58 A"  127 A'  128 A'  129 A'  130 A'   59 A"                 
  2.376   2.389   2.408   2.455   2.460   2.480   2.500   2.505
131 A'   60 A"  132 A'   61 A"  133 A'  134 A'   62 A"  135 A'                 
  2.530   2.538   2.552   2.602   2.620   2.635   2.659   2.694
136 A'   63 A"  137 A'   64 A"  138 A'  139 A'  140 A'  141 A'                 
  2.701   2.725   2.737   2.763   2.781   2.805   2.826   2.865
 65 A"  142 A'   66 A"  143 A'  144 A'  145 A'   67 A"  146 A'                 
  2.891   2.896   2.903   2.992   3.014   3.056   3.070   3.084
147 A'  148 A'   68 A"  149 A'  150 A'  151 A'   69 A"   70 A"                 
  3.114   3.121   3.202   3.282   3.400   3.496   3.567   3.703
152 A'  153 A'  154 A'  155 A'  156 A'  157 A'  158 A'  159 A'                 
  3.742   3.851   4.106   4.627   4.668   4.677   4.695   4.931
160 A'  161 A'  162 A'   71 A"  163 A'   72 A"  164 A'  165 A'                 
  4.962   5.272   5.340   6.542   6.549   6.571   6.574   6.581
166 A'  167 A'  168 A'   73 A"   74 A"   75 A"   76 A"  169 A'                 
  6.610   6.613   6.640   6.704   6.723   6.761   6.870   6.965
170 A'   77 A"   78 A"  171 A'  172 A'  173 A'  174 A'  175 A'                 
  7.009   7.122   7.149   7.165   7.179   7.265   7.272   7.386
176 A'   79 A"   80 A"  177 A'  178 A'   81 A"   82 A"  179 A'                 
  7.417   7.628   7.648  12.838  12.880
180 A'  181 A'  182 A'  183 A'  184 A'                                         

 Occupation and symmetry of molecular orbitals

 Point group: Cs (2 irreducible representations).

                           A'   A"    All 
 ------------------------------------------
 All molecular orbitals:
  - Alpha                  184  82    266 
  - Beta                   184  82    266 
 ------------------------------------------
 Alpha orbitals:
  - Frozen occupied        2    0     2   
  - Active occupied        22   5     27  
  - Active virtual         160  77    237 
  - Frozen virtual         0    0     0   
 ------------------------------------------
 Beta orbitals:
  - Frozen occupied        2    0     2   
  - Active occupied        22   5     27  
  - Active virtual         160  77    237 
  - Frozen virtual         0    0     0   
 ------------------------------------------

 Import integrals:   CPU 0.00 s  wall 0.00 s

 Import integrals:   CPU 1098.58 s  wall 123.61 s

 MP2 amplitudes:   CPU 3.41 s  wall 2.37 s

           CCSD T amplitudes will be solved using DIIS.

           Start     Size      MaxIter   EConv     TConv     
           3         7         100       1.00e-12  1.00e-11  
 ------------------------------------------------------------------------------
           Energy (a.u.)   Ediff      Tdiff       Comment
 ------------------------------------------------------------------------------
          -413.92249828                           
     1    -413.89506131   2.74e-02   1.05e+00     
     2    -413.93729795   4.22e-02   1.37e-01     
     3    -413.93395558   3.34e-03   5.55e-02     
     4    -413.93807009   4.11e-03   2.27e-02     Switched to DIIS steps.
     5    -413.93952198   1.45e-03   1.25e-02     
     6    -413.93965527   1.33e-04   3.27e-03     
     7    -413.93966014   4.86e-06   1.33e-03     
     8    -413.93965846   1.68e-06   4.36e-04     
     9    -413.93966067   2.21e-06   1.67e-04     
    10    -413.93966058   9.53e-08   5.24e-05     
    11    -413.93966130   7.21e-07   3.34e-05     
    12    -413.93966125   4.67e-08   1.43e-05     
    13    -413.93966127   2.35e-08   7.75e-06     
    14    -413.93966120   6.95e-08   3.26e-06     
    15    -413.93966119   1.13e-08   1.48e-06     
    16    -413.93966118   1.84e-08   7.25e-07     
    17    -413.93966117   5.21e-09   2.88e-07     
    18    -413.93966117   1.39e-09   1.30e-07     
    19    -413.93966117   6.06e-10   4.68e-08     
    20    -413.93966117   1.16e-10   3.31e-08     
    21    -413.93966117   2.14e-12   1.30e-08     
    22    -413.93966117   1.10e-10   8.01e-09     
    23    -413.93966117   7.46e-12   3.31e-09     
    24    -413.93966117   2.83e-11   1.76e-09     
    25    -413.93966117   6.63e-12   8.72e-10     
    26    -413.93966117   7.76e-13   4.69e-10     
    27    -413.93966117   1.00e-12   2.19e-10     
    28    -413.93966117   4.80e-13   1.20e-10     
    29    -413.93966117   5.08e-13   7.32e-11     
    30    -413.93966117   1.51e-13   2.81e-11     
    31    -413.93966117   1.59e-13   1.42e-11     
    32    -413.93966117   1.33e-15   7.23e-12     
 ------------------------------------------------------------------------------
          -413.93966117                           CCSD T converged.

 SCF energy                 = -412.56270597
 MP2 energy                 = -413.92249828
 CCSD correlation energy     =   -1.37695520
 CCSD total energy           = -413.93966117

 CCSD  T1^2 = 0.0229  T2^2 = 0.4287  Leading amplitudes:

 Amplitude    Orbitals with energies
 -0.0268       2 (A") A                  ->    10 (A") A                  
              -0.5717                          0.1542                     
 -0.0268       2 (A") B                  ->    10 (A") B                  
              -0.5717                          0.1542                     
 -0.0255       3 (A") A                  ->    7 (A") A                   
              -0.5260                          0.0830                     
 -0.0255       3 (A") B                  ->    7 (A") B                   
              -0.5260                          0.0830                     

 Amplitude    Orbitals with energies
 -0.0322       5 (A") A      5 (A") B    ->    7 (A") A      7 (A") B     
              -0.3688       -0.3688            0.0830        0.0830       
  0.0322       5 (A") A      5 (A") B    ->    7 (A") B      7 (A") A     
              -0.3688       -0.3688            0.0830        0.0830       
  0.0322       5 (A") B      5 (A") A    ->    7 (A") A      7 (A") B     
              -0.3688       -0.3688            0.0830        0.0830       
 -0.0322       5 (A") B      5 (A") A    ->    7 (A") B      7 (A") A     
              -0.3688       -0.3688            0.0830        0.0830       

 Computing CCSD intermediates for later calculations
 Finished.

           CCSD Lambda amplitudes will be solved using DIIS.
           Start     Size      MaxIter   EConv     LConv     
           3         7         100       1.00e-12  1.00e-11  
 ------------------------------------------------------------------------------
            Enorm      Ldiff       Comment
 ------------------------------------------------------------------------------
     1     6.68e-02   4.43e-02     
     2     2.16e-02   7.30e-03     
     3     9.72e-03   8.70e-04     
     4     4.45e-03   1.38e-03     Switched to DIIS steps.
     5     1.23e-03   8.09e-04     
     6     5.41e-04   1.68e-04     
     7     1.84e-04   4.44e-05     
     8     7.34e-05   7.84e-06     
     9     3.03e-05   2.09e-06     
    10     1.54e-05   7.34e-07     
    11     7.09e-06   1.09e-07     
    12     3.10e-06   1.70e-07     
    13     1.29e-06   2.38e-08     
    14     5.38e-07   2.21e-08     
    15     2.30e-07   3.62e-08     
    16     9.50e-08   8.00e-09     
    17     4.47e-08   5.71e-09     
    18     1.95e-08   3.96e-09     
    19     9.67e-09   5.81e-10     
    20     4.65e-09   2.54e-10     
    21     2.41e-09   1.48e-10     
    22     1.12e-09   2.53e-11     
    23     5.61e-10   2.11e-11     
    24     2.53e-10   1.01e-12     
    25     1.18e-10   1.93e-12     
    26     5.92e-11   3.39e-13     
    27     2.91e-11   2.71e-12     
    28     1.47e-11   7.76e-13     
    29     6.67e-12   4.96e-13     
    30     3.50e-12   3.57e-13     
    31     1.61e-12   1.02e-13     
    32     8.27e-13   2.13e-14     
 ------------------------------------------------------------------------------
                                   CCSD Lambda converged.

 CCSD calculation:   CPU 12390.39 s  wall 1436.21 s

        Solving for CVS-EOMEE-CCSD A' singlet states.

       EOMEE-CCSD-SINGLES right amplitudes will be solved using Davidson.
        Amplitudes will be solved using shifted  algorithm.
     Hard-coded thresholds: 
     LinDepThresh=1.00e-15  NormThresh=1.00e-06  ReorthogonThresh=1.00e-02

      Roots     MaxVec    MaxIter   Precond   Conv      Shift    
      10        1000      200       1         1.00e-04  1.96e+01  
 ------------------------------------------------------------------------------
      Iter ConvRoots NVecs ResNorm Current eigenvalues (eV)
 ------------------------------------------------------------------------------
      0    0      10    1.67e-03   556.6931   556.7541   557.4275   557.4815   557.8282   558.0997   558.4621   558.7739   558.8276   558.9738   
      1    0      20    2.36e-02   556.4289   556.4590   557.1797   557.2923   557.7135   557.9868   558.2360   558.4815   558.6808   558.7670   
      2    0      30    1.42e-03   555.4254   555.5389   556.2880   556.5983   557.3901   557.4302   557.5255   558.0901   558.1045   558.4204   
      3    1      40    1.31e-03   555.3212   555.4867   556.1625   556.4804   557.0380   557.2051   557.3717*  557.5613   558.0583   558.2038   
      4    6      49    5.34e-04   555.3092*  555.4829*  556.1485*  556.4744*  556.8023   556.9319   557.3523   557.3702*  558.0544*  558.1470   
      5    9      53    9.19e-05   555.3076*  555.4828*  556.1461*  556.4743*  556.6588   556.9244*  557.3350*  557.3702*  558.0543*  558.1368*  
      6    10     54    1.66e-05   555.3076*  555.4828*  556.1457*  556.4743*  556.6444*  556.9244*  557.3335*  557.3702*  558.0543*  558.1369*  

     Davidson procedure converged

        CVS-EOMEE-CCSD/MP2 right amplitudes will be solved using Davidson.
        Amplitudes will be solved using shifted  algorithm.
     Hard-coded thresholds: 
     LinDepThresh=1.00e-15  NormThresh=1.00e-06  ReorthogonThresh=1.00e-02

      Roots     MaxVec    MaxIter   Precond   Conv      Shift    
      10        1000      200       1         1.00e-04  1.96e+01  
 ------------------------------------------------------------------------------
      Iter ConvRoots NVecs ResNorm Current eigenvalues (eV)
 ------------------------------------------------------------------------------
      0    0      10    3.03e+00   555.3076   555.4828   556.1457   556.4743   556.6444   556.9244   557.3335   557.3702   558.0543   558.1369   
      1    0      20    2.41e+00   549.3007   549.5069   550.2704   550.6112   551.0933   551.1084   551.2847   551.4828   551.8513   551.9678   
      2    0      30    1.12e-01   536.7069   536.8994   537.7018   537.8983   538.3684   538.5128   538.8823   539.2731   540.2011   540.2302   
      3    0      40    2.15e-02   536.1369   536.3027   537.0535   537.1755   537.6343   537.8519   538.2074   538.5699   539.1887   539.1974   
      4    0      50    6.59e-03   536.1126   536.2734   537.0102   537.1482   537.5213   537.7683   538.1666   538.4783   538.7830   538.8105   
      5    0      60    8.98e-03   536.0995   536.2566   536.9710   537.1232   537.4290   537.7005   538.1359   538.3362   538.4203   538.5359   
Found complex roots...
      6    0      70    3.91e-03   536.0864   536.2402   536.9406   537.0956   537.3551   537.6359   538.0802   538.1481   538.1946   538.4378   
      7    0      80    3.28e-03   536.0795   536.2302   536.9200   537.0741   537.3131   537.5905   537.9580   537.9838   538.0930   538.3741   
      8    1      90    1.38e-03   536.0789*  536.2280   536.9139   537.0681   537.2992   537.5730   537.8860   537.9091   538.0710   538.3471   
      9    2      99    9.36e-04   536.0787*  536.2263*  536.9083   537.0613   537.2857   537.5602   537.8368   537.8602   538.0602   538.3279   
      10   2      107   4.59e-04   536.0786*  536.2254*  536.9059   537.0579   537.2766   537.5522   537.8112   537.8415   538.0530   538.3139   
      11   3      115   3.19e-04   536.0786*  536.2252*  536.9047*  537.0562   537.2727   537.5477   537.7988   537.8290   538.0486   538.3070   
      12   4      122   2.47e-04   536.0786*  536.2250*  536.9039*  537.0548*  537.2677   537.5435   537.7926   537.8244   538.0456   538.2978   
      13   4      128   1.49e-04   536.0786*  536.2249*  536.9033*  537.0538*  537.2652   537.5405   537.7850   537.8196   538.0417   538.2915   
      14   6      134   1.15e-04   536.0786*  536.2248*  536.9030*  537.0537*  537.2633*  537.5385*  537.7803   537.8148   538.0377   538.2851   
      15   6      138   9.56e-05   536.0786*  536.2248*  536.9028*  537.0533*  537.2632*  537.5382*  537.7776   537.8146   538.0345   538.2835   
Found complex roots...
      16   7      142   7.35e-05   536.0786*  536.2248*  536.9028*  537.0534*  537.2627*  537.5378*  537.7759*  537.8121   538.0330   538.2800   
      17   9      145   5.54e-05   536.0786*  536.2248*  536.9028*  537.0533*  537.2628*  537.5375*  537.7762*  537.8111*  538.0317*  538.2768   
      18   9      146   5.07e-05   536.0786*  536.2248*  536.9028*  537.0533*  537.2628*  537.5364*  537.7762*  537.8099*  538.0317*  538.2739   
      19   9      147   4.70e-05   536.0786*  536.2248*  536.9028*  537.0533*  537.2628*  537.5366*  537.7762*  537.8096*  538.0317*  538.2720   
      20   9      148   4.23e-05   536.0786*  536.2248*  536.9028*  537.0533*  537.2628*  537.5365*  537.7762*  537.8093*  538.0317*  538.2705   
      21   10     149   3.82e-05   536.0786*  536.2248*  536.9027*  537.0533*  537.2628*  537.5364*  537.7762*  537.8090*  538.0317*  538.2694*  

     Davidson procedure converged

 EOMEE transition 1/A'
 Total energy = -394.23913547 a.u.  Excitation energy = 536.0786 eV.
 R0^2 = 0.0000  R1^2 = 0.8276  R2_CCVV^2 = 0.0008  R2_COVV^2 = 0.0858  Res^2 = 3.05e-05
 Conv-d = yes

 Amplitude    Transitions between orbitals
 -0.3589       1 (A') A                  ->    27 (A') A                  
 -0.3589       1 (A') B                  ->    27 (A') B                  
 -0.3575       1 (A') A                  ->    25 (A') A                  
 -0.3575       1 (A') B                  ->    25 (A') B                  
 -0.1795       1 (A') A                  ->    26 (A') A                  
 -0.1795       1 (A') B                  ->    26 (A') B                  
 -0.1594       1 (A') A                  ->    33 (A') A                  
 -0.1594       1 (A') B                  ->    33 (A') B                  
  0.1587       1 (A') A                  ->    29 (A') A                  
  0.1587       1 (A') B                  ->    29 (A') B                  
  0.1490       1 (A') A                  ->    30 (A') A                  
  0.1490       1 (A') B                  ->    30 (A') B                  

              Summary of significant orbitals:

               Number  Type             Irrep      Energy
               1       Occ  Alpha       1 (A')    -20.5494
               1       Occ  Beta        1 (A')    -20.5494
               30      Vir  Alpha      25 (A')      0.0185
               31      Vir  Alpha      26 (A')      0.0404
               32      Vir  Alpha      27 (A')      0.0493
               36      Vir  Alpha      29 (A')      0.0963
               37      Vir  Alpha      30 (A')      0.1002
               42      Vir  Alpha      33 (A')      0.1337
               30      Vir  Beta       25 (A')      0.0185
               31      Vir  Beta       26 (A')      0.0404
               32      Vir  Beta       27 (A')      0.0493
               36      Vir  Beta       29 (A')      0.0963
               37      Vir  Beta       30 (A')      0.1002
               42      Vir  Beta       33 (A')      0.1337


 EOMEE transition 2/A'
 Total energy = -394.23376255 a.u.  Excitation energy = 536.2248 eV.
 R0^2 = 0.0000  R1^2 = 0.8261  R2_CCVV^2 = 0.0008  R2_COVV^2 = 0.0865  Res^2 = 1.35e-05
 Conv-d = yes

 Amplitude    Transitions between orbitals
  0.4094       2 (A') A                  ->    27 (A') A                  
  0.4094       2 (A') B                  ->    27 (A') B                  
  0.2371       2 (A') A                  ->    25 (A') A                  
  0.2371       2 (A') B                  ->    25 (A') B                  
 -0.2168       2 (A') A                  ->    26 (A') A                  
 -0.2168       2 (A') B                  ->    26 (A') B                  
  0.2082       2 (A') A                  ->    29 (A') A                  
  0.2082       2 (A') B                  ->    29 (A') B                  
 -0.1796       2 (A') A                  ->    35 (A') A                  
 -0.1796       2 (A') B                  ->    35 (A') B                  
 -0.1158       2 (A') A                  ->    30 (A') A                  
 -0.1158       2 (A') B                  ->    30 (A') B                  
 -0.1014       2 (A') A                  ->    36 (A') A                  
 -0.1014       2 (A') B                  ->    36 (A') B                  
 -0.1010       2 (A') A                  ->    41 (A') A                  
 -0.1010       2 (A') B                  ->    41 (A') B                  

              Summary of significant orbitals:

               Number  Type             Irrep      Energy
               2       Occ  Alpha       2 (A')    -20.5438
               2       Occ  Beta        2 (A')    -20.5438
               30      Vir  Alpha      25 (A')      0.0185
               31      Vir  Alpha      26 (A')      0.0404
               32      Vir  Alpha      27 (A')      0.0493
               36      Vir  Alpha      29 (A')      0.0963
               37      Vir  Alpha      30 (A')      0.1002
               44      Vir  Alpha      35 (A')      0.1463
               46      Vir  Alpha      36 (A')      0.1665
               54      Vir  Alpha      41 (A')      0.2524
               30      Vir  Beta       25 (A')      0.0185
               31      Vir  Beta       26 (A')      0.0404
               32      Vir  Beta       27 (A')      0.0493
               36      Vir  Beta       29 (A')      0.0963
               37      Vir  Beta       30 (A')      0.1002
               44      Vir  Beta       35 (A')      0.1463
               46      Vir  Beta       36 (A')      0.1665
               54      Vir  Beta       41 (A')      0.2524


 EOMEE transition 3/A'
 Total energy = -394.20885066 a.u.  Excitation energy = 536.9027 eV.
 R0^2 = 0.0000  R1^2 = 0.8256  R2_CCVV^2 = 0.0008  R2_COVV^2 = 0.0868  Res^2 = 1.07e-05
 Conv-d = yes

 Amplitude    Transitions between orbitals
 -0.3052       1 (A') A                  ->    27 (A') A                  
 -0.3052       1 (A') B                  ->    27 (A') B                  
  0.3034       1 (A') A                  ->    25 (A') A                  
  0.3034       1 (A') B                  ->    25 (A') B                  
  0.2824       1 (A') A                  ->    28 (A') A                  
  0.2824       1 (A') B                  ->    28 (A') B                  
  0.2032       1 (A') A                  ->    26 (A') A                  
  0.2032       1 (A') B                  ->    26 (A') B                  
  0.1545       1 (A') A                  ->    32 (A') A                  
  0.1545       1 (A') B                  ->    32 (A') B                  
  0.1215       1 (A') A                  ->    37 (A') A                  
  0.1215       1 (A') B                  ->    37 (A') B                  
  0.1115       1 (A') A                  ->    29 (A') A                  
  0.1115       1 (A') B                  ->    29 (A') B                  
  0.1114       1 (A') A                  ->    35 (A') A                  
  0.1114       1 (A') B                  ->    35 (A') B                  

              Summary of significant orbitals:

               Number  Type             Irrep      Energy
               1       Occ  Alpha       1 (A')    -20.5494
               1       Occ  Beta        1 (A')    -20.5494
               30      Vir  Alpha      25 (A')      0.0185
               31      Vir  Alpha      26 (A')      0.0404
               32      Vir  Alpha      27 (A')      0.0493
               33      Vir  Alpha      28 (A')      0.0602
               36      Vir  Alpha      29 (A')      0.0963
               40      Vir  Alpha      32 (A')      0.1253
               44      Vir  Alpha      35 (A')      0.1463
               47      Vir  Alpha      37 (A')      0.1717
               30      Vir  Beta       25 (A')      0.0185
               31      Vir  Beta       26 (A')      0.0404
               32      Vir  Beta       27 (A')      0.0493
               33      Vir  Beta       28 (A')      0.0602
               36      Vir  Beta       29 (A')      0.0963
               40      Vir  Beta       32 (A')      0.1253
               44      Vir  Beta       35 (A')      0.1463
               47      Vir  Beta       37 (A')      0.1717


 EOMEE transition 4/A'
 Total energy = -394.20331400 a.u.  Excitation energy = 537.0533 eV.
 R0^2 = 0.0000  R1^2 = 0.8209  R2_CCVV^2 = 0.0008  R2_COVV^2 = 0.0891  Res^2 = 1.20e-05
 Conv-d = yes

 Amplitude    Transitions between orbitals
 -0.4109       2 (A') A                  ->    25 (A') A                  
 -0.4109       2 (A') B                  ->    25 (A') B                  
 -0.2695       2 (A') A                  ->    28 (A') A                  
 -0.2695       2 (A') B                  ->    28 (A') B                  
  0.2467       2 (A') A                  ->    27 (A') A                  
  0.2467       2 (A') B                  ->    27 (A') B                  
  0.1985       2 (A') A                  ->    26 (A') A                  
  0.1985       2 (A') B                  ->    26 (A') B                  
 -0.1491       2 (A') A                  ->    34 (A') A                  
 -0.1491       2 (A') B                  ->    34 (A') B                  
  0.1009       2 (A') A                  ->    31 (A') A                  
  0.1009       2 (A') B                  ->    31 (A') B                  

              Summary of significant orbitals:

               Number  Type             Irrep      Energy
               2       Occ  Alpha       2 (A')    -20.5438
               2       Occ  Beta        2 (A')    -20.5438
               30      Vir  Alpha      25 (A')      0.0185
               31      Vir  Alpha      26 (A')      0.0404
               32      Vir  Alpha      27 (A')      0.0493
               33      Vir  Alpha      28 (A')      0.0602
               38      Vir  Alpha      31 (A')      0.1155
               43      Vir  Alpha      34 (A')      0.1454
               30      Vir  Beta       25 (A')      0.0185
               31      Vir  Beta       26 (A')      0.0404
               32      Vir  Beta       27 (A')      0.0493
               33      Vir  Beta       28 (A')      0.0602
               38      Vir  Beta       31 (A')      0.1155
               43      Vir  Beta       34 (A')      0.1454


 EOMEE transition 5/A'
 Total energy = -394.19561560 a.u.  Excitation energy = 537.2628 eV.
 R0^2 = 0.0000  R1^2 = 0.8212  R2_CCVV^2 = 0.0008  R2_COVV^2 = 0.0890  Res^2 = 2.23e-05
 Conv-d = yes

 Amplitude    Transitions between orbitals
  0.3543       2 (A') A                  ->    25 (A') A                  
  0.3543       2 (A') B                  ->    25 (A') B                  
  0.3159       2 (A') A                  ->    26 (A') A                  
  0.3159       2 (A') B                  ->    26 (A') B                  
 -0.2549       2 (A') A                  ->    28 (A') A                  
 -0.2549       2 (A') B                  ->    28 (A') B                  
 -0.1776       2 (A') A                  ->    31 (A') A                  
 -0.1776       2 (A') B                  ->    31 (A') B                  
 -0.1644       2 (A') A                  ->    34 (A') A                  
 -0.1644       2 (A') B                  ->    34 (A') B                  
 -0.1512       2 (A') A                  ->    29 (A') A                  
 -0.1512       2 (A') B                  ->    29 (A') B                  

              Summary of significant orbitals:

               Number  Type             Irrep      Energy
               2       Occ  Alpha       2 (A')    -20.5438
               2       Occ  Beta        2 (A')    -20.5438
               30      Vir  Alpha      25 (A')      0.0185
               31      Vir  Alpha      26 (A')      0.0404
               33      Vir  Alpha      28 (A')      0.0602
               36      Vir  Alpha      29 (A')      0.0963
               38      Vir  Alpha      31 (A')      0.1155
               43      Vir  Alpha      34 (A')      0.1454
               30      Vir  Beta       25 (A')      0.0185
               31      Vir  Beta       26 (A')      0.0404
               33      Vir  Beta       28 (A')      0.0602
               36      Vir  Beta       29 (A')      0.0963
               38      Vir  Beta       31 (A')      0.1155
               43      Vir  Beta       34 (A')      0.1454


 EOMEE transition 6/A'
 Total energy = -394.18556295 a.u.  Excitation energy = 537.5364 eV.
 R0^2 = 0.0000  R1^2 = 0.8240  R2_CCVV^2 = 0.0008  R2_COVV^2 = 0.0876  Res^2 = 1.69e-05
 Conv-d = yes

 Amplitude    Transitions between orbitals
 -0.3507       1 (A') A                  ->    25 (A') A                  
 -0.3507       1 (A') B                  ->    25 (A') B                  
  0.2911       1 (A') A                  ->    26 (A') A                  
  0.2911       1 (A') B                  ->    26 (A') B                  
 -0.2402       1 (A') A                  ->    29 (A') A                  
 -0.2402       1 (A') B                  ->    29 (A') B                  
  0.2323       1 (A') A                  ->    28 (A') A                  
  0.2323       1 (A') B                  ->    28 (A') B                  
  0.1796       1 (A') A                  ->    31 (A') A                  
  0.1796       1 (A') B                  ->    31 (A') B                  
  0.1488       1 (A') A                  ->    33 (A') A                  
  0.1488       1 (A') B                  ->    33 (A') B                  

              Summary of significant orbitals:

               Number  Type             Irrep      Energy
               1       Occ  Alpha       1 (A')    -20.5494
               1       Occ  Beta        1 (A')    -20.5494
               30      Vir  Alpha      25 (A')      0.0185
               31      Vir  Alpha      26 (A')      0.0404
               33      Vir  Alpha      28 (A')      0.0602
               36      Vir  Alpha      29 (A')      0.0963
               38      Vir  Alpha      31 (A')      0.1155
               42      Vir  Alpha      33 (A')      0.1337
               30      Vir  Beta       25 (A')      0.0185
               31      Vir  Beta       26 (A')      0.0404
               33      Vir  Beta       28 (A')      0.0602
               36      Vir  Beta       29 (A')      0.0963
               38      Vir  Beta       31 (A')      0.1155
               42      Vir  Beta       33 (A')      0.1337


 EOMEE transition 7/A'
 Total energy = -394.17674769 a.u.  Excitation energy = 537.7762 eV.
 R0^2 = 0.0000  R1^2 = 0.8214  R2_CCVV^2 = 0.0008  R2_COVV^2 = 0.0889  Res^2 = 7.57e-05
 Conv-d = yes

 Amplitude    Transitions between orbitals
 -0.4648       2 (A') A                  ->    30 (A') A                  
 -0.4648       2 (A') B                  ->    30 (A') B                  
  0.2952       2 (A') A                  ->    26 (A') A                  
  0.2952       2 (A') B                  ->    26 (A') B                  
  0.1555       2 (A') A                  ->    28 (A') A                  
  0.1555       2 (A') B                  ->    28 (A') B                  
  0.1192       2 (A') A                  ->    40 (A') A                  
  0.1192       2 (A') B                  ->    40 (A') B                  
 -0.1106       2 (A') A                  ->    41 (A') A                  
 -0.1106       2 (A') B                  ->    41 (A') B                  

              Summary of significant orbitals:

               Number  Type             Irrep      Energy
               2       Occ  Alpha       2 (A')    -20.5438
               2       Occ  Beta        2 (A')    -20.5438
               31      Vir  Alpha      26 (A')      0.0404
               33      Vir  Alpha      28 (A')      0.0602
               37      Vir  Alpha      30 (A')      0.1002
               51      Vir  Alpha      40 (A')      0.2018
               54      Vir  Alpha      41 (A')      0.2524
               31      Vir  Beta       26 (A')      0.0404
               33      Vir  Beta       28 (A')      0.0602
               37      Vir  Beta       30 (A')      0.1002
               51      Vir  Beta       40 (A')      0.2018
               54      Vir  Beta       41 (A')      0.2524


 EOMEE transition 8/A'
 Total energy = -394.17554231 a.u.  Excitation energy = 537.8090 eV.
 R0^2 = 0.0000  R1^2 = 0.8250  R2_CCVV^2 = 0.0008  R2_COVV^2 = 0.0871  Res^2 = 2.01e-05
 Conv-d = yes

 Amplitude    Transitions between orbitals
 -0.5020       1 (A') A                  ->    30 (A') A                  
 -0.5020       1 (A') B                  ->    30 (A') B                  
 -0.1823       1 (A') A                  ->    26 (A') A                  
 -0.1823       1 (A') B                  ->    26 (A') B                  
 -0.1738       1 (A') A                  ->    38 (A') A                  
 -0.1738       1 (A') B                  ->    38 (A') B                  
  0.1689       1 (A') A                  ->    28 (A') A                  
  0.1689       1 (A') B                  ->    28 (A') B                  
 -0.1120       1 (A') A                  ->    27 (A') A                  
 -0.1120       1 (A') B                  ->    27 (A') B                  

              Summary of significant orbitals:

               Number  Type             Irrep      Energy
               1       Occ  Alpha       1 (A')    -20.5494
               1       Occ  Beta        1 (A')    -20.5494
               31      Vir  Alpha      26 (A')      0.0404
               32      Vir  Alpha      27 (A')      0.0493
               33      Vir  Alpha      28 (A')      0.0602
               37      Vir  Alpha      30 (A')      0.1002
               49      Vir  Alpha      38 (A')      0.1857
               31      Vir  Beta       26 (A')      0.0404
               32      Vir  Beta       27 (A')      0.0493
               33      Vir  Beta       28 (A')      0.0602
               37      Vir  Beta       30 (A')      0.1002
               49      Vir  Beta       38 (A')      0.1857


 EOMEE transition 9/A'
 Total energy = -394.16736040 a.u.  Excitation energy = 538.0317 eV.
 R0^2 = 0.0000  R1^2 = 0.8214  R2_CCVV^2 = 0.0008  R2_COVV^2 = 0.0889  Res^2 = 9.24e-05
 Conv-d = yes

 Amplitude    Transitions between orbitals
 -0.3319       2 (A') A                  ->    29 (A') A                  
 -0.3319       2 (A') B                  ->    29 (A') B                  
 -0.2979       2 (A') A                  ->    26 (A') A                  
 -0.2979       2 (A') B                  ->    26 (A') B                  
 -0.2854       2 (A') A                  ->    30 (A') A                  
 -0.2854       2 (A') B                  ->    30 (A') B                  
 -0.1922       2 (A') A                  ->    33 (A') A                  
 -0.1922       2 (A') B                  ->    33 (A') B                  
 -0.1444       2 (A') A                  ->    25 (A') A                  
 -0.1444       2 (A') B                  ->    25 (A') B                  
 -0.1319       2 (A') A                  ->    28 (A') A                  
 -0.1319       2 (A') B                  ->    28 (A') B                  

              Summary of significant orbitals:

               Number  Type             Irrep      Energy
               2       Occ  Alpha       2 (A')    -20.5438
               2       Occ  Beta        2 (A')    -20.5438
               30      Vir  Alpha      25 (A')      0.0185
               31      Vir  Alpha      26 (A')      0.0404
               33      Vir  Alpha      28 (A')      0.0602
               36      Vir  Alpha      29 (A')      0.0963
               37      Vir  Alpha      30 (A')      0.1002
               42      Vir  Alpha      33 (A')      0.1337
               30      Vir  Beta       25 (A')      0.0185
               31      Vir  Beta       26 (A')      0.0404
               33      Vir  Beta       28 (A')      0.0602
               36      Vir  Beta       29 (A')      0.0963
               37      Vir  Beta       30 (A')      0.1002
               42      Vir  Beta       33 (A')      0.1337


 EOMEE transition 10/A'
 Total energy = -394.15862608 a.u.  Excitation energy = 538.2693 eV.
 R0^2 = 0.0000  R1^2 = 0.8238  R2_CCVV^2 = 0.0008  R2_COVV^2 = 0.0877  Res^2 = 8.73e-05
 Conv-d = yes

 Amplitude    Transitions between orbitals
  0.3736       1 (A') A                  ->    29 (A') A                  
  0.3736       1 (A') B                  ->    29 (A') B                  
  0.2743       1 (A') A                  ->    26 (A') A                  
  0.2743       1 (A') B                  ->    26 (A') B                  
  0.2144       1 (A') A                  ->    27 (A') A                  
  0.2144       1 (A') B                  ->    27 (A') B                  
 -0.1866       1 (A') A                  ->    25 (A') A                  
 -0.1866       1 (A') B                  ->    25 (A') B                  
  0.1579       1 (A') A                  ->    32 (A') A                  
  0.1579       1 (A') B                  ->    32 (A') B                  
 -0.1541       1 (A') A                  ->    34 (A') A                  
 -0.1541       1 (A') B                  ->    34 (A') B                  
 -0.1191       1 (A') A                  ->    31 (A') A                  
 -0.1191       1 (A') B                  ->    31 (A') B                  
 -0.1159       1 (A') A                  ->    33 (A') A                  
 -0.1159       1 (A') B                  ->    33 (A') B                  

              Summary of significant orbitals:

               Number  Type             Irrep      Energy
               1       Occ  Alpha       1 (A')    -20.5494
               1       Occ  Beta        1 (A')    -20.5494
               30      Vir  Alpha      25 (A')      0.0185
               31      Vir  Alpha      26 (A')      0.0404
               32      Vir  Alpha      27 (A')      0.0493
               36      Vir  Alpha      29 (A')      0.0963
               38      Vir  Alpha      31 (A')      0.1155
               40      Vir  Alpha      32 (A')      0.1253
               42      Vir  Alpha      33 (A')      0.1337
               43      Vir  Alpha      34 (A')      0.1454
               30      Vir  Beta       25 (A')      0.0185
               31      Vir  Beta       26 (A')      0.0404
               32      Vir  Beta       27 (A')      0.0493
               36      Vir  Beta       29 (A')      0.0963
               38      Vir  Beta       31 (A')      0.1155
               40      Vir  Beta       32 (A')      0.1253
               42      Vir  Beta       33 (A')      0.1337
               43      Vir  Beta       34 (A')      0.1454


      CVS-EOM-CCSD/MP2 left amplitudes will be solved using Davidson.
        Amplitudes will be solved using MOM  algorithm.
     Hard-coded thresholds: 
     LinDepThresh=1.00e-15  NormThresh=1.00e-06  ReorthogonThresh=1.00e-02

      Roots     MaxVec    MaxIter   Precond   Conv      Shift    
      10        1000      200       1         1.00e-04  1.96e+01  
 ------------------------------------------------------------------------------
      Iter ConvRoots NVecs ResNorm Current eigenvalues (eV)
 ------------------------------------------------------------------------------
      0    0      10    9.73e-02   536.0786   536.2248   536.9027   537.0533   537.2628   537.5364   537.7762   537.8090   538.0317   538.2694   
      1    0      20    2.51e-02   536.0784   536.2247   536.9025   537.0532   537.2624   537.5361   537.7748   537.8088   538.0308   538.2684   
      2    0      30    5.56e-04   536.0780   536.2247   536.9025   537.0531   537.2626   537.5363   537.7747   537.8088   538.0302   538.2683   
      3    9      40    6.31e-05   536.0779*  536.2246*  536.9025*  537.0530*  537.2626*  537.5362*  537.7744*  537.8088*  538.0297*  538.2680   
      4    8      41    1.48e-04   536.0779*  536.2246*  536.9025*  537.0530*  537.2626*  537.5362*  537.7744*  537.8088   538.0297*  538.2678   
      5    9      43    6.23e-05   536.0779*  536.2246*  536.9025*  537.0530*  537.2626*  537.5363*  537.7744*  537.8088*  538.0297*  538.2683   
      6    10     44    4.59e-05   536.0779*  536.2246*  536.9025*  537.0530*  537.2626*  537.5362*  537.7744*  537.8088*  538.0297*  538.2679*  

     Davidson procedure converged

        Solving for CVS-EOMEE-CCSD A" singlet states.

       EOMEE-CCSD-SINGLES right amplitudes will be solved using Davidson.
        Amplitudes will be solved using shifted  algorithm.
     Hard-coded thresholds: 
     LinDepThresh=1.00e-15  NormThresh=1.00e-06  ReorthogonThresh=1.00e-02

      Roots     MaxVec    MaxIter   Precond   Conv      Shift    
      10        1000      200       1         1.00e-04  1.96e+01  
 ------------------------------------------------------------------------------
      Iter ConvRoots NVecs ResNorm Current eigenvalues (eV)
 ------------------------------------------------------------------------------
      0    0      10    1.28e-02   554.3989   557.2332   557.7164   557.7450   558.8541   559.2415   559.2865   559.7321   559.9965   559.9985   
      1    0      20    3.32e-02   552.1542   554.7532   557.3283   557.5142   558.6287   558.9569   559.1579   559.5536   559.8189   559.8381   
      2    0      30    4.26e-04   549.8369   550.9576   557.0464   557.2428   558.4842   558.7986   558.9223   559.1760   559.4943   559.5940   
      3    10     40    1.10e-05   549.8271*  550.9257*  557.0411*  557.2354*  558.4812*  558.7942*  558.9078*  559.1497*  559.4685*  559.5857*  

     Davidson procedure converged

        CVS-EOMEE-CCSD/MP2 right amplitudes will be solved using Davidson.
        Amplitudes will be solved using shifted  algorithm.
     Hard-coded thresholds: 
     LinDepThresh=1.00e-15  NormThresh=1.00e-06  ReorthogonThresh=1.00e-02

      Roots     MaxVec    MaxIter   Precond   Conv      Shift    
      10        1000      200       1         1.00e-04  1.96e+01  
 ------------------------------------------------------------------------------
      Iter ConvRoots NVecs ResNorm Current eigenvalues (eV)
 ------------------------------------------------------------------------------
      0    0      10    3.09e+00   549.8271   550.9257   557.0411   557.2354   558.4812   558.7942   558.9078   559.1497   559.4685   559.5857   
      1    0      20    2.54e+00   544.5123   545.5297   550.8595   551.0662   551.9048   551.9272   552.6407   552.8586   553.1263   553.2836   
      2    0      30    1.13e-01   533.6831   534.6143   537.9766   538.0330   538.0481   538.3448   539.5424   539.8611   540.0273   540.2854   
      3    0      40    1.11e-02   533.0119   533.9619   537.2263   537.3728   537.4526   537.6187   538.8570   539.2079   539.3164   539.6276   
      4    0      50    2.22e-03   532.8955   533.8503   537.1786   537.3364   537.4373   537.5769   538.8314   539.1804   539.2626   539.5845   
Found complex roots...
      5    0      60    2.20e-03   532.8679   533.8235   537.1326   537.2845   537.4301   537.5457   538.8160   539.1658   539.2229   539.5625   
      6    0      70    1.22e-03   532.8615   533.8158   537.0827   537.2140   537.4255   537.5216   538.7868   539.1391   539.1700   539.5291   
      7    0      80    6.75e-04   532.8570   533.8104   537.0726   537.1939   537.4228   537.5135   538.7694   539.1195   539.1397   539.4988   
      8    3      90    2.27e-04   532.8565*  533.8099*  537.0649   537.1832   537.4223*  537.5108   538.7599   539.1106   539.1256   539.4856   
      9    5      97    1.43e-04   532.8566*  533.8099*  537.0624*  537.1787   537.4223*  537.5089*  538.7553   539.1063   539.1201   539.4777   
      10   9      102   5.17e-05   532.8565*  533.8099*  537.0620*  537.1772*  537.4221*  537.5085*  538.7522*  539.1042*  539.1172*  539.4726   
      11   9      103   4.66e-05   532.8565*  533.8099*  537.0620*  537.1772*  537.4220*  537.5085*  538.7522*  539.1036*  539.1172*  539.4707   
      12   9      104   4.64e-05   532.8565*  533.8099*  537.0620*  537.1772*  537.4220*  537.5085*  538.7522*  539.1034*  539.1172*  539.4689   
      13   9      105   4.34e-05   532.8565*  533.8099*  537.0620*  537.1772*  537.4220*  537.5085*  538.7522*  539.1028*  539.1172*  539.4655   
      14   10     106   3.66e-05   532.8565*  533.8099*  537.0620*  537.1772*  537.4220*  537.5085*  538.7522*  539.1025*  539.1172*  539.4637*  

     Davidson procedure converged

 EOMEE transition 1/A"
 Total energy = -394.35754357 a.u.  Excitation energy = 532.8565 eV.
 R0^2 = 0.0000  R1^2 = 0.8353  R2_CCVV^2 = 0.0009  R2_COVV^2 = 0.0819  Res^2 = 1.69e-05
 Conv-d = yes

 Amplitude    Transitions between orbitals
  0.3412       2 (A') A                  ->    7 (A") A                   
  0.3412       2 (A') B                  ->    7 (A") B                   
  0.2837       2 (A') A                  ->    6 (A") A                   
  0.2837       2 (A') B                  ->    6 (A") B                   
 -0.2768       2 (A') A                  ->    9 (A") A                   
 -0.2768       2 (A') B                  ->    9 (A") B                   
  0.2506       2 (A') A                  ->    10 (A") A                  
  0.2506       2 (A') B                  ->    10 (A") B                  
  0.1938       2 (A') A                  ->    16 (A") A                  
  0.1938       2 (A') B                  ->    16 (A") B                  
 -0.1017       2 (A') A                  ->    11 (A") A                  
 -0.1017       2 (A') B                  ->    11 (A") B                  

              Summary of significant orbitals:

               Number  Type             Irrep      Energy
               2       Occ  Alpha       2 (A')    -20.5438
               2       Occ  Beta        2 (A')    -20.5438
               34      Vir  Alpha       6 (A")      0.0695
               35      Vir  Alpha       7 (A")      0.0830
               41      Vir  Alpha       9 (A")      0.1306
               45      Vir  Alpha      10 (A")      0.1542
               48      Vir  Alpha      11 (A")      0.1749
               63      Vir  Alpha      16 (A")      0.3081
               34      Vir  Beta        6 (A")      0.0695
               35      Vir  Beta        7 (A")      0.0830
               41      Vir  Beta        9 (A")      0.1306
               45      Vir  Beta       10 (A")      0.1542
               48      Vir  Beta       11 (A")      0.1749
               63      Vir  Beta       16 (A")      0.3081


 EOMEE transition 2/A"
 Total energy = -394.32250722 a.u.  Excitation energy = 533.8099 eV.
 R0^2 = 0.0000  R1^2 = 0.8380  R2_CCVV^2 = 0.0009  R2_COVV^2 = 0.0806  Res^2 = 1.38e-05
 Conv-d = yes

 Amplitude    Transitions between orbitals
  0.4065       1 (A') A                  ->    11 (A") A                  
  0.4065       1 (A') B                  ->    11 (A") B                  
 -0.3210       1 (A') A                  ->    10 (A") A                  
 -0.3210       1 (A') B                  ->    10 (A") B                  
  0.1764       1 (A') A                  ->    15 (A") A                  
  0.1764       1 (A') B                  ->    15 (A") B                  
 -0.1672       1 (A') A                  ->    8 (A") A                   
 -0.1672       1 (A') B                  ->    8 (A") B                   
  0.1526       1 (A') A                  ->    9 (A") A                   
  0.1526       1 (A') B                  ->    9 (A") B                   
  0.1461       1 (A') A                  ->    7 (A") A                   
  0.1461       1 (A') B                  ->    7 (A") B                   
  0.1119       1 (A') A                  ->    6 (A") A                   
  0.1119       1 (A') B                  ->    6 (A") B                   

              Summary of significant orbitals:

               Number  Type             Irrep      Energy
               1       Occ  Alpha       1 (A')    -20.5494
               1       Occ  Beta        1 (A')    -20.5494
               34      Vir  Alpha       6 (A")      0.0695
               35      Vir  Alpha       7 (A")      0.0830
               39      Vir  Alpha       8 (A")      0.1202
               41      Vir  Alpha       9 (A")      0.1306
               45      Vir  Alpha      10 (A")      0.1542
               48      Vir  Alpha      11 (A")      0.1749
               61      Vir  Alpha      15 (A")      0.2899
               34      Vir  Beta        6 (A")      0.0695
               35      Vir  Beta        7 (A")      0.0830
               39      Vir  Beta        8 (A")      0.1202
               41      Vir  Beta        9 (A")      0.1306
               45      Vir  Beta       10 (A")      0.1542
               48      Vir  Beta       11 (A")      0.1749
               61      Vir  Beta       15 (A")      0.2899


 EOMEE transition 3/A"
 Total energy = -394.20299369 a.u.  Excitation energy = 537.0620 eV.
 R0^2 = 0.0000  R1^2 = 0.8089  R2_CCVV^2 = 0.0008  R2_COVV^2 = 0.0951  Res^2 = 3.55e-05
 Conv-d = yes

 Amplitude    Transitions between orbitals
 -0.4306       1 (A') A                  ->    6 (A") A                   
 -0.4306       1 (A') B                  ->    6 (A") B                   
 -0.3802       1 (A') A                  ->    7 (A") A                   
 -0.3802       1 (A') B                  ->    7 (A") B                   
  0.2025       1 (A') A                  ->    9 (A") A                   
  0.2025       1 (A') B                  ->    9 (A") B                   
 -0.1472       1 (A') A                  ->    10 (A") A                  
 -0.1472       1 (A') B                  ->    10 (A") B                  

              Summary of significant orbitals:

               Number  Type             Irrep      Energy
               1       Occ  Alpha       1 (A')    -20.5494
               1       Occ  Beta        1 (A')    -20.5494
               34      Vir  Alpha       6 (A")      0.0695
               35      Vir  Alpha       7 (A")      0.0830
               41      Vir  Alpha       9 (A")      0.1306
               45      Vir  Alpha      10 (A")      0.1542
               34      Vir  Beta        6 (A")      0.0695
               35      Vir  Beta        7 (A")      0.0830
               41      Vir  Beta        9 (A")      0.1306
               45      Vir  Beta       10 (A")      0.1542


 EOMEE transition 4/A"
 Total energy = -394.19876266 a.u.  Excitation energy = 537.1772 eV.
 R0^2 = 0.0000  R1^2 = 0.8106  R2_CCVV^2 = 0.0008  R2_COVV^2 = 0.0943  Res^2 = 3.79e-05
 Conv-d = yes

 Amplitude    Transitions between orbitals
 -0.3633       2 (A') A                  ->    7 (A") A                   
 -0.3633       2 (A') B                  ->    7 (A") B                   
 -0.2725       2 (A') A                  ->    9 (A") A                   
 -0.2725       2 (A') B                  ->    9 (A") B                   
 -0.2202       2 (A') A                  ->    11 (A") A                  
 -0.2202       2 (A') B                  ->    11 (A") B                  
  0.2048       2 (A') A                  ->    8 (A") A                   
  0.2048       2 (A') B                  ->    8 (A") B                   
  0.2041       2 (A') A                  ->    10 (A") A                  
  0.2041       2 (A') B                  ->    10 (A") B                  
 -0.1884       2 (A') A                  ->    6 (A") A                   
 -0.1884       2 (A') B                  ->    6 (A") B                   
  0.1186       2 (A') A                  ->    13 (A") A                  
  0.1186       2 (A') B                  ->    13 (A") B                  

              Summary of significant orbitals:

               Number  Type             Irrep      Energy
               2       Occ  Alpha       2 (A')    -20.5438
               2       Occ  Beta        2 (A')    -20.5438
               34      Vir  Alpha       6 (A")      0.0695
               35      Vir  Alpha       7 (A")      0.0830
               39      Vir  Alpha       8 (A")      0.1202
               41      Vir  Alpha       9 (A")      0.1306
               45      Vir  Alpha      10 (A")      0.1542
               48      Vir  Alpha      11 (A")      0.1749
               53      Vir  Alpha      13 (A")      0.2334
               34      Vir  Beta        6 (A")      0.0695
               35      Vir  Beta        7 (A")      0.0830
               39      Vir  Beta        8 (A")      0.1202
               41      Vir  Beta        9 (A")      0.1306
               45      Vir  Beta       10 (A")      0.1542
               48      Vir  Beta       11 (A")      0.1749
               53      Vir  Beta       13 (A")      0.2334


 EOMEE transition 5/A"
 Total energy = -394.18976484 a.u.  Excitation energy = 537.4220 eV.
 R0^2 = 0.0000  R1^2 = 0.8267  R2_CCVV^2 = 0.0008  R2_COVV^2 = 0.0862  Res^2 = 1.81e-05
 Conv-d = yes

 Amplitude    Transitions between orbitals
 -0.4342       1 (A') A                  ->    7 (A") A                   
 -0.4342       1 (A') B                  ->    7 (A") B                   
  0.3735       1 (A') A                  ->    6 (A") A                   
  0.3735       1 (A') B                  ->    6 (A") B                   
 -0.1537       1 (A') A                  ->    8 (A") A                   
 -0.1537       1 (A') B                  ->    8 (A") B                   
  0.1140       1 (A') A                  ->    9 (A") A                   
  0.1140       1 (A') B                  ->    9 (A") B                   
  0.1124       1 (A') A                  ->    10 (A") A                  
  0.1124       1 (A') B                  ->    10 (A") B                  
 -0.1055       1 (A') A                  ->    14 (A") A                  
 -0.1055       1 (A') B                  ->    14 (A") B                  

              Summary of significant orbitals:

               Number  Type             Irrep      Energy
               1       Occ  Alpha       1 (A')    -20.5494
               1       Occ  Beta        1 (A')    -20.5494
               34      Vir  Alpha       6 (A")      0.0695
               35      Vir  Alpha       7 (A")      0.0830
               39      Vir  Alpha       8 (A")      0.1202
               41      Vir  Alpha       9 (A")      0.1306
               45      Vir  Alpha      10 (A")      0.1542
               55      Vir  Alpha      14 (A")      0.2575
               34      Vir  Beta        6 (A")      0.0695
               35      Vir  Beta        7 (A")      0.0830
               39      Vir  Beta        8 (A")      0.1202
               41      Vir  Beta        9 (A")      0.1306
               45      Vir  Beta       10 (A")      0.1542
               55      Vir  Beta       14 (A")      0.2575


 EOMEE transition 6/A"
 Total energy = -394.18658522 a.u.  Excitation energy = 537.5085 eV.
 R0^2 = 0.0000  R1^2 = 0.8228  R2_CCVV^2 = 0.0008  R2_COVV^2 = 0.0882  Res^2 = 1.83e-05
 Conv-d = yes

 Amplitude    Transitions between orbitals
 -0.4311       2 (A') A                  ->    6 (A") A                   
 -0.4311       2 (A') B                  ->    6 (A") B                   
  0.3028       2 (A') A                  ->    7 (A") A                   
  0.3028       2 (A') B                  ->    7 (A") B                   
  0.2224       2 (A') A                  ->    10 (A") A                  
  0.2224       2 (A') B                  ->    10 (A") B                  
  0.2158       2 (A') A                  ->    9 (A") A                   
  0.2158       2 (A') B                  ->    9 (A") B                   

              Summary of significant orbitals:

               Number  Type             Irrep      Energy
               2       Occ  Alpha       2 (A')    -20.5438
               2       Occ  Beta        2 (A')    -20.5438
               34      Vir  Alpha       6 (A")      0.0695
               35      Vir  Alpha       7 (A")      0.0830
               41      Vir  Alpha       9 (A")      0.1306
               45      Vir  Alpha      10 (A")      0.1542
               34      Vir  Beta        6 (A")      0.0695
               35      Vir  Beta        7 (A")      0.0830
               41      Vir  Beta        9 (A")      0.1306
               45      Vir  Beta       10 (A")      0.1542


 EOMEE transition 7/A"
 Total energy = -394.14088179 a.u.  Excitation energy = 538.7522 eV.
 R0^2 = 0.0000  R1^2 = 0.8201  R2_CCVV^2 = 0.0008  R2_COVV^2 = 0.0896  Res^2 = 6.35e-05
 Conv-d = yes

 Amplitude    Transitions between orbitals
 -0.3683       2 (A') A                  ->    8 (A") A                   
 -0.3683       2 (A') B                  ->    8 (A") B                   
 -0.3227       2 (A') A                  ->    9 (A") A                   
 -0.3227       2 (A') B                  ->    9 (A") B                   
 -0.2945       2 (A') A                  ->    6 (A") A                   
 -0.2945       2 (A') B                  ->    6 (A") B                   
 -0.1978       2 (A') A                  ->    10 (A") A                  
 -0.1978       2 (A') B                  ->    10 (A") B                  
  0.1353       2 (A') A                  ->    13 (A") A                  
  0.1353       2 (A') B                  ->    13 (A") B                  
  0.1153       2 (A') A                  ->    7 (A") A                   
  0.1153       2 (A') B                  ->    7 (A") B                   

              Summary of significant orbitals:

               Number  Type             Irrep      Energy
               2       Occ  Alpha       2 (A')    -20.5438
               2       Occ  Beta        2 (A')    -20.5438
               34      Vir  Alpha       6 (A")      0.0695
               35      Vir  Alpha       7 (A")      0.0830
               39      Vir  Alpha       8 (A")      0.1202
               41      Vir  Alpha       9 (A")      0.1306
               45      Vir  Alpha      10 (A")      0.1542
               53      Vir  Alpha      13 (A")      0.2334
               34      Vir  Beta        6 (A")      0.0695
               35      Vir  Beta        7 (A")      0.0830
               39      Vir  Beta        8 (A")      0.1202
               41      Vir  Beta        9 (A")      0.1306
               45      Vir  Beta       10 (A")      0.1542
               53      Vir  Beta       13 (A")      0.2334


 EOMEE transition 8/A"
 Total energy = -394.12800843 a.u.  Excitation energy = 539.1025 eV.
 R0^2 = 0.0000  R1^2 = 0.8220  R2_CCVV^2 = 0.0008  R2_COVV^2 = 0.0886  Res^2 = 4.61e-05
 Conv-d = yes

 Amplitude    Transitions between orbitals
 -0.4786       1 (A') A                  ->    8 (A") A                   
 -0.4786       1 (A') B                  ->    8 (A") B                   
  0.2385       1 (A') A                  ->    10 (A") A                  
  0.2385       1 (A') B                  ->    10 (A") B                  
 -0.2333       1 (A') A                  ->    6 (A") A                   
 -0.2333       1 (A') B                  ->    6 (A") B                   
  0.1301       1 (A') A                  ->    12 (A") A                  
  0.1301       1 (A') B                  ->    12 (A") B                  
  0.1267       1 (A') A                  ->    13 (A") A                  
  0.1267       1 (A') B                  ->    13 (A") B                  
 -0.1119       1 (A') A                  ->    9 (A") A                   
 -0.1119       1 (A') B                  ->    9 (A") B                   
  0.1104       1 (A') A                  ->    11 (A") A                  
  0.1104       1 (A') B                  ->    11 (A") B                  

              Summary of significant orbitals:

               Number  Type             Irrep      Energy
               1       Occ  Alpha       1 (A')    -20.5494
               1       Occ  Beta        1 (A')    -20.5494
               34      Vir  Alpha       6 (A")      0.0695
               39      Vir  Alpha       8 (A")      0.1202
               41      Vir  Alpha       9 (A")      0.1306
               45      Vir  Alpha      10 (A")      0.1542
               48      Vir  Alpha      11 (A")      0.1749
               52      Vir  Alpha      12 (A")      0.2076
               53      Vir  Alpha      13 (A")      0.2334
               34      Vir  Beta        6 (A")      0.0695
               39      Vir  Beta        8 (A")      0.1202
               41      Vir  Beta        9 (A")      0.1306
               45      Vir  Beta       10 (A")      0.1542
               48      Vir  Beta       11 (A")      0.1749
               52      Vir  Beta       12 (A")      0.2076
               53      Vir  Beta       13 (A")      0.2334


 EOMEE transition 9/A"
 Total energy = -394.12746996 a.u.  Excitation energy = 539.1171 eV.
 R0^2 = 0.0000  R1^2 = 0.8193  R2_CCVV^2 = 0.0008  R2_COVV^2 = 0.0899  Res^2 = 6.19e-05
 Conv-d = yes

[...]
   ||gamma^AB||*||gamma^BA||: 0.784649

 ------------------------------------------------------------------------------
 State A: ccsd: 0/A'
 State B: cvs_eomee_ccsd/rhfref/singlets: 6/A'
 Transition dipole moment (a.u.):
   A->B: 0.009009 (X 0.004651, Y 0.007715, Z 0.000000)
   B->A: 0.009343 (X 0.004664, Y 0.008096, Z 0.000000)
 Oscillator strength (a.u.): 0.001108
 Norm of one-particle transition density matrix:
   A->B: 0.908372;   B->A: 0.868721
   ||gamma^AB||*||gamma^BA||: 0.789122

 ------------------------------------------------------------------------------
 State A: ccsd: 0/A'
 State B: cvs_eomee_ccsd/rhfref/singlets: 7/A'
 Transition dipole moment (a.u.):
   A->B: 0.012272 (X -0.008300, Y -0.009040, Z 0.000000)
   B->A: 0.012522 (X -0.008431, Y -0.009258, Z 0.000000)
 Oscillator strength (a.u.): 0.002025
 Norm of one-particle transition density matrix:
   A->B: 0.906280;   B->A: 0.865331
   ||gamma^AB||*||gamma^BA||: 0.784233

 ------------------------------------------------------------------------------
 State A: ccsd: 0/A'
 State B: cvs_eomee_ccsd/rhfref/singlets: 8/A'
 Transition dipole moment (a.u.):
   A->B: 0.015156 (X -0.009812, Y 0.011551, Z 0.000000)
   B->A: 0.015307 (X -0.009754, Y 0.011797, Z 0.000000)
 Oscillator strength (a.u.): 0.003057
 Norm of one-particle transition density matrix:
   A->B: 0.908389;   B->A: 0.869119
   ||gamma^AB||*||gamma^BA||: 0.789498

 ------------------------------------------------------------------------------
 State A: ccsd: 0/A'
 State B: cvs_eomee_ccsd/rhfref/singlets: 9/A'
 Transition dipole moment (a.u.):
   A->B: 0.006275 (X -0.005842, Y -0.002292, Z 0.000000)
   B->A: 0.006358 (X -0.005918, Y -0.002324, Z 0.000000)
 Oscillator strength (a.u.): 0.000526
 Norm of one-particle transition density matrix:
   A->B: 0.907030;   B->A: 0.865361
   ||gamma^AB||*||gamma^BA||: 0.784908

 ------------------------------------------------------------------------------
 State A: ccsd: 0/A'
 State B: cvs_eomee_ccsd/rhfref/singlets: 10/A'
 Transition dipole moment (a.u.):
   A->B: 0.005470 (X -0.001978, Y 0.005100, Z 0.000000)
   B->A: 0.005488 (X -0.001953, Y 0.005129, Z 0.000000)
 Oscillator strength (a.u.): 0.000396
 Norm of one-particle transition density matrix:
   A->B: 0.908621;   B->A: 0.868222
   ||gamma^AB||*||gamma^BA||: 0.788885

 ------------------------------------------------------------------------------
 State A: ccsd: 0/A'
 State B: cvs_eomee_ccsd/rhfref/singlets: 1/A"
 Transition dipole moment (a.u.):
   A->B: 0.050568 (X 0.000000, Y 0.000000, Z 0.050568)
   B->A: 0.053664 (X 0.000000, Y 0.000000, Z 0.053664)
 Oscillator strength (a.u.): 0.035426
 Norm of one-particle transition density matrix:
   A->B: 0.887284;   B->A: 0.889092
   ||gamma^AB||*||gamma^BA||: 0.788877

 ------------------------------------------------------------------------------
 State A: ccsd: 0/A'
 State B: cvs_eomee_ccsd/rhfref/singlets: 2/A"
 Transition dipole moment (a.u.):
   A->B: 0.049037 (X 0.000000, Y 0.000000, Z -0.049037)
   B->A: 0.051809 (X 0.000000, Y 0.000000, Z -0.051809)
 Oscillator strength (a.u.): 0.033225
 Norm of one-particle transition density matrix:
   A->B: 0.891704;   B->A: 0.889662
   ||gamma^AB||*||gamma^BA||: 0.793315

 ------------------------------------------------------------------------------
 State A: ccsd: 0/A'
 State B: cvs_eomee_ccsd/rhfref/singlets: 3/A"
 Transition dipole moment (a.u.):
   A->B: 0.005379 (X 0.000000, Y 0.000000, Z -0.005379)
   B->A: 0.005758 (X 0.000000, Y 0.000000, Z -0.005758)
 Oscillator strength (a.u.): 0.000408
 Norm of one-particle transition density matrix:
   A->B: 0.876470;   B->A: 0.859844
   ||gamma^AB||*||gamma^BA||: 0.753628

 ------------------------------------------------------------------------------
 State A: ccsd: 0/A'
 State B: cvs_eomee_ccsd/rhfref/singlets: 4/A"
 Transition dipole moment (a.u.):
   A->B: 0.005557 (X 0.000000, Y 0.000000, Z 0.005557)
   B->A: 0.006041 (X 0.000000, Y 0.000000, Z 0.006041)
 Oscillator strength (a.u.): 0.000442
 Norm of one-particle transition density matrix:
   A->B: 0.884651;   B->A: 0.859090
   ||gamma^AB||*||gamma^BA||: 0.759994

 ------------------------------------------------------------------------------
 State A: ccsd: 0/A'
 State B: cvs_eomee_ccsd/rhfref/singlets: 5/A"
 Transition dipole moment (a.u.):
   A->B: 0.011086 (X 0.000000, Y 0.000000, Z 0.011086)
   B->A: 0.011917 (X 0.000000, Y 0.000000, Z 0.011917)
 Oscillator strength (a.u.): 0.001739
 Norm of one-particle transition density matrix:
   A->B: 0.909749;   B->A: 0.870310
   ||gamma^AB||*||gamma^BA||: 0.791764

 ------------------------------------------------------------------------------
 State A: ccsd: 0/A'
 State B: cvs_eomee_ccsd/rhfref/singlets: 6/A"
 Transition dipole moment (a.u.):
   A->B: 0.012364 (X 0.000000, Y 0.000000, Z 0.012364)
   B->A: 0.013016 (X 0.000000, Y 0.000000, Z 0.013016)
 Oscillator strength (a.u.): 0.002119
 Norm of one-particle transition density matrix:
   A->B: 0.906530;   B->A: 0.866321
   ||gamma^AB||*||gamma^BA||: 0.785346

 ------------------------------------------------------------------------------
 State A: ccsd: 0/A'
 State B: cvs_eomee_ccsd/rhfref/singlets: 7/A"
 Transition dipole moment (a.u.):
   A->B: 0.008284 (X 0.000000, Y 0.000000, Z -0.008284)
   B->A: 0.008651 (X 0.000000, Y 0.000000, Z -0.008651)
 Oscillator strength (a.u.): 0.000946
 Norm of one-particle transition density matrix:
   A->B: 0.905751;   B->A: 0.864299
   ||gamma^AB||*||gamma^BA||: 0.782840

 ------------------------------------------------------------------------------
 State A: ccsd: 0/A'
 State B: cvs_eomee_ccsd/rhfref/singlets: 8/A"
 Transition dipole moment (a.u.):
   A->B: 0.008721 (X 0.000000, Y 0.000000, Z 0.008721)
   B->A: 0.008808 (X 0.000000, Y 0.000000, Z 0.008808)
 Oscillator strength (a.u.): 0.001015
 Norm of one-particle transition density matrix:
   A->B: 0.907333;   B->A: 0.866990
   ||gamma^AB||*||gamma^BA||: 0.786649

 ------------------------------------------------------------------------------
 State A: ccsd: 0/A'
 State B: cvs_eomee_ccsd/rhfref/singlets: 9/A"
 Transition dipole moment (a.u.):
   A->B: 0.008437 (X 0.000000, Y 0.000000, Z 0.008437)
   B->A: 0.008395 (X 0.000000, Y 0.000000, Z 0.008395)
 Oscillator strength (a.u.): 0.000936
 Norm of one-particle transition density matrix:
   A->B: 0.904367;   B->A: 0.863886
   ||gamma^AB||*||gamma^BA||: 0.781270

 ------------------------------------------------------------------------------
 State A: ccsd: 0/A'
 State B: cvs_eomee_ccsd/rhfref/singlets: 10/A"
 Transition dipole moment (a.u.):
   A->B: 0.009255 (X 0.000000, Y 0.000000, Z -0.009255)
   B->A: 0.009370 (X 0.000000, Y 0.000000, Z -0.009370)
 Oscillator strength (a.u.): 0.001146
 Norm of one-particle transition density matrix:
   A->B: 0.907899;   B->A: 0.866759
   ||gamma^AB||*||gamma^BA||: 0.786930


 All requested transition properties have been computed

 Transition Properties:   CPU 405.85 s  wall 69.85 s

 Total ccman2 time:   CPU 50945.20 s  wall 6776.67 s

 
 --------------------------------------------------------------
             Orbital Energies (a.u.) and Symmetries
 --------------------------------------------------------------
 
 Alpha MOs, Restricted
 -- Occupied --                  
-20.549 -20.544 -15.652 -15.635 -11.429 -11.391 -11.348 -11.262
  1 A'    2 A'    3 A'    4 A'    5 A'    6 A'    7 A'    8 A'                 
 -1.439  -1.401  -1.316  -1.249  -1.091  -0.936  -0.904  -0.809
  9 A'   10 A'   11 A'   12 A'   13 A'   14 A'   15 A'   16 A'                 
 -0.767  -0.716  -0.679  -0.669  -0.654  -0.616  -0.603  -0.572
 17 A'   18 A'   19 A'    1 A"   20 A'   21 A'   22 A'    2 A"                 
 -0.526  -0.485  -0.450  -0.437  -0.369
  3 A"   23 A'   24 A'    4 A"    5 A"                                         
 -- Virtual --                   
  0.019   0.040   0.049   0.060   0.070   0.083   0.096   0.100
 25 A'   26 A'   27 A'   28 A'    6 A"    7 A"   29 A'   30 A'                 
  0.116   0.120   0.125   0.131   0.134   0.145   0.146   0.154
 31 A'    8 A"   32 A'    9 A"   33 A'   34 A'   35 A'   10 A"                 
  0.166   0.172   0.175   0.186   0.194   0.202   0.208   0.233
 36 A'   37 A'   11 A"   38 A'   39 A'   40 A'   12 A"   13 A"                 
  0.252   0.257   0.264   0.277   0.280   0.286   0.288   0.290
 41 A'   14 A"   42 A'   43 A'   44 A'   45 A'   46 A'   15 A"                 
  0.295   0.308   0.312   0.326   0.331   0.340   0.364   0.369
 47 A'   16 A"   48 A'   49 A'   50 A'   51 A'   17 A"   52 A'                 
  0.374   0.390   0.400   0.406   0.437   0.440   0.441   0.468
 53 A'   54 A'   55 A'   56 A'   57 A'   58 A'   18 A"   59 A'                 
  0.474   0.483   0.493   0.511   0.512   0.540   0.552   0.561
 19 A"   60 A'   20 A"   21 A"   61 A'   62 A'   63 A'   64 A'                 
  0.568   0.587   0.604   0.608   0.621   0.629   0.632   0.640
 65 A'   22 A"   23 A"   66 A'   67 A'   68 A'   24 A"   69 A'                 
  0.672   0.675   0.678   0.689   0.700   0.719   0.741   0.747
 70 A'   25 A"   71 A'   72 A'   26 A"   73 A'   74 A'   75 A'                 
  0.766   0.771   0.778   0.782   0.800   0.807   0.808   0.829
 76 A'   77 A'   27 A"   78 A'   79 A'   28 A"   80 A'   81 A'                 
  0.831   0.841   0.865   0.873   0.882   0.886   0.907   0.909
 29 A"   82 A'   30 A"   83 A'   84 A'   31 A"   32 A"   85 A'                 
  0.932   0.933   0.959   0.971   0.973   0.986   0.992   1.001
 33 A"   86 A'   34 A"   87 A'   35 A"   88 A'   89 A'   90 A'                 
  1.015   1.026   1.072   1.076   1.084   1.109   1.130   1.131
 91 A'   36 A"   92 A'   37 A"   93 A'   94 A'   95 A'   38 A"                 
  1.143   1.152   1.185   1.205   1.244   1.271   1.321   1.366
 39 A"   96 A'   97 A'   98 A'   40 A"   99 A'  100 A'  101 A'                 
  1.435   1.458   1.484   1.503   1.528   1.540   1.547   1.560
102 A'   41 A"  103 A'  104 A'   42 A"  105 A'   43 A"  106 A'                 
  1.585   1.602   1.618   1.645   1.667   1.670   1.727   1.740
 44 A"  107 A'   45 A"  108 A'  109 A'   46 A"  110 A'  111 A'                 
  1.740   1.756   1.764   1.821   1.833   1.858   1.872   1.880
 47 A"   48 A"  112 A'  113 A'   49 A"  114 A'  115 A'   50 A"                 
  1.899   1.911   1.939   1.962   2.020   2.020   2.069   2.097
 51 A"  116 A'  117 A'  118 A'  119 A'   52 A"  120 A'  121 A'                 
  2.109   2.120   2.137   2.149   2.177   2.184   2.199   2.209
122 A'   53 A"   54 A"  123 A'  124 A'   55 A"   56 A"  125 A'                 
  2.223   2.247   2.264   2.288   2.302   2.317   2.339   2.346
 57 A"  126 A'   58 A"  127 A'  128 A'  129 A'  130 A'   59 A"                 
  2.376   2.389   2.408   2.455   2.460   2.480   2.500   2.505
131 A'   60 A"  132 A'   61 A"  133 A'  134 A'   62 A"  135 A'                 
  2.530   2.538   2.552   2.602   2.620   2.635   2.659   2.694
136 A'   63 A"  137 A'   64 A"  138 A'  139 A'  140 A'  141 A'                 
  2.701   2.725   2.737   2.763   2.781   2.805   2.826   2.865
 65 A"  142 A'   66 A"  143 A'  144 A'  145 A'   67 A"  146 A'                 
  2.891   2.896   2.903   2.992   3.014   3.056   3.070   3.084
147 A'  148 A'   68 A"  149 A'  150 A'  151 A'   69 A"   70 A"                 
  3.114   3.121   3.202   3.282   3.400   3.496   3.567   3.703
152 A'  153 A'  154 A'  155 A'  156 A'  157 A'  158 A'  159 A'                 
  3.742   3.851   4.106   4.627   4.668   4.677   4.695   4.931
160 A'  161 A'  162 A'   71 A"  163 A'   72 A"  164 A'  165 A'                 
  4.962   5.272   5.340   6.542   6.549   6.571   6.574   6.581
166 A'  167 A'  168 A'   73 A"   74 A"   75 A"   76 A"  169 A'                 
  6.610   6.613   6.640   6.704   6.723   6.761   6.870   6.965
170 A'   77 A"   78 A"  171 A'  172 A'  173 A'  174 A'  175 A'                 
  7.009   7.122   7.149   7.165   7.179   7.265   7.272   7.386
176 A'   79 A"   80 A"  177 A'  178 A'   81 A"   82 A"  179 A'                 
  7.417   7.628   7.648  12.838  12.880
180 A'  181 A'  182 A'  183 A'  184 A'                                         
 
 Beta MOs, Restricted
 -- Occupied --                  
-20.549 -20.544 -15.652 -15.635 -11.429 -11.391 -11.348 -11.262
  1 A'    2 A'    3 A'    4 A'    5 A'    6 A'    7 A'    8 A'                 
 -1.439  -1.401  -1.316  -1.249  -1.091  -0.936  -0.904  -0.809
  9 A'   10 A'   11 A'   12 A'   13 A'   14 A'   15 A'   16 A'                 
 -0.767  -0.716  -0.679  -0.669  -0.654  -0.616  -0.603  -0.572
 17 A'   18 A'   19 A'    1 A"   20 A'   21 A'   22 A'    2 A"                 
 -0.526  -0.485  -0.450  -0.437  -0.369
  3 A"   23 A'   24 A'    4 A"    5 A"                                         
 -- Virtual --                   
  0.019   0.040   0.049   0.060   0.070   0.083   0.096   0.100
 25 A'   26 A'   27 A'   28 A'    6 A"    7 A"   29 A'   30 A'                 
  0.116   0.120   0.125   0.131   0.134   0.145   0.146   0.154
 31 A'    8 A"   32 A'    9 A"   33 A'   34 A'   35 A'   10 A"                 
  0.166   0.172   0.175   0.186   0.194   0.202   0.208   0.233
 36 A'   37 A'   11 A"   38 A'   39 A'   40 A'   12 A"   13 A"                 
  0.252   0.257   0.264   0.277   0.280   0.286   0.288   0.290
 41 A'   14 A"   42 A'   43 A'   44 A'   45 A'   46 A'   15 A"                 
  0.295   0.308   0.312   0.326   0.331   0.340   0.364   0.369
 47 A'   16 A"   48 A'   49 A'   50 A'   51 A'   17 A"   52 A'                 
  0.374   0.390   0.400   0.406   0.437   0.440   0.441   0.468
 53 A'   54 A'   55 A'   56 A'   57 A'   58 A'   18 A"   59 A'                 
  0.474   0.483   0.493   0.511   0.512   0.540   0.552   0.561
 19 A"   60 A'   20 A"   21 A"   61 A'   62 A'   63 A'   64 A'                 
  0.568   0.587   0.604   0.608   0.621   0.629   0.632   0.640
 65 A'   22 A"   23 A"   66 A'   67 A'   68 A'   24 A"   69 A'                 
  0.672   0.675   0.678   0.689   0.700   0.719   0.741   0.747
 70 A'   25 A"   71 A'   72 A'   26 A"   73 A'   74 A'   75 A'                 
  0.766   0.771   0.778   0.782   0.800   0.807   0.808   0.829
 76 A'   77 A'   27 A"   78 A'   79 A'   28 A"   80 A'   81 A'                 
  0.831   0.841   0.865   0.873   0.882   0.886   0.907   0.909
 29 A"   82 A'   30 A"   83 A'   84 A'   31 A"   32 A"   85 A'                 
  0.932   0.933   0.959   0.971   0.973   0.986   0.992   1.001
 33 A"   86 A'   34 A"   87 A'   35 A"   88 A'   89 A'   90 A'                 
  1.015   1.026   1.072   1.076   1.084   1.109   1.130   1.131
 91 A'   36 A"   92 A'   37 A"   93 A'   94 A'   95 A'   38 A"                 
  1.143   1.152   1.185   1.205   1.244   1.271   1.321   1.366
 39 A"   96 A'   97 A'   98 A'   40 A"   99 A'  100 A'  101 A'                 
  1.435   1.458   1.484   1.503   1.528   1.540   1.547   1.560
102 A'   41 A"  103 A'  104 A'   42 A"  105 A'   43 A"  106 A'                 
  1.585   1.602   1.618   1.645   1.667   1.670   1.727   1.740
 44 A"  107 A'   45 A"  108 A'  109 A'   46 A"  110 A'  111 A'                 
  1.740   1.756   1.764   1.821   1.833   1.858   1.872   1.880
 47 A"   48 A"  112 A'  113 A'   49 A"  114 A'  115 A'   50 A"                 
  1.899   1.911   1.939   1.962   2.020   2.020   2.069   2.097
 51 A"  116 A'  117 A'  118 A'  119 A'   52 A"  120 A'  121 A'                 
  2.109   2.120   2.137   2.149   2.177   2.184   2.199   2.209
122 A'   53 A"   54 A"  123 A'  124 A'   55 A"   56 A"  125 A'                 
  2.223   2.247   2.264   2.288   2.302   2.317   2.339   2.346
 57 A"  126 A'   58 A"  127 A'  128 A'  129 A'  130 A'   59 A"                 
  2.376   2.389   2.408   2.455   2.460   2.480   2.500   2.505
131 A'   60 A"  132 A'   61 A"  133 A'  134 A'   62 A"  135 A'                 
  2.530   2.538   2.552   2.602   2.620   2.635   2.659   2.694
136 A'   63 A"  137 A'   64 A"  138 A'  139 A'  140 A'  141 A'                 
  2.701   2.725   2.737   2.763   2.781   2.805   2.826   2.865
 65 A"  142 A'   66 A"  143 A'  144 A'  145 A'   67 A"  146 A'                 
  2.891   2.896   2.903   2.992   3.014   3.056   3.070   3.084
147 A'  148 A'   68 A"  149 A'  150 A'  151 A'   69 A"   70 A"                 
  3.114   3.121   3.202   3.282   3.400   3.496   3.567   3.703
152 A'  153 A'  154 A'  155 A'  156 A'  157 A'  158 A'  159 A'                 
  3.742   3.851   4.106   4.627   4.668   4.677   4.695   4.931
160 A'  161 A'  162 A'   71 A"  163 A'   72 A"  164 A'  165 A'                 
  4.962   5.272   5.340   6.542   6.549   6.571   6.574   6.581
166 A'  167 A'  168 A'   73 A"   74 A"   75 A"   76 A"  169 A'                 
  6.610   6.613   6.640   6.704   6.723   6.761   6.870   6.965
170 A'   77 A"   78 A"  171 A'  172 A'  173 A'  174 A'  175 A'                 
  7.009   7.122   7.149   7.165   7.179   7.265   7.272   7.386
176 A'   79 A"   80 A"  177 A'  178 A'   81 A"   82 A"  179 A'                 
  7.417   7.628   7.648  12.838  12.880
180 A'  181 A'  182 A'  183 A'  184 A'                                         
 --------------------------------------------------------------
 
          Ground-State Mulliken Net Atomic Charges

     Atom                 Charge (a.u.)
  ----------------------------------------
      1 C                     0.772958
      2 H                    -0.059877
      3 H                    -0.334032
      4 H                    -0.047304
      5 C                     1.012913
      6 O                    -0.669707
      7 C                     0.351128
      8 O                    -0.680109
      9 N                    -0.508540
     10 N                    -0.570964
     11 C                     1.117063
     12 H                    -0.383529
  ----------------------------------------
  Sum of atomic charges =     0.000000

 -----------------------------------------------------------------
                    Cartesian Multipole Moments
 -----------------------------------------------------------------
    Charge (ESU x 10^10)
                 0.0000
    Dipole Moment (Debye)
         X      -1.3646      Y      -4.8252      Z      -0.0000
       Tot       5.0145
    Quadrupole Moments (Debye-Ang)
        XX     -60.0692     XY       2.4924     YY     -38.2086
        XZ       0.0000     YZ       0.0000     ZZ     -46.8516
    Octopole Moments (Debye-Ang^2)
       XXX     -10.9909    XXY     -33.5394    XYY      -5.3009
       YYY      -8.4944    XXZ       0.0000    XYZ      -0.0000
       YYZ       0.0000    XZZ      -1.9217    YZZ       4.4252
       ZZZ       0.0000
    Hexadecapole Moments (Debye-Ang^3)
      XXXX    -721.4629   XXXY      12.5186   XXYY    -175.4403
      XYYY      13.5308   YYYY    -305.3523   XXXZ       0.0000
      XXYZ       0.0000   XYYZ       0.0000   YYYZ      -0.0000
      XXZZ    -113.6004   XYZZ       3.0451   YYZZ     -75.3538
      XZZZ       0.0000   YZZZ      -0.0000   ZZZZ     -46.5576
 -----------------------------------------------------------------
Archival summary:
1\1\n-62-29-24\SP\ProcedureUnspecified\BasisUnspecified\2244\malop\SatSep2213:06:122018SatSep2213:06:122018\0\\#,ProcedureUnspecified,BasisUnspecified,\\0,1\N\H,1,1.01081\C,1,1.37966,2,115.327\O,3,1.21479,1,124.21,2,-0,0\N,3,1.3852,1,112.713,2,-180,0\H,5,1.00619,3,115.142,1,-180,0\C,5,1.37008,3,123.626,1,-0,0\H,7,1.07981,5,115.516,3,-180,0\C,7,1.34802,5,121.979,3,-0,0\H,9,1.07615,7,121.525,5,180,0\C,1,1.40335,2,116.035,3,-180,0\O,11,1.21832,1,120.541,2,-0,0\\HF=-412.562706\\@

 Total job time:  6895.41s(wall), 51890.15s(cpu) 
 Sat Sep 22 13:06:12 2018

        *************************************************************
        *                                                           *
        *  Thank you very much for using Q-Chem.  Have a nice day.  *
        *                                                           *
        *************************************************************


