n-62-23-21 10.66.23
Q-Chem Developer Version! Running on 10.66.23.*
                  Welcome to Q-Chem
     A Quantum Leap Into The Future Of Chemistry


 Q-Chem 5.1, Q-Chem, Inc., Pleasanton, CA (2018)

 Yihan Shao,  Zhengting Gan,  E. Epifanovsky,  A. T. B. Gilbert,  M. Wormit,  
 J. Kussmann,  A. W. Lange,  A. Behn,  Jia Deng,  Xintian Feng,  D. Ghosh,  
 M. Goldey,  P. R. Horn,  L. D. Jacobson,  I. Kaliman,  T. Kus,  A. Landau,  
 Jie Liu,  E. I. Proynov,  R. M. Richard,  R. P. Steele,  E. J. Sundstrom,  
 H. L. Woodcock III,  P. M. Zimmerman,  D. Zuev,  B. Albrecht,  E. Alguire,  
 S. A. Baeppler,  D. Barton,  Z. Benda,  Y. A. Bernard,  E. J. Berquist,  
 K. B. Bravaya,  H. Burton,  D. Casanova,  Chun-Min Chang,  Yunqing Chen,  
 A. Chien,  K. D. Closser,  M. P. Coons,  S. Coriani,  S. Dasgupta,  
 A. L. Dempwolff,  M. Diedenhofen,  Hainam Do,  R. G. Edgar,  Po-Tung Fang,  
 S. Faraji,  S. Fatehi,  Qingguo Feng,  K. D. Fenk,  J. Fosso-Tande,  
 Qinghui Ge,  A. Ghysels,  G. Gidofalvi,  J. Gomes,  J. Gonthier,  A. Gunina,  
 M. W. D. Hanson-Heine,  P. H. P. Harbach,  A. W. Hauser,  J. E. Herr,  
 E. G. Hohenstein,  Z. C. Holden,  Kerwin Hui,  T.-C. Jagau,  Hyunjun Ji,  
 B. Kaduk,  K. Khistyaev,  Jaehoon Kim,  P. Klunzinger,  K. Koh,  
 D. Kosenkov,  L. Koulias,  T. Kowalczyk,  C. M. Krauter,  A. Kunitsa,  
 Ka Un Lao,  A. Laurent,  K. V. Lawler,  Joonho Lee,  D. Lefrancois,  
 S. Lehtola,  D. S. Levine,  Yi-Pei Li,  You-Sheng Lin,  Fenglai Liu,  
 E. Livshits,  A. Luenser,  P. Manohar,  E. Mansoor,  S. F. Manzer,  
 Shan-Ping Mao,  Yuezhi Mao,  N. Mardirossian,  A. V. Marenich,  
 T. Markovich,  L. A. Martinez-Martinez,  S. A. Maurer,  N. J. Mayhall,  
 S. C. McKenzie,  J.-M. Mewes,  A. F. Morrison,  J. W. Mullinax,  K. Nanda,  
 T. S. Nguyen-Beck,  R. Olivares-Amaya,  J. A. Parkhill,  T. M. Perrine,  
 F. Plasser,  P. Pokhilko,  S. Prager,  A. Prociuk,  E. Ramos,  D. R. Rehn,  
 F. Rob,  M. Schneider,  N. Sergueev,  S. M. Sharada,  S. Sharma,  
 D. W. Small,  T. Stauch,  T. Stein,  Yu-Chuan Su,  A. J. W. Thom,  
 A. Tkatchenko,  T. Tsuchimochi,  N. M. Tubman,  L. Vogt,  M. L. Vidal,  
 O. Vydrov,  M. A. Watson,  J. Wenzel,  M. de Wergifosse,  T. A. Wesolowski,  
 A. White,  J. Witte,  A. Yamada,  Jun Yang,  K. Yao,  S. Yeganeh,  
 S. R. Yost,  Zhi-Qiang You,  A. Zech,  Igor Ying Zhang,  Xing Zhang,  
 Yan Zhao,  Ying Zhu,  B. R. Brooks,  G. K. L. Chan,  C. J. Cramer,  
 M. S. Gordon,  W. J. Hehre,  A. Klamt,  M. W. Schmidt,  C. D. Sherrill,  
 D. G. Truhlar,  A. Aspuru-Guzik,  R. Baer,  A. T. Bell,  N. A. Besley,  
 Jeng-Da Chai,  R. A. DiStasio Jr.,  A. Dreuw,  B. D. Dunietz,  
 T. R. Furlani,  Chao-Ping Hsu,  Yousung Jung,  Jing Kong,  D. S. Lambrecht,  
 WanZhen Liang,  C. Ochsenfeld,  V. A. Rassolov,  L. V. Slipchenko,  
 J. E. Subotnik,  T. Van Voorhis,  J. M. Herbert,  A. I. Krylov,  
 P. M. W. Gill,  M. Head-Gordon

 Contributors to earlier versions of Q-Chem not listed above: 
 R. D. Adamson,  B. Austin,  J. Baker,  G. J. O. Beran,  K. Brandhorst,  
 S. T. Brown,  E. F. C. Byrd,  A. K. Chakraborty,  C.-L. Cheng,  
 Siu Hung Chien,  D. M. Chipman,  D. L. Crittenden,  H. Dachsel,  
 R. J. Doerksen,  A. D. Dutoi,  L. Fusti-Molnar,  W. A. Goddard III,  
 A. Golubeva-Zadorozhnaya,  S. R. Gwaltney,  G. Hawkins,  A. Heyden,  
 S. Hirata,  G. Kedziora,  F. J. Keil,  C. Kelley,  Jihan Kim,  R. A. King,  
 R. Z. Khaliullin,  P. P. Korambath,  W. Kurlancheek,  A. M. Lee,  M. S. Lee,  
 S. V. Levchenko,  Ching Yeh Lin,  D. Liotard,  R. C. Lochan,  I. Lotan,  
 P. E. Maslen,  N. Nair,  D. P. O'Neill,  D. Neuhauser,  E. Neuscamman,  
 C. M. Oana,  R. Olson,  B. Peters,  R. Peverati,  P. A. Pieniazek,  
 Y. M. Rhee,  J. Ritchie,  M. A. Rohrdanz,  E. Rosta,  N. J. Russ,  
 H. F. Schaefer III,  N. E. Schultz,  N. Shenvi,  A. C. Simmonett,  A. Sodt,  
 D. Stuck,  K. S. Thanthiriwatte,  V. Vanovschi,  Tao Wang,  A. Warshel,  
 C. F. Williams,  Q. Wu,  X. Xu,  W. Zhang

 Please cite Q-Chem as follows:
 Y. Shao et al., Mol. Phys. 113, 184-215 (2015)
 DOI: 10.1080/00268976.2014.952696

 Q-Chem 5.1.0 for Intel X86 EM64T Linux

 Parts of Q-Chem use Armadillo 8.300.2 (Tropical Shenanigans).
 http://arma.sourceforge.net/

 Q-Chem begins on Mon Sep 24 17:14:17 2018  

Host: 
0

     Scratch files written to /work1/malop/qc_7276312.hnode2//

Checking the input file for inconsistencies... 	...done.

--------------------------------------------------------------
User input:
--------------------------------------------------------------
$comment 
URACIL S0 C-edge 
optimizion: mp2/cc-pvtz
$end

$molecule
0 1
C        0.052842   -1.701332    0.000000    
H       -2.016793   -1.512231    0.000000    
H       -0.025494   -2.778299    0.000000    
H       -0.023568    1.988544    0.000000    
C       -1.232948    0.358893    0.000000    
O       -2.294123    0.950188    0.000000    
C        1.274970    0.391620    0.000000    
O        2.275873    1.086244    0.000000    
N        0.000000    0.978006    0.000000    
N       -1.137535   -1.023018    0.000000    
C        1.239239   -1.061325    0.000000    
H        2.169983   -1.601520    0.000000    
$end

$rem
    jobtype = sp
    method = eom-ccsd
    cvs_ee_singlets    [10,12]
    eom_preconv_singles = true
    basis = gen
    n_frozen_core = fc 
    cc_trans_prop = true
   use_libqints = 1   !use new int library (will be def in trunk)
   thresh = 14   !this already should be default, but just in case
   scf_convergence = 12   !v. tight scf convergence, to reduce noise
   cc_convergence = 12   !tight CC, for the same reason
   basis_lin_dep_thresh = 8  !default is 6, use smaller, just in case
   cc_memory = 100000
   EOM_DAVIDSON_MAX_ITER 200
   EOM_DAVIDSON_MAXVECTORS = 1000
   eom_davidson_convergence = 4 
   eom_shift = 10500
$end

$basis
C 0
aug-cc-pVTZ
N 0
aug-cc-pVDZ
O 0
aug-cc-pVDZ
H 0
aug-cc-pVDZ
$end

--------------------------------------------------------------
 ----------------------------------------------------------------
             Standard Nuclear Orientation (Angstroms)
    I     Atom           X                Y                Z
 ----------------------------------------------------------------
    1      C      -0.0071423615    -1.7021374661    -0.0000000000
    2      H      -2.0688284730    -1.4402241233     0.0000000000
    3      H      -0.1233798667    -2.7756752113     0.0000000000
    4      H       0.0465189185     1.9881394681    -0.0000000000
    5      C      -1.2195356258     0.4021166886     0.0000000000
    6      O      -2.2592155329     1.0304381418     0.0000000000
    7      C       1.2879780632     0.3464493659    -0.0000000000
    8      O       2.3127366072     1.0053721559    -0.0000000000
    9      N       0.0344629504     0.9773985746    -0.0000000000
   10      N      -1.1728776526    -0.9822982369     0.0000000000
   11      C       1.2010703878    -1.1043341925    -0.0000000000
   12      H       2.1122009607    -1.6769912546    -0.0000000000
 ----------------------------------------------------------------
 Molecular Point Group                 Cs    NOp =  2
 Largest Abelian Subgroup              Cs    NOp =  2
 Nuclear Repulsion Energy =   357.0116303482 hartrees
 There are       29 alpha and       29 beta electrons

 Q-Chem warning in module forms1/BasisType.C, line 1685:

 Setting pure/cartesian flag to 2111 for general basis


 Requested basis set is non-standard
 There are 112 shells and 312 basis functions
MEM_TOTAL is adjusted to CC_MEMORY + MEM_STATIC!
 Total memory of 100192MB is distributed as follows: 
   QALLOC including MEM_STATIC uses 192MB
   MEM_STATIC is set to 192MB
   CCMAN JOB total memory use is  100000MB
 Warning: actual memory use might exceed 100192MB

 Total QAlloc Memory Limit    192 MB
 Mega-Array Size       188 MB
 MEM_STATIC part       192 MB

                       Distance Matrix (Angstroms)
             C (  1)   H (  2)   H (  3)   H (  4)   C (  5)   O (  6)
   H (  2)  2.078256
   H (  3)  1.079812  2.359703
   H (  4)  3.690667  4.028445  4.766843
   C (  5)  2.428535  2.028674  3.361535  2.029375
   O (  6)  3.541017  2.477987  4.364435  2.496718  1.214793
   C (  7)  2.423643  3.802677  3.426309  2.058244  2.508132  3.612537
   O (  8)  3.565452  5.017873  4.497886  2.470136  3.583415  4.572021
   N (  9)  2.679859  3.204487  3.756392  1.010813  1.379660  2.294292
   N ( 10)  1.370076  1.006193  2.077895  3.210986  1.385201  2.287190
   C ( 11)  1.348016  3.287105  2.132498  3.300967  2.851092  4.065813
   H ( 12)  2.119492  4.187728  2.490969  4.207164  3.927233  5.141931
             C (  7)   O (  8)   N (  9)   N ( 10)   C ( 11)
   O (  8)  1.218322
   N (  9)  1.403352  2.278445
   N ( 10)  2.796673  4.012523  2.301756
   C ( 11)  1.453384  2.384672  2.386333  2.377083
   H ( 12)  2.184870  2.689849  3.370872  3.357728  1.076148
 
 A cutoff of  1.0D-14 yielded   6293 shell pairs
 There are     49099 function pairs (     64078 Cartesian)
 
 -------------------------------------------------------
 OpenMP Integral Computing Module                       
 Release: version 1.0, May 2013, Q-Chem Inc. Pittsburgh 
 -------------------------------------------------------
 Integral Job Info:
 Integral job number is                      11
 Integral operator is                         1
 short-range coefficients                     0
 long-range coefficients              100000000
 Omega coefficients                           0
 if combine SR and LR in K                    0
 Integral screening is                        0
 Integral computing path is                   2
 max size of driver memory is            800000
 size of driver memory is                776718
 size of scratch memory is              6691272
 max col of scratch BK array              10000
 max len of scratch array in speh3          662
 max len of scratch index in speh4           32
 max int batch size is                      520
 min int batch size is                       52
 fixed nKL is                                52
 max L of basis functions is                  3
 order of int derivative is                   0
 number of shells is                        112
 number of basis is                         356
 number of cartesian basis is               356
 number of contracted shell pairs          6293
 number of primitive shell pairs          22860
 maxK2 (contraction) of shell pair           64
 max number of K2 of shell pair               1
 max number of CS2 of shell pair            813
 max number of PS2 of shell pair           3680
 mem total for path MDJ                  701084
 -------------------------------------------------------
 Smallest overlap matrix eigenvalue = 6.74E-06

 Scale SEOQF with 1.000000e-01/1.000000e-01/1.000000e-01

 Standard Electronic Orientation quadrupole field applied
 Nucleus-field energy     =     0.0000000098 hartrees
 Guess MOs from core Hamiltonian diagonalization

 -----------------------------------------------------------------------
  General SCF calculation program by
  Eric Jon Sundstrom, Paul Horn, Yuezhi Mao, Dmitri Zuev, Alec White,
  David Stuck, Shaama M.S., Shane Yost, Joonho Lee, David Small,
  Daniel Levine, Susi Lehtola, Hugh Burton, Evgeny Epifanovsky
 -----------------------------------------------------------------------
 Hartree-Fock
 A restricted SCF calculation will be
 performed using DIIS
 SCF converges when DIIS error is below 1.0e-12
 ---------------------------------------
  Cycle       Energy         DIIS error
 ---------------------------------------
    1    -335.9236779708      7.17e-02  
    2    -306.2003177690      5.20e-02  
    3    -323.4823439322      6.13e-02  
    4    -402.0643295389      2.75e-02  
    5    -397.6672473991      2.47e-02  
    6    -410.6560657645      1.22e-02  
    7    -412.4040796946      3.09e-03  
    8    -412.5396699802      1.24e-03  
    9    -412.5664567964      4.31e-04  
   10    -412.5711645888      1.79e-04  
   11    -412.5719410305      1.03e-04  
   12    -412.5722117543      5.51e-05  
   13    -412.5723103599      2.28e-05  
   14    -412.5723208233      4.26e-06  
   15    -412.5723211990      1.22e-06  
   16    -412.5723212304      4.64e-07  
   17    -412.5723212363      2.01e-07  
   18    -412.5723212374      8.11e-08  
   19    -412.5723212376      2.42e-08  
   20    -412.5723212376      6.44e-09  
   21    -412.5723212376      2.15e-09  
   22    -412.5723212376      7.15e-10  
   23    -412.5723212376      2.28e-10  
   24    -412.5723212376      6.11e-11  
   25    -412.5723212376      1.71e-11  
   26    -412.5723212376      6.72e-12  
   27    -412.5723212376      2.98e-12  
   28    -412.5723212376      9.91e-13  Convergence criterion met
 ---------------------------------------
 SCF time:   CPU 1799.15s  wall 181.00s 
 SCF   energy in the final basis set =     -412.5723212376


 ------------------------------------------------------------------------------

   CCMAN2: suite of methods based on coupled cluster
           and equation of motion theories.

   Components:
   * libvmm-1.3-trunk
     by Evgeny Epifanovsky, Ilya Kaliman.
   * libtensor-2.5-trunk
     by Evgeny Epifanovsky, Michael Wormit, Dmitry Zuev, Sam Manzer, 
        Ilya Kaliman.
   * libcc-2.5-trunk
     by Evgeny Epifanovsky, Arik Landau, Tomasz Kus, Kirill Khistyaev, 
        Dmitry Zuev, Prashant Manohar, Xintian Feng, Anna Krylov, 
        Matthew Goldey, Alec White, Thomas Jagau, Kaushik Nanda, 
        Anastasia Gunina, Alexander Kunitsa, Joonho Lee.

   CCMAN original authors:
   Anna I. Krylov, C. David Sherrill, Steven R. Gwaltney,
   Edward F. C. Byrd (2000)
   Sergey V. Levchenko, Lyudmila V. Slipchenko, Tao Wang,
   Ana-Maria C. Cristian (2003)
   Piotr A. Pieniazek, C. Melania Oana, Evgeny Epifanovsky (2007)
   Prashant Manohar (2009)

 ------------------------------------------------------------------------------


 Calculation will run on 10 cores with 100000MB of RAM.

 
 Alpha MOs, Restricted
 -- Occupied --                  
-20.558 -20.553 -15.651 -15.634 -11.421 -11.383 -11.342 -11.256
  1 A'    2 A'    3 A'    4 A'    5 A'    6 A'    7 A'    8 A'                 
 -1.440  -1.403  -1.316  -1.248  -1.090  -0.935  -0.903  -0.808
  9 A'   10 A'   11 A'   12 A'   13 A'   14 A'   15 A'   16 A'                 
 -0.766  -0.715  -0.679  -0.669  -0.655  -0.617  -0.603  -0.572
 17 A'   18 A'   19 A'    1 A"   20 A'   21 A'   22 A'    2 A"                 
 -0.526  -0.484  -0.450  -0.437  -0.370
  3 A"   23 A'   24 A'    4 A"    5 A"                                         
 -- Virtual --                   
  0.017   0.039   0.048   0.058   0.061   0.079   0.083   0.091
 25 A'   26 A'   27 A'   28 A'    6 A"    7 A"   29 A'   30 A'                 
  0.100   0.102   0.108   0.113   0.124   0.135   0.136   0.136
 31 A'    8 A"    9 A"   32 A'   33 A'   34 A'   35 A'   10 A"                 
  0.153   0.155   0.162   0.171   0.181   0.187   0.191   0.218
 36 A'   37 A'   11 A"   38 A'   39 A'   12 A"   40 A'   41 A'                 
  0.227   0.240   0.241   0.250   0.260   0.280   0.294   0.296
 13 A"   42 A'   14 A"   43 A'   44 A'   45 A'   46 A'   15 A"                 
  0.304   0.305   0.309   0.317   0.321   0.328   0.331   0.346
 47 A'   48 A'   49 A'   16 A"   50 A'   17 A"   51 A'   52 A'                 
  0.353   0.372   0.383   0.388   0.393   0.394   0.399   0.412
 53 A'   54 A'   18 A"   55 A'   56 A'   19 A"   57 A'   58 A'                 
  0.420   0.420   0.442   0.458   0.476   0.484   0.495   0.498
 59 A'   20 A"   60 A'   21 A"   61 A'   22 A"   62 A'   23 A"                 
  0.505   0.508   0.508   0.526   0.530   0.548   0.552   0.570
 63 A'   24 A"   64 A'   25 A"   65 A'   66 A'   67 A'   26 A"                 
  0.573   0.584   0.590   0.622   0.638   0.638   0.657   0.659
 68 A'   69 A'   70 A'   71 A'   27 A"   72 A'   73 A'   28 A"                 
  0.670   0.680   0.684   0.689   0.690   0.701   0.713   0.724
 74 A'   75 A'   29 A"   76 A'   30 A"   77 A'   78 A'   79 A'                 
  0.732   0.738   0.748   0.757   0.771   0.773   0.778   0.799
 80 A'   31 A"   81 A'   82 A'   83 A'   84 A'   32 A"   85 A'                 
  0.815   0.828   0.832   0.836   0.864   0.879   0.897   0.915
 33 A"   86 A'   87 A'   34 A"   88 A'   89 A'   90 A'   91 A'                 
  0.950   0.950   0.962   0.983   0.992   1.006   1.006   1.024
 92 A'   35 A"   93 A'   94 A'   36 A"   37 A"   95 A'   96 A'                 
  1.034   1.044   1.079   1.098   1.123   1.141   1.150   1.152
 38 A"   97 A'   98 A'   99 A'  100 A'  101 A'   39 A"  102 A'                 
  1.170   1.186   1.204   1.209   1.214   1.236   1.241   1.283
103 A'   40 A"   41 A"   42 A"  104 A'  105 A'   43 A"   44 A"                 
  1.287   1.304   1.337   1.345   1.375   1.385   1.393   1.405
 45 A"  106 A'  107 A'   46 A"  108 A'  109 A'  110 A'  111 A'                 
  1.422   1.427   1.452   1.457   1.473   1.490   1.503   1.522
112 A'   47 A"  113 A'   48 A"   49 A"  114 A'  115 A'  116 A'                 
  1.526   1.554   1.560   1.563   1.567   1.598   1.615   1.628
 50 A"  117 A'   51 A"  118 A'   52 A"  119 A'   53 A"  120 A'                 
  1.640   1.641   1.676   1.701   1.707   1.718   1.760   1.766
 54 A"  121 A'  122 A'   55 A"  123 A'   56 A"  124 A'   57 A"                 
  1.776   1.791   1.809   1.815   1.841   1.843   1.877   1.892
 58 A"  125 A'  126 A'  127 A'  128 A'   59 A"   60 A"  129 A'                 
  1.927   1.943   1.986   2.013   2.027   2.041   2.076   2.100
130 A'  131 A'  132 A'   61 A"  133 A'   62 A"  134 A'   63 A"                 
  2.129   2.154   2.208   2.218   2.228   2.262   2.280   2.328
135 A'  136 A'   64 A"  137 A'   65 A"  138 A'   66 A"  139 A'                 
  2.395   2.427   2.465   2.519   2.555   2.565   2.568   2.610
140 A'  141 A'  142 A'  143 A'  144 A'   67 A"  145 A'  146 A'                 
  2.614   2.651   2.687   2.697   2.717   2.721   2.771   2.786
 68 A"  147 A'  148 A'   69 A"   70 A"  149 A'  150 A'   71 A"                 
  2.838   2.880   2.884   2.955   2.994   3.005   3.024   3.032
 72 A"  151 A'   73 A"  152 A'  153 A'   74 A"  154 A'   75 A"                 
  3.048   3.061   3.085   3.166   3.182   3.215   3.232   3.236
155 A'  156 A'  157 A'  158 A'  159 A'  160 A'  161 A'   76 A"                 
  3.275   3.309   3.330   3.335   3.366   3.390   3.411   3.422
162 A'   77 A"   78 A"  163 A'   79 A"  164 A'  165 A'   80 A"                 
  3.463   3.468   3.484   3.512   3.528   3.557   3.578   3.585
166 A'   81 A"  167 A'   82 A"  168 A'  169 A'   83 A"  170 A'                 
  3.617   3.638   3.640   3.650   3.666   3.675   3.693   3.724
171 A'  172 A'   84 A"  173 A'   85 A"  174 A'  175 A'   86 A"                 
  3.736   3.794   3.799   3.812   3.829   3.847   3.849   3.888
176 A'  177 A'   87 A"   88 A"  178 A'   89 A"  179 A'  180 A'                 
  3.935   3.942   3.957   3.979   3.994   4.017   4.038   4.073
 90 A"  181 A'   91 A"  182 A'  183 A'   92 A"  184 A'   93 A"                 
  4.076   4.095   4.146   4.161   4.211   4.231   4.243   4.329
 94 A"  185 A'  186 A'   95 A"  187 A'   96 A"  188 A'  189 A'                 
  4.381   4.400   4.433   4.468   4.543   4.565   4.579   4.624
190 A'  191 A'  192 A'  193 A'  194 A'   97 A"  195 A'   98 A"                 
  4.643   4.670   4.847   4.855   4.878   4.925   4.982   5.067
 99 A"  196 A'  100 A"  197 A'  198 A'  199 A'  200 A'  201 A'                 
  5.115   5.197   5.233   5.280   5.578   5.680   5.941  12.254
202 A'  203 A'  204 A'  205 A'  206 A'  207 A'  208 A'  209 A'                 
 13.560  13.935  15.595
210 A'  211 A'  212 A'                                                         
 
 Beta MOs, Restricted
 -- Occupied --                  
-20.558 -20.553 -15.651 -15.634 -11.421 -11.383 -11.342 -11.256
  1 A'    2 A'    3 A'    4 A'    5 A'    6 A'    7 A'    8 A'                 
 -1.440  -1.403  -1.316  -1.248  -1.090  -0.935  -0.903  -0.808
  9 A'   10 A'   11 A'   12 A'   13 A'   14 A'   15 A'   16 A'                 
 -0.766  -0.715  -0.679  -0.669  -0.655  -0.617  -0.603  -0.572
 17 A'   18 A'   19 A'    1 A"   20 A'   21 A'   22 A'    2 A"                 
 -0.526  -0.484  -0.450  -0.437  -0.370
  3 A"   23 A'   24 A'    4 A"    5 A"                                         
 -- Virtual --                   
  0.017   0.039   0.048   0.058   0.061   0.079   0.083   0.091
 25 A'   26 A'   27 A'   28 A'    6 A"    7 A"   29 A'   30 A'                 
  0.100   0.102   0.108   0.113   0.124   0.135   0.136   0.136
 31 A'    8 A"    9 A"   32 A'   33 A'   34 A'   35 A'   10 A"                 
  0.153   0.155   0.162   0.171   0.181   0.187   0.191   0.218
 36 A'   37 A'   11 A"   38 A'   39 A'   12 A"   40 A'   41 A'                 
  0.227   0.240   0.241   0.250   0.260   0.280   0.294   0.296
 13 A"   42 A'   14 A"   43 A'   44 A'   45 A'   46 A'   15 A"                 
  0.304   0.305   0.309   0.317   0.321   0.328   0.331   0.346
 47 A'   48 A'   49 A'   16 A"   50 A'   17 A"   51 A'   52 A'                 
  0.353   0.372   0.383   0.388   0.393   0.394   0.399   0.412
 53 A'   54 A'   18 A"   55 A'   56 A'   19 A"   57 A'   58 A'                 
  0.420   0.420   0.442   0.458   0.476   0.484   0.495   0.498
 59 A'   20 A"   60 A'   21 A"   61 A'   22 A"   62 A'   23 A"                 
  0.505   0.508   0.508   0.526   0.530   0.548   0.552   0.570
 63 A'   24 A"   64 A'   25 A"   65 A'   66 A'   67 A'   26 A"                 
  0.573   0.584   0.590   0.622   0.638   0.638   0.657   0.659
 68 A'   69 A'   70 A'   71 A'   27 A"   72 A'   73 A'   28 A"                 
  0.670   0.680   0.684   0.689   0.690   0.701   0.713   0.724
 74 A'   75 A'   29 A"   76 A'   30 A"   77 A'   78 A'   79 A'                 
  0.732   0.738   0.748   0.757   0.771   0.773   0.778   0.799
 80 A'   31 A"   81 A'   82 A'   83 A'   84 A'   32 A"   85 A'                 
  0.815   0.828   0.832   0.836   0.864   0.879   0.897   0.915
 33 A"   86 A'   87 A'   34 A"   88 A'   89 A'   90 A'   91 A'                 
  0.950   0.950   0.962   0.983   0.992   1.006   1.006   1.024
 92 A'   35 A"   93 A'   94 A'   36 A"   37 A"   95 A'   96 A'                 
  1.034   1.044   1.079   1.098   1.123   1.141   1.150   1.152
 38 A"   97 A'   98 A'   99 A'  100 A'  101 A'   39 A"  102 A'                 
  1.170   1.186   1.204   1.209   1.214   1.236   1.241   1.283
103 A'   40 A"   41 A"   42 A"  104 A'  105 A'   43 A"   44 A"                 
  1.287   1.304   1.337   1.345   1.375   1.385   1.393   1.405
 45 A"  106 A'  107 A'   46 A"  108 A'  109 A'  110 A'  111 A'                 
  1.422   1.427   1.452   1.457   1.473   1.490   1.503   1.522
112 A'   47 A"  113 A'   48 A"   49 A"  114 A'  115 A'  116 A'                 
  1.526   1.554   1.560   1.563   1.567   1.598   1.615   1.628
 50 A"  117 A'   51 A"  118 A'   52 A"  119 A'   53 A"  120 A'                 
  1.640   1.641   1.676   1.701   1.707   1.718   1.760   1.766
 54 A"  121 A'  122 A'   55 A"  123 A'   56 A"  124 A'   57 A"                 
  1.776   1.791   1.809   1.815   1.841   1.843   1.877   1.892
 58 A"  125 A'  126 A'  127 A'  128 A'   59 A"   60 A"  129 A'                 
  1.927   1.943   1.986   2.013   2.027   2.041   2.076   2.100
130 A'  131 A'  132 A'   61 A"  133 A'   62 A"  134 A'   63 A"                 
  2.129   2.154   2.208   2.218   2.228   2.262   2.280   2.328
135 A'  136 A'   64 A"  137 A'   65 A"  138 A'   66 A"  139 A'                 
  2.395   2.427   2.465   2.519   2.555   2.565   2.568   2.610
140 A'  141 A'  142 A'  143 A'  144 A'   67 A"  145 A'  146 A'                 
  2.614   2.651   2.687   2.697   2.717   2.721   2.771   2.786
 68 A"  147 A'  148 A'   69 A"   70 A"  149 A'  150 A'   71 A"                 
  2.838   2.880   2.884   2.955   2.994   3.005   3.024   3.032
 72 A"  151 A'   73 A"  152 A'  153 A'   74 A"  154 A'   75 A"                 
  3.048   3.061   3.085   3.166   3.182   3.215   3.232   3.236
155 A'  156 A'  157 A'  158 A'  159 A'  160 A'  161 A'   76 A"                 
  3.275   3.309   3.330   3.335   3.366   3.390   3.411   3.422
162 A'   77 A"   78 A"  163 A'   79 A"  164 A'  165 A'   80 A"                 
  3.463   3.468   3.484   3.512   3.528   3.557   3.578   3.585
166 A'   81 A"  167 A'   82 A"  168 A'  169 A'   83 A"  170 A'                 
  3.617   3.638   3.640   3.650   3.666   3.675   3.693   3.724
171 A'  172 A'   84 A"  173 A'   85 A"  174 A'  175 A'   86 A"                 
  3.736   3.794   3.799   3.812   3.829   3.847   3.849   3.888
176 A'  177 A'   87 A"   88 A"  178 A'   89 A"  179 A'  180 A'                 
  3.935   3.942   3.957   3.979   3.994   4.017   4.038   4.073
 90 A"  181 A'   91 A"  182 A'  183 A'   92 A"  184 A'   93 A"                 
  4.076   4.095   4.146   4.161   4.211   4.231   4.243   4.329
 94 A"  185 A'  186 A'   95 A"  187 A'   96 A"  188 A'  189 A'                 
  4.381   4.400   4.433   4.468   4.543   4.565   4.579   4.624
190 A'  191 A'  192 A'  193 A'  194 A'   97 A"  195 A'   98 A"                 
  4.643   4.670   4.847   4.855   4.878   4.925   4.982   5.067
 99 A"  196 A'  100 A"  197 A'  198 A'  199 A'  200 A'  201 A'                 
  5.115   5.197   5.233   5.280   5.578   5.680   5.941  12.254
202 A'  203 A'  204 A'  205 A'  206 A'  207 A'  208 A'  209 A'                 
 13.560  13.935  15.595
210 A'  211 A'  212 A'                                                         

 Occupation and symmetry of molecular orbitals

 Point group: Cs (2 irreducible representations).

                           A'   A"    All 
 ------------------------------------------
 All molecular orbitals:
  - Alpha                  212  100   312 
  - Beta                   212  100   312 
 ------------------------------------------
 Alpha orbitals:
  - Frozen occupied        8    0     8   
  - Active occupied        16   5     21  
  - Active virtual         188  95    283 
  - Frozen virtual         0    0     0   
 ------------------------------------------
 Beta orbitals:
  - Frozen occupied        8    0     8   
  - Active occupied        16   5     21  
  - Active virtual         188  95    283 
  - Frozen virtual         0    0     0   
 ------------------------------------------

 Import integrals:   CPU 0.00 s  wall 0.00 s

 Import integrals:   CPU 2770.67 s  wall 343.90 s

 MP2 amplitudes:   CPU 2.09 s  wall 1.40 s

           CCSD T amplitudes will be solved using DIIS.

           Start     Size      MaxIter   EConv     TConv     
           3         7         100       1.00e-12  1.00e-11  
 ------------------------------------------------------------------------------
           Energy (a.u.)   Ediff      Tdiff       Comment
 ------------------------------------------------------------------------------
          -413.91991929                           
     1    -413.89179984   2.81e-02   1.04e+00     
     2    -413.93695267   4.52e-02   1.39e-01     
     3    -413.93203097   4.92e-03   5.71e-02     
     4    -413.93692693   4.90e-03   2.64e-02     Switched to DIIS steps.
     5    -413.93846222   1.54e-03   1.29e-02     
     6    -413.93862131   1.59e-04   3.62e-03     
     7    -413.93863075   9.44e-06   1.43e-03     
     8    -413.93862649   4.26e-06   4.75e-04     
     9    -413.93862854   2.05e-06   1.77e-04     
    10    -413.93862865   1.16e-07   5.17e-05     
    11    -413.93862931   6.59e-07   3.27e-05     
    12    -413.93862919   1.18e-07   1.29e-05     
    13    -413.93862926   6.22e-08   7.38e-06     
    14    -413.93862915   1.07e-07   3.41e-06     
    15    -413.93862913   1.75e-08   1.60e-06     
    16    -413.93862911   1.79e-08   8.10e-07     
    17    -413.93862911   5.49e-09   3.35e-07     
    18    -413.93862911   1.26e-09   1.36e-07     
    19    -413.93862911   3.60e-10   4.82e-08     
    20    -413.93862911   2.41e-11   3.03e-08     
    21    -413.93862911   9.37e-11   9.79e-09     
    22    -413.93862911   5.86e-11   5.83e-09     
    23    -413.93862911   1.56e-11   2.72e-09     
    24    -413.93862911   1.79e-11   1.60e-09     
    25    -413.93862911   1.94e-12   8.60e-10     
    26    -413.93862911   1.69e-12   4.78e-10     
    27    -413.93862911   4.24e-14   2.08e-10     
    28    -413.93862911   5.00e-13   1.12e-10     
    29    -413.93862911   2.44e-13   6.72e-11     
    30    -413.93862911   2.05e-13   2.68e-11     
    31    -413.93862911   5.48e-14   1.32e-11     
    32    -413.93862911   6.53e-14   6.56e-12     
 ------------------------------------------------------------------------------
          -413.93862911                           CCSD T converged.

 SCF energy                 = -412.57232124
 MP2 energy                 = -413.91991929
 CCSD correlation energy     =   -1.36630787
 CCSD total energy           = -413.93862911

 CCSD  T1^2 = 0.0284  T2^2 = 0.4336  Leading amplitudes:

 Amplitude    Orbitals with energies
 -0.0399       2 (A") A                  ->    11 (A") A                  
              -0.5716                          0.1618                     
 -0.0399       2 (A") B                  ->    11 (A") B                  
              -0.5716                          0.1618                     
 -0.0310       3 (A") A                  ->    7 (A") A                   
              -0.5264                          0.0790                     
 -0.0310       3 (A") B                  ->    7 (A") B                   
              -0.5264                          0.0790                     

 Amplitude    Orbitals with energies
 -0.0390       5 (A") A      5 (A") B    ->    7 (A") A      7 (A") B     
              -0.3696       -0.3696            0.0790        0.0790       
  0.0390       5 (A") A      5 (A") B    ->    7 (A") B      7 (A") A     
              -0.3696       -0.3696            0.0790        0.0790       
  0.0390       5 (A") B      5 (A") A    ->    7 (A") A      7 (A") B     
              -0.3696       -0.3696            0.0790        0.0790       
 -0.0390       5 (A") B      5 (A") A    ->    7 (A") B      7 (A") A     
              -0.3696       -0.3696            0.0790        0.0790       

 Computing CCSD intermediates for later calculations
 Finished.

           CCSD Lambda amplitudes will be solved using DIIS.
           Start     Size      MaxIter   EConv     LConv     
           3         7         100       1.00e-12  1.00e-11  
 ------------------------------------------------------------------------------
            Enorm      Ldiff       Comment
 ------------------------------------------------------------------------------
     1     8.19e-02   4.67e-02     
     2     3.07e-02   9.89e-03     
     3     1.42e-02   1.17e-04     
     4     5.61e-03   1.86e-03     Switched to DIIS steps.
     5     1.78e-03   9.45e-04     
     6     7.65e-04   2.44e-04     
     7     2.89e-04   5.67e-05     
     8     1.19e-04   1.15e-05     
     9     5.19e-05   5.18e-06     
    10     2.56e-05   2.35e-06     
    11     1.10e-05   4.31e-07     
    12     4.57e-06   2.73e-07     
    13     1.84e-06   3.12e-08     
    14     7.95e-07   1.61e-08     
    15     3.38e-07   5.54e-08     
    16     1.43e-07   1.32e-08     
    17     7.02e-08   5.38e-09     
    18     2.92e-08   5.45e-09     
    19     1.43e-08   4.49e-10     
    20     6.67e-09   6.04e-11     
    21     3.23e-09   4.20e-11     
    22     1.44e-09   1.09e-10     
    23     6.89e-10   6.12e-11     
    24     3.03e-10   1.52e-11     
    25     1.42e-10   7.24e-12     
    26     7.27e-11   3.93e-12     
    27     3.52e-11   1.68e-12     
    28     1.80e-11   5.41e-13     
    29     8.53e-12   3.12e-13     
    30     4.43e-12   3.52e-13     
    31     2.07e-12   6.35e-14     
    32     9.71e-13   4.66e-15     
 ------------------------------------------------------------------------------
                                   CCSD Lambda converged.

 CCSD calculation:   CPU 14726.31 s  wall 1636.47 s

        Solving for CVS-EOMEE-CCSD A' singlet states.

       EOMEE-CCSD-SINGLES right amplitudes will be solved using Davidson.
        Amplitudes will be solved using shifted  algorithm.
     Hard-coded thresholds: 
     LinDepThresh=1.00e-15  NormThresh=1.00e-06  ReorthogonThresh=1.00e-02

      Roots     MaxVec    MaxIter   Precond   Conv      Shift    
      10        1000      200       1         1.00e-04  1.05e+01  
 ------------------------------------------------------------------------------
      Iter ConvRoots NVecs ResNorm Current eigenvalues (eV)
 ------------------------------------------------------------------------------
      0    0      10    2.01e-03   302.7863   303.7797   303.8387   304.4940   304.6897   304.9503   305.1931   305.8103   305.8167   306.1485   
      1    0      20    2.59e-02   302.1002   303.2796   303.4329   303.6010   304.2833   304.7545   304.9255   305.4414   305.5545   305.9093   
      2    0      30    1.53e-03   300.6404   301.7398   302.8161   303.3499   303.8042   304.3672   304.5063   304.9228   305.1220   305.3038   
      3    1      40    1.44e-03   300.5895*  301.5437   302.7818   303.3231   303.5434   304.1883   304.4739   304.8731   304.9511   305.0657   
      4    6      49    8.32e-04   300.5883*  301.5183   302.7792*  303.3160*  303.5037   304.1670*  304.4705*  304.7535   304.8632*  305.0268   
      5    6      53    1.22e-03   300.5883*  301.5146*  302.7792*  303.3158*  303.5022*  304.1657   304.2293   304.4706*  304.7847   304.8648   
      6    8      57    1.22e-04   300.5882*  301.5144*  302.7792*  303.3158*  303.5021*  304.1028   304.1666*  304.4706*  304.7251   304.8633*  
      7    9      59    2.65e-05   300.5882*  301.5144*  302.7792*  303.3158*  303.5021*  304.0884   304.1665*  304.4706*  304.7202*  304.8632*  
      8    10     60    8.84e-06   300.5882*  301.5144*  302.7792*  303.3158*  303.5021*  304.0845*  304.1665*  304.4706*  304.7199*  304.8632*  

     Davidson procedure converged

        CVS-EOMEE-CCSD/MP2 right amplitudes will be solved using Davidson.
        Amplitudes will be solved using shifted  algorithm.
     Hard-coded thresholds: 
     LinDepThresh=1.00e-15  NormThresh=1.00e-06  ReorthogonThresh=1.00e-02

      Roots     MaxVec    MaxIter   Precond   Conv      Shift    
      10        1000      200       1         1.00e-04  1.05e+01  
 ------------------------------------------------------------------------------
      Iter ConvRoots NVecs ResNorm Current eigenvalues (eV)
 ------------------------------------------------------------------------------
      0    0      10    1.70e+00   300.5882   301.5144   302.7792   303.3158   303.5021   304.0845   304.1665   304.4706   304.7199   304.8632   
      1    0      20    1.06e+00   296.9454   298.0529   298.7376   299.1310   299.4799   300.1371   300.3908   300.4589   300.6836   300.8374   
      2    0      30    4.92e-02   288.5255   289.4973   289.7079   290.3694   290.3923   290.9726   291.4745   291.9606   292.3954   293.7271   
      3    0      40    1.64e-02   288.1089   289.0704   289.2970   289.8721   289.9644   290.5375   290.9305   291.4460   291.6586   292.9831   
      4    0      50    5.53e-03   288.0599   289.0329   289.2467   289.7496   289.9103   290.4857   290.8004   291.3109   291.3278   292.5436   
      5    0      60    6.60e-03   288.0385   289.0184   289.2165   289.6917   289.8832   290.4314   290.7077   291.0967   291.2388   292.0925   
      6    0      70    2.91e-03   288.0277   289.0104   289.1942   289.6602   289.8612   290.3792   290.6364   290.9923   291.1764   291.7865   
Found complex roots...
      7    0      80    2.55e-03   288.0231   289.0068   289.1818   289.6445   289.8498   290.3253   290.5839   290.9188   291.1345   291.5635   
Found complex roots...
      8    3      90    1.29e-03   288.0221*  289.0062*  289.1790   289.6410   289.8466*  290.2944   290.5615   290.8827   291.1196   291.4345   
Found complex roots...
      9    3      97    1.21e-03   288.0219*  289.0061*  289.1761   289.6373   289.8461*  290.2678   290.5445   290.8495   291.1039   291.3223   
      10   5      104   5.35e-04   288.0216*  289.0060*  289.1746*  289.6358*  289.8451*  290.2544   290.5317   290.8246   291.0939   291.2523   
Found complex roots...
      11   5      109   4.21e-04   288.0215*  289.0060*  289.1744*  289.6358*  289.8449*  290.2478   290.5280   290.8150   291.0867   291.2107   
      12   5      114   2.07e-04   288.0215*  289.0060*  289.1743*  289.6358*  289.8448*  290.2440   290.5252   290.8088   291.0806   291.1867   
      13   7      119   1.80e-04   288.0215*  289.0060*  289.1742*  289.6358*  289.8446*  290.2415*  290.5227*  290.8029   291.0747   291.1686   
      14   7      122   9.95e-05   288.0215*  289.0060*  289.1742*  289.6358*  289.8445*  290.2414*  290.5225*  290.7989   291.0694   291.1598   
      15   8      125   7.22e-05   288.0215*  289.0060*  289.1742*  289.6358*  289.8445*  290.2413*  290.5225*  290.7978*  291.0679   291.1556   
      16   10     127   5.13e-05   288.0215*  289.0060*  289.1742*  289.6358*  289.8445*  290.2413*  290.5225*  290.7977*  291.0655*  291.1535*  

     Davidson procedure converged

 EOMEE transition 1/A'
 Total energy = -403.35403455 a.u.  Excitation energy = 288.0215 eV.
 R0^2 = 0.0000  R1^2 = 0.8133  R2_CCVV^2 = 0.0016  R2_COVV^2 = 0.0925  Res^2 = 8.01e-06
 Conv-d = yes

 Amplitude    Transitions between orbitals
  0.4690       8 (A') A                  ->    25 (A') A                  
  0.4690       8 (A') B                  ->    25 (A') B                  
 -0.2487       8 (A') A                  ->    26 (A') A                  
 -0.2487       8 (A') B                  ->    26 (A') B                  
 -0.1714       8 (A') A                  ->    34 (A') A                  
 -0.1714       8 (A') B                  ->    34 (A') B                  
  0.1609       8 (A') A                  ->    31 (A') A                  
  0.1609       8 (A') B                  ->    31 (A') B                  
  0.1471       8 (A') A                  ->    35 (A') A                  
  0.1471       8 (A') B                  ->    35 (A') B                  

              Summary of significant orbitals:

               Number  Type             Irrep      Energy
               8       Occ  Alpha       8 (A')    -11.2565
               8       Occ  Beta        8 (A')    -11.2565
               30      Vir  Alpha      25 (A')      0.0173
               31      Vir  Alpha      26 (A')      0.0388
               38      Vir  Alpha      31 (A')      0.1002
               43      Vir  Alpha      34 (A')      0.1350
               44      Vir  Alpha      35 (A')      0.1364
               30      Vir  Beta       25 (A')      0.0173
               31      Vir  Beta       26 (A')      0.0388
               38      Vir  Beta       31 (A')      0.1002
               43      Vir  Beta       34 (A')      0.1350
               44      Vir  Beta       35 (A')      0.1364


 EOMEE transition 2/A'
 Total energy = -403.31785392 a.u.  Excitation energy = 289.0060 eV.
 R0^2 = 0.0000  R1^2 = 0.8077  R2_CCVV^2 = 0.0016  R2_COVV^2 = 0.0954  Res^2 = 1.48e-05
 Conv-d = yes

 Amplitude    Transitions between orbitals
 -0.4076       8 (A') A                  ->    26 (A') A                  
 -0.4076       8 (A') B                  ->    26 (A') B                  
 -0.2839       8 (A') A                  ->    25 (A') A                  
 -0.2839       8 (A') B                  ->    25 (A') B                  
  0.1603       8 (A') A                  ->    30 (A') A                  
  0.1603       8 (A') B                  ->    30 (A') B                  
 -0.1345       8 (A') A                  ->    27 (A') A                  
 -0.1345       8 (A') B                  ->    27 (A') B                  
  0.1312       8 (A') A                  ->    33 (A') A                  
  0.1312       8 (A') B                  ->    33 (A') B                  
 -0.1290       8 (A') A                  ->    31 (A') A                  
 -0.1290       8 (A') B                  ->    31 (A') B                  
  0.1249       8 (A') A                  ->    36 (A') A                  
  0.1249       8 (A') B                  ->    36 (A') B                  
  0.1075       8 (A') A                  ->    29 (A') A                  
  0.1075       8 (A') B                  ->    29 (A') B                  

              Summary of significant orbitals:

               Number  Type             Irrep      Energy
               8       Occ  Alpha       8 (A')    -11.2565
               8       Occ  Beta        8 (A')    -11.2565
               30      Vir  Alpha      25 (A')      0.0173
               31      Vir  Alpha      26 (A')      0.0388
               32      Vir  Alpha      27 (A')      0.0484
               36      Vir  Alpha      29 (A')      0.0827
               37      Vir  Alpha      30 (A')      0.0914
               38      Vir  Alpha      31 (A')      0.1002
               42      Vir  Alpha      33 (A')      0.1244
               46      Vir  Alpha      36 (A')      0.1529
               30      Vir  Beta       25 (A')      0.0173
               31      Vir  Beta       26 (A')      0.0388
               32      Vir  Beta       27 (A')      0.0484
               36      Vir  Beta       29 (A')      0.0827
               37      Vir  Beta       30 (A')      0.0914
               38      Vir  Beta       31 (A')      0.1002
               42      Vir  Beta       33 (A')      0.1244
               46      Vir  Beta       36 (A')      0.1529


 EOMEE transition 3/A'
 Total energy = -403.31167355 a.u.  Excitation energy = 289.1742 eV.
 R0^2 = 0.0000  R1^2 = 0.8069  R2_CCVV^2 = 0.0016  R2_COVV^2 = 0.0958  Res^2 = 1.05e-05
 Conv-d = yes

 Amplitude    Transitions between orbitals
  0.3969       8 (A') A                  ->    30 (A') A                  
  0.3969       8 (A') B                  ->    30 (A') B                  
 -0.3686       8 (A') A                  ->    27 (A') A                  
 -0.3686       8 (A') B                  ->    27 (A') B                  
  0.2038       8 (A') A                  ->    26 (A') A                  
  0.2038       8 (A') B                  ->    26 (A') B                  
  0.1085       8 (A') A                  ->    25 (A') A                  
  0.1085       8 (A') B                  ->    25 (A') B                  
 -0.1015       8 (A') A                  ->    42 (A') A                  
 -0.1015       8 (A') B                  ->    42 (A') B                  

              Summary of significant orbitals:

               Number  Type             Irrep      Energy
               8       Occ  Alpha       8 (A')    -11.2565
               8       Occ  Beta        8 (A')    -11.2565
               30      Vir  Alpha      25 (A')      0.0173
               31      Vir  Alpha      26 (A')      0.0388
               32      Vir  Alpha      27 (A')      0.0484
               37      Vir  Alpha      30 (A')      0.0914
               55      Vir  Alpha      42 (A')      0.2398
               30      Vir  Beta       25 (A')      0.0173
               31      Vir  Beta       26 (A')      0.0388
               32      Vir  Beta       27 (A')      0.0484
               37      Vir  Beta       30 (A')      0.0914
               55      Vir  Beta       42 (A')      0.2398


 EOMEE transition 4/A'
 Total energy = -403.29471004 a.u.  Excitation energy = 289.6358 eV.
 R0^2 = 0.0000  R1^2 = 0.8169  R2_CCVV^2 = 0.0016  R2_COVV^2 = 0.0907  Res^2 = 2.38e-05
 Conv-d = yes

 Amplitude    Transitions between orbitals
  0.4987       7 (A') A                  ->    25 (A') A                  
  0.4987       7 (A') B                  ->    25 (A') B                  
  0.2310       7 (A') A                  ->    31 (A') A                  
  0.2310       7 (A') B                  ->    31 (A') B                  
  0.1470       7 (A') A                  ->    35 (A') A                  
  0.1470       7 (A') B                  ->    35 (A') B                  
 -0.1322       7 (A') A                  ->    34 (A') A                  
 -0.1322       7 (A') B                  ->    34 (A') B                  
 -0.1104       7 (A') A                  ->    33 (A') A                  
 -0.1104       7 (A') B                  ->    33 (A') B                  

              Summary of significant orbitals:

               Number  Type             Irrep      Energy
               7       Occ  Alpha       7 (A')    -11.3419
               7       Occ  Beta        7 (A')    -11.3419
               30      Vir  Alpha      25 (A')      0.0173
               38      Vir  Alpha      31 (A')      0.1002
               42      Vir  Alpha      33 (A')      0.1244
               43      Vir  Alpha      34 (A')      0.1350
               44      Vir  Alpha      35 (A')      0.1364
               30      Vir  Beta       25 (A')      0.0173
               38      Vir  Beta       31 (A')      0.1002
               42      Vir  Beta       33 (A')      0.1244
               43      Vir  Beta       34 (A')      0.1350
               44      Vir  Beta       35 (A')      0.1364


 EOMEE transition 5/A'
 Total energy = -403.28703850 a.u.  Excitation energy = 289.8445 eV.
 R0^2 = 0.0000  R1^2 = 0.8089  R2_CCVV^2 = 0.0016  R2_COVV^2 = 0.0947  Res^2 = 3.63e-05
 Conv-d = yes

 Amplitude    Transitions between orbitals
 -0.3329       8 (A') A                  ->    28 (A') A                  
 -0.3329       8 (A') B                  ->    28 (A') B                  
 -0.2789       8 (A') A                  ->    27 (A') A                  
 -0.2789       8 (A') B                  ->    27 (A') B                  
 -0.2132       8 (A') A                  ->    36 (A') A                  
 -0.2132       8 (A') B                  ->    36 (A') B                  
 -0.2035       8 (A') A                  ->    30 (A') A                  
 -0.2035       8 (A') B                  ->    30 (A') B                  
 -0.1426       8 (A') A                  ->    32 (A') A                  
 -0.1426       8 (A') B                  ->    32 (A') B                  
 -0.1306       8 (A') A                  ->    37 (A') A                  
 -0.1306       8 (A') B                  ->    37 (A') B                  
 -0.1190       8 (A') A                  ->    26 (A') A                  
 -0.1190       8 (A') B                  ->    26 (A') B                  
 -0.1148       8 (A') A                  ->    39 (A') A                  
 -0.1148       8 (A') B                  ->    39 (A') B                  

              Summary of significant orbitals:

               Number  Type             Irrep      Energy
               8       Occ  Alpha       8 (A')    -11.2565
               8       Occ  Beta        8 (A')    -11.2565
               31      Vir  Alpha      26 (A')      0.0388
               32      Vir  Alpha      27 (A')      0.0484
               33      Vir  Alpha      28 (A')      0.0581
               37      Vir  Alpha      30 (A')      0.0914
               41      Vir  Alpha      32 (A')      0.1134
               46      Vir  Alpha      36 (A')      0.1529
               47      Vir  Alpha      37 (A')      0.1545
               50      Vir  Alpha      39 (A')      0.1814
               31      Vir  Beta       26 (A')      0.0388
               32      Vir  Beta       27 (A')      0.0484
               33      Vir  Beta       28 (A')      0.0581
               37      Vir  Beta       30 (A')      0.0914
               41      Vir  Beta       32 (A')      0.1134
               46      Vir  Beta       36 (A')      0.1529
               47      Vir  Beta       37 (A')      0.1545
               50      Vir  Beta       39 (A')      0.1814


 EOMEE transition 6/A'
 Total energy = -403.27245562 a.u.  Excitation energy = 290.2413 eV.
 R0^2 = 0.0000  R1^2 = 0.8036  R2_CCVV^2 = 0.0016  R2_COVV^2 = 0.0974  Res^2 = 8.48e-05
 Conv-d = yes

 Amplitude    Transitions between orbitals
 -0.3915       8 (A') A                  ->    28 (A') A                  
 -0.3915       8 (A') B                  ->    28 (A') B                  
  0.3118       8 (A') A                  ->    27 (A') A                  
  0.3118       8 (A') B                  ->    27 (A') B                  
  0.2569       8 (A') A                  ->    30 (A') A                  
  0.2569       8 (A') B                  ->    30 (A') B                  
  0.1738       8 (A') A                  ->    35 (A') A                  
  0.1738       8 (A') B                  ->    35 (A') B                  
  0.1084       8 (A') A                  ->    40 (A') A                  
  0.1084       8 (A') B                  ->    40 (A') B                  

              Summary of significant orbitals:

               Number  Type             Irrep      Energy
               8       Occ  Alpha       8 (A')    -11.2565
               8       Occ  Beta        8 (A')    -11.2565
               32      Vir  Alpha      27 (A')      0.0484
               33      Vir  Alpha      28 (A')      0.0581
               37      Vir  Alpha      30 (A')      0.0914
               44      Vir  Alpha      35 (A')      0.1364
               52      Vir  Alpha      40 (A')      0.1914
               32      Vir  Beta       27 (A')      0.0484
               33      Vir  Beta       28 (A')      0.0581
               37      Vir  Beta       30 (A')      0.0914
               44      Vir  Beta       35 (A')      0.1364
               52      Vir  Beta       40 (A')      0.1914


 EOMEE transition 7/A'
 Total energy = -403.26212423 a.u.  Excitation energy = 290.5225 eV.
 R0^2 = 0.0000  R1^2 = 0.8060  R2_CCVV^2 = 0.0016  R2_COVV^2 = 0.0962  Res^2 = 6.71e-05
 Conv-d = yes

 Amplitude    Transitions between orbitals
 -0.4636       8 (A') A                  ->    29 (A') A                  
 -0.4636       8 (A') B                  ->    29 (A') B                  
 -0.2027       8 (A') A                  ->    26 (A') A                  
 -0.2027       8 (A') B                  ->    26 (A') B                  
  0.1772       8 (A') A                  ->    32 (A') A                  
  0.1772       8 (A') B                  ->    32 (A') B                  
 -0.1585       8 (A') A                  ->    31 (A') A                  
 -0.1585       8 (A') B                  ->    31 (A') B                  
 -0.1383       8 (A') A                  ->    41 (A') A                  
 -0.1383       8 (A') B                  ->    41 (A') B                  

              Summary of significant orbitals:

               Number  Type             Irrep      Energy
               8       Occ  Alpha       8 (A')    -11.2565
               8       Occ  Beta        8 (A')    -11.2565
               31      Vir  Alpha      26 (A')      0.0388
               36      Vir  Alpha      29 (A')      0.0827
               38      Vir  Alpha      31 (A')      0.1002
               41      Vir  Alpha      32 (A')      0.1134
               53      Vir  Alpha      41 (A')      0.2183
               31      Vir  Beta       26 (A')      0.0388
               36      Vir  Beta       29 (A')      0.0827
               38      Vir  Beta       31 (A')      0.1002
               41      Vir  Beta       32 (A')      0.1134
               53      Vir  Beta       41 (A')      0.2183


 EOMEE transition 8/A'
 Total energy = -403.25200831 a.u.  Excitation energy = 290.7977 eV.
 R0^2 = 0.0000  R1^2 = 0.8086  R2_CCVV^2 = 0.0016  R2_COVV^2 = 0.0949  Res^2 = 8.99e-05
 Conv-d = yes

 Amplitude    Transitions between orbitals
  0.3214       8 (A') A                  ->    31 (A') A                  
  0.3214       8 (A') B                  ->    31 (A') B                  
 -0.2424       8 (A') A                  ->    25 (A') A                  
 -0.2424       8 (A') B                  ->    25 (A') B                  
 -0.2023       8 (A') A                  ->    28 (A') A                  
 -0.2023       8 (A') B                  ->    28 (A') B                  
  0.1940       8 (A') A                  ->    35 (A') A                  
  0.1940       8 (A') B                  ->    35 (A') B                  
 -0.1675       8 (A') A                  ->    34 (A') A                  
 -0.1675       8 (A') B                  ->    34 (A') B                  
 -0.1451       8 (A') A                  ->    29 (A') A                  
 -0.1451       8 (A') B                  ->    29 (A') B                  
  0.1224       8 (A') A                  ->    48 (A') A                  
  0.1224       8 (A') B                  ->    48 (A') B                  
 -0.1067       8 (A') A                  ->    27 (A') A                  
 -0.1067       8 (A') B                  ->    27 (A') B                  

              Summary of significant orbitals:

               Number  Type             Irrep      Energy
               8       Occ  Alpha       8 (A')    -11.2565
               8       Occ  Beta        8 (A')    -11.2565
               30      Vir  Alpha      25 (A')      0.0173
               32      Vir  Alpha      27 (A')      0.0484
               33      Vir  Alpha      28 (A')      0.0581
               36      Vir  Alpha      29 (A')      0.0827
               38      Vir  Alpha      31 (A')      0.1002
               43      Vir  Alpha      34 (A')      0.1350
               44      Vir  Alpha      35 (A')      0.1364
               63      Vir  Alpha      48 (A')      0.3048
               30      Vir  Beta       25 (A')      0.0173
               32      Vir  Beta       27 (A')      0.0484
               33      Vir  Beta       28 (A')      0.0581
               36      Vir  Beta       29 (A')      0.0827
               38      Vir  Beta       31 (A')      0.1002
               43      Vir  Beta       34 (A')      0.1350
               44      Vir  Beta       35 (A')      0.1364
               63      Vir  Beta       48 (A')      0.3048


 EOMEE transition 9/A'
 Total energy = -403.24216678 a.u.  Excitation energy = 291.0655 eV.
 R0^2 = 0.0000  R1^2 = 0.8040  R2_CCVV^2 = 0.0016  R2_COVV^2 = 0.0972  Res^2 = 7.89e-05
 Conv-d = yes

 Amplitude    Transitions between orbitals
  0.3500       7 (A') A                  ->    26 (A') A                  
  0.3500       7 (A') B                  ->    26 (A') B                  
  0.3264       7 (A') A                  ->    27 (A') A                  
  0.3264       7 (A') B                  ->    27 (A') B                  
 -0.2112       7 (A') A                  ->    30 (A') A                  
 -0.2112       7 (A') B                  ->    30 (A') B                  
  0.1359       7 (A') A                  ->    44 (A') A                  
  0.1359       7 (A') B                  ->    44 (A') B                  
  0.1244       7 (A') A                  ->    39 (A') A                  
  0.1244       7 (A') B                  ->    39 (A') B                  
  0.1213       7 (A') A                  ->    34 (A') A                  
  0.1213       7 (A') B                  ->    34 (A') B                  
  0.1122       7 (A') A                  ->    28 (A') A                  
  0.1122       7 (A') B                  ->    28 (A') B                  
  0.1044       7 (A') A                  ->    32 (A') A                  
  0.1044       7 (A') B                  ->    32 (A') B                  

              Summary of significant orbitals:

               Number  Type             Irrep      Energy
               7       Occ  Alpha       7 (A')    -11.3419
               7       Occ  Beta        7 (A')    -11.3419
               31      Vir  Alpha      26 (A')      0.0388
               32      Vir  Alpha      27 (A')      0.0484
               33      Vir  Alpha      28 (A')      0.0581
               37      Vir  Alpha      30 (A')      0.0914
               41      Vir  Alpha      32 (A')      0.1134
               43      Vir  Alpha      34 (A')      0.1350
               50      Vir  Alpha      39 (A')      0.1814
               58      Vir  Alpha      44 (A')      0.2597
               31      Vir  Beta       26 (A')      0.0388
               32      Vir  Beta       27 (A')      0.0484
               33      Vir  Beta       28 (A')      0.0581
               37      Vir  Beta       30 (A')      0.0914
               41      Vir  Beta       32 (A')      0.1134
               43      Vir  Beta       34 (A')      0.1350
               50      Vir  Beta       39 (A')      0.1814
               58      Vir  Beta       44 (A')      0.2597


 EOMEE transition 10/A'
 Total energy = -403.23893287 a.u.  Excitation energy = 291.1535 eV.
 R0^2 = 0.0000  R1^2 = 0.8005  R2_CCVV^2 = 0.0016  R2_COVV^2 = 0.0990  Res^2 = 9.88e-05
 Conv-d = yes

 Amplitude    Transitions between orbitals
  0.3838       7 (A') A                  ->    26 (A') A                  
  0.3838       7 (A') B                  ->    26 (A') B                  
  0.3548       7 (A') A                  ->    30 (A') A                  
  0.3548       7 (A') B                  ->    30 (A') B                  
 -0.2039       7 (A') A                  ->    27 (A') A                  
 -0.2039       7 (A') B                  ->    27 (A') B                  
 -0.1158       7 (A') A                  ->    42 (A') A                  
 -0.1158       7 (A') B                  ->    42 (A') B                  

              Summary of significant orbitals:

               Number  Type             Irrep      Energy
               7       Occ  Alpha       7 (A')    -11.3419
               7       Occ  Beta        7 (A')    -11.3419
               31      Vir  Alpha      26 (A')      0.0388
               32      Vir  Alpha      27 (A')      0.0484
               37      Vir  Alpha      30 (A')      0.0914
               55      Vir  Alpha      42 (A')      0.2398
               31      Vir  Beta       26 (A')      0.0388
               32      Vir  Beta       27 (A')      0.0484
               37      Vir  Beta       30 (A')      0.0914
               55      Vir  Beta       42 (A')      0.2398


      CVS-EOM-CCSD/MP2 left amplitudes will be solved using Davidson.
        Amplitudes will be solved using MOM  algorithm.
     Hard-coded thresholds: 
     LinDepThresh=1.00e-15  NormThresh=1.00e-06  ReorthogonThresh=1.00e-02

      Roots     MaxVec    MaxIter   Precond   Conv      Shift    
      10        1000      200       1         1.00e-04  1.05e+01  
 ------------------------------------------------------------------------------
      Iter ConvRoots NVecs ResNorm Current eigenvalues (eV)
 ------------------------------------------------------------------------------
      0    0      10    2.73e-02   288.0215   289.0060   289.1742   289.6358   289.8445   290.2413   290.5225   290.7977   291.0655   291.1535   
      1    0      20    9.02e-03   288.0213   289.0058   289.1742   289.6357   289.8442   290.2404   290.5217   290.7966   291.0648   291.1523   
      2    0      30    3.90e-04   288.0212   289.0057   289.1744   289.6360   289.8440   290.2409   290.5221   290.7971   291.0653   291.1528   
      3    10     40    6.64e-05   288.0211*  289.0055*  289.1744*  289.6359*  289.8437*  290.2406*  290.5217*  290.7967*  291.0650*  291.1523*  

     Davidson procedure converged

        Solving for CVS-EOMEE-CCSD A" singlet states.

       EOMEE-CCSD-SINGLES right amplitudes will be solved using Davidson.
        Amplitudes will be solved using shifted  algorithm.
     Hard-coded thresholds: 
     LinDepThresh=1.00e-15  NormThresh=1.00e-06  ReorthogonThresh=1.00e-02

      Roots     MaxVec    MaxIter   Precond   Conv      Shift    
      12        1000      200       1         1.00e-04  1.05e+01  
 ------------------------------------------------------------------------------
      Iter ConvRoots NVecs ResNorm Current eigenvalues (eV)
 ------------------------------------------------------------------------------
      0    0      12    1.12e-02   300.2058   300.8666   303.6878   304.7129   305.1093   305.4464   305.5949   306.4831   306.9413   307.0964   307.2114   307.5575   
      1    0      24    3.78e-02   297.8693   298.4152   302.9279   303.3883   304.1240   304.9463   305.0308   305.0535   306.4211   306.9421   307.0789   307.5052   
      2    3      36    7.87e-04   296.5108   297.0896   297.6214   302.9553   303.4059   304.7626*  304.8557   304.9595*  306.3897*  306.8479   306.9468   307.4551   
      3    10     45    3.70e-04   296.5069*  297.0839*  297.3477   302.9465*  303.3946*  304.7615*  304.8516*  304.9565*  306.3893*  306.8320*  306.9248*  307.1820   
      4    11     47    1.91e-04   296.5069*  297.0839*  297.3446*  302.9465*  303.3946*  304.7615*  304.8516*  304.9565*  306.3893*  306.8320*  306.9248*  306.9308   
      5    11     48    1.97e-04   296.5069*  297.0839*  297.3446*  302.9465*  303.3946*  304.7615*  304.8516*  304.9565*  306.3893*  306.7636   306.8320*  306.9248*  
      6    11     49    2.50e-04   296.5069*  297.0839*  297.3447*  302.9465*  303.3946*  304.7615*  304.8516*  304.9565*  306.3893*  306.4574   306.8320*  306.9248*  
      7    10     50    9.25e-03   296.5069*  297.0839*  297.3447*  302.9465*  303.3946*  304.0670   304.7615*  304.8516*  304.9565*  306.3893*  306.6806   306.8320*  
      8    10     52    6.13e-04   296.5069*  297.0839*  297.3447*  298.4539   302.9465*  303.3946*  304.7615*  304.8516*  304.9565*  306.3893*  306.4561   306.8320*  
      9    12     54    2.96e-05   296.5069*  297.0839*  297.3447*  298.3175*  302.9465*  303.3946*  304.7615*  304.8516*  304.9565*  306.3893*  306.4362*  306.8320*  

     Davidson procedure converged

        CVS-EOMEE-CCSD/MP2 right amplitudes will be solved using Davidson.
        Amplitudes will be solved using shifted  algorithm.
     Hard-coded thresholds: 
     LinDepThresh=1.00e-15  NormThresh=1.00e-06  ReorthogonThresh=1.00e-02

      Roots     MaxVec    MaxIter   Precond   Conv      Shift    
      12        1000      200       1         1.00e-04  1.05e+01  
 ------------------------------------------------------------------------------
      Iter ConvRoots NVecs ResNorm Current eigenvalues (eV)
 ------------------------------------------------------------------------------
      0    0      12    1.71e+00   296.5069   297.0839   297.3447   298.3175   302.9465   303.3946   304.7615   304.8516   304.9565   306.3893   306.4362   306.8320   
      1    0      24    1.05e+00   293.2389   293.3764   294.1162   295.0883   298.3636   299.1859   300.6316   300.7863   300.9139   301.8307   302.2131   302.7039   
      2    0      36    4.65e-02   286.0119   287.4362   288.9503   289.4578   289.8169   290.3855   291.1176   291.2894   291.8218   292.5276   292.7650   293.0157   
      3    0      48    9.51e-03   285.5126   286.8599   288.4742   288.9899   289.4160   289.9084   290.7309   290.8451   291.4296   292.1262   292.3170   292.6011   
      4    0      60    2.30e-03   285.4291   286.7162   288.3660   288.8919   289.3876   289.7957   290.7147   290.7955   291.3802   292.1081   292.2093   292.5338   
      5    0      72    1.88e-03   285.4142   286.6787   288.3331   288.8461   289.3780   289.7597   290.7072   290.7754   291.3553   292.1001   292.1347   292.4243   
      6    0      84    2.23e-03   285.4092   286.6703   288.3248   288.8070   289.3732   289.7494   290.7006   290.7616   291.3381   292.0754   292.0824   292.0933   
Found complex roots...
      7    4      96    1.10e-03   285.4073*  286.6678*  288.3227*  288.7845   289.3718*  289.7453   290.6975   290.7547   291.3307   291.8263   292.0583   292.0837   
Found complex roots...
      8    6      104   1.10e-03   285.4073*  286.6678*  288.3226*  288.7798   289.3718*  289.7441*  290.6964*  290.7512   291.3288   291.7035   292.0014   292.0410   
      9    8      110   6.78e-04   285.4073*  286.6678*  288.3226*  288.7775*  289.3718*  289.7441*  290.6962*  290.7497*  291.3247   291.6621   291.8671   292.0293   
      10   9      114   2.46e-04   285.4072*  286.6677*  288.3226*  288.7766*  289.3718*  289.7441*  290.6961*  290.7491*  291.3216*  291.6204   291.8170   292.0237   
      11   9      117   1.15e-04   285.4072*  286.6677*  288.3226*  288.7767*  289.3718*  289.7441*  290.6961*  290.7491*  291.3209*  291.6127   291.7979   292.0223   
      12   10     120   5.65e-05   285.4072*  286.6677*  288.3226*  288.7767*  289.3718*  289.7441*  290.6961*  290.7491*  291.3209*  291.6071   291.7936   292.0202*  
      13   12     122   4.32e-05   285.4072*  286.6677*  288.3226*  288.7767*  289.3718*  289.7441*  290.6961*  290.7491*  291.3207*  291.6060*  291.7902*  292.0202*  

     Davidson procedure converged

 EOMEE transition 1/A"
 Total energy = -403.45010711 a.u.  Excitation energy = 285.4072 eV.
 R0^2 = 0.0000  R1^2 = 0.8246  R2_CCVV^2 = 0.0017  R2_COVV^2 = 0.0868  Res^2 = 1.44e-05
 Conv-d = yes

 Amplitude    Transitions between orbitals
  0.4698       8 (A') A                  ->    7 (A") A                   
  0.4698       8 (A') B                  ->    7 (A") B                   
 -0.2458       8 (A') A                  ->    6 (A") A                   
 -0.2458       8 (A') B                  ->    6 (A") B                   
  0.2000       8 (A') A                  ->    9 (A") A                   
  0.2000       8 (A') B                  ->    9 (A") B                   
 -0.1694       8 (A') A                  ->    8 (A") A                   
 -0.1694       8 (A') B                  ->    8 (A") B                   
 -0.1179       8 (A') A                  ->    14 (A") A                  
 -0.1179       8 (A') B                  ->    14 (A") B                  
  0.1137       8 (A') A                  ->    11 (A") A                  
  0.1137       8 (A') B                  ->    11 (A") B                  
  0.1017       8 (A') A                  ->    20 (A") A                  
  0.1017       8 (A') B                  ->    20 (A") B                  

              Summary of significant orbitals:

               Number  Type             Irrep      Energy
               8       Occ  Alpha       8 (A')    -11.2565
               8       Occ  Beta        8 (A')    -11.2565
               34      Vir  Alpha       6 (A")      0.0611
               35      Vir  Alpha       7 (A")      0.0790
               39      Vir  Alpha       8 (A")      0.1022
               40      Vir  Alpha       9 (A")      0.1081
               48      Vir  Alpha      11 (A")      0.1618
               56      Vir  Alpha      14 (A")      0.2414
               79      Vir  Alpha      20 (A")      0.4197
               34      Vir  Beta        6 (A")      0.0611
               35      Vir  Beta        7 (A")      0.0790
               39      Vir  Beta        8 (A")      0.1022
               40      Vir  Beta        9 (A")      0.1081
               48      Vir  Beta       11 (A")      0.1618
               56      Vir  Beta       14 (A")      0.2414
               79      Vir  Beta       20 (A")      0.4197


 EOMEE transition 2/A"
 Total energy = -403.40378307 a.u.  Excitation energy = 286.6677 eV.
 R0^2 = 0.0000  R1^2 = 0.8459  R2_CCVV^2 = 0.0018  R2_COVV^2 = 0.0761  Res^2 = 5.51e-05
 Conv-d = yes

 Amplitude    Transitions between orbitals
 -0.4800       7 (A') A                  ->    7 (A") A                   
 -0.4800       7 (A') B                  ->    7 (A") B                   
  0.2103       7 (A') A                  ->    8 (A") A                   
  0.2103       7 (A') B                  ->    8 (A") B                   
  0.1961       7 (A') A                  ->    6 (A") A                   
  0.1961       7 (A') B                  ->    6 (A") B                   
 -0.1927       7 (A') A                  ->    9 (A") A                   
 -0.1927       7 (A') B                  ->    9 (A") B                   
 -0.1467       7 (A') A                  ->    20 (A") A                  
 -0.1467       7 (A') B                  ->    20 (A") B                  
  0.1324       7 (A') A                  ->    14 (A") A                  
  0.1324       7 (A') B                  ->    14 (A") B                  

              Summary of significant orbitals:

               Number  Type             Irrep      Energy
               7       Occ  Alpha       7 (A')    -11.3419
               7       Occ  Beta        7 (A')    -11.3419
               34      Vir  Alpha       6 (A")      0.0611
               35      Vir  Alpha       7 (A")      0.0790
               39      Vir  Alpha       8 (A")      0.1022
               40      Vir  Alpha       9 (A")      0.1081
               56      Vir  Alpha      14 (A")      0.2414
               79      Vir  Alpha      20 (A")      0.4197
               34      Vir  Beta        6 (A")      0.0611
               35      Vir  Beta        7 (A")      0.0790
               39      Vir  Beta        8 (A")      0.1022
               40      Vir  Beta        9 (A")      0.1081
               56      Vir  Beta       14 (A")      0.2414
               79      Vir  Beta       20 (A")      0.4197


 EOMEE transition 3/A"
 Total energy = -403.34296652 a.u.  Excitation energy = 288.3226 eV.
 R0^2 = 0.0000  R1^2 = 0.8642  R2_CCVV^2 = 0.0019  R2_COVV^2 = 0.0670  Res^2 = 8.55e-05
 Conv-d = yes

 Amplitude    Transitions between orbitals
 -0.3372       6 (A') A                  ->    7 (A") A                   
 -0.3372       6 (A') B                  ->    7 (A") B                   
 -0.2892       6 (A') A                  ->    9 (A") A                   
 -0.2892       6 (A') B                  ->    9 (A") B                   
  0.2536       6 (A') A                  ->    11 (A") A                  
  0.2536       6 (A') B                  ->    11 (A") B                  
  0.1850       6 (A') A                  ->    6 (A") A                   
  0.1850       6 (A') B                  ->    6 (A") B                   
 -0.1650       6 (A') A                  ->    10 (A") A                  
 -0.1650       6 (A') B                  ->    10 (A") B                  
 -0.1579       6 (A') A                  ->    17 (A") A                  
 -0.1579       6 (A') B                  ->    17 (A") B                  
 -0.1344       6 (A') A                  ->    14 (A") A                  
 -0.1344       6 (A') B                  ->    14 (A") B                  
 -0.1113       6 (A') A                  ->    21 (A") A                  
 -0.1113       6 (A') B                  ->    21 (A") B                  
 -0.1091       6 (A') A                  ->    15 (A") A                  
 -0.1091       6 (A') B                  ->    15 (A") B                  
  0.1086       6 (A') A                  ->    8 (A") A                   
  0.1086       6 (A') B                  ->    8 (A") B                   

              Summary of significant orbitals:

               Number  Type             Irrep      Energy
               6       Occ  Alpha       6 (A')    -11.3828
               6       Occ  Beta        6 (A')    -11.3828
               34      Vir  Alpha       6 (A")      0.0611
               35      Vir  Alpha       7 (A")      0.0790
               39      Vir  Alpha       8 (A")      0.1022
               40      Vir  Alpha       9 (A")      0.1081
               45      Vir  Alpha      10 (A")      0.1364
               48      Vir  Alpha      11 (A")      0.1618
               56      Vir  Alpha      14 (A")      0.2414
               61      Vir  Alpha      15 (A")      0.2960
               67      Vir  Alpha      17 (A")      0.3285
               81      Vir  Alpha      21 (A")      0.4578
               34      Vir  Beta        6 (A")      0.0611
               35      Vir  Beta        7 (A")      0.0790
               39      Vir  Beta        8 (A")      0.1022
               40      Vir  Beta        9 (A")      0.1081
               45      Vir  Beta       10 (A")      0.1364
               48      Vir  Beta       11 (A")      0.1618
               56      Vir  Beta       14 (A")      0.2414
               61      Vir  Beta       15 (A")      0.2960
               67      Vir  Beta       17 (A")      0.3285
               81      Vir  Beta       21 (A")      0.4578


 EOMEE transition 4/A"
 Total energy = -403.32628049 a.u.  Excitation energy = 288.7767 eV.
 R0^2 = 0.0000  R1^2 = 0.8140  R2_CCVV^2 = 0.0017  R2_COVV^2 = 0.0922  Res^2 = 3.00e-06
 Conv-d = yes

 Amplitude    Transitions between orbitals
  0.4806       8 (A') A                  ->    11 (A") A                  
  0.4806       8 (A') B                  ->    11 (A") B                  
 -0.2508       8 (A') A                  ->    9 (A") A                   
 -0.2508       8 (A') B                  ->    9 (A") B                   
 -0.1784       8 (A') A                  ->    14 (A") A                  
 -0.1784       8 (A') B                  ->    14 (A") B                  
 -0.1728       8 (A') A                  ->    10 (A") A                  
 -0.1728       8 (A') B                  ->    10 (A") B                  
 -0.1101       8 (A') A                  ->    16 (A") A                  
 -0.1101       8 (A') B                  ->    16 (A") B                  

              Summary of significant orbitals:

               Number  Type             Irrep      Energy
               8       Occ  Alpha       8 (A')    -11.2565
               8       Occ  Beta        8 (A')    -11.2565
               40      Vir  Alpha       9 (A")      0.1081
               45      Vir  Alpha      10 (A")      0.1364
               48      Vir  Alpha      11 (A")      0.1618
               56      Vir  Alpha      14 (A")      0.2414
               65      Vir  Alpha      16 (A")      0.3174
               40      Vir  Beta        9 (A")      0.1081
               45      Vir  Beta       10 (A")      0.1364
               48      Vir  Beta       11 (A")      0.1618
               56      Vir  Beta       14 (A")      0.2414
               65      Vir  Beta       16 (A")      0.3174


 EOMEE transition 5/A"
 Total energy = -403.30440999 a.u.  Excitation energy = 289.3718 eV.
 R0^2 = 0.0000  R1^2 = 0.8081  R2_CCVV^2 = 0.0016  R2_COVV^2 = 0.0951  Res^2 = 2.98e-05
 Conv-d = yes

 Amplitude    Transitions between orbitals
 -0.4914       8 (A') A                  ->    6 (A") A                   
 -0.4914       8 (A') B                  ->    6 (A") B                   
  0.2775       8 (A') A                  ->    8 (A") A                   
  0.2775       8 (A') B                  ->    8 (A") B                   
 -0.2232       8 (A') A                  ->    7 (A") A                   
 -0.2232       8 (A') B                  ->    7 (A") B                   
  0.1123       8 (A') A                  ->    9 (A") A                   
  0.1123       8 (A') B                  ->    9 (A") B                   

              Summary of significant orbitals:

               Number  Type             Irrep      Energy
               8       Occ  Alpha       8 (A')    -11.2565
               8       Occ  Beta        8 (A')    -11.2565
               34      Vir  Alpha       6 (A")      0.0611
               35      Vir  Alpha       7 (A")      0.0790
               39      Vir  Alpha       8 (A")      0.1022
               40      Vir  Alpha       9 (A")      0.1081
               34      Vir  Beta        6 (A")      0.0611
               35      Vir  Beta        7 (A")      0.0790
               39      Vir  Beta        8 (A")      0.1022
               40      Vir  Beta        9 (A")      0.1081


 EOMEE transition 6/A"
 Total energy = -403.29072797 a.u.  Excitation energy = 289.7441 eV.
 R0^2 = 0.0000  R1^2 = 0.8766  R2_CCVV^2 = 0.0020  R2_COVV^2 = 0.0607  Res^2 = 6.24e-05
 Conv-d = yes

 Amplitude    Transitions between orbitals
  0.5416       5 (A') A                  ->    11 (A") A                  
  0.5416       5 (A') B                  ->    11 (A") B                  
  0.1557       5 (A') A                  ->    15 (A") A                  
  0.1557       5 (A') B                  ->    15 (A") B                  
 -0.1472       5 (A') A                  ->    8 (A") A                   
 -0.1472       5 (A') B                  ->    8 (A") B                   
  0.1222       5 (A') A                  ->    14 (A") A                  
  0.1222       5 (A') B                  ->    14 (A") B                  
  0.1181       5 (A') A                  ->    7 (A") A                   
  0.1181       5 (A') B                  ->    7 (A") B                   
 -0.1031       5 (A') A                  ->    20 (A") A                  
 -0.1031       5 (A') B                  ->    20 (A") B                  

              Summary of significant orbitals:

               Number  Type             Irrep      Energy
               5       Occ  Alpha       5 (A')    -11.4212
               5       Occ  Beta        5 (A')    -11.4212
               35      Vir  Alpha       7 (A")      0.0790
               39      Vir  Alpha       8 (A")      0.1022
               48      Vir  Alpha      11 (A")      0.1618
               56      Vir  Alpha      14 (A")      0.2414
               61      Vir  Alpha      15 (A")      0.2960
               79      Vir  Alpha      20 (A")      0.4197
               35      Vir  Beta        7 (A")      0.0790
               39      Vir  Beta        8 (A")      0.1022
               48      Vir  Beta       11 (A")      0.1618
               56      Vir  Beta       14 (A")      0.2414
               61      Vir  Beta       15 (A")      0.2960
               79      Vir  Beta       20 (A")      0.4197


 EOMEE transition 7/A"
 Total energy = -403.25574530 a.u.  Excitation energy = 290.6961 eV.
 R0^2 = 0.0000  R1^2 = 0.8045  R2_CCVV^2 = 0.0016  R2_COVV^2 = 0.0970  Res^2 = 1.23e-05
 Conv-d = yes

 Amplitude    Transitions between orbitals
  0.5281       8 (A') A                  ->    8 (A") A                   
  0.5281       8 (A') B                  ->    8 (A") B                   
  0.2637       8 (A') A                  ->    7 (A") A                   
  0.2637       8 (A') B                  ->    7 (A") B                   
  0.1725       8 (A') A                  ->    6 (A") A                   
  0.1725       8 (A') B                  ->    6 (A") B                   

              Summary of significant orbitals:

               Number  Type             Irrep      Energy
               8       Occ  Alpha       8 (A')    -11.2565
               8       Occ  Beta        8 (A')    -11.2565
               34      Vir  Alpha       6 (A")      0.0611
               35      Vir  Alpha       7 (A")      0.0790
               39      Vir  Alpha       8 (A")      0.1022
               34      Vir  Beta        6 (A")      0.0611
               35      Vir  Beta        7 (A")      0.0790
               39      Vir  Beta        8 (A")      0.1022


 EOMEE transition 8/A"
 Total energy = -403.25379718 a.u.  Excitation energy = 290.7491 eV.
 R0^2 = 0.0000  R1^2 = 0.8085  R2_CCVV^2 = 0.0016  R2_COVV^2 = 0.0950  Res^2 = 1.80e-05
 Conv-d = yes

 Amplitude    Transitions between orbitals
  0.5034       8 (A') A                  ->    9 (A") A                   
  0.5034       8 (A') B                  ->    9 (A") B                   
  0.2256       8 (A') A                  ->    6 (A") A                   
  0.2256       8 (A') B                  ->    6 (A") B                   
  0.1972       8 (A') A                  ->    11 (A") A                  
  0.1972       8 (A') B                  ->    11 (A") B                  
 -0.1787       8 (A') A                  ->    7 (A") A                   
 -0.1787       8 (A') B                  ->    7 (A") B                   

              Summary of significant orbitals:

[...]
 Oscillator strength (a.u.): 0.031904
 Norm of one-particle transition density matrix:
   A->B: 0.881219;   B->A: 0.886990
   ||gamma^AB||*||gamma^BA||: 0.781632

 ------------------------------------------------------------------------------
 State A: ccsd: 0/A'
 State B: cvs_eomee_ccsd/rhfref/singlets: 2/A"
 Transition dipole moment (a.u.):
   A->B: 0.091171 (X 0.000000, Y 0.000000, Z -0.091171)
   B->A: 0.091358 (X 0.000000, Y 0.000000, Z -0.091358)
 Oscillator strength (a.u.): 0.058498
 Norm of one-particle transition density matrix:
   A->B: 0.896784;   B->A: 0.901066
   ||gamma^AB||*||gamma^BA||: 0.808062

 ------------------------------------------------------------------------------
 State A: ccsd: 0/A'
 State B: cvs_eomee_ccsd/rhfref/singlets: 3/A"
 Transition dipole moment (a.u.):
   A->B: 0.098998 (X 0.000000, Y 0.000000, Z -0.098998)
   B->A: 0.098405 (X 0.000000, Y 0.000000, Z -0.098405)
 Oscillator strength (a.u.): 0.068814
 Norm of one-particle transition density matrix:
   A->B: 0.906679;   B->A: 0.915902
   ||gamma^AB||*||gamma^BA||: 0.830429

 ------------------------------------------------------------------------------
 State A: ccsd: 0/A'
 State B: cvs_eomee_ccsd/rhfref/singlets: 4/A"
 Transition dipole moment (a.u.):
   A->B: 0.040114 (X 0.000000, Y 0.000000, Z 0.040114)
   B->A: 0.041357 (X 0.000000, Y 0.000000, Z 0.041357)
 Oscillator strength (a.u.): 0.011737
 Norm of one-particle transition density matrix:
   A->B: 0.883709;   B->A: 0.876395
   ||gamma^AB||*||gamma^BA||: 0.774478

 ------------------------------------------------------------------------------
 State A: ccsd: 0/A'
 State B: cvs_eomee_ccsd/rhfref/singlets: 5/A"
 Transition dipole moment (a.u.):
   A->B: 0.017175 (X 0.000000, Y 0.000000, Z 0.017175)
   B->A: 0.019143 (X 0.000000, Y 0.000000, Z 0.019143)
 Oscillator strength (a.u.): 0.002331
 Norm of one-particle transition density matrix:
   A->B: 0.899593;   B->A: 0.866755
   ||gamma^AB||*||gamma^BA||: 0.779727

 ------------------------------------------------------------------------------
 State A: ccsd: 0/A'
 State B: cvs_eomee_ccsd/rhfref/singlets: 6/A"
 Transition dipole moment (a.u.):
   A->B: 0.106967 (X 0.000000, Y 0.000000, Z -0.106967)
   B->A: 0.106522 (X 0.000000, Y 0.000000, Z -0.106522)
 Oscillator strength (a.u.): 0.080884
 Norm of one-particle transition density matrix:
   A->B: 0.916745;   B->A: 0.924348
   ||gamma^AB||*||gamma^BA||: 0.847391

 ------------------------------------------------------------------------------
 State A: ccsd: 0/A'
 State B: cvs_eomee_ccsd/rhfref/singlets: 7/A"
 Transition dipole moment (a.u.):
   A->B: 0.011825 (X 0.000000, Y 0.000000, Z 0.011825)
   B->A: 0.011169 (X 0.000000, Y 0.000000, Z 0.011169)
 Oscillator strength (a.u.): 0.000941
 Norm of one-particle transition density matrix:
   A->B: 0.898876;   B->A: 0.863161
   ||gamma^AB||*||gamma^BA||: 0.775874

 ------------------------------------------------------------------------------
 State A: ccsd: 0/A'
 State B: cvs_eomee_ccsd/rhfref/singlets: 8/A"
 Transition dipole moment (a.u.):
   A->B: 0.026268 (X 0.000000, Y 0.000000, Z 0.026268)
   B->A: 0.025864 (X 0.000000, Y 0.000000, Z 0.025864)
 Oscillator strength (a.u.): 0.004839
 Norm of one-particle transition density matrix:
   A->B: 0.900107;   B->A: 0.865944
   ||gamma^AB||*||gamma^BA||: 0.779442

 ------------------------------------------------------------------------------
 State A: ccsd: 0/A'
 State B: cvs_eomee_ccsd/rhfref/singlets: 9/A"
 Transition dipole moment (a.u.):
   A->B: 0.024204 (X 0.000000, Y 0.000000, Z 0.024204)
   B->A: 0.023570 (X 0.000000, Y 0.000000, Z 0.023570)
 Oscillator strength (a.u.): 0.004072
 Norm of one-particle transition density matrix:
   A->B: 0.904672;   B->A: 0.867233
   ||gamma^AB||*||gamma^BA||: 0.784561

 ------------------------------------------------------------------------------
 State A: ccsd: 0/A'
 State B: cvs_eomee_ccsd/rhfref/singlets: 10/A"
 Transition dipole moment (a.u.):
   A->B: 0.000956 (X 0.000000, Y 0.000000, Z 0.000956)
   B->A: 0.000434 (X 0.000000, Y 0.000000, Z 0.000434)
 Oscillator strength (a.u.): 0.000003
 Norm of one-particle transition density matrix:
   A->B: 0.876627;   B->A: 0.857562
   ||gamma^AB||*||gamma^BA||: 0.751762

 ------------------------------------------------------------------------------
 State A: ccsd: 0/A'
 State B: cvs_eomee_ccsd/rhfref/singlets: 11/A"
 Transition dipole moment (a.u.):
   A->B: 0.024898 (X 0.000000, Y 0.000000, Z 0.024898)
   B->A: 0.025732 (X 0.000000, Y 0.000000, Z 0.025732)
 Oscillator strength (a.u.): 0.004580
 Norm of one-particle transition density matrix:
   A->B: 0.881375;   B->A: 0.861333
   ||gamma^AB||*||gamma^BA||: 0.759157

 ------------------------------------------------------------------------------
 State A: ccsd: 0/A'
 State B: cvs_eomee_ccsd/rhfref/singlets: 12/A"
 Transition dipole moment (a.u.):
   A->B: 0.034972 (X 0.000000, Y 0.000000, Z -0.034972)
   B->A: 0.034307 (X 0.000000, Y 0.000000, Z -0.034307)
 Oscillator strength (a.u.): 0.008584
 Norm of one-particle transition density matrix:
   A->B: 0.879878;   B->A: 0.869779
   ||gamma^AB||*||gamma^BA||: 0.765300


 All requested transition properties have been computed

 Transition Properties:   CPU 457.89 s  wall 126.00 s

 Total ccman2 time:   CPU 78573.39 s  wall 11770.05 s

 
 --------------------------------------------------------------
             Orbital Energies (a.u.) and Symmetries
 --------------------------------------------------------------
 
 Alpha MOs, Restricted
 -- Occupied --                  
-20.558 -20.553 -15.651 -15.634 -11.421 -11.383 -11.342 -11.256
  1 A'    2 A'    3 A'    4 A'    5 A'    6 A'    7 A'    8 A'                 
 -1.440  -1.403  -1.316  -1.248  -1.090  -0.935  -0.903  -0.808
  9 A'   10 A'   11 A'   12 A'   13 A'   14 A'   15 A'   16 A'                 
 -0.766  -0.715  -0.679  -0.669  -0.655  -0.617  -0.603  -0.572
 17 A'   18 A'   19 A'    1 A"   20 A'   21 A'   22 A'    2 A"                 
 -0.526  -0.484  -0.450  -0.437  -0.370
  3 A"   23 A'   24 A'    4 A"    5 A"                                         
 -- Virtual --                   
  0.017   0.039   0.048   0.058   0.061   0.079   0.083   0.091
 25 A'   26 A'   27 A'   28 A'    6 A"    7 A"   29 A'   30 A'                 
  0.100   0.102   0.108   0.113   0.124   0.135   0.136   0.136
 31 A'    8 A"    9 A"   32 A'   33 A'   34 A'   35 A'   10 A"                 
  0.153   0.155   0.162   0.171   0.181   0.187   0.191   0.218
 36 A'   37 A'   11 A"   38 A'   39 A'   12 A"   40 A'   41 A'                 
  0.227   0.240   0.241   0.250   0.260   0.280   0.294   0.296
 13 A"   42 A'   14 A"   43 A'   44 A'   45 A'   46 A'   15 A"                 
  0.304   0.305   0.309   0.317   0.321   0.328   0.331   0.346
 47 A'   48 A'   49 A'   16 A"   50 A'   17 A"   51 A'   52 A'                 
  0.353   0.372   0.383   0.388   0.393   0.394   0.399   0.412
 53 A'   54 A'   18 A"   55 A'   56 A'   19 A"   57 A'   58 A'                 
  0.420   0.420   0.442   0.458   0.476   0.484   0.495   0.498
 59 A'   20 A"   60 A'   21 A"   61 A'   22 A"   62 A'   23 A"                 
  0.505   0.508   0.508   0.526   0.530   0.548   0.552   0.570
 63 A'   24 A"   64 A'   25 A"   65 A'   66 A'   67 A'   26 A"                 
  0.573   0.584   0.590   0.622   0.638   0.638   0.657   0.659
 68 A'   69 A'   70 A'   71 A'   27 A"   72 A'   73 A'   28 A"                 
  0.670   0.680   0.684   0.689   0.690   0.701   0.713   0.724
 74 A'   75 A'   29 A"   76 A'   30 A"   77 A'   78 A'   79 A'                 
  0.732   0.738   0.748   0.757   0.771   0.773   0.778   0.799
 80 A'   31 A"   81 A'   82 A'   83 A'   84 A'   32 A"   85 A'                 
  0.815   0.828   0.832   0.836   0.864   0.879   0.897   0.915
 33 A"   86 A'   87 A'   34 A"   88 A'   89 A'   90 A'   91 A'                 
  0.950   0.950   0.962   0.983   0.992   1.006   1.006   1.024
 92 A'   35 A"   93 A'   94 A'   36 A"   37 A"   95 A'   96 A'                 
  1.034   1.044   1.079   1.098   1.123   1.141   1.150   1.152
 38 A"   97 A'   98 A'   99 A'  100 A'  101 A'   39 A"  102 A'                 
  1.170   1.186   1.204   1.209   1.214   1.236   1.241   1.283
103 A'   40 A"   41 A"   42 A"  104 A'  105 A'   43 A"   44 A"                 
  1.287   1.304   1.337   1.345   1.375   1.385   1.393   1.405
 45 A"  106 A'  107 A'   46 A"  108 A'  109 A'  110 A'  111 A'                 
  1.422   1.427   1.452   1.457   1.473   1.490   1.503   1.522
112 A'   47 A"  113 A'   48 A"   49 A"  114 A'  115 A'  116 A'                 
  1.526   1.554   1.560   1.563   1.567   1.598   1.615   1.628
 50 A"  117 A'   51 A"  118 A'   52 A"  119 A'   53 A"  120 A'                 
  1.640   1.641   1.676   1.701   1.707   1.718   1.760   1.766
 54 A"  121 A'  122 A'   55 A"  123 A'   56 A"  124 A'   57 A"                 
  1.776   1.791   1.809   1.815   1.841   1.843   1.877   1.892
 58 A"  125 A'  126 A'  127 A'  128 A'   59 A"   60 A"  129 A'                 
  1.927   1.943   1.986   2.013   2.027   2.041   2.076   2.100
130 A'  131 A'  132 A'   61 A"  133 A'   62 A"  134 A'   63 A"                 
  2.129   2.154   2.208   2.218   2.228   2.262   2.280   2.328
135 A'  136 A'   64 A"  137 A'   65 A"  138 A'   66 A"  139 A'                 
  2.395   2.427   2.465   2.519   2.555   2.565   2.568   2.610
140 A'  141 A'  142 A'  143 A'  144 A'   67 A"  145 A'  146 A'                 
  2.614   2.651   2.687   2.697   2.717   2.721   2.771   2.786
 68 A"  147 A'  148 A'   69 A"   70 A"  149 A'  150 A'   71 A"                 
  2.838   2.880   2.884   2.955   2.994   3.005   3.024   3.032
 72 A"  151 A'   73 A"  152 A'  153 A'   74 A"  154 A'   75 A"                 
  3.048   3.061   3.085   3.166   3.182   3.215   3.232   3.236
155 A'  156 A'  157 A'  158 A'  159 A'  160 A'  161 A'   76 A"                 
  3.275   3.309   3.330   3.335   3.366   3.390   3.411   3.422
162 A'   77 A"   78 A"  163 A'   79 A"  164 A'  165 A'   80 A"                 
  3.463   3.468   3.484   3.512   3.528   3.557   3.578   3.585
166 A'   81 A"  167 A'   82 A"  168 A'  169 A'   83 A"  170 A'                 
  3.617   3.638   3.640   3.650   3.666   3.675   3.693   3.724
171 A'  172 A'   84 A"  173 A'   85 A"  174 A'  175 A'   86 A"                 
  3.736   3.794   3.799   3.812   3.829   3.847   3.849   3.888
176 A'  177 A'   87 A"   88 A"  178 A'   89 A"  179 A'  180 A'                 
  3.935   3.942   3.957   3.979   3.994   4.017   4.038   4.073
 90 A"  181 A'   91 A"  182 A'  183 A'   92 A"  184 A'   93 A"                 
  4.076   4.095   4.146   4.161   4.211   4.231   4.243   4.329
 94 A"  185 A'  186 A'   95 A"  187 A'   96 A"  188 A'  189 A'                 
  4.381   4.400   4.433   4.468   4.543   4.565   4.579   4.624
190 A'  191 A'  192 A'  193 A'  194 A'   97 A"  195 A'   98 A"                 
  4.643   4.670   4.847   4.855   4.878   4.925   4.982   5.067
 99 A"  196 A'  100 A"  197 A'  198 A'  199 A'  200 A'  201 A'                 
  5.115   5.197   5.233   5.280   5.578   5.680   5.941  12.254
202 A'  203 A'  204 A'  205 A'  206 A'  207 A'  208 A'  209 A'                 
 13.560  13.935  15.595
210 A'  211 A'  212 A'                                                         
 
 Beta MOs, Restricted
 -- Occupied --                  
-20.558 -20.553 -15.651 -15.634 -11.421 -11.383 -11.342 -11.256
  1 A'    2 A'    3 A'    4 A'    5 A'    6 A'    7 A'    8 A'                 
 -1.440  -1.403  -1.316  -1.248  -1.090  -0.935  -0.903  -0.808
  9 A'   10 A'   11 A'   12 A'   13 A'   14 A'   15 A'   16 A'                 
 -0.766  -0.715  -0.679  -0.669  -0.655  -0.617  -0.603  -0.572
 17 A'   18 A'   19 A'    1 A"   20 A'   21 A'   22 A'    2 A"                 
 -0.526  -0.484  -0.450  -0.437  -0.370
  3 A"   23 A'   24 A'    4 A"    5 A"                                         
 -- Virtual --                   
  0.017   0.039   0.048   0.058   0.061   0.079   0.083   0.091
 25 A'   26 A'   27 A'   28 A'    6 A"    7 A"   29 A'   30 A'                 
  0.100   0.102   0.108   0.113   0.124   0.135   0.136   0.136
 31 A'    8 A"    9 A"   32 A'   33 A'   34 A'   35 A'   10 A"                 
  0.153   0.155   0.162   0.171   0.181   0.187   0.191   0.218
 36 A'   37 A'   11 A"   38 A'   39 A'   12 A"   40 A'   41 A'                 
  0.227   0.240   0.241   0.250   0.260   0.280   0.294   0.296
 13 A"   42 A'   14 A"   43 A'   44 A'   45 A'   46 A'   15 A"                 
  0.304   0.305   0.309   0.317   0.321   0.328   0.331   0.346
 47 A'   48 A'   49 A'   16 A"   50 A'   17 A"   51 A'   52 A'                 
  0.353   0.372   0.383   0.388   0.393   0.394   0.399   0.412
 53 A'   54 A'   18 A"   55 A'   56 A'   19 A"   57 A'   58 A'                 
  0.420   0.420   0.442   0.458   0.476   0.484   0.495   0.498
 59 A'   20 A"   60 A'   21 A"   61 A'   22 A"   62 A'   23 A"                 
  0.505   0.508   0.508   0.526   0.530   0.548   0.552   0.570
 63 A'   24 A"   64 A'   25 A"   65 A'   66 A'   67 A'   26 A"                 
  0.573   0.584   0.590   0.622   0.638   0.638   0.657   0.659
 68 A'   69 A'   70 A'   71 A'   27 A"   72 A'   73 A'   28 A"                 
  0.670   0.680   0.684   0.689   0.690   0.701   0.713   0.724
 74 A'   75 A'   29 A"   76 A'   30 A"   77 A'   78 A'   79 A'                 
  0.732   0.738   0.748   0.757   0.771   0.773   0.778   0.799
 80 A'   31 A"   81 A'   82 A'   83 A'   84 A'   32 A"   85 A'                 
  0.815   0.828   0.832   0.836   0.864   0.879   0.897   0.915
 33 A"   86 A'   87 A'   34 A"   88 A'   89 A'   90 A'   91 A'                 
  0.950   0.950   0.962   0.983   0.992   1.006   1.006   1.024
 92 A'   35 A"   93 A'   94 A'   36 A"   37 A"   95 A'   96 A'                 
  1.034   1.044   1.079   1.098   1.123   1.141   1.150   1.152
 38 A"   97 A'   98 A'   99 A'  100 A'  101 A'   39 A"  102 A'                 
  1.170   1.186   1.204   1.209   1.214   1.236   1.241   1.283
103 A'   40 A"   41 A"   42 A"  104 A'  105 A'   43 A"   44 A"                 
  1.287   1.304   1.337   1.345   1.375   1.385   1.393   1.405
 45 A"  106 A'  107 A'   46 A"  108 A'  109 A'  110 A'  111 A'                 
  1.422   1.427   1.452   1.457   1.473   1.490   1.503   1.522
112 A'   47 A"  113 A'   48 A"   49 A"  114 A'  115 A'  116 A'                 
  1.526   1.554   1.560   1.563   1.567   1.598   1.615   1.628
 50 A"  117 A'   51 A"  118 A'   52 A"  119 A'   53 A"  120 A'                 
  1.640   1.641   1.676   1.701   1.707   1.718   1.760   1.766
 54 A"  121 A'  122 A'   55 A"  123 A'   56 A"  124 A'   57 A"                 
  1.776   1.791   1.809   1.815   1.841   1.843   1.877   1.892
 58 A"  125 A'  126 A'  127 A'  128 A'   59 A"   60 A"  129 A'                 
  1.927   1.943   1.986   2.013   2.027   2.041   2.076   2.100
130 A'  131 A'  132 A'   61 A"  133 A'   62 A"  134 A'   63 A"                 
  2.129   2.154   2.208   2.218   2.228   2.262   2.280   2.328
135 A'  136 A'   64 A"  137 A'   65 A"  138 A'   66 A"  139 A'                 
  2.395   2.427   2.465   2.519   2.555   2.565   2.568   2.610
140 A'  141 A'  142 A'  143 A'  144 A'   67 A"  145 A'  146 A'                 
  2.614   2.651   2.687   2.697   2.717   2.721   2.771   2.786
 68 A"  147 A'  148 A'   69 A"   70 A"  149 A'  150 A'   71 A"                 
  2.838   2.880   2.884   2.955   2.994   3.005   3.024   3.032
 72 A"  151 A'   73 A"  152 A'  153 A'   74 A"  154 A'   75 A"                 
  3.048   3.061   3.085   3.166   3.182   3.215   3.232   3.236
155 A'  156 A'  157 A'  158 A'  159 A'  160 A'  161 A'   76 A"                 
  3.275   3.309   3.330   3.335   3.366   3.390   3.411   3.422
162 A'   77 A"   78 A"  163 A'   79 A"  164 A'  165 A'   80 A"                 
  3.463   3.468   3.484   3.512   3.528   3.557   3.578   3.585
166 A'   81 A"  167 A'   82 A"  168 A'  169 A'   83 A"  170 A'                 
  3.617   3.638   3.640   3.650   3.666   3.675   3.693   3.724
171 A'  172 A'   84 A"  173 A'   85 A"  174 A'  175 A'   86 A"                 
  3.736   3.794   3.799   3.812   3.829   3.847   3.849   3.888
176 A'  177 A'   87 A"   88 A"  178 A'   89 A"  179 A'  180 A'                 
  3.935   3.942   3.957   3.979   3.994   4.017   4.038   4.073
 90 A"  181 A'   91 A"  182 A'  183 A'   92 A"  184 A'   93 A"                 
  4.076   4.095   4.146   4.161   4.211   4.231   4.243   4.329
 94 A"  185 A'  186 A'   95 A"  187 A'   96 A"  188 A'  189 A'                 
  4.381   4.400   4.433   4.468   4.543   4.565   4.579   4.624
190 A'  191 A'  192 A'  193 A'  194 A'   97 A"  195 A'   98 A"                 
  4.643   4.670   4.847   4.855   4.878   4.925   4.982   5.067
 99 A"  196 A'  100 A"  197 A'  198 A'  199 A'  200 A'  201 A'                 
  5.115   5.197   5.233   5.280   5.578   5.680   5.941  12.254
202 A'  203 A'  204 A'  205 A'  206 A'  207 A'  208 A'  209 A'                 
 13.560  13.935  15.595
210 A'  211 A'  212 A'                                                         
 --------------------------------------------------------------
 
          Ground-State Mulliken Net Atomic Charges

     Atom                 Charge (a.u.)
  ----------------------------------------
      1 C                     0.575707
      2 H                    -0.067864
      3 H                    -0.850168
      4 H                    -0.020420
      5 C                     0.010212
      6 O                    -0.346343
      7 C                     0.189928
      8 O                    -0.429957
      9 N                     0.289562
     10 N                     0.366848
     11 C                     1.200281
     12 H                    -0.917787
  ----------------------------------------
  Sum of atomic charges =    -0.000000

 -----------------------------------------------------------------
                    Cartesian Multipole Moments
 -----------------------------------------------------------------
    Charge (ESU x 10^10)
                 0.0000
    Dipole Moment (Debye)
         X      -1.3668      Y      -4.8264      Z       0.0000
       Tot       5.0162
    Quadrupole Moments (Debye-Ang)
        XX     -60.1251     XY       2.5127     YY     -38.2306
        XZ       0.0000     YZ      -0.0000     ZZ     -46.7300
    Octopole Moments (Debye-Ang^2)
       XXX     -10.9899    XXY     -33.6377    XYY      -5.2733
       YYY      -8.5105    XXZ      -0.0000    XYZ       0.0000
       YYZ      -0.0000    XZZ      -1.9034    YZZ       4.3318
       ZZZ       0.0000
    Hexadecapole Moments (Debye-Ang^3)
      XXXX    -722.5014   XXXY      12.7496   XXYY    -175.7238
      XYYY      13.5515   YYYY    -305.3940   XXXZ       0.0000
      XXYZ      -0.0000   XYYZ       0.0000   YYYZ       0.0000
      XXZZ    -113.4908   XYZZ       3.0492   YYZZ     -75.1186
      XZZZ       0.0000   YZZZ      -0.0000   ZZZZ     -46.2894
 -----------------------------------------------------------------
Archival summary:
1\1\n-62-23-21\SP\ProcedureUnspecified\BasisUnspecified\2244\malop\MonSep2420:37:292018MonSep2420:37:292018\0\\#,ProcedureUnspecified,BasisUnspecified,\\0,1\N\H,1,1.01081\C,1,1.37966,2,115.327\O,3,1.21479,1,124.21,2,-0,0\N,3,1.3852,1,112.713,2,-180,0\H,5,1.00619,3,115.142,1,180,0\C,5,1.37008,3,123.626,1,-0,0\H,7,1.07981,5,115.516,3,-180,0\C,7,1.34802,5,121.979,3,0,0\H,9,1.07615,7,121.525,5,-180,0\C,1,1.40335,2,116.035,3,180,0\O,11,1.21832,1,120.541,2,-0,0\\HF=-412.572321\\@

 Total job time:  12192.33s(wall), 80617.71s(cpu) 
 Mon Sep 24 20:37:29 2018

        *************************************************************
        *                                                           *
        *  Thank you very much for using Q-Chem.  Have a nice day.  *
        *                                                           *
        *************************************************************


