n-62-23-6 10.66.23
Q-Chem Developer Version! Running on 10.66.23.*
                  Welcome to Q-Chem
     A Quantum Leap Into The Future Of Chemistry


 Q-Chem 5.1, Q-Chem, Inc., Pleasanton, CA (2018)

 Yihan Shao,  Zhengting Gan,  E. Epifanovsky,  A. T. B. Gilbert,  M. Wormit,  
 J. Kussmann,  A. W. Lange,  A. Behn,  Jia Deng,  Xintian Feng,  D. Ghosh,  
 M. Goldey,  P. R. Horn,  L. D. Jacobson,  I. Kaliman,  T. Kus,  A. Landau,  
 Jie Liu,  E. I. Proynov,  R. M. Richard,  R. P. Steele,  E. J. Sundstrom,  
 H. L. Woodcock III,  P. M. Zimmerman,  D. Zuev,  B. Albrecht,  E. Alguire,  
 S. A. Baeppler,  D. Barton,  Z. Benda,  Y. A. Bernard,  E. J. Berquist,  
 K. B. Bravaya,  H. Burton,  D. Casanova,  Chun-Min Chang,  Yunqing Chen,  
 A. Chien,  K. D. Closser,  M. P. Coons,  S. Coriani,  S. Dasgupta,  
 A. L. Dempwolff,  M. Diedenhofen,  Hainam Do,  R. G. Edgar,  Po-Tung Fang,  
 S. Faraji,  S. Fatehi,  Qingguo Feng,  K. D. Fenk,  J. Fosso-Tande,  
 Qinghui Ge,  A. Ghysels,  G. Gidofalvi,  J. Gomes,  J. Gonthier,  A. Gunina,  
 M. W. D. Hanson-Heine,  P. H. P. Harbach,  A. W. Hauser,  J. E. Herr,  
 E. G. Hohenstein,  Z. C. Holden,  Kerwin Hui,  T.-C. Jagau,  Hyunjun Ji,  
 B. Kaduk,  K. Khistyaev,  Jaehoon Kim,  P. Klunzinger,  K. Koh,  
 D. Kosenkov,  L. Koulias,  T. Kowalczyk,  C. M. Krauter,  A. Kunitsa,  
 Ka Un Lao,  A. Laurent,  K. V. Lawler,  Joonho Lee,  D. Lefrancois,  
 S. Lehtola,  D. S. Levine,  Yi-Pei Li,  You-Sheng Lin,  Fenglai Liu,  
 E. Livshits,  A. Luenser,  P. Manohar,  E. Mansoor,  S. F. Manzer,  
 Shan-Ping Mao,  Yuezhi Mao,  N. Mardirossian,  A. V. Marenich,  
 T. Markovich,  L. A. Martinez-Martinez,  S. A. Maurer,  N. J. Mayhall,  
 S. C. McKenzie,  J.-M. Mewes,  A. F. Morrison,  J. W. Mullinax,  K. Nanda,  
 T. S. Nguyen-Beck,  R. Olivares-Amaya,  J. A. Parkhill,  T. M. Perrine,  
 F. Plasser,  P. Pokhilko,  S. Prager,  A. Prociuk,  E. Ramos,  D. R. Rehn,  
 F. Rob,  M. Schneider,  N. Sergueev,  S. M. Sharada,  S. Sharma,  
 D. W. Small,  T. Stauch,  T. Stein,  Yu-Chuan Su,  A. J. W. Thom,  
 A. Tkatchenko,  T. Tsuchimochi,  N. M. Tubman,  L. Vogt,  M. L. Vidal,  
 O. Vydrov,  M. A. Watson,  J. Wenzel,  M. de Wergifosse,  T. A. Wesolowski,  
 A. White,  J. Witte,  A. Yamada,  Jun Yang,  K. Yao,  S. Yeganeh,  
 S. R. Yost,  Zhi-Qiang You,  A. Zech,  Igor Ying Zhang,  Xing Zhang,  
 Yan Zhao,  Ying Zhu,  B. R. Brooks,  G. K. L. Chan,  C. J. Cramer,  
 M. S. Gordon,  W. J. Hehre,  A. Klamt,  M. W. Schmidt,  C. D. Sherrill,  
 D. G. Truhlar,  A. Aspuru-Guzik,  R. Baer,  A. T. Bell,  N. A. Besley,  
 Jeng-Da Chai,  R. A. DiStasio Jr.,  A. Dreuw,  B. D. Dunietz,  
 T. R. Furlani,  Chao-Ping Hsu,  Yousung Jung,  Jing Kong,  D. S. Lambrecht,  
 WanZhen Liang,  C. Ochsenfeld,  V. A. Rassolov,  L. V. Slipchenko,  
 J. E. Subotnik,  T. Van Voorhis,  J. M. Herbert,  A. I. Krylov,  
 P. M. W. Gill,  M. Head-Gordon

 Contributors to earlier versions of Q-Chem not listed above: 
 R. D. Adamson,  B. Austin,  J. Baker,  G. J. O. Beran,  K. Brandhorst,  
 S. T. Brown,  E. F. C. Byrd,  A. K. Chakraborty,  C.-L. Cheng,  
 Siu Hung Chien,  D. M. Chipman,  D. L. Crittenden,  H. Dachsel,  
 R. J. Doerksen,  A. D. Dutoi,  L. Fusti-Molnar,  W. A. Goddard III,  
 A. Golubeva-Zadorozhnaya,  S. R. Gwaltney,  G. Hawkins,  A. Heyden,  
 S. Hirata,  G. Kedziora,  F. J. Keil,  C. Kelley,  Jihan Kim,  R. A. King,  
 R. Z. Khaliullin,  P. P. Korambath,  W. Kurlancheek,  A. M. Lee,  M. S. Lee,  
 S. V. Levchenko,  Ching Yeh Lin,  D. Liotard,  R. C. Lochan,  I. Lotan,  
 P. E. Maslen,  N. Nair,  D. P. O'Neill,  D. Neuhauser,  E. Neuscamman,  
 C. M. Oana,  R. Olson,  B. Peters,  R. Peverati,  P. A. Pieniazek,  
 Y. M. Rhee,  J. Ritchie,  M. A. Rohrdanz,  E. Rosta,  N. J. Russ,  
 H. F. Schaefer III,  N. E. Schultz,  N. Shenvi,  A. C. Simmonett,  A. Sodt,  
 D. Stuck,  K. S. Thanthiriwatte,  V. Vanovschi,  Tao Wang,  A. Warshel,  
 C. F. Williams,  Q. Wu,  X. Xu,  W. Zhang

 Please cite Q-Chem as follows:
 Y. Shao et al., Mol. Phys. 113, 184-215 (2015)
 DOI: 10.1080/00268976.2014.952696

 Q-Chem 5.1.0 for Intel X86 EM64T Linux

 Parts of Q-Chem use Armadillo 8.300.2 (Tropical Shenanigans).
 http://arma.sourceforge.net/

 Q-Chem begins on Thu Sep 20 12:59:34 2018  

Host: 
0

     Scratch files written to /work1/malop/qc_7245510.hnode2//

Checking the input file for inconsistencies... 	...done.

--------------------------------------------------------------
User input:
--------------------------------------------------------------
$comment 
URACIL N-edge
optimizion: mp2/cc-pvtz
$end

$molecule
0 1
C        0.052842   -1.701332    0.000000
H       -2.016793   -1.512231    0.000000
H       -0.025494   -2.778299    0.000000
H       -0.023568    1.988544    0.000000
C       -1.232948    0.358893    0.000000
O       -2.294123    0.950188    0.000000
C        1.274970    0.391620    0.000000
O        2.275873    1.086244    0.000000
N        0.000000    0.978006    0.000000
N       -1.137535   -1.023018    0.000000
C        1.239239   -1.061325    0.000000
H        2.169983   -1.601520    0.000000
$end

$rem
    jobtype = sp
    method = eom-ccsd
    cvs_ee_singlets    [10,10]
    eom_preconv_singles = true
    basis = 6-311++G**
    n_frozen_core = 4
    cc_trans_prop = true
   use_libqints = 1   !use new int library (will be def in trunk)
   thresh = 14   !this already should be default, but just in case
   scf_convergence = 12   !v. tight scf convergence, to reduce noise
   cc_convergence = 12   !tight CC, for the same reason
   basis_lin_dep_thresh = 8  !default is 6, use smaller, just in case
   cc_memory = 100000
   EOM_DAVIDSON_MAX_ITER 200
   EOM_DAVIDSON_MAXVECTORS = 1000
   eom_davidson_convergence = 4 
   eom_shift = 14800
$end
--------------------------------------------------------------
 ----------------------------------------------------------------
             Standard Nuclear Orientation (Angstroms)
    I     Atom           X                Y                Z
 ----------------------------------------------------------------
    1      C      -0.0071423615    -1.7021374661    -0.0000000000
    2      H      -2.0688284730    -1.4402241233     0.0000000000
    3      H      -0.1233798667    -2.7756752113     0.0000000000
    4      H       0.0465189185     1.9881394681    -0.0000000000
    5      C      -1.2195356258     0.4021166886     0.0000000000
    6      O      -2.2592155329     1.0304381418     0.0000000000
    7      C       1.2879780632     0.3464493659    -0.0000000000
    8      O       2.3127366072     1.0053721559    -0.0000000000
    9      N       0.0344629504     0.9773985746    -0.0000000000
   10      N      -1.1728776526    -0.9822982369     0.0000000000
   11      C       1.2010703878    -1.1043341925    -0.0000000000
   12      H       2.1122009607    -1.6769912546    -0.0000000000
 ----------------------------------------------------------------
 Molecular Point Group                 Cs    NOp =  2
 Largest Abelian Subgroup              Cs    NOp =  2
 Nuclear Repulsion Energy =   357.0116303482 hartrees
 There are       29 alpha and       29 beta electrons
 Requested basis set is 6-311++G(d,p)
 There are 68 shells and 204 basis functions
MEM_TOTAL is adjusted to CC_MEMORY + MEM_STATIC!
 Total memory of 100192MB is distributed as follows: 
   QALLOC including MEM_STATIC uses 192MB
   MEM_STATIC is set to 192MB
   CCMAN JOB total memory use is  100000MB
 Warning: actual memory use might exceed 100192MB

 Total QAlloc Memory Limit    192 MB
 Mega-Array Size       188 MB
 MEM_STATIC part       192 MB

                       Distance Matrix (Angstroms)
             C (  1)   H (  2)   H (  3)   H (  4)   C (  5)   O (  6)
   H (  2)  2.078256
   H (  3)  1.079812  2.359703
   H (  4)  3.690667  4.028445  4.766843
   C (  5)  2.428535  2.028674  3.361535  2.029375
   O (  6)  3.541017  2.477987  4.364435  2.496718  1.214793
   C (  7)  2.423643  3.802677  3.426309  2.058244  2.508132  3.612537
   O (  8)  3.565452  5.017873  4.497886  2.470136  3.583415  4.572021
   N (  9)  2.679859  3.204487  3.756392  1.010813  1.379660  2.294292
   N ( 10)  1.370076  1.006193  2.077895  3.210986  1.385201  2.287190
   C ( 11)  1.348016  3.287105  2.132498  3.300967  2.851092  4.065813
   H ( 12)  2.119492  4.187728  2.490969  4.207164  3.927233  5.141931
             C (  7)   O (  8)   N (  9)   N ( 10)   C ( 11)
   O (  8)  1.218322
   N (  9)  1.403352  2.278445
   N ( 10)  2.796673  4.012523  2.301756
   C ( 11)  1.453384  2.384672  2.386333  2.377083
   H ( 12)  2.184870  2.689849  3.370872  3.357728  1.076148
 
 A cutoff of  1.0D-14 yielded   2246 shell pairs
 There are     20506 function pairs (     22152 Cartesian)
 
 -------------------------------------------------------
 OpenMP Integral Computing Module                       
 Release: version 1.0, May 2013, Q-Chem Inc. Pittsburgh 
 -------------------------------------------------------
 Integral Job Info:
 Integral job number is                      11
 Integral operator is                         1
 short-range coefficients                     0
 long-range coefficients              100000000
 Omega coefficients                           0
 if combine SR and LR in K                    0
 Integral screening is                        0
 Integral computing path is                   2
 max size of driver memory is            800000
 size of driver memory is                593474
 size of scratch memory is              2361544
 max col of scratch BK array               1296
 max len of scratch array in speh3          155
 max len of scratch index in speh4           18
 max int batch size is                      520
 min int batch size is                       52
 fixed nKL is                                52
 max L of basis functions is                  2
 order of int derivative is                   0
 number of shells is                         68
 number of basis is                         212
 number of cartesian basis is               212
 number of contracted shell pairs          2246
 number of primitive shell pairs           6171
 maxK2 (contraction) of shell pair           36
 max number of K2 of shell pair               1
 max number of CS2 of shell pair            315
 max number of PS2 of shell pair           1128
 mem total for path MDJ                  546230
 -------------------------------------------------------
 Smallest overlap matrix eigenvalue = 1.32E-05

 Scale SEOQF with 1.000000e-01/1.000000e-01/1.000000e-01

 Standard Electronic Orientation quadrupole field applied
 Nucleus-field energy     =     0.0000000098 hartrees
 Guess from superposition of atomic densities
 Warning:  Energy on first SCF cycle will be non-variational
 SAD guess density has 58.000000 electrons

 -----------------------------------------------------------------------
  General SCF calculation program by
  Eric Jon Sundstrom, Paul Horn, Yuezhi Mao, Dmitri Zuev, Alec White,
  David Stuck, Shaama M.S., Shane Yost, Joonho Lee, David Small,
  Daniel Levine, Susi Lehtola, Hugh Burton, Evgeny Epifanovsky
 -----------------------------------------------------------------------
 Hartree-Fock
 A restricted SCF calculation will be
 performed using DIIS
 SCF converges when DIIS error is below 1.0e-12
 ---------------------------------------
  Cycle       Energy         DIIS error
 ---------------------------------------
    1    -415.5118963559      5.16e-02  
    2    -412.3400668808      6.88e-03  
    3    -412.4467157910      5.86e-03  
    4    -412.5749217527      6.51e-04  
    5    -412.5785863070      2.36e-04  
    6    -412.5790950778      8.43e-05  
    7    -412.5792187176      4.35e-05  
    8    -412.5792467617      1.78e-05  
    9    -412.5792501784      5.81e-06  
   10    -412.5792505216      1.82e-06  
   11    -412.5792505599      8.51e-07  
   12    -412.5792505691      2.12e-07  
   13    -412.5792505697      9.06e-08  
   14    -412.5792505698      2.72e-08  
   15    -412.5792505698      1.10e-08  
   16    -412.5792505698      3.50e-09  
   17    -412.5792505698      1.06e-09  
   18    -412.5792505698      3.22e-10  
   19    -412.5792505698      9.06e-11  
   20    -412.5792505698      1.70e-11  
   21    -412.5792505698      5.15e-12  
   22    -412.5792505698      1.59e-12  
   23    -412.5792505698      3.83e-13  Convergence criterion met
 ---------------------------------------
 SCF time:   CPU 207.44s  wall 21.00s 
 SCF   energy in the final basis set =     -412.5792505698


 ------------------------------------------------------------------------------

   CCMAN2: suite of methods based on coupled cluster
           and equation of motion theories.

   Components:
   * libvmm-1.3-trunk
     by Evgeny Epifanovsky, Ilya Kaliman.
   * libtensor-2.5-trunk
     by Evgeny Epifanovsky, Michael Wormit, Dmitry Zuev, Sam Manzer, 
        Ilya Kaliman.
   * libcc-2.5-trunk
     by Evgeny Epifanovsky, Arik Landau, Tomasz Kus, Kirill Khistyaev, 
        Dmitry Zuev, Prashant Manohar, Xintian Feng, Anna Krylov, 
        Matthew Goldey, Alec White, Thomas Jagau, Kaushik Nanda, 
        Anastasia Gunina, Alexander Kunitsa, Joonho Lee.

   CCMAN original authors:
   Anna I. Krylov, C. David Sherrill, Steven R. Gwaltney,
   Edward F. C. Byrd (2000)
   Sergey V. Levchenko, Lyudmila V. Slipchenko, Tao Wang,
   Ana-Maria C. Cristian (2003)
   Piotr A. Pieniazek, C. Melania Oana, Evgeny Epifanovsky (2007)
   Prashant Manohar (2009)

 ------------------------------------------------------------------------------


 Calculation will run on 10 cores with 100000MB of RAM.

 
 Alpha MOs, Restricted
 -- Occupied --                  
-20.551 -20.545 -15.648 -15.631 -11.426 -11.387 -11.345 -11.260
  1 A'    2 A'    3 A'    4 A'    5 A'    6 A'    7 A'    8 A'                 
 -1.442  -1.404  -1.319  -1.250  -1.093  -0.938  -0.907  -0.812
  9 A'   10 A'   11 A'   12 A'   13 A'   14 A'   15 A'   16 A'                 
 -0.770  -0.719  -0.681  -0.671  -0.657  -0.619  -0.605  -0.573
 17 A'   18 A'   19 A'    1 A"   20 A'   21 A'   22 A'    2 A"                 
 -0.528  -0.487  -0.452  -0.439  -0.371
  3 A"   23 A'   24 A'    4 A"    5 A"                                         
 -- Virtual --                   
  0.023   0.048   0.061   0.071   0.074   0.091   0.102   0.109
 25 A'   26 A'   27 A'   28 A'    6 A"    7 A"   29 A'   30 A'                 
  0.129   0.134   0.138   0.146   0.158   0.161   0.167   0.176
  8 A"   31 A'    9 A"   32 A'   33 A'   10 A"   34 A'   35 A'                 
  0.186   0.192   0.198   0.199   0.219   0.229   0.243   0.251
 11 A"   36 A'   37 A'   38 A'   39 A'   40 A'   12 A"   41 A'                 
  0.256   0.286   0.292   0.298   0.310   0.320   0.339   0.354
 42 A'   13 A"   14 A"   43 A'   44 A'   45 A'   46 A'   47 A'                 
  0.369   0.383   0.386   0.397   0.407   0.408   0.415   0.428
 15 A"   48 A'   49 A'   50 A'   51 A'   16 A"   52 A'   53 A'                 
  0.430   0.443   0.469   0.485   0.497   0.518   0.556   0.557
 54 A'   55 A'   56 A'   57 A'   58 A'   59 A'   60 A'   61 A'                 
  0.634   0.668   0.697   0.706   0.739   0.742   0.758   0.771
 62 A'   63 A'   17 A"   64 A'   18 A"   65 A'   19 A"   66 A'                 
  0.786   0.796   0.832   0.854   0.907   0.928   0.945   0.967
 67 A'   20 A"   68 A'   69 A'   70 A'   71 A'   72 A'   73 A'                 
  0.976   0.996   1.014   1.019   1.048   1.056   1.081   1.099
 74 A'   75 A'   21 A"   76 A'   77 A'   22 A"   78 A'   79 A'                 
  1.140   1.209   1.225   1.242   1.251   1.302   1.358   1.359
 80 A'   81 A'   23 A"   24 A"   82 A'   83 A'   25 A"   84 A'                 
  1.376   1.398   1.415   1.419   1.432   1.438   1.457   1.501
 26 A"   27 A"   85 A'   28 A"   86 A'   87 A'   29 A"   88 A'                 
  1.511   1.528   1.575   1.746   1.779   1.796   1.811   1.883
 30 A"   89 A'   90 A'   91 A'   92 A'   93 A'   31 A"   94 A'                 
  1.896   1.909   1.925   1.951   1.970   2.011   2.011   2.067
 32 A"   95 A'   33 A"   96 A'   97 A'   34 A"   98 A'   99 A'                 
  2.118   2.137   2.187   2.220   2.223   2.272   2.292   2.339
100 A'  101 A'  102 A'   35 A"  103 A'  104 A'  105 A'   36 A"                 
  2.345   2.529   2.556   2.580   2.642   2.659   2.723   2.798
106 A'  107 A'   37 A"  108 A'   38 A"  109 A'   39 A"  110 A'                 
  2.820   2.848   2.915   2.960   3.000   3.015   3.041   3.070
 40 A"  111 A'  112 A'  113 A'  114 A'  115 A'  116 A'   41 A"                 
  3.144   3.170   3.173   3.207   3.260   3.263   3.291   3.307
 42 A"   43 A"  117 A'  118 A'   44 A"  119 A'  120 A'   45 A"                 
  3.314   3.343   3.394   3.506   3.568   3.751   3.762   3.799
121 A'   46 A"  122 A'  123 A'  124 A'   47 A"   48 A"  125 A'                 
  3.831   3.872   3.908   3.954   4.016   4.052   4.098   4.282
126 A'  127 A'  128 A'  129 A'  130 A'  131 A'  132 A'  133 A'                 
  4.289   4.337   4.416   4.485   4.623   5.193   5.283   5.348
 49 A"   50 A"  134 A'  135 A'  136 A'  137 A'  138 A'  139 A'                 
  5.600   5.627   5.686   5.763   5.857   6.328   6.365  24.853
 51 A"   52 A"  140 A'  141 A'  142 A'  143 A'  144 A'  145 A'                 
 24.967  25.028  25.324  36.989  37.046  51.709  51.753
146 A'  147 A'  148 A'  149 A'  150 A'  151 A'  152 A'                         
 
 Beta MOs, Restricted
 -- Occupied --                  
-20.551 -20.545 -15.648 -15.631 -11.426 -11.387 -11.345 -11.260
  1 A'    2 A'    3 A'    4 A'    5 A'    6 A'    7 A'    8 A'                 
 -1.442  -1.404  -1.319  -1.250  -1.093  -0.938  -0.907  -0.812
  9 A'   10 A'   11 A'   12 A'   13 A'   14 A'   15 A'   16 A'                 
 -0.770  -0.719  -0.681  -0.671  -0.657  -0.619  -0.605  -0.573
 17 A'   18 A'   19 A'    1 A"   20 A'   21 A'   22 A'    2 A"                 
 -0.528  -0.487  -0.452  -0.439  -0.371
  3 A"   23 A'   24 A'    4 A"    5 A"                                         
 -- Virtual --                   
  0.023   0.048   0.061   0.071   0.074   0.091   0.102   0.109
 25 A'   26 A'   27 A'   28 A'    6 A"    7 A"   29 A'   30 A'                 
  0.129   0.134   0.138   0.146   0.158   0.161   0.167   0.176
  8 A"   31 A'    9 A"   32 A'   33 A'   10 A"   34 A'   35 A'                 
  0.186   0.192   0.198   0.199   0.219   0.229   0.243   0.251
 11 A"   36 A'   37 A'   38 A'   39 A'   40 A'   12 A"   41 A'                 
  0.256   0.286   0.292   0.298   0.310   0.320   0.339   0.354
 42 A'   13 A"   14 A"   43 A'   44 A'   45 A'   46 A'   47 A'                 
  0.369   0.383   0.386   0.397   0.407   0.408   0.415   0.428
 15 A"   48 A'   49 A'   50 A'   51 A'   16 A"   52 A'   53 A'                 
  0.430   0.443   0.469   0.485   0.497   0.518   0.556   0.557
 54 A'   55 A'   56 A'   57 A'   58 A'   59 A'   60 A'   61 A'                 
  0.634   0.668   0.697   0.706   0.739   0.742   0.758   0.771
 62 A'   63 A'   17 A"   64 A'   18 A"   65 A'   19 A"   66 A'                 
  0.786   0.796   0.832   0.854   0.907   0.928   0.945   0.967
 67 A'   20 A"   68 A'   69 A'   70 A'   71 A'   72 A'   73 A'                 
  0.976   0.996   1.014   1.019   1.048   1.056   1.081   1.099
 74 A'   75 A'   21 A"   76 A'   77 A'   22 A"   78 A'   79 A'                 
  1.140   1.209   1.225   1.242   1.251   1.302   1.358   1.359
 80 A'   81 A'   23 A"   24 A"   82 A'   83 A'   25 A"   84 A'                 
  1.376   1.398   1.415   1.419   1.432   1.438   1.457   1.501
 26 A"   27 A"   85 A'   28 A"   86 A'   87 A'   29 A"   88 A'                 
  1.511   1.528   1.575   1.746   1.779   1.796   1.811   1.883
 30 A"   89 A'   90 A'   91 A'   92 A'   93 A'   31 A"   94 A'                 
  1.896   1.909   1.925   1.951   1.970   2.011   2.011   2.067
 32 A"   95 A'   33 A"   96 A'   97 A'   34 A"   98 A'   99 A'                 
  2.118   2.137   2.187   2.220   2.223   2.272   2.292   2.339
100 A'  101 A'  102 A'   35 A"  103 A'  104 A'  105 A'   36 A"                 
  2.345   2.529   2.556   2.580   2.642   2.659   2.723   2.798
106 A'  107 A'   37 A"  108 A'   38 A"  109 A'   39 A"  110 A'                 
  2.820   2.848   2.915   2.960   3.000   3.015   3.041   3.070
 40 A"  111 A'  112 A'  113 A'  114 A'  115 A'  116 A'   41 A"                 
  3.144   3.170   3.173   3.207   3.260   3.263   3.291   3.307
 42 A"   43 A"  117 A'  118 A'   44 A"  119 A'  120 A'   45 A"                 
  3.314   3.343   3.394   3.506   3.568   3.751   3.762   3.799
121 A'   46 A"  122 A'  123 A'  124 A'   47 A"   48 A"  125 A'                 
  3.831   3.872   3.908   3.954   4.016   4.052   4.098   4.282
126 A'  127 A'  128 A'  129 A'  130 A'  131 A'  132 A'  133 A'                 
  4.289   4.337   4.416   4.485   4.623   5.193   5.283   5.348
 49 A"   50 A"  134 A'  135 A'  136 A'  137 A'  138 A'  139 A'                 
  5.600   5.627   5.686   5.763   5.857   6.328   6.365  24.853
 51 A"   52 A"  140 A'  141 A'  142 A'  143 A'  144 A'  145 A'                 
 24.967  25.028  25.324  36.989  37.046  51.709  51.753
146 A'  147 A'  148 A'  149 A'  150 A'  151 A'  152 A'                         

 Occupation and symmetry of molecular orbitals

 Point group: Cs (2 irreducible representations).

                           A'   A"    All 
 ------------------------------------------
 All molecular orbitals:
  - Alpha                  152  52    204 
  - Beta                   152  52    204 
 ------------------------------------------
 Alpha orbitals:
  - Frozen occupied        4    0     4   
  - Active occupied        20   5     25  
  - Active virtual         128  47    175 
  - Frozen virtual         0    0     0   
 ------------------------------------------
 Beta orbitals:
  - Frozen occupied        4    0     4   
  - Active occupied        20   5     25  
  - Active virtual         128  47    175 
  - Frozen virtual         0    0     0   
 ------------------------------------------

 Import integrals:   CPU 0.00 s  wall 0.00 s

 Import integrals:   CPU 284.95 s  wall 32.25 s

 MP2 amplitudes:   CPU 1.74 s  wall 1.30 s

           CCSD T amplitudes will be solved using DIIS.

           Start     Size      MaxIter   EConv     TConv     
           3         7         100       1.00e-12  1.00e-11  
 ------------------------------------------------------------------------------
           Energy (a.u.)   Ediff      Tdiff       Comment
 ------------------------------------------------------------------------------
          -413.92454238                           
     1    -413.89910957   2.54e-02   1.01e+00     
     2    -413.94363748   4.45e-02   1.36e-01     
     3    -413.93991318   3.72e-03   5.68e-02     
     4    -413.94453529   4.62e-03   2.39e-02     Switched to DIIS steps.
     5    -413.94615543   1.62e-03   1.34e-02     
     6    -413.94630390   1.48e-04   3.41e-03     
     7    -413.94630674   2.83e-06   1.38e-03     
     8    -413.94630257   4.17e-06   4.32e-04     
     9    -413.94630513   2.56e-06   1.76e-04     
    10    -413.94630503   1.01e-07   5.40e-05     
    11    -413.94630555   5.19e-07   3.22e-05     
    12    -413.94630553   1.90e-08   1.68e-05     
    13    -413.94630545   7.37e-08   8.31e-06     
    14    -413.94630536   9.04e-08   3.21e-06     
    15    -413.94630535   1.77e-08   1.46e-06     
    16    -413.94630532   2.38e-08   6.74e-07     
    17    -413.94630532   6.22e-09   2.65e-07     
    18    -413.94630531   2.17e-09   1.22e-07     
    19    -413.94630531   7.27e-10   3.90e-08     
    20    -413.94630531   2.63e-10   2.39e-08     
    21    -413.94630531   4.87e-11   9.31e-09     
    22    -413.94630531   2.67e-11   5.24e-09     
    23    -413.94630531   1.20e-11   2.23e-09     
    24    -413.94630531   1.68e-11   1.19e-09     
    25    -413.94630531   2.71e-12   6.09e-10     
    26    -413.94630531   1.22e-12   3.08e-10     
    27    -413.94630531   9.10e-14   1.45e-10     
    28    -413.94630531   3.49e-14   6.84e-11     
    29    -413.94630531   1.28e-13   4.09e-11     
    30    -413.94630531   1.01e-13   1.65e-11     
    31    -413.94630531   3.91e-14   9.13e-12     
 ------------------------------------------------------------------------------
          -413.94630531                           CCSD T converged.

 SCF energy                 = -412.57925057
 MP2 energy                 = -413.92454238
 CCSD correlation energy     =   -1.36705474
 CCSD total energy           = -413.94630531

 CCSD  T1^2 = 0.0266  T2^2 = 0.4132  Leading amplitudes:

 Amplitude    Orbitals with energies
 -0.0317       2 (A") A                  ->    9 (A") A                   
              -0.5735                          0.1381                     
 -0.0317       2 (A") B                  ->    9 (A") B                   
              -0.5735                          0.1381                     
  0.0317       2 (A") A                  ->    6 (A") A                   
              -0.5735                          0.0738                     
  0.0317       2 (A") B                  ->    6 (A") B                   
              -0.5735                          0.0738                     

 Amplitude    Orbitals with energies
 -0.0511       5 (A") A      5 (A") B    ->    6 (A") A      6 (A") B     
              -0.3713       -0.3713            0.0738        0.0738       
  0.0511       5 (A") A      5 (A") B    ->    6 (A") B      6 (A") A     
              -0.3713       -0.3713            0.0738        0.0738       
  0.0511       5 (A") B      5 (A") A    ->    6 (A") A      6 (A") B     
              -0.3713       -0.3713            0.0738        0.0738       
 -0.0511       5 (A") B      5 (A") A    ->    6 (A") B      6 (A") A     
              -0.3713       -0.3713            0.0738        0.0738       

 Computing CCSD intermediates for later calculations
 Finished.

           CCSD Lambda amplitudes will be solved using DIIS.
           Start     Size      MaxIter   EConv     LConv     
           3         7         100       1.00e-12  1.00e-11  
 ------------------------------------------------------------------------------
            Enorm      Ldiff       Comment
 ------------------------------------------------------------------------------
     1     7.17e-02   4.17e-02     
     2     2.67e-02   9.13e-03     
     3     1.21e-02   4.92e-04     
     4     5.02e-03   1.66e-03     Switched to DIIS steps.
     5     1.46e-03   9.46e-04     
     6     6.43e-04   2.02e-04     
     7     2.27e-04   5.43e-05     
     8     9.72e-05   1.04e-05     
     9     4.02e-05   3.56e-06     
    10     1.94e-05   1.41e-06     
    11     8.59e-06   1.80e-07     
    12     3.36e-06   1.78e-07     
    13     1.38e-06   2.25e-08     
    14     5.82e-07   6.74e-09     
    15     2.43e-07   3.98e-08     
    16     1.06e-07   7.65e-09     
    17     5.18e-08   5.35e-09     
    18     2.19e-08   4.15e-09     
    19     1.05e-08   7.61e-11     
    20     5.23e-09   1.35e-10     
    21     2.34e-09   1.13e-10     
    22     1.07e-09   1.49e-10     
    23     5.24e-10   7.51e-11     
    24     2.27e-10   1.81e-11     
    25     1.09e-10   9.42e-12     
    26     5.77e-11   3.33e-12     
    27     2.73e-11   1.15e-12     
    28     1.34e-11   7.37e-14     
    29     6.27e-12   6.02e-14     
    30     3.14e-12   1.81e-13     
    31     1.36e-12   3.71e-14     
    32     7.09e-13   2.40e-14     
 ------------------------------------------------------------------------------
                                   CCSD Lambda converged.

 CCSD calculation:   CPU 5151.48 s  wall 585.47 s

        Solving for CVS-EOMEE-CCSD A' singlet states.

       EOMEE-CCSD-SINGLES right amplitudes will be solved using Davidson.
        Amplitudes will be solved using shifted  algorithm.
     Hard-coded thresholds: 
     LinDepThresh=1.00e-15  NormThresh=1.00e-06  ReorthogonThresh=1.00e-02

      Roots     MaxVec    MaxIter   Precond   Conv      Shift    
      10        1000      200       1         1.00e-04  1.48e+01  
 ------------------------------------------------------------------------------
      Iter ConvRoots NVecs ResNorm Current eigenvalues (eV)
 ------------------------------------------------------------------------------
      0    0      10    2.96e-03   421.8044   422.1204   422.9654   423.4925   423.6864   423.7894   424.1525   424.5079   424.7111   424.7167   
      1    0      20    3.73e-02   420.7301   421.2592   422.5185   423.2546   423.3507   423.6294   423.7626   424.4013   424.4707   424.5355   
      2    0      30    3.73e-03   418.4586   418.6398   421.6335   422.2437   422.4919   422.8769   423.2268   423.7442   423.8381   424.0086   
      3    0      40    5.57e-03   418.3132   418.4774   421.3510   421.7789   421.7968   422.3876   422.9128   423.1782   423.5561   423.7516   
      4    2      50    4.74e-03   418.3044   418.4738*  421.3387   421.7380   421.7614   421.8761   422.8723   423.1753*  423.4565   423.6919   
      5    6      58    5.42e-04   418.3037*  418.4737*  421.3381*  421.7243   421.7581   421.7644   422.8704*  423.1751*  423.4506*  423.4885   
      6    9      62    2.14e-05   418.3037*  418.4737*  421.3381*  421.7218*  421.7571*  421.7621*  422.8703*  423.1751*  423.4505*  423.4706   
      7    10     63    5.82e-06   418.3037*  418.4737*  421.3381*  421.7218*  421.7570*  421.7621*  422.8703*  423.1751*  423.4505*  423.4699*  

     Davidson procedure converged

        CVS-EOMEE-CCSD/MP2 right amplitudes will be solved using Davidson.
        Amplitudes will be solved using shifted  algorithm.
     Hard-coded thresholds: 
     LinDepThresh=1.00e-15  NormThresh=1.00e-06  ReorthogonThresh=1.00e-02

      Roots     MaxVec    MaxIter   Precond   Conv      Shift    
      10        1000      200       1         1.00e-04  1.48e+01  
 ------------------------------------------------------------------------------
      Iter ConvRoots NVecs ResNorm Current eigenvalues (eV)
 ------------------------------------------------------------------------------
      0    0      10    2.70e+00   418.3037   418.4737   421.3381   421.7218   421.7570   421.7621   422.8703   423.1751   423.4505   423.4699   
      1    0      20    1.77e+00   415.6158   415.8288   418.4001   418.7830   419.0242   419.1421   419.7313   419.9540   420.3680   420.4082   
      2    0      30    8.65e-02   404.8437   405.2385   406.1978   406.7339   406.9021   406.9665   409.0628   409.2045   409.5484   410.0499   
      3    0      40    3.17e-02   404.2049   404.5904   405.5203   406.1289   406.2348   406.2742   408.3147   408.3221   408.7510   409.1562   
      4    0      50    7.78e-03   404.0970   404.4668   405.4635   406.0651   406.1541   406.2019   407.8270   408.0827   408.5258   408.7746   
      5    0      60    1.64e-02   404.0526   404.4087   405.4363   406.0326   406.1175   406.1651   407.2877   407.8539   408.3495   408.4709   
      6    0      70    8.51e-03   404.0278   404.3716   405.4189   406.0040   406.0808   406.1254   406.8850   407.6003   408.0701   408.2504   
      7    0      80    9.75e-03   404.0083   404.3427   405.4054   405.9759   406.0475   406.0862   406.5964   407.3852   407.6659   407.9979   
      8    0      90    3.89e-03   404.0041   404.3355   405.3995   405.9646   406.0371   406.0750   406.4668   407.2900   407.4547   407.7430   
Found complex roots...
      9    1      100   3.82e-03   404.0031*  404.3329   405.3966   405.9575   406.0299   406.0666   406.3996   407.2219   407.3246   407.5589   
      10   3      109   1.95e-03   404.0026*  404.3314*  405.3952*  405.9525   406.0257   406.0618   406.3599   407.1665   407.2404   407.4073   
      11   3      116   1.61e-03   404.0025*  404.3313*  405.3947*  405.9502   406.0241   406.0602   406.3385   407.1312   407.1851   407.2847   
      12   6      123   7.46e-04   404.0025*  404.3313*  405.3946*  405.9498*  406.0236*  406.0595*  406.3272   407.1005   407.1615   407.2260   
Found complex roots...
      13   6      127   4.57e-04   404.0025*  404.3313*  405.3945*  405.9492*  406.0232*  406.0590*  406.3186   407.0661   407.1431   407.1977   
      14   6      131   2.36e-04   404.0025*  404.3313*  405.3945*  405.9490*  406.0229*  406.0589*  406.3137   407.0524   407.1376   407.1858   
      15   6      135   1.87e-04   404.0025*  404.3313*  405.3945*  405.9489*  406.0228*  406.0588*  406.3103   407.0451   407.1323   407.1811   
      16   6      139   1.10e-04   404.0025*  404.3313*  405.3944*  405.9490*  406.0228*  406.0587*  406.3081   407.0387   407.1295   407.1761   
      17   6      143   7.77e-05   404.0025*  404.3312*  405.3944*  405.9489*  406.0227*  406.0587*  406.3048   407.0364   407.1254   407.1754   
Found complex roots...
      18   9      147   4.59e-05   404.0025*  404.3313*  405.3943*  405.9486*  406.0226*  406.0587*  406.3036*  407.0340*  407.1229   407.1732*  
Found complex roots...
      19   9      148   4.56e-05   404.0025*  404.3313*  405.3943*  405.9486*  406.0226*  406.0587*  406.3034*  407.0340*  407.1211   407.1732*  
Found complex roots...
      20   9      149   4.04e-05   404.0025*  404.3313*  405.3943*  405.9486*  406.0225*  406.0587*  406.3037*  407.0340*  407.1211   407.1732*  
Found complex roots...
      21   9      150   6.72e-05   404.0025*  404.3313*  405.3944*  405.9486*  406.0226*  406.0587*  406.3029*  407.0340*  407.1154   407.1732*  
Found complex roots...
      22   8      151   5.07e-04   404.0025*  404.3313*  405.3943*  405.9486*  406.0225*  406.0587*  406.3033*  407.0340*  407.1164   407.1517   
Found complex roots...
      23   8      153   4.48e-04   404.0025*  404.3313*  405.3943*  405.9486*  406.0225*  406.0587*  406.3024*  407.0340*  407.0672   407.1263   
Found complex roots...
      24   7      155   5.04e-03   404.0025*  404.3312*  405.3943*  405.9486*  406.0224*  406.0587*  406.3028   407.0340*  407.0517   407.1215   
Found complex roots...
      25   8      158   6.57e-04   404.0025*  404.3313*  405.3944*  405.9486*  406.0224*  406.0587*  406.3025*  407.0340*  407.0887   407.1239   
Found complex roots...
      26   9      160   2.09e-04   404.0025*  404.3313*  405.3944*  405.9486*  406.0224*  406.0587*  406.3020*  407.0340*  407.0546   407.1241*  
Found complex roots...
      27   7      161   2.26e-03   404.0025*  404.3313*  405.3944*  405.9486*  406.0224*  406.0587*  406.3019   407.0284   407.0340*  407.1230   
Found complex roots...
      28   8      164   4.32e-04   404.0025*  404.3313*  405.3944*  405.9486*  406.0224*  406.0587*  406.3023*  407.0340*  407.0484   407.1227   
Found complex roots...
      29   9      166   5.21e-05   404.0025*  404.3313*  405.3944*  405.9486*  406.0224*  406.0587*  406.3023*  407.0340*  407.0490   407.1232*  
Found complex roots...
      30   9      167   4.10e-05   404.0025*  404.3313*  405.3944*  405.9486*  406.0224*  406.0587*  406.3022*  407.0340*  407.0462   407.1234*  
Found complex roots...
      31   8      168   4.32e-04   404.0025*  404.3313*  405.3944*  405.9486*  406.0224*  406.0587*  406.3023*  407.0340*  407.0434   407.1231   
Found complex roots...
      32   9      170   3.62e-05   404.0025*  404.3313*  405.3944*  405.9486*  406.0224*  406.0587*  406.3023*  407.0340*  407.0467   407.1234*  
Found complex roots...
      33   10     171   2.27e-05   404.0025*  404.3313*  405.3944*  405.9486*  406.0224*  406.0587*  406.3022*  407.0340*  407.0454*  407.1233*  

     Davidson procedure converged

 EOMEE transition 1/A'
 Total energy = -399.09948578 a.u.  Excitation energy = 404.0025 eV.
 R0^2 = 0.0000  R1^2 = 0.8323  R2_CCVV^2 = 0.0008  R2_COVV^2 = 0.0835  Res^2 = 6.84e-06
 Conv-d = yes

 Amplitude    Transitions between orbitals
 -0.4359       3 (A') A                  ->    25 (A') A                  
 -0.4359       3 (A') B                  ->    25 (A') B                  
 -0.2436       3 (A') A                  ->    26 (A') A                  
 -0.2436       3 (A') B                  ->    26 (A') B                  
 -0.1718       3 (A') A                  ->    40 (A') A                  
 -0.1718       3 (A') B                  ->    40 (A') B                  
  0.1547       3 (A') A                  ->    39 (A') A                  
  0.1547       3 (A') B                  ->    39 (A') B                  
 -0.1501       3 (A') A                  ->    33 (A') A                  
 -0.1501       3 (A') B                  ->    33 (A') B                  
 -0.1393       3 (A') A                  ->    27 (A') A                  
 -0.1393       3 (A') B                  ->    27 (A') B                  
 -0.1389       3 (A') A                  ->    31 (A') A                  
 -0.1389       3 (A') B                  ->    31 (A') B                  
  0.1278       3 (A') A                  ->    28 (A') A                  
  0.1278       3 (A') B                  ->    28 (A') B                  

              Summary of significant orbitals:

               Number  Type             Irrep      Energy
               3       Occ  Alpha       3 (A')    -15.6481
               3       Occ  Beta        3 (A')    -15.6481
               30      Vir  Alpha      25 (A')      0.0232
               31      Vir  Alpha      26 (A')      0.0482
               32      Vir  Alpha      27 (A')      0.0607
               33      Vir  Alpha      28 (A')      0.0708
               39      Vir  Alpha      31 (A')      0.1338
               42      Vir  Alpha      33 (A')      0.1581
               50      Vir  Alpha      39 (A')      0.2188
               51      Vir  Alpha      40 (A')      0.2293
               30      Vir  Beta       25 (A')      0.0232
               31      Vir  Beta       26 (A')      0.0482
               32      Vir  Beta       27 (A')      0.0607
               33      Vir  Beta       28 (A')      0.0708
               39      Vir  Beta       31 (A')      0.1338
               42      Vir  Beta       33 (A')      0.1581
               50      Vir  Beta       39 (A')      0.2188
               51      Vir  Beta       40 (A')      0.2293


 EOMEE transition 2/A'
 Total energy = -399.08740304 a.u.  Excitation energy = 404.3313 eV.
 R0^2 = 0.0000  R1^2 = 0.8302  R2_CCVV^2 = 0.0008  R2_COVV^2 = 0.0845  Res^2 = 8.19e-06
 Conv-d = yes

 Amplitude    Transitions between orbitals
  0.4573       4 (A') A                  ->    27 (A') A                  
  0.4573       4 (A') B                  ->    27 (A') B                  
  0.2243       4 (A') A                  ->    28 (A') A                  
  0.2243       4 (A') B                  ->    28 (A') B                  
  0.2116       4 (A') A                  ->    40 (A') A                  
  0.2116       4 (A') B                  ->    40 (A') B                  
  0.1470       4 (A') A                  ->    41 (A') A                  
  0.1470       4 (A') B                  ->    41 (A') B                  
  0.1397       4 (A') A                  ->    25 (A') A                  
  0.1397       4 (A') B                  ->    25 (A') B                  
 -0.1078       4 (A') A                  ->    34 (A') A                  
 -0.1078       4 (A') B                  ->    34 (A') B                  

              Summary of significant orbitals:

               Number  Type             Irrep      Energy
               4       Occ  Alpha       4 (A')    -15.6305
               4       Occ  Beta        4 (A')    -15.6305
               30      Vir  Alpha      25 (A')      0.0232
               32      Vir  Alpha      27 (A')      0.0607
               33      Vir  Alpha      28 (A')      0.0708
               44      Vir  Alpha      34 (A')      0.1673
               51      Vir  Alpha      40 (A')      0.2293
               53      Vir  Alpha      41 (A')      0.2510
               30      Vir  Beta       25 (A')      0.0232
               32      Vir  Beta       27 (A')      0.0607
               33      Vir  Beta       28 (A')      0.0708
               44      Vir  Beta       34 (A')      0.1673
               51      Vir  Beta       40 (A')      0.2293
               53      Vir  Beta       41 (A')      0.2510


 EOMEE transition 3/A'
 Total energy = -399.04833634 a.u.  Excitation energy = 405.3944 eV.
 R0^2 = 0.0000  R1^2 = 0.8200  R2_CCVV^2 = 0.0008  R2_COVV^2 = 0.0896  Res^2 = 5.43e-06
 Conv-d = yes

 Amplitude    Transitions between orbitals
  0.4595       4 (A') A                  ->    25 (A') A                  
  0.4595       4 (A') B                  ->    25 (A') B                  
 -0.3179       4 (A') A                  ->    29 (A') A                  
 -0.3179       4 (A') B                  ->    29 (A') B                  
 -0.1848       4 (A') A                  ->    28 (A') A                  
 -0.1848       4 (A') B                  ->    28 (A') B                  

              Summary of significant orbitals:

               Number  Type             Irrep      Energy
               4       Occ  Alpha       4 (A')    -15.6305
               4       Occ  Beta        4 (A')    -15.6305
               30      Vir  Alpha      25 (A')      0.0232
               33      Vir  Alpha      28 (A')      0.0708
               36      Vir  Alpha      29 (A')      0.1020
               30      Vir  Beta       25 (A')      0.0232
               33      Vir  Beta       28 (A')      0.0708
               36      Vir  Beta       29 (A')      0.1020


 EOMEE transition 4/A'
 Total energy = -399.02796700 a.u.  Excitation energy = 405.9486 eV.
 R0^2 = 0.0000  R1^2 = 0.8221  R2_CCVV^2 = 0.0008  R2_COVV^2 = 0.0885  Res^2 = 4.63e-05
 Conv-d = yes

 Amplitude    Transitions between orbitals
  0.4241       3 (A') A                  ->    29 (A') A                  
  0.4241       3 (A') B                  ->    29 (A') B                  
 -0.2567       3 (A') A                  ->    27 (A') A                  
 -0.2567       3 (A') B                  ->    27 (A') B                  
  0.2290       3 (A') A                  ->    26 (A') A                  
  0.2290       3 (A') B                  ->    26 (A') B                  
 -0.1787       3 (A') A                  ->    25 (A') A                  
 -0.1787       3 (A') B                  ->    25 (A') B                  
 -0.1393       3 (A') A                  ->    28 (A') A                  
 -0.1393       3 (A') B                  ->    28 (A') B                  
  0.1330       3 (A') A                  ->    43 (A') A                  
  0.1330       3 (A') B                  ->    43 (A') B                  
 -0.1076       3 (A') A                  ->    39 (A') A                  
 -0.1076       3 (A') B                  ->    39 (A') B                  

              Summary of significant orbitals:

               Number  Type             Irrep      Energy
               3       Occ  Alpha       3 (A')    -15.6481
               3       Occ  Beta        3 (A')    -15.6481
               30      Vir  Alpha      25 (A')      0.0232
               31      Vir  Alpha      26 (A')      0.0482
               32      Vir  Alpha      27 (A')      0.0607
               33      Vir  Alpha      28 (A')      0.0708
               36      Vir  Alpha      29 (A')      0.1020
               50      Vir  Alpha      39 (A')      0.2188
               57      Vir  Alpha      43 (A')      0.2976
               30      Vir  Beta       25 (A')      0.0232
               31      Vir  Beta       26 (A')      0.0482
               32      Vir  Beta       27 (A')      0.0607
               33      Vir  Beta       28 (A')      0.0708
               36      Vir  Beta       29 (A')      0.1020
               50      Vir  Beta       39 (A')      0.2188
               57      Vir  Beta       43 (A')      0.2976


 EOMEE transition 5/A'
 Total energy = -399.02525548 a.u.  Excitation energy = 406.0224 eV.
 R0^2 = 0.0000  R1^2 = 0.8183  R2_CCVV^2 = 0.0008  R2_COVV^2 = 0.0905  Res^2 = 8.28e-06
 Conv-d = yes

 Amplitude    Transitions between orbitals
  0.3711       4 (A') A                  ->    29 (A') A                  
  0.3711       4 (A') B                  ->    29 (A') B                  
  0.3241       4 (A') A                  ->    25 (A') A                  
  0.3241       4 (A') B                  ->    25 (A') B                  
  0.2238       4 (A') A                  ->    26 (A') A                  
  0.2238       4 (A') B                  ->    26 (A') B                  
 -0.1681       4 (A') A                  ->    27 (A') A                  
 -0.1681       4 (A') B                  ->    27 (A') B                  
  0.1596       4 (A') A                  ->    31 (A') A                  
  0.1596       4 (A') B                  ->    31 (A') B                  
  0.1248       4 (A') A                  ->    40 (A') A                  
  0.1248       4 (A') B                  ->    40 (A') B                  
  0.1130       4 (A') A                  ->    43 (A') A                  
  0.1130       4 (A') B                  ->    43 (A') B                  

              Summary of significant orbitals:

               Number  Type             Irrep      Energy
               4       Occ  Alpha       4 (A')    -15.6305
               4       Occ  Beta        4 (A')    -15.6305
               30      Vir  Alpha      25 (A')      0.0232
               31      Vir  Alpha      26 (A')      0.0482
               32      Vir  Alpha      27 (A')      0.0607
               36      Vir  Alpha      29 (A')      0.1020
               39      Vir  Alpha      31 (A')      0.1338
               51      Vir  Alpha      40 (A')      0.2293
               57      Vir  Alpha      43 (A')      0.2976
               30      Vir  Beta       25 (A')      0.0232
               31      Vir  Beta       26 (A')      0.0482
               32      Vir  Beta       27 (A')      0.0607
               36      Vir  Beta       29 (A')      0.1020
               39      Vir  Beta       31 (A')      0.1338
               51      Vir  Beta       40 (A')      0.2293
               57      Vir  Beta       43 (A')      0.2976


 EOMEE transition 6/A'
 Total energy = -399.02392352 a.u.  Excitation energy = 406.0587 eV.
 R0^2 = 0.0000  R1^2 = 0.8190  R2_CCVV^2 = 0.0008  R2_COVV^2 = 0.0901  Res^2 = 1.30e-05
 Conv-d = yes

 Amplitude    Transitions between orbitals
  0.3515       3 (A') A                  ->    27 (A') A                  
  0.3515       3 (A') B                  ->    27 (A') B                  
 -0.3382       3 (A') A                  ->    25 (A') A                  
 -0.3382       3 (A') B                  ->    25 (A') B                  
  0.2767       3 (A') A                  ->    26 (A') A                  
  0.2767       3 (A') B                  ->    26 (A') B                  
 -0.1411       3 (A') A                  ->    28 (A') A                  
 -0.1411       3 (A') B                  ->    28 (A') B                  
 -0.1188       3 (A') A                  ->    29 (A') A                  
 -0.1188       3 (A') B                  ->    29 (A') B                  

              Summary of significant orbitals:

               Number  Type             Irrep      Energy
               3       Occ  Alpha       3 (A')    -15.6481
               3       Occ  Beta        3 (A')    -15.6481
               30      Vir  Alpha      25 (A')      0.0232
               31      Vir  Alpha      26 (A')      0.0482
               32      Vir  Alpha      27 (A')      0.0607
               33      Vir  Alpha      28 (A')      0.0708
               36      Vir  Alpha      29 (A')      0.1020
               30      Vir  Beta       25 (A')      0.0232
               31      Vir  Beta       26 (A')      0.0482
               32      Vir  Beta       27 (A')      0.0607
               33      Vir  Beta       28 (A')      0.0708
               36      Vir  Beta       29 (A')      0.1020


 EOMEE transition 7/A'
 Total energy = -399.01497251 a.u.  Excitation energy = 406.3022 eV.
 R0^2 = 0.0000  R1^2 = 0.8150  R2_CCVV^2 = 0.0007  R2_COVV^2 = 0.0921  Res^2 = 2.06e-06
 Conv-d = yes

 Amplitude    Transitions between orbitals
  0.5439       4 (A') A                  ->    26 (A') A                  
  0.5439       4 (A') B                  ->    26 (A') B                  
 -0.2004       4 (A') A                  ->    25 (A') A                  
 -0.2004       4 (A') B                  ->    25 (A') B                  
  0.1267       4 (A') A                  ->    35 (A') A                  
  0.1267       4 (A') B                  ->    35 (A') B                  
  0.1233       4 (A') A                  ->    27 (A') A                  
  0.1233       4 (A') B                  ->    27 (A') B                  
  0.1028       4 (A') A                  ->    30 (A') A                  
  0.1028       4 (A') B                  ->    30 (A') B                  

              Summary of significant orbitals:

               Number  Type             Irrep      Energy
               4       Occ  Alpha       4 (A')    -15.6305
               4       Occ  Beta        4 (A')    -15.6305
               30      Vir  Alpha      25 (A')      0.0232
               31      Vir  Alpha      26 (A')      0.0482
               32      Vir  Alpha      27 (A')      0.0607
               37      Vir  Alpha      30 (A')      0.1094
               45      Vir  Alpha      35 (A')      0.1764
               30      Vir  Beta       25 (A')      0.0232
               31      Vir  Beta       26 (A')      0.0482
               32      Vir  Beta       27 (A')      0.0607
               37      Vir  Beta       30 (A')      0.1094
               45      Vir  Beta       35 (A')      0.1764


 EOMEE transition 8/A'
 Total energy = -398.98808139 a.u.  Excitation energy = 407.0340 eV.
 R0^2 = 0.0000  R1^2 = 0.8183  R2_CCVV^2 = 0.0008  R2_COVV^2 = 0.0905  Res^2 = 6.87e-05
 Conv-d = yes

 Amplitude    Transitions between orbitals
  0.3776       3 (A') A                  ->    26 (A') A                  
  0.3776       3 (A') B                  ->    26 (A') B                  
 -0.2325       3 (A') A                  ->    27 (A') A                  
 -0.2325       3 (A') B                  ->    27 (A') B                  
  0.2098       3 (A') A                  ->    28 (A') A                  
  0.2098       3 (A') B                  ->    28 (A') B                  
 -0.2020       3 (A') A                  ->    29 (A') A                  
 -0.2020       3 (A') B                  ->    29 (A') B                  
 -0.1658       3 (A') A                  ->    30 (A') A                  
 -0.1658       3 (A') B                  ->    30 (A') B                  
 -0.1309       3 (A') A                  ->    40 (A') A                  
 -0.1309       3 (A') B                  ->    40 (A') B                  
 -0.1286       3 (A') A                  ->    32 (A') A                  
 -0.1286       3 (A') B                  ->    32 (A') B                  

              Summary of significant orbitals:

               Number  Type             Irrep      Energy
               3       Occ  Alpha       3 (A')    -15.6481
               3       Occ  Beta        3 (A')    -15.6481
               31      Vir  Alpha      26 (A')      0.0482
               32      Vir  Alpha      27 (A')      0.0607
               33      Vir  Alpha      28 (A')      0.0708
               36      Vir  Alpha      29 (A')      0.1020
               37      Vir  Alpha      30 (A')      0.1094
               41      Vir  Alpha      32 (A')      0.1457
               51      Vir  Alpha      40 (A')      0.2293
               31      Vir  Beta       26 (A')      0.0482
               32      Vir  Beta       27 (A')      0.0607
               33      Vir  Beta       28 (A')      0.0708
               36      Vir  Beta       29 (A')      0.1020
               37      Vir  Beta       30 (A')      0.1094
               41      Vir  Beta       32 (A')      0.1457
               51      Vir  Beta       40 (A')      0.2293


 EOMEE transition 9/A'
 Total energy = -398.98766304 a.u.  Excitation energy = 407.0454 eV.
 R0^2 = 0.0000  R1^2 = 0.8162  R2_CCVV^2 = 0.0007  R2_COVV^2 = 0.0915  Res^2 = 6.47e-05
 Conv-d = yes

 Amplitude    Transitions between orbitals
  0.4831       4 (A') A                  ->    30 (A') A                  
  0.4831       4 (A') B                  ->    30 (A') B                  
  0.2400       4 (A') A                  ->    28 (A') A                  
  0.2400       4 (A') B                  ->    28 (A') B                  
  0.1500       4 (A') A                  ->    31 (A') A                  
  0.1500       4 (A') B                  ->    31 (A') B                  
  0.1273       4 (A') A                  ->    44 (A') A                  
  0.1273       4 (A') B                  ->    44 (A') B                  
 -0.1171       4 (A') A                  ->    27 (A') A                  
 -0.1171       4 (A') B                  ->    27 (A') B                  

              Summary of significant orbitals:

               Number  Type             Irrep      Energy
               4       Occ  Alpha       4 (A')    -15.6305
               4       Occ  Beta        4 (A')    -15.6305
               32      Vir  Alpha      27 (A')      0.0607
               33      Vir  Alpha      28 (A')      0.0708
               37      Vir  Alpha      30 (A')      0.1094
               39      Vir  Alpha      31 (A')      0.1338
               58      Vir  Alpha      44 (A')      0.3097
               32      Vir  Beta       27 (A')      0.0607
               33      Vir  Beta       28 (A')      0.0708
               37      Vir  Beta       30 (A')      0.1094
               39      Vir  Beta       31 (A')      0.1338
               58      Vir  Beta       44 (A')      0.3097


 EOMEE transition 10/A'
 Total energy = -398.98479755 a.u.  Excitation energy = 407.1233 eV.
 R0^2 = 0.0000  R1^2 = 0.8150  R2_CCVV^2 = 0.0007  R2_COVV^2 = 0.0921  Res^2 = 3.41e-06
 Conv-d = yes

 Amplitude    Transitions between orbitals
  0.3888       4 (A') A                  ->    28 (A') A                  
  0.3888       4 (A') B                  ->    28 (A') B                  
 -0.2687       4 (A') A                  ->    30 (A') A                  
 -0.2687       4 (A') B                  ->    30 (A') B                  
 -0.2643       4 (A') A                  ->    27 (A') A                  
 -0.2643       4 (A') B                  ->    27 (A') B                  
 -0.2360       4 (A') A                  ->    29 (A') A                  
 -0.2360       4 (A') B                  ->    29 (A') B                  
  0.1106       4 (A') A                  ->    26 (A') A                  
  0.1106       4 (A') B                  ->    26 (A') B                  
  0.1036       4 (A') A                  ->    32 (A') A                  
  0.1036       4 (A') B                  ->    32 (A') B                  

              Summary of significant orbitals:

               Number  Type             Irrep      Energy
               4       Occ  Alpha       4 (A')    -15.6305
               4       Occ  Beta        4 (A')    -15.6305
               31      Vir  Alpha      26 (A')      0.0482
               32      Vir  Alpha      27 (A')      0.0607
               33      Vir  Alpha      28 (A')      0.0708
               36      Vir  Alpha      29 (A')      0.1020
               37      Vir  Alpha      30 (A')      0.1094
               41      Vir  Alpha      32 (A')      0.1457
               31      Vir  Beta       26 (A')      0.0482
               32      Vir  Beta       27 (A')      0.0607
               33      Vir  Beta       28 (A')      0.0708
               36      Vir  Beta       29 (A')      0.1020
               37      Vir  Beta       30 (A')      0.1094
               41      Vir  Beta       32 (A')      0.1457


      CVS-EOM-CCSD/MP2 left amplitudes will be solved using Davidson.
        Amplitudes will be solved using MOM  algorithm.
     Hard-coded thresholds: 
     LinDepThresh=1.00e-15  NormThresh=1.00e-06  ReorthogonThresh=1.00e-02

      Roots     MaxVec    MaxIter   Precond   Conv      Shift    
      10        1000      200       1         1.00e-04  1.48e+01  
 ------------------------------------------------------------------------------
      Iter ConvRoots NVecs ResNorm Current eigenvalues (eV)
 ------------------------------------------------------------------------------
      0    0      10    5.44e-02   404.0025   404.3313   405.3944   405.9486   406.0224   406.0587   406.3022   407.0340   407.0454   407.1233   
      1    0      20    2.93e-02   404.0024   404.3312   405.3943   405.9481   406.0222   406.0585   406.3022   407.0336   407.0448   407.1232   
      2    0      30    5.42e-04   404.0024   404.3312   405.3943   405.9481   406.0222   406.0584   406.3021   407.0340   407.0448   407.1232   
      3    8      40    7.49e-04   404.0024*  404.3312*  405.3943*  405.9479*  406.0222*  406.0583*  406.3021*  407.0338*  407.0463   407.1234   
      4    8      42    1.10e-04   404.0024*  404.3312*  405.3943*  405.9479*  406.0222*  406.0583*  406.3021*  407.0338*  407.0453   407.1233   
      5    9      44    1.82e-04   404.0024*  404.3312*  405.3943*  405.9479*  406.0222*  406.0583*  406.3021*  407.0338*  407.0451   407.1232*  
      6    9      45    5.57e-05   404.0024*  404.3312*  405.3943*  405.9479*  406.0222*  406.0583*  406.3021*  407.0338*  407.0455   407.1233*  
      7    10     46    3.77e-05   404.0024*  404.3312*  405.3943*  405.9479*  406.0222*  406.0583*  406.3021*  407.0338*  407.0454*  407.1233*  

     Davidson procedure converged

        Solving for CVS-EOMEE-CCSD A" singlet states.

       EOMEE-CCSD-SINGLES right amplitudes will be solved using Davidson.
        Amplitudes will be solved using shifted  algorithm.
     Hard-coded thresholds: 
     LinDepThresh=1.00e-15  NormThresh=1.00e-06  ReorthogonThresh=1.00e-02

      Roots     MaxVec    MaxIter   Precond   Conv      Shift    
      10        1000      200       1         1.00e-04  1.48e+01  
 ------------------------------------------------------------------------------
      Iter ConvRoots NVecs ResNorm Current eigenvalues (eV)
 ------------------------------------------------------------------------------
      0    0      10    6.94e-03   421.7857   422.0198   423.2631   423.4463   423.6567   424.3247   425.0383   425.1582   425.2106   426.0277   
      1    0      20    1.63e-02   421.0656   421.3296   422.7777   423.1753   423.3764   423.6073   424.9131   425.0855   425.1674   425.8451   
      2    0      30    3.79e-04   418.9702   419.2606   422.1840   422.2461   422.9157   423.2657   424.6213   424.9858   424.9860   425.2415   
      3    10     40    6.63e-06   418.9521*  419.2512*  422.1807*  422.2399*  422.9124*  423.2635*  424.5963*  424.9663*  424.9819*  425.2216*  

     Davidson procedure converged

        CVS-EOMEE-CCSD/MP2 right amplitudes will be solved using Davidson.
        Amplitudes will be solved using shifted  algorithm.
     Hard-coded thresholds: 
     LinDepThresh=1.00e-15  NormThresh=1.00e-06  ReorthogonThresh=1.00e-02

      Roots     MaxVec    MaxIter   Precond   Conv      Shift    
      10        1000      200       1         1.00e-04  1.48e+01  
 ------------------------------------------------------------------------------
      Iter ConvRoots NVecs ResNorm Current eigenvalues (eV)
 ------------------------------------------------------------------------------
      0    0      10    2.82e+00   418.9521   419.2512   422.1807   422.2399   422.9124   423.2635   424.5963   424.9663   424.9819   425.2216   
      1    0      20    2.03e+00   416.0021   416.3293   418.6566   418.7847   419.7111   420.0303   421.3936   421.7119   421.7917   422.0047   
      2    0      30    8.79e-02   404.3733   404.5695   405.2568   405.9386   406.8069   407.0437   408.3198   408.6506   408.8224   409.2284   
      3    0      40    1.15e-02   403.7050   403.9462   404.6834   405.2796   406.2184   406.4600   407.7087   408.0248   408.0847   408.5118   
Found complex roots...
      4    0      50    1.74e-03   403.6152   403.8854   404.6508   405.2008   406.1934   406.4398   407.6899   407.9860   408.0098   408.4324   
      5    0      60    1.52e-03   403.5904   403.8721   404.6431   405.1797   406.1878   406.4358   407.6845   407.9336   408.0063   408.3920   
      6    0      70    9.81e-04   403.5702   403.8638   404.6371   405.1646   406.1842   406.4321   407.6742   407.8741   408.0012   408.3303   
      7    1      80    7.17e-04   403.5600   403.8589   404.6349   405.1557   406.1813   406.4304*  407.6570   407.8250   407.9974   408.2726   
      8    7      89    2.20e-04   403.5589*  403.8579*  404.6343*  405.1535*  406.1808*  406.4303*  407.6429   407.8065   407.9957*  408.2529   
      9    7      92    1.01e-04   403.5587*  403.8579*  404.6341*  405.1535*  406.1805*  406.4303*  407.6351   407.8007   407.9957*  408.2482   
      10   9      95    5.30e-05   403.5586*  403.8579*  404.6340*  405.1534*  406.1803*  406.4302*  407.6278   407.7985*  407.9957*  408.2460*  
      11   9      96    3.45e-05   403.5586*  403.8579*  404.6341*  405.1534*  406.1803*  406.4302*  407.6255   407.7982*  407.9957*  408.2460*  
      12   10     97    2.60e-05   403.5586*  403.8579*  404.6341*  405.1534*  406.1803*  406.4302*  407.6243*  407.7982*  407.9957*  408.2460*  

     Davidson procedure converged

 EOMEE transition 1/A"
 Total energy = -399.11580084 a.u.  Excitation energy = 403.5586 eV.
 R0^2 = 0.0000  R1^2 = 0.8224  R2_CCVV^2 = 0.0008  R2_COVV^2 = 0.0884  Res^2 = 9.68e-06
 Conv-d = yes

 Amplitude    Transitions between orbitals
  0.5052       4 (A') A                  ->    6 (A") A                   
  0.5052       4 (A') B                  ->    6 (A") B                   
 -0.2615       4 (A') A                  ->    7 (A") A                   
 -0.2615       4 (A') B                  ->    7 (A") B                   
 -0.1449       4 (A') A                  ->    9 (A") A                   
 -0.1449       4 (A') B                  ->    9 (A") B                   
 -0.1428       4 (A') A                  ->    13 (A") A                  
 -0.1428       4 (A') B                  ->    13 (A") B                  
 -0.1395       4 (A') A                  ->    11 (A") A                  
 -0.1395       4 (A') B                  ->    11 (A") B                  

              Summary of significant orbitals:

               Number  Type             Irrep      Energy
               4       Occ  Alpha       4 (A')    -15.6305
               4       Occ  Beta        4 (A')    -15.6305
               34      Vir  Alpha       6 (A")      0.0738
               35      Vir  Alpha       7 (A")      0.0908
               40      Vir  Alpha       9 (A")      0.1381
               46      Vir  Alpha      11 (A")      0.1862
               55      Vir  Alpha      13 (A")      0.2862
               34      Vir  Beta        6 (A")      0.0738
               35      Vir  Beta        7 (A")      0.0908
               40      Vir  Beta        9 (A")      0.1381
               46      Vir  Beta       11 (A")      0.1862
               55      Vir  Beta       13 (A")      0.2862


 EOMEE transition 2/A"
 Total energy = -399.10480114 a.u.  Excitation energy = 403.8579 eV.
 R0^2 = 0.0000  R1^2 = 0.8229  R2_CCVV^2 = 0.0008  R2_COVV^2 = 0.0882  Res^2 = 2.20e-05
 Conv-d = yes

 Amplitude    Transitions between orbitals
  0.5555       3 (A') A                  ->    6 (A") A                   
  0.5555       3 (A') B                  ->    6 (A") B                   
 -0.2262       3 (A') A                  ->    7 (A") A                   
 -0.2262       3 (A') B                  ->    7 (A") B                   
 -0.1298       3 (A') A                  ->    9 (A") A                   
 -0.1298       3 (A') B                  ->    9 (A") B                   
  0.1246       3 (A') A                  ->    13 (A") A                  
  0.1246       3 (A') B                  ->    13 (A") B                  

              Summary of significant orbitals:

               Number  Type             Irrep      Energy
               3       Occ  Alpha       3 (A')    -15.6481
               3       Occ  Beta        3 (A')    -15.6481
               34      Vir  Alpha       6 (A")      0.0738
               35      Vir  Alpha       7 (A")      0.0908
               40      Vir  Alpha       9 (A")      0.1381
               55      Vir  Alpha      13 (A")      0.2862
               34      Vir  Beta        6 (A")      0.0738
               35      Vir  Beta        7 (A")      0.0908
               40      Vir  Beta        9 (A")      0.1381
               55      Vir  Beta       13 (A")      0.2862


 EOMEE transition 3/A"
 Total energy = -399.07627612 a.u.  Excitation energy = 404.6341 eV.
 R0^2 = 0.0000  R1^2 = 0.8180  R2_CCVV^2 = 0.0008  R2_COVV^2 = 0.0906  Res^2 = 3.41e-06
 Conv-d = yes

 Amplitude    Transitions between orbitals
 -0.3783       4 (A') A                  ->    10 (A") A                  
 -0.3783       4 (A') B                  ->    10 (A") B                  
 -0.3385       4 (A') A                  ->    9 (A") A                   
 -0.3385       4 (A') B                  ->    9 (A") B                   
  0.2907       4 (A') A                  ->    11 (A") A                  
  0.2907       4 (A') B                  ->    11 (A") B                  
 -0.2416       4 (A') A                  ->    8 (A") A                   
 -0.2416       4 (A') B                  ->    8 (A") B                   

              Summary of significant orbitals:

               Number  Type             Irrep      Energy
               4       Occ  Alpha       4 (A')    -15.6305
               4       Occ  Beta        4 (A')    -15.6305
               38      Vir  Alpha       8 (A")      0.1287
               40      Vir  Alpha       9 (A")      0.1381
               43      Vir  Alpha      10 (A")      0.1606
               46      Vir  Alpha      11 (A")      0.1862
               38      Vir  Beta        8 (A")      0.1287
               40      Vir  Beta        9 (A")      0.1381
               43      Vir  Beta       10 (A")      0.1606
               46      Vir  Beta       11 (A")      0.1862


 EOMEE transition 4/A"
 Total energy = -399.05718985 a.u.  Excitation energy = 405.1534 eV.
 R0^2 = 0.0000  R1^2 = 0.8221  R2_CCVV^2 = 0.0008  R2_COVV^2 = 0.0886  Res^2 = 4.52e-05
 Conv-d = yes

 Amplitude    Transitions between orbitals
 -0.3751       3 (A') A                  ->    10 (A") A                  
 -0.3751       3 (A') B                  ->    10 (A") B                  
  0.3324       3 (A') A                  ->    11 (A") A                  
  0.3324       3 (A') B                  ->    11 (A") B                  
 -0.2523       3 (A') A                  ->    8 (A") A                   
 -0.2523       3 (A') B                  ->    8 (A") B                   
 -0.2382       3 (A') A                  ->    9 (A") A                   
 -0.2382       3 (A') B                  ->    9 (A") B                   
  0.1303       3 (A') A                  ->    13 (A") A                  
  0.1303       3 (A') B                  ->    13 (A") B                  

              Summary of significant orbitals:

               Number  Type             Irrep      Energy
               3       Occ  Alpha       3 (A')    -15.6481
               3       Occ  Beta        3 (A')    -15.6481
               38      Vir  Alpha       8 (A")      0.1287
               40      Vir  Alpha       9 (A")      0.1381
               43      Vir  Alpha      10 (A")      0.1606
               46      Vir  Alpha      11 (A")      0.1862
               55      Vir  Alpha      13 (A")      0.2862
               38      Vir  Beta        8 (A")      0.1287
               40      Vir  Beta        9 (A")      0.1381
               43      Vir  Beta       10 (A")      0.1606
               46      Vir  Beta       11 (A")      0.1862
               55      Vir  Beta       13 (A")      0.2862


 EOMEE transition 5/A"
 Total energy = -399.01945222 a.u.  Excitation energy = 406.1803 eV.
 R0^2 = 0.0000  R1^2 = 0.8200  R2_CCVV^2 = 0.0008  R2_COVV^2 = 0.0896  Res^2 = 4.56e-06
 Conv-d = yes

 Amplitude    Transitions between orbitals
 -0.5275       4 (A') A                  ->    7 (A") A                   
 -0.5275       4 (A') B                  ->    7 (A") B                   
 -0.2537       4 (A') A                  ->    6 (A") A                   
 -0.2537       4 (A') B                  ->    6 (A") B                   
 -0.1530       4 (A') A                  ->    14 (A") A                  
 -0.1530       4 (A') B                  ->    14 (A") B                  
 -0.1458       4 (A') A                  ->    8 (A") A                   
 -0.1458       4 (A') B                  ->    8 (A") B                   
  0.1088       4 (A') A                  ->    9 (A") A                   
  0.1088       4 (A') B                  ->    9 (A") B                   

              Summary of significant orbitals:

               Number  Type             Irrep      Energy
               4       Occ  Alpha       4 (A')    -15.6305
               4       Occ  Beta        4 (A')    -15.6305
               34      Vir  Alpha       6 (A")      0.0738
               35      Vir  Alpha       7 (A")      0.0908
               38      Vir  Alpha       8 (A")      0.1287
               40      Vir  Alpha       9 (A")      0.1381
               56      Vir  Alpha      14 (A")      0.2919
               34      Vir  Beta        6 (A")      0.0738
               35      Vir  Beta        7 (A")      0.0908
               38      Vir  Beta        8 (A")      0.1287
               40      Vir  Beta        9 (A")      0.1381
               56      Vir  Beta       14 (A")      0.2919


 EOMEE transition 6/A"
 Total energy = -399.01026980 a.u.  Excitation energy = 406.4302 eV.
 R0^2 = 0.0000  R1^2 = 0.8208  R2_CCVV^2 = 0.0008  R2_COVV^2 = 0.0892  Res^2 = 1.02e-05
 Conv-d = yes

 Amplitude    Transitions between orbitals
  0.5340       3 (A') A                  ->    7 (A") A                   
  0.5340       3 (A') B                  ->    7 (A") B                   
  0.2393       3 (A') A                  ->    6 (A") A                   
  0.2393       3 (A') B                  ->    6 (A") B                   
  0.1898       3 (A') A                  ->    9 (A") A                   
  0.1898       3 (A') B                  ->    9 (A") B                   
  0.1203       3 (A') A                  ->    14 (A") A                  
  0.1203       3 (A') B                  ->    14 (A") B                  
 -0.1192       3 (A') A                  ->    12 (A") A                  
 -0.1192       3 (A') B                  ->    12 (A") B                  

              Summary of significant orbitals:

               Number  Type             Irrep      Energy
               3       Occ  Alpha       3 (A')    -15.6481
               3       Occ  Beta        3 (A')    -15.6481
               34      Vir  Alpha       6 (A")      0.0738
               35      Vir  Alpha       7 (A")      0.0908
               40      Vir  Alpha       9 (A")      0.1381
               52      Vir  Alpha      12 (A")      0.2432
               56      Vir  Alpha      14 (A")      0.2919
               34      Vir  Beta        6 (A")      0.0738
               35      Vir  Beta        7 (A")      0.0908
               40      Vir  Beta        9 (A")      0.1381
               52      Vir  Beta       12 (A")      0.2432
               56      Vir  Beta       14 (A")      0.2919


 EOMEE transition 7/A"
 Total energy = -398.96638788 a.u.  Excitation energy = 407.6243 eV.
 R0^2 = 0.0000  R1^2 = 0.8157  R2_CCVV^2 = 0.0007  R2_COVV^2 = 0.0918  Res^2 = 3.37e-05
 Conv-d = yes

 Amplitude    Transitions between orbitals
 -0.4041       4 (A') A                  ->    9 (A") A                   
 -0.4041       4 (A') B                  ->    9 (A") B                   
  0.3615       4 (A') A                  ->    8 (A") A                   
  0.3615       4 (A') B                  ->    8 (A") B                   
 -0.2345       4 (A') A                  ->    6 (A") A                   
 -0.2345       4 (A') B                  ->    6 (A") B                   
 -0.1361       4 (A') A                  ->    13 (A") A                  
 -0.1361       4 (A') B                  ->    13 (A") B                  
  0.1219       4 (A') A                  ->    12 (A") A                  
  0.1219       4 (A') B                  ->    12 (A") B                  
 -0.1142       4 (A') A                  ->    7 (A") A                   
 -0.1142       4 (A') B                  ->    7 (A") B                   

              Summary of significant orbitals:

               Number  Type             Irrep      Energy
               4       Occ  Alpha       4 (A')    -15.6305
               4       Occ  Beta        4 (A')    -15.6305
               34      Vir  Alpha       6 (A")      0.0738
               35      Vir  Alpha       7 (A")      0.0908
               38      Vir  Alpha       8 (A")      0.1287
               40      Vir  Alpha       9 (A")      0.1381
               52      Vir  Alpha      12 (A")      0.2432
               55      Vir  Alpha      13 (A")      0.2862
               34      Vir  Beta        6 (A")      0.0738
               35      Vir  Beta        7 (A")      0.0908
               38      Vir  Beta        8 (A")      0.1287
               40      Vir  Beta        9 (A")      0.1381
               52      Vir  Beta       12 (A")      0.2432
               55      Vir  Beta       13 (A")      0.2862


 EOMEE transition 8/A"
 Total energy = -398.95999629 a.u.  Excitation energy = 407.7982 eV.
 R0^2 = 0.0000  R1^2 = 0.8173  R2_CCVV^2 = 0.0008  R2_COVV^2 = 0.0910  Res^2 = 4.61e-05
 Conv-d = yes

 Amplitude    Transitions between orbitals
  0.3716       4 (A') A                  ->    8 (A") A                   
  0.3716       4 (A') B                  ->    8 (A") B                   
  0.2555       4 (A') A                  ->    13 (A") A                  
  0.2555       4 (A') B                  ->    13 (A") B                  
 -0.2240       4 (A') A                  ->    10 (A") A                  
 -0.2240       4 (A') B                  ->    10 (A") B                  
  0.1890       4 (A') A                  ->    9 (A") A                   
  0.1890       4 (A') B                  ->    9 (A") B                   
  0.1828       4 (A') A                  ->    11 (A") A                  
  0.1828       4 (A') B                  ->    11 (A") B                  
 -0.1492       4 (A') A                  ->    7 (A") A                   
 -0.1492       4 (A') B                  ->    7 (A") B                   
  0.1387       4 (A') A                  ->    12 (A") A                  
  0.1387       4 (A') B                  ->    12 (A") B                  
 -0.1238       4 (A') A                  ->    15 (A") A                  
 -0.1238       4 (A') B                  ->    15 (A") B                  
  0.1231       4 (A') A                  ->    6 (A") A                   
  0.1231       4 (A') B                  ->    6 (A") B                   

              Summary of significant orbitals:

               Number  Type             Irrep      Energy
               4       Occ  Alpha       4 (A')    -15.6305
               4       Occ  Beta        4 (A')    -15.6305
               34      Vir  Alpha       6 (A")      0.0738
               35      Vir  Alpha       7 (A")      0.0908
               38      Vir  Alpha       8 (A")      0.1287
               40      Vir  Alpha       9 (A")      0.1381
               43      Vir  Alpha      10 (A")      0.1606
               46      Vir  Alpha      11 (A")      0.1862
               52      Vir  Alpha      12 (A")      0.2432
               55      Vir  Alpha      13 (A")      0.2862
               62      Vir  Alpha      15 (A")      0.3695
               34      Vir  Beta        6 (A")      0.0738
               35      Vir  Beta        7 (A")      0.0908
               38      Vir  Beta        8 (A")      0.1287
               40      Vir  Beta        9 (A")      0.1381
               43      Vir  Beta       10 (A")      0.1606
               46      Vir  Beta       11 (A")      0.1862
               52      Vir  Beta       12 (A")      0.2432
               55      Vir  Beta       13 (A")      0.2862
               62      Vir  Beta       15 (A")      0.3695


 EOMEE transition 9/A"
 Total energy = -398.95273936 a.u.  Excitation energy = 407.9957 eV.
 R0^2 = 0.0000  R1^2 = 0.8170  R2_CCVV^2 = 0.0008  R2_COVV^2 = 0.0911  Res^2 = 4.01e-05
 Conv-d = yes

 Amplitude    Transitions between orbitals
 -0.4974       3 (A') A                  ->    8 (A") A                   
 -0.4974       3 (A') B                  ->    8 (A") B                   
  0.3015       3 (A') A                  ->    9 (A") A                   
  0.3015       3 (A') B                  ->    9 (A") B                   
  0.1652       3 (A') A                  ->    10 (A") A                  
  0.1652       3 (A') B                  ->    10 (A") B                  
 -0.1641       3 (A') A                  ->    7 (A") A                   
 -0.1641       3 (A') B                  ->    7 (A") B                   

              Summary of significant orbitals:

               Number  Type             Irrep      Energy
               3       Occ  Alpha       3 (A')    -15.6481
               3       Occ  Beta        3 (A')    -15.6481
               35      Vir  Alpha       7 (A")      0.0908
               38      Vir  Alpha       8 (A")      0.1287
               40      Vir  Alpha       9 (A")      0.1381
               43      Vir  Alpha      10 (A")      0.1606
               35      Vir  Beta        7 (A")      0.0908
               38      Vir  Beta        8 (A")      0.1287
               40      Vir  Beta        9 (A")      0.1381
               43      Vir  Beta       10 (A")      0.1606


 EOMEE transition 10/A"
 Total energy = -398.94354021 a.u.  Excitation energy = 408.2460 eV.
 R0^2 = 0.0000  R1^2 = 0.8174  R2_CCVV^2 = 0.0008  R2_COVV^2 = 0.0909  Res^2 = 4.54e-05
 Conv-d = yes

 Amplitude    Transitions between orbitals
  0.4167       3 (A') A                  ->    9 (A") A                   
  0.4167       3 (A') B                  ->    9 (A") B                   
  0.2495       3 (A') A                  ->    8 (A") A                   
  0.2495       3 (A') B                  ->    8 (A") B                   
 -0.1974       3 (A') A                  ->    10 (A") A                  
 -0.1974       3 (A') B                  ->    10 (A") B                  
 -0.1974       3 (A') A                  ->    12 (A") A                  
 -0.1974       3 (A') B                  ->    12 (A") B                  
  0.1856       3 (A') A                  ->    11 (A") A                  
  0.1856       3 (A') B                  ->    11 (A") B                  
 -0.1602       3 (A') A                  ->    7 (A") A                   
 -0.1602       3 (A') B                  ->    7 (A") B                   
  0.1276       3 (A') A                  ->    13 (A") A                  
  0.1276       3 (A') B                  ->    13 (A") B                  

              Summary of significant orbitals:

               Number  Type             Irrep      Energy
               3       Occ  Alpha       3 (A')    -15.6481
               3       Occ  Beta        3 (A')    -15.6481
               35      Vir  Alpha       7 (A")      0.0908
[...]


 Start computing the transition properties

 ------------------------------------------------------------------------------
 State A: ccsd: 0/A'
 State B: cvs_eomee_ccsd/rhfref/singlets: 1/A'
 Transition dipole moment (a.u.):
   A->B: 0.034830 (X 0.029364, Y 0.018731, Z 0.000000)
   B->A: 0.034709 (X 0.029137, Y 0.018861, Z 0.000000)
 Oscillator strength (a.u.): 0.011965
 Norm of one-particle transition density matrix:
   A->B: 0.908140;   B->A: 0.880902
   ||gamma^AB||*||gamma^BA||: 0.799982

 ------------------------------------------------------------------------------
 State A: ccsd: 0/A'
 State B: cvs_eomee_ccsd/rhfref/singlets: 2/A'
 Transition dipole moment (a.u.):
   A->B: 0.035539 (X 0.001994, Y -0.035483, Z 0.000000)
   B->A: 0.035010 (X 0.002090, Y -0.034947, Z 0.000000)
 Oscillator strength (a.u.): 0.012325
 Norm of one-particle transition density matrix:
   A->B: 0.907308;   B->A: 0.879830
   ||gamma^AB||*||gamma^BA||: 0.798277

 ------------------------------------------------------------------------------
 State A: ccsd: 0/A'
 State B: cvs_eomee_ccsd/rhfref/singlets: 3/A'
 Transition dipole moment (a.u.):
   A->B: 0.025884 (X 0.005893, Y 0.025205, Z 0.000000)
   B->A: 0.025871 (X 0.005937, Y 0.025180, Z 0.000000)
 Oscillator strength (a.u.): 0.006651
 Norm of one-particle transition density matrix:
   A->B: 0.903418;   B->A: 0.870800
   ||gamma^AB||*||gamma^BA||: 0.786696

 ------------------------------------------------------------------------------
 State A: ccsd: 0/A'
 State B: cvs_eomee_ccsd/rhfref/singlets: 4/A'
 Transition dipole moment (a.u.):
   A->B: 0.023606 (X -0.017283, Y -0.016078, Z 0.000000)
   B->A: 0.023312 (X -0.017052, Y -0.015896, Z 0.000000)
 Oscillator strength (a.u.): 0.005473
 Norm of one-particle transition density matrix:
   A->B: 0.905614;   B->A: 0.871723
   ||gamma^AB||*||gamma^BA||: 0.789445

 ------------------------------------------------------------------------------
 State A: ccsd: 0/A'
 State B: cvs_eomee_ccsd/rhfref/singlets: 5/A'
 Transition dipole moment (a.u.):
   A->B: 0.016504 (X 0.005240, Y -0.015650, Z 0.000000)
   B->A: 0.016506 (X 0.005309, Y -0.015628, Z 0.000000)
 Oscillator strength (a.u.): 0.002710
 Norm of one-particle transition density matrix:
   A->B: 0.902466;   B->A: 0.869269
   ||gamma^AB||*||gamma^BA||: 0.784486

 ------------------------------------------------------------------------------
 State A: ccsd: 0/A'
 State B: cvs_eomee_ccsd/rhfref/singlets: 6/A'
 Transition dipole moment (a.u.):
   A->B: 0.002389 (X -0.002121, Y -0.001099, Z 0.000000)
   B->A: 0.002406 (X -0.002062, Y -0.001239, Z 0.000000)
 Oscillator strength (a.u.): 0.000057
 Norm of one-particle transition density matrix:
   A->B: 0.903344;   B->A: 0.868976
   ||gamma^AB||*||gamma^BA||: 0.784985

 ------------------------------------------------------------------------------
 State A: ccsd: 0/A'
 State B: cvs_eomee_ccsd/rhfref/singlets: 7/A'
 Transition dipole moment (a.u.):
   A->B: 0.014690 (X 0.014189, Y 0.003803, Z 0.000000)
   B->A: 0.014761 (X 0.014282, Y 0.003730, Z 0.000000)
 Oscillator strength (a.u.): 0.002158
 Norm of one-particle transition density matrix:
   A->B: 0.901637;   B->A: 0.866592
   ||gamma^AB||*||gamma^BA||: 0.781351

 ------------------------------------------------------------------------------
 State A: ccsd: 0/A'
 State B: cvs_eomee_ccsd/rhfref/singlets: 8/A'
 Transition dipole moment (a.u.):
   A->B: 0.015578 (X 0.011073, Y 0.010958, Z 0.000000)
   B->A: 0.015432 (X 0.010904, Y 0.010920, Z 0.000000)
 Oscillator strength (a.u.): 0.002397
 Norm of one-particle transition density matrix:
   A->B: 0.903688;   B->A: 0.868590
   ||gamma^AB||*||gamma^BA||: 0.784934

 ------------------------------------------------------------------------------
 State A: ccsd: 0/A'
 State B: cvs_eomee_ccsd/rhfref/singlets: 9/A'
 Transition dipole moment (a.u.):
   A->B: 0.007173 (X -0.007169, Y 0.000252, Z 0.000000)
   B->A: 0.007243 (X -0.007239, Y 0.000224, Z 0.000000)
 Oscillator strength (a.u.): 0.000518
 Norm of one-particle transition density matrix:
   A->B: 0.902596;   B->A: 0.867403
   ||gamma^AB||*||gamma^BA||: 0.782914

 ------------------------------------------------------------------------------
 State A: ccsd: 0/A'
 State B: cvs_eomee_ccsd/rhfref/singlets: 10/A'
 Transition dipole moment (a.u.):
   A->B: 0.007443 (X 0.004457, Y -0.005961, Z 0.000000)
   B->A: 0.007456 (X 0.004461, Y -0.005974, Z 0.000000)
 Oscillator strength (a.u.): 0.000554
 Norm of one-particle transition density matrix:
   A->B: 0.902133;   B->A: 0.866416
   ||gamma^AB||*||gamma^BA||: 0.781623

 ------------------------------------------------------------------------------
 State A: ccsd: 0/A'
 State B: cvs_eomee_ccsd/rhfref/singlets: 1/A"
 Transition dipole moment (a.u.):
   A->B: 0.042435 (X 0.000000, Y 0.000000, Z 0.042435)
   B->A: 0.044200 (X 0.000000, Y 0.000000, Z 0.044200)
 Oscillator strength (a.u.): 0.018544
 Norm of one-particle transition density matrix:
   A->B: 0.879929;   B->A: 0.879158
   ||gamma^AB||*||gamma^BA||: 0.773597

 ------------------------------------------------------------------------------
 State A: ccsd: 0/A'
 State B: cvs_eomee_ccsd/rhfref/singlets: 2/A"
 Transition dipole moment (a.u.):
   A->B: 0.036510 (X 0.000000, Y 0.000000, Z 0.036510)
   B->A: 0.038354 (X 0.000000, Y 0.000000, Z 0.038354)
 Oscillator strength (a.u.): 0.013855
 Norm of one-particle transition density matrix:
   A->B: 0.879165;   B->A: 0.877749
   ||gamma^AB||*||gamma^BA||: 0.771686

 ------------------------------------------------------------------------------
 State A: ccsd: 0/A'
 State B: cvs_eomee_ccsd/rhfref/singlets: 3/A"
 Transition dipole moment (a.u.):
   A->B: 0.014689 (X 0.000000, Y 0.000000, Z -0.014689)
   B->A: 0.015429 (X 0.000000, Y 0.000000, Z -0.015429)
 Oscillator strength (a.u.): 0.002247
 Norm of one-particle transition density matrix:
   A->B: 0.880081;   B->A: 0.872099
   ||gamma^AB||*||gamma^BA||: 0.767518

 ------------------------------------------------------------------------------
 State A: ccsd: 0/A'
 State B: cvs_eomee_ccsd/rhfref/singlets: 4/A"
 Transition dipole moment (a.u.):
   A->B: 0.034446 (X 0.000000, Y 0.000000, Z 0.034446)
   B->A: 0.035573 (X 0.000000, Y 0.000000, Z 0.035573)
 Oscillator strength (a.u.): 0.012163
 Norm of one-particle transition density matrix:
   A->B: 0.884162;   B->A: 0.876556
   ||gamma^AB||*||gamma^BA||: 0.775018

 ------------------------------------------------------------------------------
 State A: ccsd: 0/A'
 State B: cvs_eomee_ccsd/rhfref/singlets: 5/A"
 Transition dipole moment (a.u.):
   A->B: 0.017274 (X 0.000000, Y 0.000000, Z 0.017274)
   B->A: 0.017677 (X 0.000000, Y 0.000000, Z 0.017677)
 Oscillator strength (a.u.): 0.003039
 Norm of one-particle transition density matrix:
   A->B: 0.904693;   B->A: 0.870460
   ||gamma^AB||*||gamma^BA||: 0.787499

 ------------------------------------------------------------------------------
 State A: ccsd: 0/A'
 State B: cvs_eomee_ccsd/rhfref/singlets: 6/A"
 Transition dipole moment (a.u.):
   A->B: 0.013734 (X 0.000000, Y 0.000000, Z 0.013734)
   B->A: 0.014408 (X 0.000000, Y 0.000000, Z 0.014408)
 Oscillator strength (a.u.): 0.001970
 Norm of one-particle transition density matrix:
   A->B: 0.904878;   B->A: 0.870649
   ||gamma^AB||*||gamma^BA||: 0.787831

 ------------------------------------------------------------------------------
 State A: ccsd: 0/A'
 State B: cvs_eomee_ccsd/rhfref/singlets: 7/A"
 Transition dipole moment (a.u.):
   A->B: 0.004576 (X 0.000000, Y 0.000000, Z -0.004576)
   B->A: 0.003775 (X 0.000000, Y 0.000000, Z -0.003775)
 Oscillator strength (a.u.): 0.000173
 Norm of one-particle transition density matrix:
   A->B: 0.901496;   B->A: 0.867124
   ||gamma^AB||*||gamma^BA||: 0.781709

 ------------------------------------------------------------------------------
 State A: ccsd: 0/A'
 State B: cvs_eomee_ccsd/rhfref/singlets: 8/A"
 Transition dipole moment (a.u.):
   A->B: 0.026581 (X 0.000000, Y 0.000000, Z -0.026581)
   B->A: 0.026986 (X 0.000000, Y 0.000000, Z -0.026986)
 Oscillator strength (a.u.): 0.007167
 Norm of one-particle transition density matrix:
   A->B: 0.897820;   B->A: 0.869972
   ||gamma^AB||*||gamma^BA||: 0.781079

 ------------------------------------------------------------------------------
 State A: ccsd: 0/A'
 State B: cvs_eomee_ccsd/rhfref/singlets: 9/A"
 Transition dipole moment (a.u.):
   A->B: 0.002639 (X 0.000000, Y 0.000000, Z -0.002639)
   B->A: 0.002798 (X 0.000000, Y 0.000000, Z -0.002798)
 Oscillator strength (a.u.): 0.000074
 Norm of one-particle transition density matrix:
   A->B: 0.903839;   B->A: 0.867238
   ||gamma^AB||*||gamma^BA||: 0.783843

 ------------------------------------------------------------------------------
 State A: ccsd: 0/A'
 State B: cvs_eomee_ccsd/rhfref/singlets: 10/A"
 Transition dipole moment (a.u.):
   A->B: 0.021219 (X 0.000000, Y 0.000000, Z 0.021219)
   B->A: 0.021548 (X 0.000000, Y 0.000000, Z 0.021548)
 Oscillator strength (a.u.): 0.004573
 Norm of one-particle transition density matrix:
   A->B: 0.902414;   B->A: 0.868453
   ||gamma^AB||*||gamma^BA||: 0.783704


 All requested transition properties have been computed

 Transition Properties:   CPU 163.45 s  wall 30.77 s

 Total ccman2 time:   CPU 21557.82 s  wall 2885.38 s

 
 --------------------------------------------------------------
             Orbital Energies (a.u.) and Symmetries
 --------------------------------------------------------------
 
 Alpha MOs, Restricted
 -- Occupied --                  
-20.551 -20.545 -15.648 -15.631 -11.426 -11.387 -11.345 -11.260
  1 A'    2 A'    3 A'    4 A'    5 A'    6 A'    7 A'    8 A'                 
 -1.442  -1.404  -1.319  -1.250  -1.093  -0.938  -0.907  -0.812
  9 A'   10 A'   11 A'   12 A'   13 A'   14 A'   15 A'   16 A'                 
 -0.770  -0.719  -0.681  -0.671  -0.657  -0.619  -0.605  -0.573
 17 A'   18 A'   19 A'    1 A"   20 A'   21 A'   22 A'    2 A"                 
 -0.528  -0.487  -0.452  -0.439  -0.371
  3 A"   23 A'   24 A'    4 A"    5 A"                                         
 -- Virtual --                   
  0.023   0.048   0.061   0.071   0.074   0.091   0.102   0.109
 25 A'   26 A'   27 A'   28 A'    6 A"    7 A"   29 A'   30 A'                 
  0.129   0.134   0.138   0.146   0.158   0.161   0.167   0.176
  8 A"   31 A'    9 A"   32 A'   33 A'   10 A"   34 A'   35 A'                 
  0.186   0.192   0.198   0.199   0.219   0.229   0.243   0.251
 11 A"   36 A'   37 A'   38 A'   39 A'   40 A'   12 A"   41 A'                 
  0.256   0.286   0.292   0.298   0.310   0.320   0.339   0.354
 42 A'   13 A"   14 A"   43 A'   44 A'   45 A'   46 A'   47 A'                 
  0.369   0.383   0.386   0.397   0.407   0.408   0.415   0.428
 15 A"   48 A'   49 A'   50 A'   51 A'   16 A"   52 A'   53 A'                 
  0.430   0.443   0.469   0.485   0.497   0.518   0.556   0.557
 54 A'   55 A'   56 A'   57 A'   58 A'   59 A'   60 A'   61 A'                 
  0.634   0.668   0.697   0.706   0.739   0.742   0.758   0.771
 62 A'   63 A'   17 A"   64 A'   18 A"   65 A'   19 A"   66 A'                 
  0.786   0.796   0.832   0.854   0.907   0.928   0.945   0.967
 67 A'   20 A"   68 A'   69 A'   70 A'   71 A'   72 A'   73 A'                 
  0.976   0.996   1.014   1.019   1.048   1.056   1.081   1.099
 74 A'   75 A'   21 A"   76 A'   77 A'   22 A"   78 A'   79 A'                 
  1.140   1.209   1.225   1.242   1.251   1.302   1.358   1.359
 80 A'   81 A'   23 A"   24 A"   82 A'   83 A'   25 A"   84 A'                 
  1.376   1.398   1.415   1.419   1.432   1.438   1.457   1.501
 26 A"   27 A"   85 A'   28 A"   86 A'   87 A'   29 A"   88 A'                 
  1.511   1.528   1.575   1.746   1.779   1.796   1.811   1.883
 30 A"   89 A'   90 A'   91 A'   92 A'   93 A'   31 A"   94 A'                 
  1.896   1.909   1.925   1.951   1.970   2.011   2.011   2.067
 32 A"   95 A'   33 A"   96 A'   97 A'   34 A"   98 A'   99 A'                 
  2.118   2.137   2.187   2.220   2.223   2.272   2.292   2.339
100 A'  101 A'  102 A'   35 A"  103 A'  104 A'  105 A'   36 A"                 
  2.345   2.529   2.556   2.580   2.642   2.659   2.723   2.798
106 A'  107 A'   37 A"  108 A'   38 A"  109 A'   39 A"  110 A'                 
  2.820   2.848   2.915   2.960   3.000   3.015   3.041   3.070
 40 A"  111 A'  112 A'  113 A'  114 A'  115 A'  116 A'   41 A"                 
  3.144   3.170   3.173   3.207   3.260   3.263   3.291   3.307
 42 A"   43 A"  117 A'  118 A'   44 A"  119 A'  120 A'   45 A"                 
  3.314   3.343   3.394   3.506   3.568   3.751   3.762   3.799
121 A'   46 A"  122 A'  123 A'  124 A'   47 A"   48 A"  125 A'                 
  3.831   3.872   3.908   3.954   4.016   4.052   4.098   4.282
126 A'  127 A'  128 A'  129 A'  130 A'  131 A'  132 A'  133 A'                 
  4.289   4.337   4.416   4.485   4.623   5.193   5.283   5.348
 49 A"   50 A"  134 A'  135 A'  136 A'  137 A'  138 A'  139 A'                 
  5.600   5.627   5.686   5.763   5.857   6.328   6.365  24.853
 51 A"   52 A"  140 A'  141 A'  142 A'  143 A'  144 A'  145 A'                 
 24.967  25.028  25.324  36.989  37.046  51.709  51.753
146 A'  147 A'  148 A'  149 A'  150 A'  151 A'  152 A'                         
 
 Beta MOs, Restricted
 -- Occupied --                  
-20.551 -20.545 -15.648 -15.631 -11.426 -11.387 -11.345 -11.260
  1 A'    2 A'    3 A'    4 A'    5 A'    6 A'    7 A'    8 A'                 
 -1.442  -1.404  -1.319  -1.250  -1.093  -0.938  -0.907  -0.812
  9 A'   10 A'   11 A'   12 A'   13 A'   14 A'   15 A'   16 A'                 
 -0.770  -0.719  -0.681  -0.671  -0.657  -0.619  -0.605  -0.573
 17 A'   18 A'   19 A'    1 A"   20 A'   21 A'   22 A'    2 A"                 
 -0.528  -0.487  -0.452  -0.439  -0.371
  3 A"   23 A'   24 A'    4 A"    5 A"                                         
 -- Virtual --                   
  0.023   0.048   0.061   0.071   0.074   0.091   0.102   0.109
 25 A'   26 A'   27 A'   28 A'    6 A"    7 A"   29 A'   30 A'                 
  0.129   0.134   0.138   0.146   0.158   0.161   0.167   0.176
  8 A"   31 A'    9 A"   32 A'   33 A'   10 A"   34 A'   35 A'                 
  0.186   0.192   0.198   0.199   0.219   0.229   0.243   0.251
 11 A"   36 A'   37 A'   38 A'   39 A'   40 A'   12 A"   41 A'                 
  0.256   0.286   0.292   0.298   0.310   0.320   0.339   0.354
 42 A'   13 A"   14 A"   43 A'   44 A'   45 A'   46 A'   47 A'                 
  0.369   0.383   0.386   0.397   0.407   0.408   0.415   0.428
 15 A"   48 A'   49 A'   50 A'   51 A'   16 A"   52 A'   53 A'                 
  0.430   0.443   0.469   0.485   0.497   0.518   0.556   0.557
 54 A'   55 A'   56 A'   57 A'   58 A'   59 A'   60 A'   61 A'                 
  0.634   0.668   0.697   0.706   0.739   0.742   0.758   0.771
 62 A'   63 A'   17 A"   64 A'   18 A"   65 A'   19 A"   66 A'                 
  0.786   0.796   0.832   0.854   0.907   0.928   0.945   0.967
 67 A'   20 A"   68 A'   69 A'   70 A'   71 A'   72 A'   73 A'                 
  0.976   0.996   1.014   1.019   1.048   1.056   1.081   1.099
 74 A'   75 A'   21 A"   76 A'   77 A'   22 A"   78 A'   79 A'                 
  1.140   1.209   1.225   1.242   1.251   1.302   1.358   1.359
 80 A'   81 A'   23 A"   24 A"   82 A'   83 A'   25 A"   84 A'                 
  1.376   1.398   1.415   1.419   1.432   1.438   1.457   1.501
 26 A"   27 A"   85 A'   28 A"   86 A'   87 A'   29 A"   88 A'                 
  1.511   1.528   1.575   1.746   1.779   1.796   1.811   1.883
 30 A"   89 A'   90 A'   91 A'   92 A'   93 A'   31 A"   94 A'                 
  1.896   1.909   1.925   1.951   1.970   2.011   2.011   2.067
 32 A"   95 A'   33 A"   96 A'   97 A'   34 A"   98 A'   99 A'                 
  2.118   2.137   2.187   2.220   2.223   2.272   2.292   2.339
100 A'  101 A'  102 A'   35 A"  103 A'  104 A'  105 A'   36 A"                 
  2.345   2.529   2.556   2.580   2.642   2.659   2.723   2.798
106 A'  107 A'   37 A"  108 A'   38 A"  109 A'   39 A"  110 A'                 
  2.820   2.848   2.915   2.960   3.000   3.015   3.041   3.070
 40 A"  111 A'  112 A'  113 A'  114 A'  115 A'  116 A'   41 A"                 
  3.144   3.170   3.173   3.207   3.260   3.263   3.291   3.307
 42 A"   43 A"  117 A'  118 A'   44 A"  119 A'  120 A'   45 A"                 
  3.314   3.343   3.394   3.506   3.568   3.751   3.762   3.799
121 A'   46 A"  122 A'  123 A'  124 A'   47 A"   48 A"  125 A'                 
  3.831   3.872   3.908   3.954   4.016   4.052   4.098   4.282
126 A'  127 A'  128 A'  129 A'  130 A'  131 A'  132 A'  133 A'                 
  4.289   4.337   4.416   4.485   4.623   5.193   5.283   5.348
 49 A"   50 A"  134 A'  135 A'  136 A'  137 A'  138 A'  139 A'                 
  5.600   5.627   5.686   5.763   5.857   6.328   6.365  24.853
 51 A"   52 A"  140 A'  141 A'  142 A'  143 A'  144 A'  145 A'                 
 24.967  25.028  25.324  36.989  37.046  51.709  51.753
146 A'  147 A'  148 A'  149 A'  150 A'  151 A'  152 A'                         
 --------------------------------------------------------------
 
          Ground-State Mulliken Net Atomic Charges

     Atom                 Charge (a.u.)
  ----------------------------------------
      1 C                     0.093026
      2 H                     0.387156
      3 H                     0.226193
      4 H                     0.406725
      5 C                     0.569769
      6 O                    -0.441367
      7 C                     0.218011
      8 O                    -0.408517
      9 N                    -0.591918
     10 N                    -0.546948
     11 C                    -0.160334
     12 H                     0.248204
  ----------------------------------------
  Sum of atomic charges =    -0.000000

 -----------------------------------------------------------------
                    Cartesian Multipole Moments
 -----------------------------------------------------------------
    Charge (ESU x 10^10)
                 0.0000
    Dipole Moment (Debye)
         X      -1.3855      Y      -4.9595      Z      -0.0000
       Tot       5.1494
    Quadrupole Moments (Debye-Ang)
        XX     -60.6980     XY       2.5046     YY     -38.3422
        XZ       0.0000     YZ       0.0000     ZZ     -46.9622
    Octopole Moments (Debye-Ang^2)
       XXX     -11.3896    XXY     -34.8658    XYY      -5.2070
       YYY      -9.1039    XXZ      -0.0000    XYZ       0.0000
       YYZ      -0.0000    XZZ      -1.9258    YZZ       4.3435
       ZZZ      -0.0000
    Hexadecapole Moments (Debye-Ang^3)
      XXXX    -728.0727   XXXY      12.7532   XXYY    -176.8292
      XYYY      13.2972   YYYY    -303.9036   XXXZ       0.0000
      XXYZ       0.0000   XYYZ       0.0000   YYYZ       0.0000
      XXZZ    -114.0606   XYZZ       2.9926   YYZZ     -75.6239
      XZZZ       0.0000   YZZZ       0.0000   ZZZZ     -46.6065
 -----------------------------------------------------------------
Archival summary:
1\1\n-62-23-6\SP\ProcedureUnspecified\BasisUnspecified\2244\malop\ThuSep2013:48:452018ThuSep2013:48:452018\0\\#,ProcedureUnspecified,BasisUnspecified,\\0,1\N\H,1,1.01081\C,1,1.37966,2,115.327\O,3,1.21479,1,124.21,2,-0,0\N,3,1.3852,1,112.713,2,-180,0\H,5,1.00619,3,115.142,1,180,0\C,5,1.37008,3,123.626,1,-0,0\H,7,1.07981,5,115.516,3,-180,0\C,7,1.34802,5,121.979,3,0,0\H,9,1.07615,7,121.525,5,-180,0\C,1,1.40335,2,116.035,3,180,0\O,11,1.21832,1,120.541,2,-0,0\\HF=-412.579251\\@

 Total job time:  2950.79s(wall), 21814.38s(cpu) 
 Thu Sep 20 13:48:45 2018

        *************************************************************
        *                                                           *
        *  Thank you very much for using Q-Chem.  Have a nice day.  *
        *                                                           *
        *************************************************************


