n-62-23-7 10.66.23
Q-Chem Developer Version! Running on 10.66.23.*
                  Welcome to Q-Chem
     A Quantum Leap Into The Future Of Chemistry


 Q-Chem 5.1, Q-Chem, Inc., Pleasanton, CA (2018)

 Yihan Shao,  Zhengting Gan,  E. Epifanovsky,  A. T. B. Gilbert,  M. Wormit,  
 J. Kussmann,  A. W. Lange,  A. Behn,  Jia Deng,  Xintian Feng,  D. Ghosh,  
 M. Goldey,  P. R. Horn,  L. D. Jacobson,  I. Kaliman,  T. Kus,  A. Landau,  
 Jie Liu,  E. I. Proynov,  R. M. Richard,  R. P. Steele,  E. J. Sundstrom,  
 H. L. Woodcock III,  P. M. Zimmerman,  D. Zuev,  B. Albrecht,  E. Alguire,  
 S. A. Baeppler,  D. Barton,  Z. Benda,  Y. A. Bernard,  E. J. Berquist,  
 K. B. Bravaya,  H. Burton,  D. Casanova,  Chun-Min Chang,  Yunqing Chen,  
 A. Chien,  K. D. Closser,  M. P. Coons,  S. Coriani,  S. Dasgupta,  
 A. L. Dempwolff,  M. Diedenhofen,  Hainam Do,  R. G. Edgar,  Po-Tung Fang,  
 S. Faraji,  S. Fatehi,  Qingguo Feng,  K. D. Fenk,  J. Fosso-Tande,  
 Qinghui Ge,  A. Ghysels,  G. Gidofalvi,  J. Gomes,  J. Gonthier,  A. Gunina,  
 M. W. D. Hanson-Heine,  P. H. P. Harbach,  A. W. Hauser,  J. E. Herr,  
 E. G. Hohenstein,  Z. C. Holden,  Kerwin Hui,  T.-C. Jagau,  Hyunjun Ji,  
 B. Kaduk,  K. Khistyaev,  Jaehoon Kim,  P. Klunzinger,  K. Koh,  
 D. Kosenkov,  L. Koulias,  T. Kowalczyk,  C. M. Krauter,  A. Kunitsa,  
 Ka Un Lao,  A. Laurent,  K. V. Lawler,  Joonho Lee,  D. Lefrancois,  
 S. Lehtola,  D. S. Levine,  Yi-Pei Li,  You-Sheng Lin,  Fenglai Liu,  
 E. Livshits,  A. Luenser,  P. Manohar,  E. Mansoor,  S. F. Manzer,  
 Shan-Ping Mao,  Yuezhi Mao,  N. Mardirossian,  A. V. Marenich,  
 T. Markovich,  L. A. Martinez-Martinez,  S. A. Maurer,  N. J. Mayhall,  
 S. C. McKenzie,  J.-M. Mewes,  A. F. Morrison,  J. W. Mullinax,  K. Nanda,  
 T. S. Nguyen-Beck,  R. Olivares-Amaya,  J. A. Parkhill,  T. M. Perrine,  
 F. Plasser,  P. Pokhilko,  S. Prager,  A. Prociuk,  E. Ramos,  D. R. Rehn,  
 F. Rob,  M. Schneider,  N. Sergueev,  S. M. Sharada,  S. Sharma,  
 D. W. Small,  T. Stauch,  T. Stein,  Yu-Chuan Su,  A. J. W. Thom,  
 A. Tkatchenko,  T. Tsuchimochi,  N. M. Tubman,  L. Vogt,  M. L. Vidal,  
 O. Vydrov,  M. A. Watson,  J. Wenzel,  M. de Wergifosse,  T. A. Wesolowski,  
 A. White,  J. Witte,  A. Yamada,  Jun Yang,  K. Yao,  S. Yeganeh,  
 S. R. Yost,  Zhi-Qiang You,  A. Zech,  Igor Ying Zhang,  Xing Zhang,  
 Yan Zhao,  Ying Zhu,  B. R. Brooks,  G. K. L. Chan,  C. J. Cramer,  
 M. S. Gordon,  W. J. Hehre,  A. Klamt,  M. W. Schmidt,  C. D. Sherrill,  
 D. G. Truhlar,  A. Aspuru-Guzik,  R. Baer,  A. T. Bell,  N. A. Besley,  
 Jeng-Da Chai,  R. A. DiStasio Jr.,  A. Dreuw,  B. D. Dunietz,  
 T. R. Furlani,  Chao-Ping Hsu,  Yousung Jung,  Jing Kong,  D. S. Lambrecht,  
 WanZhen Liang,  C. Ochsenfeld,  V. A. Rassolov,  L. V. Slipchenko,  
 J. E. Subotnik,  T. Van Voorhis,  J. M. Herbert,  A. I. Krylov,  
 P. M. W. Gill,  M. Head-Gordon

 Contributors to earlier versions of Q-Chem not listed above: 
 R. D. Adamson,  B. Austin,  J. Baker,  G. J. O. Beran,  K. Brandhorst,  
 S. T. Brown,  E. F. C. Byrd,  A. K. Chakraborty,  C.-L. Cheng,  
 Siu Hung Chien,  D. M. Chipman,  D. L. Crittenden,  H. Dachsel,  
 R. J. Doerksen,  A. D. Dutoi,  L. Fusti-Molnar,  W. A. Goddard III,  
 A. Golubeva-Zadorozhnaya,  S. R. Gwaltney,  G. Hawkins,  A. Heyden,  
 S. Hirata,  G. Kedziora,  F. J. Keil,  C. Kelley,  Jihan Kim,  R. A. King,  
 R. Z. Khaliullin,  P. P. Korambath,  W. Kurlancheek,  A. M. Lee,  M. S. Lee,  
 S. V. Levchenko,  Ching Yeh Lin,  D. Liotard,  R. C. Lochan,  I. Lotan,  
 P. E. Maslen,  N. Nair,  D. P. O'Neill,  D. Neuhauser,  E. Neuscamman,  
 C. M. Oana,  R. Olson,  B. Peters,  R. Peverati,  P. A. Pieniazek,  
 Y. M. Rhee,  J. Ritchie,  M. A. Rohrdanz,  E. Rosta,  N. J. Russ,  
 H. F. Schaefer III,  N. E. Schultz,  N. Shenvi,  A. C. Simmonett,  A. Sodt,  
 D. Stuck,  K. S. Thanthiriwatte,  V. Vanovschi,  Tao Wang,  A. Warshel,  
 C. F. Williams,  Q. Wu,  X. Xu,  W. Zhang

 Please cite Q-Chem as follows:
 Y. Shao et al., Mol. Phys. 113, 184-215 (2015)
 DOI: 10.1080/00268976.2014.952696

 Q-Chem 5.1.0 for Intel X86 EM64T Linux

 Parts of Q-Chem use Armadillo 8.300.2 (Tropical Shenanigans).
 http://arma.sourceforge.net/

 Q-Chem begins on Thu Sep 20 14:36:35 2018  

Host: 
0

     Scratch files written to /work1/malop/qc_7246696.hnode2//

Checking the input file for inconsistencies... 	...done.

--------------------------------------------------------------
User input:
--------------------------------------------------------------
$comment 
URACIL SN C-edge
optimizion: mp2/cc-pvtz
$end

$molecule
0 1
C        0.052842   -1.701332    0.000000    
H       -2.016793   -1.512231    0.000000    
H       -0.025494   -2.778299    0.000000    
H       -0.023568    1.988544    0.000000    
C       -1.232948    0.358893    0.000000    
O       -2.294123    0.950188    0.000000    
C        1.274970    0.391620    0.000000    
O        2.275873    1.086244    0.000000    
N        0.000000    0.978006    0.000000    
N       -1.137535   -1.023018    0.000000    
C        1.239239   -1.061325    0.000000    
H        2.169983   -1.601520    0.000000    
$end

$rem
    jobtype = sp
    method = eom-ccsd
    ee_singlets    [3,3]
    cvs_ee_singlets    [10,10]
    basis = 6-311++G**
    n_frozen_core = fc 
    cc_trans_prop = 2
   eom_preconv_singles = true
   use_libqints = 1   !use new int library (will be def in trunk)
   thresh = 14   !this already should be default, but just in case
   scf_convergence = 12   !v. tight scf convergence, to reduce noise
   cc_convergence = 12   !tight CC, for the same reason
   basis_lin_dep_thresh = 8  !default is 6, use smaller, just in case
   cc_memory = 100000
   EOM_DAVIDSON_MAX_ITER 200
   EOM_DAVIDSON_MAXVECTORS = 1000
   eom_davidson_convergence = 4 
$end
--------------------------------------------------------------
 ----------------------------------------------------------------
             Standard Nuclear Orientation (Angstroms)
    I     Atom           X                Y                Z
 ----------------------------------------------------------------
    1      C      -0.0071423615    -1.7021374661    -0.0000000000
    2      H      -2.0688284730    -1.4402241233     0.0000000000
    3      H      -0.1233798667    -2.7756752113     0.0000000000
    4      H       0.0465189185     1.9881394681    -0.0000000000
    5      C      -1.2195356258     0.4021166886     0.0000000000
    6      O      -2.2592155329     1.0304381418     0.0000000000
    7      C       1.2879780632     0.3464493659    -0.0000000000
    8      O       2.3127366072     1.0053721559    -0.0000000000
    9      N       0.0344629504     0.9773985746    -0.0000000000
   10      N      -1.1728776526    -0.9822982369     0.0000000000
   11      C       1.2010703878    -1.1043341925    -0.0000000000
   12      H       2.1122009607    -1.6769912546    -0.0000000000
 ----------------------------------------------------------------
 Molecular Point Group                 Cs    NOp =  2
 Largest Abelian Subgroup              Cs    NOp =  2
 Nuclear Repulsion Energy =   357.0116303482 hartrees
 There are       29 alpha and       29 beta electrons
 Requested basis set is 6-311++G(d,p)
 There are 68 shells and 204 basis functions
MEM_TOTAL is adjusted to CC_MEMORY + MEM_STATIC!
 Total memory of 100192MB is distributed as follows: 
   QALLOC including MEM_STATIC uses 192MB
   MEM_STATIC is set to 192MB
   CCMAN JOB total memory use is  100000MB
 Warning: actual memory use might exceed 100192MB

 Total QAlloc Memory Limit    192 MB
 Mega-Array Size       188 MB
 MEM_STATIC part       192 MB

                       Distance Matrix (Angstroms)
             C (  1)   H (  2)   H (  3)   H (  4)   C (  5)   O (  6)
   H (  2)  2.078256
   H (  3)  1.079812  2.359703
   H (  4)  3.690667  4.028445  4.766843
   C (  5)  2.428535  2.028674  3.361535  2.029375
   O (  6)  3.541017  2.477987  4.364435  2.496718  1.214793
   C (  7)  2.423643  3.802677  3.426309  2.058244  2.508132  3.612537
   O (  8)  3.565452  5.017873  4.497886  2.470136  3.583415  4.572021
   N (  9)  2.679859  3.204487  3.756392  1.010813  1.379660  2.294292
   N ( 10)  1.370076  1.006193  2.077895  3.210986  1.385201  2.287190
   C ( 11)  1.348016  3.287105  2.132498  3.300967  2.851092  4.065813
   H ( 12)  2.119492  4.187728  2.490969  4.207164  3.927233  5.141931
             C (  7)   O (  8)   N (  9)   N ( 10)   C ( 11)
   O (  8)  1.218322
   N (  9)  1.403352  2.278445
   N ( 10)  2.796673  4.012523  2.301756
   C ( 11)  1.453384  2.384672  2.386333  2.377083
   H ( 12)  2.184870  2.689849  3.370872  3.357728  1.076148
 
 A cutoff of  1.0D-14 yielded   2246 shell pairs
 There are     20506 function pairs (     22152 Cartesian)
 
 -------------------------------------------------------
 OpenMP Integral Computing Module                       
 Release: version 1.0, May 2013, Q-Chem Inc. Pittsburgh 
 -------------------------------------------------------
 Integral Job Info:
 Integral job number is                      11
 Integral operator is                         1
 short-range coefficients                     0
 long-range coefficients              100000000
 Omega coefficients                           0
 if combine SR and LR in K                    0
 Integral screening is                        0
 Integral computing path is                   2
 max size of driver memory is            800000
 size of driver memory is                593474
 size of scratch memory is              2361544
 max col of scratch BK array               1296
 max len of scratch array in speh3          155
 max len of scratch index in speh4           18
 max int batch size is                      520
 min int batch size is                       52
 fixed nKL is                                52
 max L of basis functions is                  2
 order of int derivative is                   0
 number of shells is                         68
 number of basis is                         212
 number of cartesian basis is               212
 number of contracted shell pairs          2246
 number of primitive shell pairs           6171
 maxK2 (contraction) of shell pair           36
 max number of K2 of shell pair               1
 max number of CS2 of shell pair            315
 max number of PS2 of shell pair           1128
 mem total for path MDJ                  546230
 -------------------------------------------------------
 Smallest overlap matrix eigenvalue = 1.32E-05

 Scale SEOQF with 1.000000e-01/1.000000e-01/1.000000e-01

 Standard Electronic Orientation quadrupole field applied
 Nucleus-field energy     =     0.0000000098 hartrees
 Guess from superposition of atomic densities
 Warning:  Energy on first SCF cycle will be non-variational
 SAD guess density has 58.000000 electrons

 -----------------------------------------------------------------------
  General SCF calculation program by
  Eric Jon Sundstrom, Paul Horn, Yuezhi Mao, Dmitri Zuev, Alec White,
  David Stuck, Shaama M.S., Shane Yost, Joonho Lee, David Small,
  Daniel Levine, Susi Lehtola, Hugh Burton, Evgeny Epifanovsky
 -----------------------------------------------------------------------
 Hartree-Fock
 A restricted SCF calculation will be
 performed using DIIS
 SCF converges when DIIS error is below 1.0e-12
 ---------------------------------------
  Cycle       Energy         DIIS error
 ---------------------------------------
    1    -415.5118963559      5.16e-02  
    2    -412.3400668808      6.88e-03  
    3    -412.4467157910      5.86e-03  
    4    -412.5749217527      6.51e-04  
    5    -412.5785863070      2.36e-04  
    6    -412.5790950778      8.43e-05  
    7    -412.5792187176      4.35e-05  
    8    -412.5792467617      1.78e-05  
    9    -412.5792501784      5.81e-06  
   10    -412.5792505216      1.82e-06  
   11    -412.5792505599      8.51e-07  
   12    -412.5792505691      2.12e-07  
   13    -412.5792505697      9.06e-08  
   14    -412.5792505698      2.72e-08  
   15    -412.5792505698      1.10e-08  
   16    -412.5792505698      3.50e-09  
   17    -412.5792505698      1.06e-09  
   18    -412.5792505698      3.22e-10  
   19    -412.5792505698      9.06e-11  
   20    -412.5792505698      1.70e-11  
   21    -412.5792505698      5.15e-12  
   22    -412.5792505698      1.58e-12  
   23    -412.5792505698      3.64e-13  Convergence criterion met
 ---------------------------------------
 SCF time:   CPU 207.62s  wall 21.00s 
 SCF   energy in the final basis set =     -412.5792505698


 ------------------------------------------------------------------------------

   CCMAN2: suite of methods based on coupled cluster
           and equation of motion theories.

   Components:
   * libvmm-1.3-trunk
     by Evgeny Epifanovsky, Ilya Kaliman.
   * libtensor-2.5-trunk
     by Evgeny Epifanovsky, Michael Wormit, Dmitry Zuev, Sam Manzer, 
        Ilya Kaliman.
   * libcc-2.5-trunk
     by Evgeny Epifanovsky, Arik Landau, Tomasz Kus, Kirill Khistyaev, 
        Dmitry Zuev, Prashant Manohar, Xintian Feng, Anna Krylov, 
        Matthew Goldey, Alec White, Thomas Jagau, Kaushik Nanda, 
        Anastasia Gunina, Alexander Kunitsa, Joonho Lee.

   CCMAN original authors:
   Anna I. Krylov, C. David Sherrill, Steven R. Gwaltney,
   Edward F. C. Byrd (2000)
   Sergey V. Levchenko, Lyudmila V. Slipchenko, Tao Wang,
   Ana-Maria C. Cristian (2003)
   Piotr A. Pieniazek, C. Melania Oana, Evgeny Epifanovsky (2007)
   Prashant Manohar (2009)

 ------------------------------------------------------------------------------


 Calculation will run on 10 cores with 100000MB of RAM.

 
 Alpha MOs, Restricted
 -- Occupied --                  
-20.551 -20.545 -15.648 -15.631 -11.426 -11.387 -11.345 -11.260
  1 A'    2 A'    3 A'    4 A'    5 A'    6 A'    7 A'    8 A'                 
 -1.442  -1.404  -1.319  -1.250  -1.093  -0.938  -0.907  -0.812
  9 A'   10 A'   11 A'   12 A'   13 A'   14 A'   15 A'   16 A'                 
 -0.770  -0.719  -0.681  -0.671  -0.657  -0.619  -0.605  -0.573
 17 A'   18 A'   19 A'    1 A"   20 A'   21 A'   22 A'    2 A"                 
 -0.528  -0.487  -0.452  -0.439  -0.371
  3 A"   23 A'   24 A'    4 A"    5 A"                                         
 -- Virtual --                   
  0.023   0.048   0.061   0.071   0.074   0.091   0.102   0.109
 25 A'   26 A'   27 A'   28 A'    6 A"    7 A"   29 A'   30 A'                 
  0.129   0.134   0.138   0.146   0.158   0.161   0.167   0.176
  8 A"   31 A'    9 A"   32 A'   33 A'   10 A"   34 A'   35 A'                 
  0.186   0.192   0.198   0.199   0.219   0.229   0.243   0.251
 11 A"   36 A'   37 A'   38 A'   39 A'   40 A'   12 A"   41 A'                 
  0.256   0.286   0.292   0.298   0.310   0.320   0.339   0.354
 42 A'   13 A"   14 A"   43 A'   44 A'   45 A'   46 A'   47 A'                 
  0.369   0.383   0.386   0.397   0.407   0.408   0.415   0.428
 15 A"   48 A'   49 A'   50 A'   51 A'   16 A"   52 A'   53 A'                 
  0.430   0.443   0.469   0.485   0.497   0.518   0.556   0.557
 54 A'   55 A'   56 A'   57 A'   58 A'   59 A'   60 A'   61 A'                 
  0.634   0.668   0.697   0.706   0.739   0.742   0.758   0.771
 62 A'   63 A'   17 A"   64 A'   18 A"   65 A'   19 A"   66 A'                 
  0.786   0.796   0.832   0.854   0.907   0.928   0.945   0.967
 67 A'   20 A"   68 A'   69 A'   70 A'   71 A'   72 A'   73 A'                 
  0.976   0.996   1.014   1.019   1.048   1.056   1.081   1.099
 74 A'   75 A'   21 A"   76 A'   77 A'   22 A"   78 A'   79 A'                 
  1.140   1.209   1.225   1.242   1.251   1.302   1.358   1.359
 80 A'   81 A'   23 A"   24 A"   82 A'   83 A'   25 A"   84 A'                 
  1.376   1.398   1.415   1.419   1.432   1.438   1.457   1.501
 26 A"   27 A"   85 A'   28 A"   86 A'   87 A'   29 A"   88 A'                 
  1.511   1.528   1.575   1.746   1.779   1.796   1.811   1.883
 30 A"   89 A'   90 A'   91 A'   92 A'   93 A'   31 A"   94 A'                 
  1.896   1.909   1.925   1.951   1.970   2.011   2.011   2.067
 32 A"   95 A'   33 A"   96 A'   97 A'   34 A"   98 A'   99 A'                 
  2.118   2.137   2.187   2.220   2.223   2.272   2.292   2.339
100 A'  101 A'  102 A'   35 A"  103 A'  104 A'  105 A'   36 A"                 
  2.345   2.529   2.556   2.580   2.642   2.659   2.723   2.798
106 A'  107 A'   37 A"  108 A'   38 A"  109 A'   39 A"  110 A'                 
  2.820   2.848   2.915   2.960   3.000   3.015   3.041   3.070
 40 A"  111 A'  112 A'  113 A'  114 A'  115 A'  116 A'   41 A"                 
  3.144   3.170   3.173   3.207   3.260   3.263   3.291   3.307
 42 A"   43 A"  117 A'  118 A'   44 A"  119 A'  120 A'   45 A"                 
  3.314   3.343   3.394   3.506   3.568   3.751   3.762   3.799
121 A'   46 A"  122 A'  123 A'  124 A'   47 A"   48 A"  125 A'                 
  3.831   3.872   3.908   3.954   4.016   4.052   4.098   4.282
126 A'  127 A'  128 A'  129 A'  130 A'  131 A'  132 A'  133 A'                 
  4.289   4.337   4.416   4.485   4.623   5.193   5.283   5.348
 49 A"   50 A"  134 A'  135 A'  136 A'  137 A'  138 A'  139 A'                 
  5.600   5.627   5.686   5.763   5.857   6.328   6.365  24.853
 51 A"   52 A"  140 A'  141 A'  142 A'  143 A'  144 A'  145 A'                 
 24.967  25.028  25.324  36.989  37.046  51.709  51.753
146 A'  147 A'  148 A'  149 A'  150 A'  151 A'  152 A'                         
 
 Beta MOs, Restricted
 -- Occupied --                  
-20.551 -20.545 -15.648 -15.631 -11.426 -11.387 -11.345 -11.260
  1 A'    2 A'    3 A'    4 A'    5 A'    6 A'    7 A'    8 A'                 
 -1.442  -1.404  -1.319  -1.250  -1.093  -0.938  -0.907  -0.812
  9 A'   10 A'   11 A'   12 A'   13 A'   14 A'   15 A'   16 A'                 
 -0.770  -0.719  -0.681  -0.671  -0.657  -0.619  -0.605  -0.573
 17 A'   18 A'   19 A'    1 A"   20 A'   21 A'   22 A'    2 A"                 
 -0.528  -0.487  -0.452  -0.439  -0.371
  3 A"   23 A'   24 A'    4 A"    5 A"                                         
 -- Virtual --                   
  0.023   0.048   0.061   0.071   0.074   0.091   0.102   0.109
 25 A'   26 A'   27 A'   28 A'    6 A"    7 A"   29 A'   30 A'                 
  0.129   0.134   0.138   0.146   0.158   0.161   0.167   0.176
  8 A"   31 A'    9 A"   32 A'   33 A'   10 A"   34 A'   35 A'                 
  0.186   0.192   0.198   0.199   0.219   0.229   0.243   0.251
 11 A"   36 A'   37 A'   38 A'   39 A'   40 A'   12 A"   41 A'                 
  0.256   0.286   0.292   0.298   0.310   0.320   0.339   0.354
 42 A'   13 A"   14 A"   43 A'   44 A'   45 A'   46 A'   47 A'                 
  0.369   0.383   0.386   0.397   0.407   0.408   0.415   0.428
 15 A"   48 A'   49 A'   50 A'   51 A'   16 A"   52 A'   53 A'                 
  0.430   0.443   0.469   0.485   0.497   0.518   0.556   0.557
 54 A'   55 A'   56 A'   57 A'   58 A'   59 A'   60 A'   61 A'                 
  0.634   0.668   0.697   0.706   0.739   0.742   0.758   0.771
 62 A'   63 A'   17 A"   64 A'   18 A"   65 A'   19 A"   66 A'                 
  0.786   0.796   0.832   0.854   0.907   0.928   0.945   0.967
 67 A'   20 A"   68 A'   69 A'   70 A'   71 A'   72 A'   73 A'                 
  0.976   0.996   1.014   1.019   1.048   1.056   1.081   1.099
 74 A'   75 A'   21 A"   76 A'   77 A'   22 A"   78 A'   79 A'                 
  1.140   1.209   1.225   1.242   1.251   1.302   1.358   1.359
 80 A'   81 A'   23 A"   24 A"   82 A'   83 A'   25 A"   84 A'                 
  1.376   1.398   1.415   1.419   1.432   1.438   1.457   1.501
 26 A"   27 A"   85 A'   28 A"   86 A'   87 A'   29 A"   88 A'                 
  1.511   1.528   1.575   1.746   1.779   1.796   1.811   1.883
 30 A"   89 A'   90 A'   91 A'   92 A'   93 A'   31 A"   94 A'                 
  1.896   1.909   1.925   1.951   1.970   2.011   2.011   2.067
 32 A"   95 A'   33 A"   96 A'   97 A'   34 A"   98 A'   99 A'                 
  2.118   2.137   2.187   2.220   2.223   2.272   2.292   2.339
100 A'  101 A'  102 A'   35 A"  103 A'  104 A'  105 A'   36 A"                 
  2.345   2.529   2.556   2.580   2.642   2.659   2.723   2.798
106 A'  107 A'   37 A"  108 A'   38 A"  109 A'   39 A"  110 A'                 
  2.820   2.848   2.915   2.960   3.000   3.015   3.041   3.070
 40 A"  111 A'  112 A'  113 A'  114 A'  115 A'  116 A'   41 A"                 
  3.144   3.170   3.173   3.207   3.260   3.263   3.291   3.307
 42 A"   43 A"  117 A'  118 A'   44 A"  119 A'  120 A'   45 A"                 
  3.314   3.343   3.394   3.506   3.568   3.751   3.762   3.799
121 A'   46 A"  122 A'  123 A'  124 A'   47 A"   48 A"  125 A'                 
  3.831   3.872   3.908   3.954   4.016   4.052   4.098   4.282
126 A'  127 A'  128 A'  129 A'  130 A'  131 A'  132 A'  133 A'                 
  4.289   4.337   4.416   4.485   4.623   5.193   5.283   5.348
 49 A"   50 A"  134 A'  135 A'  136 A'  137 A'  138 A'  139 A'                 
  5.600   5.627   5.686   5.763   5.857   6.328   6.365  24.853
 51 A"   52 A"  140 A'  141 A'  142 A'  143 A'  144 A'  145 A'                 
 24.967  25.028  25.324  36.989  37.046  51.709  51.753
146 A'  147 A'  148 A'  149 A'  150 A'  151 A'  152 A'                         

 Occupation and symmetry of molecular orbitals

 Point group: Cs (2 irreducible representations).

                           A'   A"    All 
 ------------------------------------------
 All molecular orbitals:
  - Alpha                  152  52    204 
  - Beta                   152  52    204 
 ------------------------------------------
 Alpha orbitals:
  - Frozen occupied        8    0     8   
  - Active occupied        16   5     21  
  - Active virtual         128  47    175 
  - Frozen virtual         0    0     0   
 ------------------------------------------
 Beta orbitals:
  - Frozen occupied        8    0     8   
  - Active occupied        16   5     21  
  - Active virtual         128  47    175 
  - Frozen virtual         0    0     0   
 ------------------------------------------

 Import integrals:   CPU 0.00 s  wall 0.00 s

 Import integrals:   CPU 325.46 s  wall 35.58 s

 MP2 amplitudes:   CPU 0.80 s  wall 0.51 s

           CCSD T amplitudes will be solved using DIIS.

           Start     Size      MaxIter   EConv     TConv     
           3         7         100       1.00e-12  1.00e-11  
 ------------------------------------------------------------------------------
           Energy (a.u.)   Ediff      Tdiff       Comment
 ------------------------------------------------------------------------------
          -413.84932193                           
     1    -413.82135123   2.80e-02   1.01e+00     
     2    -413.86523431   4.39e-02   1.36e-01     
     3    -413.86166674   3.57e-03   5.67e-02     
     4    -413.86624596   4.58e-03   2.36e-02     Switched to DIIS steps.
     5    -413.86786053   1.61e-03   1.34e-02     
     6    -413.86800597   1.45e-04   3.36e-03     
     7    -413.86800854   2.57e-06   1.38e-03     
     8    -413.86800434   4.19e-06   4.25e-04     
     9    -413.86800672   2.38e-06   1.75e-04     
    10    -413.86800662   1.01e-07   5.41e-05     
    11    -413.86800713   5.13e-07   3.22e-05     
    12    -413.86800712   9.08e-09   1.69e-05     
    13    -413.86800705   7.33e-08   8.27e-06     
    14    -413.86800696   8.81e-08   3.19e-06     
    15    -413.86800694   1.84e-08   1.44e-06     
    16    -413.86800692   2.36e-08   6.65e-07     
    17    -413.86800691   6.15e-09   2.61e-07     
    18    -413.86800691   2.22e-09   1.20e-07     
    19    -413.86800691   7.31e-10   3.85e-08     
    20    -413.86800691   2.63e-10   2.36e-08     
    21    -413.86800691   4.58e-11   9.17e-09     
    22    -413.86800691   2.63e-11   5.13e-09     
    23    -413.86800691   9.96e-12   2.17e-09     
    24    -413.86800691   1.68e-11   1.16e-09     
    25    -413.86800691   2.69e-12   5.96e-10     
    26    -413.86800691   1.14e-12   3.01e-10     
    27    -413.86800691   1.66e-13   1.42e-10     
    28    -413.86800691   8.37e-14   6.66e-11     
    29    -413.86800691   1.47e-13   3.97e-11     
    30    -413.86800691   1.02e-13   1.60e-11     
    31    -413.86800691   3.91e-14   8.86e-12     
 ------------------------------------------------------------------------------
          -413.86800691                           CCSD T converged.

 SCF energy                 = -412.57925057
 MP2 energy                 = -413.84932193
 CCSD correlation energy     =   -1.28875634
 CCSD total energy           = -413.86800691

 CCSD  T1^2 = 0.0263  T2^2 = 0.4119  Leading amplitudes:

 Amplitude    Orbitals with energies
  0.0314       2 (A") A                  ->    6 (A") A                   
              -0.5735                          0.0738                     
  0.0314       2 (A") B                  ->    6 (A") B                   
              -0.5735                          0.0738                     
 -0.0314       2 (A") A                  ->    9 (A") A                   
              -0.5735                          0.1381                     
 -0.0314       2 (A") B                  ->    9 (A") B                   
              -0.5735                          0.1381                     

 Amplitude    Orbitals with energies
 -0.0513       5 (A") A      5 (A") B    ->    6 (A") A      6 (A") B     
              -0.3713       -0.3713            0.0738        0.0738       
  0.0513       5 (A") A      5 (A") B    ->    6 (A") B      6 (A") A     
              -0.3713       -0.3713            0.0738        0.0738       
  0.0513       5 (A") B      5 (A") A    ->    6 (A") A      6 (A") B     
              -0.3713       -0.3713            0.0738        0.0738       
 -0.0513       5 (A") B      5 (A") A    ->    6 (A") B      6 (A") A     
              -0.3713       -0.3713            0.0738        0.0738       

 Computing CCSD intermediates for later calculations
 Finished.

           CCSD Lambda amplitudes will be solved using DIIS.
           Start     Size      MaxIter   EConv     LConv     
           3         7         100       1.00e-12  1.00e-11  
 ------------------------------------------------------------------------------
            Enorm      Ldiff       Comment
 ------------------------------------------------------------------------------
     1     7.14e-02   4.17e-02     
     2     2.66e-02   9.14e-03     
     3     1.20e-02   5.14e-04     
     4     5.00e-03   1.66e-03     Switched to DIIS steps.
     5     1.44e-03   9.43e-04     
     6     6.37e-04   2.01e-04     
     7     2.23e-04   5.38e-05     
     8     9.60e-05   1.01e-05     
     9     3.97e-05   3.51e-06     
    10     1.91e-05   1.38e-06     
    11     8.48e-06   1.67e-07     
    12     3.32e-06   1.68e-07     
    13     1.36e-06   2.21e-08     
    14     5.74e-07   5.97e-09     
    15     2.39e-07   3.91e-08     
    16     1.05e-07   7.46e-09     
    17     5.11e-08   5.25e-09     
    18     2.17e-08   4.02e-09     
    19     1.03e-08   5.48e-11     
    20     5.18e-09   1.50e-10     
    21     2.31e-09   1.23e-10     
    22     1.06e-09   1.50e-10     
    23     5.17e-10   7.51e-11     
    24     2.24e-10   1.80e-11     
    25     1.08e-10   9.21e-12     
    26     5.67e-11   3.17e-12     
    27     2.68e-11   1.18e-12     
    28     1.31e-11   9.26e-14     
    29     6.12e-12   6.48e-14     
    30     3.06e-12   1.75e-13     
    31     1.33e-12   3.84e-14     
    32     6.95e-13   2.49e-14     
 ------------------------------------------------------------------------------
                                   CCSD Lambda converged.

 CCSD calculation:   CPU 3410.31 s  wall 382.66 s

        Solving for EOMEE-CCSD A' singlet states.

       EOMEE-CCSD-SINGLES right amplitudes will be solved using Davidson.
        Amplitudes will be solved using standard  algorithm.
     Hard-coded thresholds: 
     LinDepThresh=1.00e-15  NormThresh=1.00e-06  ReorthogonThresh=1.00e-02

      Roots     MaxVec    MaxIter   Precond   Conv      Shift    
      3         1000      200       1         1.00e-04  0.00e+00  
 ------------------------------------------------------------------------------
      Iter ConvRoots NVecs ResNorm Current eigenvalues (eV)
 ------------------------------------------------------------------------------
      0    0      3     7.76e-03   10.3697   10.8187   12.5665   
      1    0      6     2.14e-02   10.0243   10.7013   12.4323   
      2    0      9     4.00e-03   9.7422   10.4868   12.0832   
      3    0      12    1.86e-03   9.7042   10.4449   11.7962   
      4    2      15    6.11e-04   9.7007*  10.4353*  11.6610   
      5    2      16    3.25e-04   9.7007*  10.4352*  11.5933   
      6    2      17    4.42e-04   9.7007*  10.4346*  11.5620   
      7    2      18    1.08e-03   9.7007*  10.4337*  11.4986   
      8    2      19    5.42e-04   9.7007*  10.4335*  11.4198   
      9    2      20    1.21e-04   9.7007*  10.4335*  11.3794   
      10   2      21    6.38e-05   9.7007*  10.4335*  11.3673   
      11   3      22    4.84e-05   9.7007*  10.4335*  11.3632*  

     Davidson procedure converged

 EOMEE transition 1/A'
 Total energy = -413.51151277 a.u.  Excitation energy = 9.7007 eV.
 R1^2 = 1.0000  Res^2 = 3.06e-05
 Conv-d = yes

 Amplitude    Transitions between orbitals
 -0.6422       5 (A") A                  ->    6 (A") A                   
 -0.6422       5 (A") B                  ->    6 (A") B                   
  0.2100       5 (A") A                  ->    7 (A") A                   
  0.2100       5 (A") B                  ->    7 (A") B                   

              Summary of significant orbitals:

               Number  Type             Irrep      Energy
               29      Occ  Alpha       5 (A")     -0.3713
               29      Occ  Beta        5 (A")     -0.3713
               34      Vir  Alpha       6 (A")      0.0738
               35      Vir  Alpha       7 (A")      0.0908
               34      Vir  Beta        6 (A")      0.0738
               35      Vir  Beta        7 (A")      0.0908


 EOMEE transition 2/A'
 Total energy = -413.48458412 a.u.  Excitation energy = 10.4335 eV.
 R1^2 = 1.0000  Res^2 = 2.02e-05
 Conv-d = yes

 Amplitude    Transitions between orbitals
 -0.6108       5 (A") A                  ->    7 (A") A                   
 -0.6108       5 (A") B                  ->    7 (A") B                   
  0.2365       5 (A") A                  ->    8 (A") A                   
  0.2365       5 (A") B                  ->    8 (A") B                   
 -0.2268       5 (A") A                  ->    6 (A") A                   
 -0.2268       5 (A") B                  ->    6 (A") B                   

              Summary of significant orbitals:

               Number  Type             Irrep      Energy
               29      Occ  Alpha       5 (A")     -0.3713
               29      Occ  Beta        5 (A")     -0.3713
               34      Vir  Alpha       6 (A")      0.0738
               35      Vir  Alpha       7 (A")      0.0908
               38      Vir  Alpha       8 (A")      0.1287
               34      Vir  Beta        6 (A")      0.0738
               35      Vir  Beta        7 (A")      0.0908
               38      Vir  Beta        8 (A")      0.1287


 EOMEE transition 3/A'
 Total energy = -413.45041770 a.u.  Excitation energy = 11.3632 eV.
 R1^2 = 1.0000  Res^2 = 9.43e-05
 Conv-d = yes

 Amplitude    Transitions between orbitals
  0.4555       5 (A") A                  ->    8 (A") A                   
  0.4555       5 (A") B                  ->    8 (A") B                   
  0.4224       5 (A") A                  ->    9 (A") A                   
  0.4224       5 (A") B                  ->    9 (A") B                   
  0.1752       4 (A") A                  ->    6 (A") A                   
  0.1752       4 (A") B                  ->    6 (A") B                   
  0.1490       5 (A") A                  ->    7 (A") A                   
  0.1490       5 (A") B                  ->    7 (A") B                   
 -0.1179       5 (A") A                  ->    10 (A") A                  
 -0.1179       5 (A") B                  ->    10 (A") B                  

              Summary of significant orbitals:

               Number  Type             Irrep      Energy
               28      Occ  Alpha       4 (A")     -0.4386
               29      Occ  Alpha       5 (A")     -0.3713
               28      Occ  Beta        4 (A")     -0.4386
               29      Occ  Beta        5 (A")     -0.3713
               34      Vir  Alpha       6 (A")      0.0738
               35      Vir  Alpha       7 (A")      0.0908
               38      Vir  Alpha       8 (A")      0.1287
               40      Vir  Alpha       9 (A")      0.1381
               43      Vir  Alpha      10 (A")      0.1606
               34      Vir  Beta        6 (A")      0.0738
               35      Vir  Beta        7 (A")      0.0908
               38      Vir  Beta        8 (A")      0.1287
               40      Vir  Beta        9 (A")      0.1381
               43      Vir  Beta       10 (A")      0.1606


        EOMEE-CCSD/MP2 right amplitudes will be solved using Davidson.
        Amplitudes will be solved using standard  algorithm.
     Hard-coded thresholds: 
     LinDepThresh=1.00e-15  NormThresh=1.00e-06  ReorthogonThresh=1.00e-02

      Roots     MaxVec    MaxIter   Precond   Conv      Shift    
      3         1000      200       1         1.00e-04  0.00e+00  
 ------------------------------------------------------------------------------
      Iter ConvRoots NVecs ResNorm Current eigenvalues (eV)
 ------------------------------------------------------------------------------
      0    0      3     2.21e-01   9.7007   10.4335   11.3632   
      1    0      6     2.52e-01   7.3419   8.4453   8.9748   
      2    0      9     1.48e-02   5.9695   7.5041   7.7270   
      3    0      12    3.97e-03   5.7572   7.2214   7.6528   
      4    0      15    3.04e-03   5.7000   7.0889   7.6407   
      5    0      18    8.99e-04   5.6816   7.0075   7.6332   
      6    1      21    3.17e-04   5.6745*  6.9752   7.6269   
      7    1      23    4.08e-04   5.6744*  6.9614   7.6213   
      8    1      25    5.73e-04   5.6742*  6.9454   7.6130   
      9    1      27    8.51e-03   5.6743*  6.9006   7.4149   
      10   1      29    2.71e-03   5.6742*  6.8301   7.1855   
      11   1      31    7.94e-04   5.6739*  6.7860   7.1208   
      12   1      33    4.19e-04   5.6741*  6.7656   7.1028   
      13   1      35    2.43e-04   5.6739*  6.7554   7.0937   
      14   1      37    1.75e-04   5.6739*  6.7494   7.0878   
      15   1      39    1.29e-04   5.6739*  6.7447   7.0816   
      16   3      41    6.80e-05   5.6739*  6.7418*  7.0784*  

     Davidson procedure converged

 EOMEE transition 1/A'
 Total energy = -413.65949588 a.u.  Excitation energy = 5.6739 eV.
 R0^2 = 0.0002  R1^2 = 0.9097  R2^2 = 0.0903  Res^2 = 7.51e-05
 Conv-d = yes

 Amplitude    Transitions between orbitals
  0.5484       5 (A") A                  ->    6 (A") A                   
  0.5484       5 (A") B                  ->    6 (A") B                   
 -0.2727       5 (A") A                  ->    7 (A") A                   
 -0.2727       5 (A") B                  ->    7 (A") B                   
 -0.1428       5 (A") A                  ->    9 (A") A                   
 -0.1428       5 (A") B                  ->    9 (A") B                   

              Summary of significant orbitals:

               Number  Type             Irrep      Energy
               29      Occ  Alpha       5 (A")     -0.3713
               29      Occ  Beta        5 (A")     -0.3713
               34      Vir  Alpha       6 (A")      0.0738
               35      Vir  Alpha       7 (A")      0.0908
               40      Vir  Alpha       9 (A")      0.1381
               34      Vir  Beta        6 (A")      0.0738
               35      Vir  Beta        7 (A")      0.0908
               40      Vir  Beta        9 (A")      0.1381


 EOMEE transition 2/A'
 Total energy = -413.62024932 a.u.  Excitation energy = 6.7418 eV.
 R0^2 = 0.0000  R1^2 = 0.8867  R2^2 = 0.1133  Res^2 = 4.98e-05
 Conv-d = yes

 Amplitude    Transitions between orbitals
  0.5530       4 (A") A                  ->    6 (A") A                   
  0.5530       4 (A") B                  ->    6 (A") B                   
 -0.2179       4 (A") A                  ->    9 (A") A                   
 -0.2179       4 (A") B                  ->    9 (A") B                   
 -0.2079       4 (A") A                  ->    7 (A") A                   
 -0.2079       4 (A") B                  ->    7 (A") B                   

              Summary of significant orbitals:

               Number  Type             Irrep      Energy
               28      Occ  Alpha       4 (A")     -0.4386
               28      Occ  Beta        4 (A")     -0.4386
               34      Vir  Alpha       6 (A")      0.0738
               35      Vir  Alpha       7 (A")      0.0908
               40      Vir  Alpha       9 (A")      0.1381
               34      Vir  Beta        6 (A")      0.0738
               35      Vir  Beta        7 (A")      0.0908
               40      Vir  Beta        9 (A")      0.1381


 EOMEE transition 3/A'
 Total energy = -413.60788100 a.u.  Excitation energy = 7.0784 eV.
 R0^2 = 0.0003  R1^2 = 0.9020  R2^2 = 0.0980  Res^2 = 7.90e-05
 Conv-d = yes

 Amplitude    Transitions between orbitals
 -0.3590       5 (A") A                  ->    9 (A") A                   
 -0.3590       5 (A") B                  ->    9 (A") B                   
  0.3363       5 (A") A                  ->    10 (A") A                  
  0.3363       5 (A") B                  ->    10 (A") B                  
 -0.3089       5 (A") A                  ->    8 (A") A                   
 -0.3089       5 (A") B                  ->    8 (A") B                   
  0.2381       5 (A") A                  ->    11 (A") A                  
  0.2381       5 (A") B                  ->    11 (A") B                  

              Summary of significant orbitals:

               Number  Type             Irrep      Energy
               29      Occ  Alpha       5 (A")     -0.3713
               29      Occ  Beta        5 (A")     -0.3713
               38      Vir  Alpha       8 (A")      0.1287
               40      Vir  Alpha       9 (A")      0.1381
               43      Vir  Alpha      10 (A")      0.1606
               46      Vir  Alpha      11 (A")      0.1862
               38      Vir  Beta        8 (A")      0.1287
               40      Vir  Beta        9 (A")      0.1381
               43      Vir  Beta       10 (A")      0.1606
               46      Vir  Beta       11 (A")      0.1862


      EOM-CCSD/MP2 left amplitudes will be solved using Davidson.
        Amplitudes will be solved using MOM  algorithm.
     Hard-coded thresholds: 
     LinDepThresh=1.00e-15  NormThresh=1.00e-06  ReorthogonThresh=1.00e-02

      Roots     MaxVec    MaxIter   Precond   Conv      Shift    
      3         1000      200       1         1.00e-04  0.00e+00  
 ------------------------------------------------------------------------------
      Iter ConvRoots NVecs ResNorm Current eigenvalues (eV)
 ------------------------------------------------------------------------------
      0    0      3     1.29e-02   5.6739   6.7418   7.0784   
      1    0      6     1.46e-02   5.6737   6.7416   7.0779   
      2    0      9     4.41e-04   5.6732   6.7417   7.0781   
      3    3      12    5.39e-05   5.6728*  6.7415*  7.0777*  

     Davidson procedure converged

        Solving for EOMEE-CCSD A" singlet states.

       EOMEE-CCSD-SINGLES right amplitudes will be solved using Davidson.
        Amplitudes will be solved using standard  algorithm.
     Hard-coded thresholds: 
     LinDepThresh=1.00e-15  NormThresh=1.00e-06  ReorthogonThresh=1.00e-02

      Roots     MaxVec    MaxIter   Precond   Conv      Shift    
      3         1000      200       1         1.00e-04  0.00e+00  
 ------------------------------------------------------------------------------
      Iter ConvRoots NVecs ResNorm Current eigenvalues (eV)
 ------------------------------------------------------------------------------
      0    0      3     1.73e-03   9.4496   10.2702   10.7107   
      1    0      6     1.64e-02   9.1641   10.0218   10.5355   
      2    0      9     2.34e-03   8.9821   9.8569   10.2249   
      3    1      12    8.96e-04   8.9725*  9.8461   10.1169   
      4    2      14    2.42e-04   8.9719*  9.8449*  10.0883   
      5    2      15    8.22e-05   8.9719*  9.8449*  10.0816   
      6    3      16    3.26e-05   8.9719*  9.8449*  10.0802*  

     Davidson procedure converged

 EOMEE transition 1/A"
 Total energy = -413.53829730 a.u.  Excitation energy = 8.9719 eV.
 R1^2 = 1.0000  Res^2 = 2.79e-05
 Conv-d = yes

 Amplitude    Transitions between orbitals
  0.6400       5 (A") A                  ->    25 (A') A                  
  0.6400       5 (A") B                  ->    25 (A') B                  
 -0.1499       5 (A") A                  ->    29 (A') A                  
 -0.1499       5 (A") B                  ->    29 (A') B                  
  0.1155       5 (A") A                  ->    31 (A') A                  
  0.1155       5 (A") B                  ->    31 (A') B                  
  0.1111       5 (A") A                  ->    27 (A') A                  
  0.1111       5 (A") B                  ->    27 (A') B                  
  0.1110       5 (A") A                  ->    33 (A') A                  
  0.1110       5 (A") B                  ->    33 (A') B                  

              Summary of significant orbitals:

               Number  Type             Irrep      Energy
               29      Occ  Alpha       5 (A")     -0.3713
               29      Occ  Beta        5 (A")     -0.3713
               30      Vir  Alpha      25 (A')      0.0232
               32      Vir  Alpha      27 (A')      0.0607
               36      Vir  Alpha      29 (A')      0.1020
               39      Vir  Alpha      31 (A')      0.1338
               42      Vir  Alpha      33 (A')      0.1581
               30      Vir  Beta       25 (A')      0.0232
               32      Vir  Beta       27 (A')      0.0607
               36      Vir  Beta       29 (A')      0.1020
               39      Vir  Beta       31 (A')      0.1338
               42      Vir  Beta       33 (A')      0.1581


 EOMEE transition 2/A"
 Total energy = -413.50621465 a.u.  Excitation energy = 9.8449 eV.
 R1^2 = 1.0000  Res^2 = 2.60e-05
 Conv-d = yes

 Amplitude    Transitions between orbitals
 -0.6509       5 (A") A                  ->    26 (A') A                  
 -0.6509       5 (A") B                  ->    26 (A') B                  
 -0.1368       5 (A") A                  ->    35 (A') A                  
 -0.1368       5 (A") B                  ->    35 (A') B                  

              Summary of significant orbitals:

               Number  Type             Irrep      Energy
               29      Occ  Alpha       5 (A")     -0.3713
               29      Occ  Beta        5 (A")     -0.3713
               31      Vir  Alpha      26 (A')      0.0482
               45      Vir  Alpha      35 (A')      0.1764
               31      Vir  Beta       26 (A')      0.0482
               45      Vir  Beta       35 (A')      0.1764


 EOMEE transition 3/A"
 Total energy = -413.49756557 a.u.  Excitation energy = 10.0802 eV.
 R1^2 = 1.0000  Res^2 = 4.39e-05
 Conv-d = yes

 Amplitude    Transitions between orbitals
  0.4983       5 (A") A                  ->    27 (A') A                  
  0.4983       5 (A") B                  ->    27 (A') B                  
 -0.4148       5 (A") A                  ->    29 (A') A                  
 -0.4148       5 (A") B                  ->    29 (A') B                  
 -0.1683       5 (A") A                  ->    25 (A') A                  
 -0.1683       5 (A") B                  ->    25 (A') B                  

              Summary of significant orbitals:

               Number  Type             Irrep      Energy
               29      Occ  Alpha       5 (A")     -0.3713
               29      Occ  Beta        5 (A")     -0.3713
               30      Vir  Alpha      25 (A')      0.0232
               32      Vir  Alpha      27 (A')      0.0607
               36      Vir  Alpha      29 (A')      0.1020
               30      Vir  Beta       25 (A')      0.0232
               32      Vir  Beta       27 (A')      0.0607
               36      Vir  Beta       29 (A')      0.1020


        EOMEE-CCSD/MP2 right amplitudes will be solved using Davidson.
        Amplitudes will be solved using standard  algorithm.
     Hard-coded thresholds: 
     LinDepThresh=1.00e-15  NormThresh=1.00e-06  ReorthogonThresh=1.00e-02

      Roots     MaxVec    MaxIter   Precond   Conv      Shift    
      3         1000      200       1         1.00e-04  0.00e+00  
 ------------------------------------------------------------------------------
      Iter ConvRoots NVecs ResNorm Current eigenvalues (eV)
 ------------------------------------------------------------------------------
      0    0      3     1.53e-01   8.9719   9.8449   10.0802   
      1    0      6     2.72e-01   7.0135   7.9375   8.0861   
      2    0      9     1.17e-02   6.1615   7.1548   7.2411   
      3    0      12    1.44e-03   6.0821   7.0797   7.1518   
      4    0      15    7.18e-04   6.0719   7.0667   7.1335   
      5    0      18    3.77e-04   6.0671   7.0578   7.1213   
      6    1      21    1.12e-04   6.0655*  7.0527   7.1135   
      7    1      23    1.50e-04   6.0654*  7.0500   7.1096   
      8    1      25    2.69e-04   6.0654*  7.0467   7.1048   
      9    1      27    1.68e-02   6.0654*  6.7726   7.0525   
      10   1      29    1.65e-02   5.8382   6.0654*  7.0478   
      11   2      31    4.25e-03   5.3062   6.0654*  7.0467*  
      12   2      32    1.10e-03   5.2018   6.0654*  7.0463*  
      13   2      33    3.20e-04   5.1712   6.0654*  7.0462*  
      14   2      34    1.15e-04   5.1598   6.0654*  7.0462*  
      15   2      35    6.27e-05   5.1577   6.0654*  7.0461*  
      16   2      36    5.55e-05   5.1540   6.0654*  7.0461*  
      17   2      37    1.65e-04   5.1534*  6.0654*  7.0457   
      18   2      38    3.79e-03   5.1535*  6.0654*  6.8046   
      19   2      39    1.46e-03   5.1528*  6.0654*  6.6050   
      20   2      40    4.54e-04   5.1525*  6.0654*  6.5569   
      21   2      41    2.04e-04   5.1526*  6.0654*  6.5395   
      22   2      42    7.78e-05   5.1526*  6.0654*  6.5318   
      23   2      43    5.40e-05   5.1525*  6.0654*  6.5266   
      24   3      44    3.61e-05   5.1525*  6.0654*  6.5253*  

     Davidson procedure converged

 EOMEE transition 1/A"
 Total energy = -413.67865475 a.u.  Excitation energy = 5.1525 eV.
 R0^2 = 0.0000  R1^2 = 0.9087  R2^2 = 0.0913  Res^2 = 6.56e-06
 Conv-d = yes

 Amplitude    Transitions between orbitals
 -0.4884       24 (A') A                 ->    6 (A") A                   
 -0.4884       24 (A') B                 ->    6 (A") B                   
  0.2785       24 (A') A                 ->    9 (A") A                   
  0.2785       24 (A') B                 ->    9 (A") B                   
  0.2219       24 (A') A                 ->    7 (A") A                   
  0.2219       24 (A') B                 ->    7 (A") B                   
 -0.1485       24 (A') A                 ->    10 (A") A                  
 -0.1485       24 (A') B                 ->    10 (A") B                  
  0.1392       23 (A') A                 ->    6 (A") A                   
  0.1392       23 (A') B                 ->    6 (A") B                   
  0.1009       24 (A') A                 ->    13 (A") A                  
  0.1009       24 (A') B                 ->    13 (A") B                  

              Summary of significant orbitals:

               Number  Type             Irrep      Energy
               26      Occ  Alpha      23 (A')     -0.4867
               27      Occ  Alpha      24 (A')     -0.4519
               26      Occ  Beta       23 (A')     -0.4867
               27      Occ  Beta       24 (A')     -0.4519
               34      Vir  Alpha       6 (A")      0.0738
               35      Vir  Alpha       7 (A")      0.0908
               40      Vir  Alpha       9 (A")      0.1381
               43      Vir  Alpha      10 (A")      0.1606
               55      Vir  Alpha      13 (A")      0.2862
               34      Vir  Beta        6 (A")      0.0738
               35      Vir  Beta        7 (A")      0.0908
               40      Vir  Beta        9 (A")      0.1381
               43      Vir  Beta       10 (A")      0.1606
               55      Vir  Beta       13 (A")      0.2862


 EOMEE transition 2/A"
 Total energy = -413.64510631 a.u.  Excitation energy = 6.0654 eV.
 R0^2 = 0.0000  R1^2 = 0.9273  R2^2 = 0.0727  Res^2 = 1.99e-05
 Conv-d = yes

 Amplitude    Transitions between orbitals
  0.5933       5 (A") A                  ->    25 (A') A                  
  0.5933       5 (A") B                  ->    25 (A') B                  
  0.1513       5 (A") A                  ->    27 (A') A                  
  0.1513       5 (A") B                  ->    27 (A') B                  
 -0.1341       5 (A") A                  ->    29 (A') A                  
 -0.1341       5 (A") B                  ->    29 (A') B                  
  0.1257       5 (A") A                  ->    33 (A') A                  
  0.1257       5 (A") B                  ->    33 (A') B                  
  0.1254       5 (A") A                  ->    31 (A') A                  
  0.1254       5 (A") B                  ->    31 (A') B                  

              Summary of significant orbitals:

               Number  Type             Irrep      Energy
               29      Occ  Alpha       5 (A")     -0.3713
               29      Occ  Beta        5 (A")     -0.3713
               30      Vir  Alpha      25 (A')      0.0232
               32      Vir  Alpha      27 (A')      0.0607
               36      Vir  Alpha      29 (A')      0.1020
               39      Vir  Alpha      31 (A')      0.1338
               42      Vir  Alpha      33 (A')      0.1581
               30      Vir  Beta       25 (A')      0.0232
               32      Vir  Beta       27 (A')      0.0607
               36      Vir  Beta       29 (A')      0.1020
               39      Vir  Beta       31 (A')      0.1338
               42      Vir  Beta       33 (A')      0.1581


 EOMEE transition 3/A"
 Total energy = -413.62820705 a.u.  Excitation energy = 6.5253 eV.
 R0^2 = 0.0000  R1^2 = 0.9165  R2^2 = 0.0835  Res^2 = 8.17e-05
 Conv-d = yes

 Amplitude    Transitions between orbitals
  0.2590       23 (A') A                 ->    11 (A") A                  
  0.2590       23 (A') B                 ->    11 (A") B                  
  0.2565       23 (A') A                 ->    10 (A") A                  
  0.2565       23 (A') B                 ->    10 (A") B                  
  0.2475       24 (A') A                 ->    10 (A") A                  
  0.2475       24 (A') B                 ->    10 (A") B                  
  0.2122       24 (A') A                 ->    11 (A") A                  
  0.2122       24 (A') B                 ->    11 (A") B                  
 -0.2024       23 (A') A                 ->    6 (A") A                   
 -0.2024       23 (A') B                 ->    6 (A") B                   
 -0.1833       24 (A') A                 ->    8 (A") A                   
 -0.1833       24 (A') B                 ->    8 (A") B                   
 -0.1833       23 (A') A                 ->    8 (A") A                   
 -0.1833       23 (A') B                 ->    8 (A") B                   
 -0.1619       24 (A') A                 ->    6 (A") A                   
 -0.1619       24 (A') B                 ->    6 (A") B                   
 -0.1606       24 (A') A                 ->    9 (A") A                   
 -0.1606       24 (A') B                 ->    9 (A") B                   
 -0.1198       23 (A') A                 ->    9 (A") A                   
 -0.1198       23 (A') B                 ->    9 (A") B                   
  0.1112       23 (A') A                 ->    13 (A") A                  
  0.1112       23 (A') B                 ->    13 (A") B                  

              Summary of significant orbitals:

               Number  Type             Irrep      Energy
               26      Occ  Alpha      23 (A')     -0.4867
               27      Occ  Alpha      24 (A')     -0.4519
               26      Occ  Beta       23 (A')     -0.4867
               27      Occ  Beta       24 (A')     -0.4519
               34      Vir  Alpha       6 (A")      0.0738
               38      Vir  Alpha       8 (A")      0.1287
               40      Vir  Alpha       9 (A")      0.1381
               43      Vir  Alpha      10 (A")      0.1606
               46      Vir  Alpha      11 (A")      0.1862
               55      Vir  Alpha      13 (A")      0.2862
               34      Vir  Beta        6 (A")      0.0738
               38      Vir  Beta        8 (A")      0.1287
               40      Vir  Beta        9 (A")      0.1381
               43      Vir  Beta       10 (A")      0.1606
               46      Vir  Beta       11 (A")      0.1862
               55      Vir  Beta       13 (A")      0.2862


      EOM-CCSD/MP2 left amplitudes will be solved using Davidson.
        Amplitudes will be solved using MOM  algorithm.
     Hard-coded thresholds: 
     LinDepThresh=1.00e-15  NormThresh=1.00e-06  ReorthogonThresh=1.00e-02

      Roots     MaxVec    MaxIter   Precond   Conv      Shift    
      3         1000      200       1         1.00e-04  0.00e+00  
 ------------------------------------------------------------------------------
      Iter ConvRoots NVecs ResNorm Current eigenvalues (eV)
 ------------------------------------------------------------------------------
      0    0      3     1.25e-02   5.1525   6.0654   6.5253   
      1    0      6     1.41e-02   5.1522   6.0653   6.5245   
      2    0      9     4.27e-04   5.1521   6.0653   6.5243   
      3    3      12    4.03e-05   5.1521*  6.0652*  6.5239*  

     Davidson procedure converged

 EOMEE-CCSD calculation:   CPU 4061.42 s  wall 477.77 s

        Solving for CVS-EOMEE-CCSD A' singlet states.

       EOMEE-CCSD-SINGLES right amplitudes will be solved using Davidson.
        Amplitudes will be solved using standard  algorithm.
     Hard-coded thresholds: 
     LinDepThresh=1.00e-15  NormThresh=1.00e-06  ReorthogonThresh=1.00e-02

      Roots     MaxVec    MaxIter   Precond   Conv      Shift    
      10        1000      200       1         1.00e-04  0.00e+00  
 ------------------------------------------------------------------------------
      Iter ConvRoots NVecs ResNorm Current eigenvalues (eV)
 ------------------------------------------------------------------------------
      0    0      10    2.61e-03   302.8471   303.9463   304.0936   304.4835   304.9517   305.2998   305.6656   305.8826   306.4364   306.8402   
      1    0      20    2.88e-02   302.0853   303.4257   303.5129   303.7577   304.5346   305.0670   305.3138   305.5668   305.9764   306.5178   
      2    0      30    1.99e-03   300.7318   301.7834   303.0420   303.5451   303.9527   304.6020   304.8717   305.2711   305.2976   305.6756   
      3    0      40    1.58e-03   300.7037   301.6323   303.0042   303.5005   303.6896   304.4471   304.8457   305.0504   305.2292   305.4205   
      4    5      50    3.17e-03   300.7032*  301.6121   303.0024*  303.4952*  303.6744*  304.4362   304.7002   304.8437*  305.2197   305.3192   
      5    8      55    8.25e-04   300.7032*  301.6084*  303.0024*  303.4950*  303.6738*  304.2444   304.4358*  304.8436*  304.9828   305.2206*  
      6    8      57    1.05e-04   300.7032*  301.6082*  303.0024*  303.4950*  303.6737*  304.2039   304.4358*  304.8436*  304.9530   305.2205*  
      7    9      59    3.48e-05   300.7032*  301.6082*  303.0024*  303.4950*  303.6737*  304.1988   304.4358*  304.8436*  304.9493*  305.2205*  
      8    10     60    1.15e-05   300.7032*  301.6082*  303.0024*  303.4950*  303.6737*  304.1972*  304.4358*  304.8436*  304.9490*  305.2205*  

     Davidson procedure converged

        CVS-EOMEE-CCSD/MP2 right amplitudes will be solved using Davidson.
        Amplitudes will be solved using standard  algorithm.
     Hard-coded thresholds: 
     LinDepThresh=1.00e-15  NormThresh=1.00e-06  ReorthogonThresh=1.00e-02

      Roots     MaxVec    MaxIter   Precond   Conv      Shift    
      10        1000      200       1         1.00e-04  0.00e+00  
 ------------------------------------------------------------------------------
      Iter ConvRoots NVecs ResNorm Current eigenvalues (eV)
 ------------------------------------------------------------------------------
      0    0      10    1.87e+00   300.7032   301.6082   303.0024   303.4950   303.6737   304.1972   304.4358   304.8436   304.9490   305.2205   
      1    0      20    1.11e+00   298.0983   299.0921   300.1215   300.5131   300.8291   301.5452   301.6145   301.9154   302.1085   302.2072   
      2    0      30    5.92e-02   288.9629   289.9703   290.2563   290.8274   290.9060   291.6894   292.2356   292.5419   293.1507   294.4114   
      3    0      40    2.05e-02   288.4778   289.4689   289.7737   290.2586   290.4098   291.1508   291.5950   291.9454   292.3115   293.5827   
      4    0      50    6.18e-03   288.4269   289.4290   289.7192   290.1267   290.3548   291.0623   291.4480   291.8013   291.9399   293.1226   
      5    0      60    8.21e-03   288.4077   289.4161   289.6889   290.0671   290.3321   290.9701   291.3558   291.6992   291.7157   292.6580   
      6    0      70    3.56e-03   288.3983   289.4094   289.6652   290.0325   290.3140   290.8853   291.2791   291.5937   291.6342   292.3136   
      7    1      80    3.12e-03   288.3945   289.4070*  289.6538   290.0152   290.3058   290.8113   291.2252   291.5277   291.5825   292.0724   
      8    3      89    1.44e-03   288.3936*  289.4066*  289.6508   290.0115   290.3033*  290.7743   291.1998   291.5013   291.5614   291.9285   
      9    4      96    1.42e-03   288.3935*  289.4065*  289.6482*  290.0081   290.3031*  290.7490   291.1795   291.4814   291.5385   291.8025   
      10   5      102   7.17e-04   288.3933*  289.4064*  289.6476*  290.0066*  290.3023*  290.7374   291.1642   291.4659   291.5209   291.7189   
      11   5      107   5.36e-04   288.3933*  289.4063*  289.6474*  290.0066*  290.3021*  290.7317   291.1592   291.4602   291.5058   291.6742   
      12   5      112   2.82e-04   288.3933*  289.4063*  289.6473*  290.0066*  290.3020*  290.7297   291.1574   291.4546   291.4911   291.6501   
      13   7      117   2.16e-04   288.3933*  289.4063*  289.6472*  290.0066*  290.3019*  290.7279*  291.1547*  291.4502   291.4812   291.6344   
      14   7      120   1.13e-04   288.3933*  289.4063*  289.6472*  290.0066*  290.3018*  290.7275*  291.1544*  291.4469   291.4713   291.6264   
      15   8      123   6.62e-05   288.3933*  289.4063*  289.6472*  290.0066*  290.3017*  290.7275*  291.1543*  291.4464*  291.4694   291.6237   
      16   9      125   4.51e-05   288.3933*  289.4063*  289.6472*  290.0066*  290.3017*  290.7275*  291.1543*  291.4464*  291.4668   291.6220*  
      17   10     126   3.69e-05   288.3933*  289.4063*  289.6472*  290.0066*  290.3017*  290.7275*  291.1543*  291.4464*  291.4655*  291.6212*  

     Davidson procedure converged

 EOMEE transition 1/A'
 Total energy = -403.26974955 a.u.  Excitation energy = 288.3932 eV.
 R0^2 = 0.0000  R1^2 = 0.8114  R2_CCVV^2 = 0.0012  R2_COVV^2 = 0.0937  Res^2 = 9.75e-06
 Conv-d = yes

 Amplitude    Transitions between orbitals
  0.4970       8 (A') A                  ->    25 (A') A                  
  0.4970       8 (A') B                  ->    25 (A') B                  
 -0.2370       8 (A') A                  ->    26 (A') A                  
 -0.2370       8 (A') B                  ->    26 (A') B                  
  0.1317       8 (A') A                  ->    31 (A') A                  
  0.1317       8 (A') B                  ->    31 (A') B                  
  0.1121       8 (A') A                  ->    33 (A') A                  
  0.1121       8 (A') B                  ->    33 (A') B                  
 -0.1100       8 (A') A                  ->    34 (A') A                  
 -0.1100       8 (A') B                  ->    34 (A') B                  
 -0.1031       8 (A') A                  ->    35 (A') A                  
 -0.1031       8 (A') B                  ->    35 (A') B                  

              Summary of significant orbitals:

               Number  Type             Irrep      Energy
               8       Occ  Alpha       8 (A')    -11.2603
               8       Occ  Beta        8 (A')    -11.2603
               30      Vir  Alpha      25 (A')      0.0232
               31      Vir  Alpha      26 (A')      0.0482
               39      Vir  Alpha      31 (A')      0.1338
               42      Vir  Alpha      33 (A')      0.1581
               44      Vir  Alpha      34 (A')      0.1673
               45      Vir  Alpha      35 (A')      0.1764
               30      Vir  Beta       25 (A')      0.0232
               31      Vir  Beta       26 (A')      0.0482
               39      Vir  Beta       31 (A')      0.1338
               42      Vir  Beta       33 (A')      0.1581
               44      Vir  Beta       34 (A')      0.1673
               45      Vir  Beta       35 (A')      0.1764


 EOMEE transition 2/A'
 Total energy = -403.23252064 a.u.  Excitation energy = 289.4063 eV.
 R0^2 = 0.0000  R1^2 = 0.8051  R2_CCVV^2 = 0.0012  R2_COVV^2 = 0.0969  Res^2 = 4.79e-05
 Conv-d = yes

 Amplitude    Transitions between orbitals
  0.4826       8 (A') A                  ->    26 (A') A                  
  0.4826       8 (A') B                  ->    26 (A') B                  
  0.2762       8 (A') A                  ->    25 (A') A                  
  0.2762       8 (A') B                  ->    25 (A') B                  
 -0.1233       8 (A') A                  ->    38 (A') A                  
 -0.1233       8 (A') B                  ->    38 (A') B                  
 -0.1223       8 (A') A                  ->    29 (A') A                  
 -0.1223       8 (A') B                  ->    29 (A') B                  
  0.1206       8 (A') A                  ->    35 (A') A                  
  0.1206       8 (A') B                  ->    35 (A') B                  

              Summary of significant orbitals:

               Number  Type             Irrep      Energy
               8       Occ  Alpha       8 (A')    -11.2603
               8       Occ  Beta        8 (A')    -11.2603
               30      Vir  Alpha      25 (A')      0.0232
               31      Vir  Alpha      26 (A')      0.0482
               36      Vir  Alpha      29 (A')      0.1020
               45      Vir  Alpha      35 (A')      0.1764
               49      Vir  Alpha      38 (A')      0.1991
               30      Vir  Beta       25 (A')      0.0232
               31      Vir  Beta       26 (A')      0.0482
               36      Vir  Beta       29 (A')      0.1020
               45      Vir  Beta       35 (A')      0.1764
               49      Vir  Beta       38 (A')      0.1991


 EOMEE transition 3/A'
 Total energy = -403.22366740 a.u.  Excitation energy = 289.6472 eV.
 R0^2 = 0.0000  R1^2 = 0.8053  R2_CCVV^2 = 0.0012  R2_COVV^2 = 0.0968  Res^2 = 2.14e-05
 Conv-d = yes

 Amplitude    Transitions between orbitals
  0.4290       8 (A') A                  ->    27 (A') A                  
  0.4290       8 (A') B                  ->    27 (A') B                  
 -0.3790       8 (A') A                  ->    29 (A') A                  
 -0.3790       8 (A') B                  ->    29 (A') B                  
 -0.1057       8 (A') A                  ->    25 (A') A                  
 -0.1057       8 (A') B                  ->    25 (A') B                  

              Summary of significant orbitals:

               Number  Type             Irrep      Energy
               8       Occ  Alpha       8 (A')    -11.2603
               8       Occ  Beta        8 (A')    -11.2603
               30      Vir  Alpha      25 (A')      0.0232
               32      Vir  Alpha      27 (A')      0.0607
               36      Vir  Alpha      29 (A')      0.1020
               30      Vir  Beta       25 (A')      0.0232
               32      Vir  Beta       27 (A')      0.0607
               36      Vir  Beta       29 (A')      0.1020


 EOMEE transition 4/A'
 Total energy = -403.21045894 a.u.  Excitation energy = 290.0066 eV.
 R0^2 = 0.0000  R1^2 = 0.8143  R2_CCVV^2 = 0.0012  R2_COVV^2 = 0.0922  Res^2 = 2.68e-05
 Conv-d = yes

 Amplitude    Transitions between orbitals
 -0.5354       7 (A') A                  ->    25 (A') A                  
 -0.5354       7 (A') B                  ->    25 (A') B                  
 -0.1919       7 (A') A                  ->    33 (A') A                  
 -0.1919       7 (A') B                  ->    33 (A') B                  
 -0.1797       7 (A') A                  ->    31 (A') A                  
 -0.1797       7 (A') B                  ->    31 (A') B                  
  0.1129       7 (A') A                  ->    34 (A') A                  
  0.1129       7 (A') B                  ->    34 (A') B                  
 -0.1086       7 (A') A                  ->    45 (A') A                  
 -0.1086       7 (A') B                  ->    45 (A') B                  

              Summary of significant orbitals:

               Number  Type             Irrep      Energy
               7       Occ  Alpha       7 (A')    -11.3454
               7       Occ  Beta        7 (A')    -11.3454
               30      Vir  Alpha      25 (A')      0.0232
               39      Vir  Alpha      31 (A')      0.1338
               42      Vir  Alpha      33 (A')      0.1581
               44      Vir  Alpha      34 (A')      0.1673
               59      Vir  Alpha      45 (A')      0.3195
               30      Vir  Beta       25 (A')      0.0232
               39      Vir  Beta       31 (A')      0.1338
               42      Vir  Beta       33 (A')      0.1581
               44      Vir  Beta       34 (A')      0.1673
               59      Vir  Beta       45 (A')      0.3195


 EOMEE transition 5/A'
 Total energy = -403.19961375 a.u.  Excitation energy = 290.3017 eV.
 R0^2 = 0.0000  R1^2 = 0.8070  R2_CCVV^2 = 0.0012  R2_COVV^2 = 0.0959  Res^2 = 3.44e-05
 Conv-d = yes

 Amplitude    Transitions between orbitals
 -0.3899       8 (A') A                  ->    28 (A') A                  
 -0.3899       8 (A') B                  ->    28 (A') B                  
  0.2215       8 (A') A                  ->    29 (A') A                  
  0.2215       8 (A') B                  ->    29 (A') B                  
 -0.2197       8 (A') A                  ->    37 (A') A                  
 -0.2197       8 (A') B                  ->    37 (A') B                  
  0.2112       8 (A') A                  ->    27 (A') A                  
  0.2112       8 (A') B                  ->    27 (A') B                  
  0.1664       8 (A') A                  ->    26 (A') A                  
  0.1664       8 (A') B                  ->    26 (A') B                  
 -0.1236       8 (A') A                  ->    32 (A') A                  
 -0.1236       8 (A') B                  ->    32 (A') B                  
  0.1091       8 (A') A                  ->    38 (A') A                  
  0.1091       8 (A') B                  ->    38 (A') B                  

              Summary of significant orbitals:

               Number  Type             Irrep      Energy
               8       Occ  Alpha       8 (A')    -11.2603
               8       Occ  Beta        8 (A')    -11.2603
               31      Vir  Alpha      26 (A')      0.0482
               32      Vir  Alpha      27 (A')      0.0607
               33      Vir  Alpha      28 (A')      0.0708
               36      Vir  Alpha      29 (A')      0.1020
               41      Vir  Alpha      32 (A')      0.1457
               48      Vir  Alpha      37 (A')      0.1982
               49      Vir  Alpha      38 (A')      0.1991
               31      Vir  Beta       26 (A')      0.0482
               32      Vir  Beta       27 (A')      0.0607
               33      Vir  Beta       28 (A')      0.0708
               36      Vir  Beta       29 (A')      0.1020
               41      Vir  Beta       32 (A')      0.1457
               48      Vir  Beta       37 (A')      0.1982
               49      Vir  Beta       38 (A')      0.1991


 EOMEE transition 6/A'
 Total energy = -403.18396661 a.u.  Excitation energy = 290.7275 eV.
 R0^2 = 0.0000  R1^2 = 0.8018  R2_CCVV^2 = 0.0012  R2_COVV^2 = 0.0985  Res^2 = 4.25e-05
 Conv-d = yes

 Amplitude    Transitions between orbitals
 -0.3607       8 (A') A                  ->    28 (A') A                  
 -0.3607       8 (A') B                  ->    28 (A') B                  
 -0.3513       8 (A') A                  ->    27 (A') A                  
 -0.3513       8 (A') B                  ->    27 (A') B                  
 -0.2864       8 (A') A                  ->    29 (A') A                  
 -0.2864       8 (A') B                  ->    29 (A') B                  
  0.1281       8 (A') A                  ->    34 (A') A                  
  0.1281       8 (A') B                  ->    34 (A') B                  
 -0.1103       8 (A') A                  ->    35 (A') A                  
 -0.1103       8 (A') B                  ->    35 (A') B                  

              Summary of significant orbitals:

               Number  Type             Irrep      Energy
               8       Occ  Alpha       8 (A')    -11.2603
               8       Occ  Beta        8 (A')    -11.2603
               32      Vir  Alpha      27 (A')      0.0607
               33      Vir  Alpha      28 (A')      0.0708
               36      Vir  Alpha      29 (A')      0.1020
               44      Vir  Alpha      34 (A')      0.1673
               45      Vir  Alpha      35 (A')      0.1764
               32      Vir  Beta       27 (A')      0.0607
               33      Vir  Beta       28 (A')      0.0708
               36      Vir  Beta       29 (A')      0.1020
               44      Vir  Beta       34 (A')      0.1673
               45      Vir  Beta       35 (A')      0.1764


 EOMEE transition 7/A'
 Total energy = -403.16828360 a.u.  Excitation energy = 291.1543 eV.
 R0^2 = 0.0000  R1^2 = 0.8045  R2_CCVV^2 = 0.0012  R2_COVV^2 = 0.0972  Res^2 = 4.13e-05
 Conv-d = yes

 Amplitude    Transitions between orbitals
  0.4606       8 (A') A                  ->    30 (A') A                  
  0.4606       8 (A') B                  ->    30 (A') B                  
  0.2506       8 (A') A                  ->    32 (A') A                  
  0.2506       8 (A') B                  ->    32 (A') B                  
  0.1715       8 (A') A                  ->    26 (A') A                  
  0.1715       8 (A') B                  ->    26 (A') B                  
  0.1403       8 (A') A                  ->    38 (A') A                  
  0.1403       8 (A') B                  ->    38 (A') B                  
  0.1195       8 (A') A                  ->    31 (A') A                  
  0.1195       8 (A') B                  ->    31 (A') B                  
 -0.1153       8 (A') A                  ->    29 (A') A                  
 -0.1153       8 (A') B                  ->    29 (A') B                  

              Summary of significant orbitals:

               Number  Type             Irrep      Energy
               8       Occ  Alpha       8 (A')    -11.2603
               8       Occ  Beta        8 (A')    -11.2603
               31      Vir  Alpha      26 (A')      0.0482
               36      Vir  Alpha      29 (A')      0.1020
               37      Vir  Alpha      30 (A')      0.1094
               39      Vir  Alpha      31 (A')      0.1338
               41      Vir  Alpha      32 (A')      0.1457
               49      Vir  Alpha      38 (A')      0.1991
               31      Vir  Beta       26 (A')      0.0482
               36      Vir  Beta       29 (A')      0.1020
               37      Vir  Beta       30 (A')      0.1094
               39      Vir  Beta       31 (A')      0.1338
               41      Vir  Beta       32 (A')      0.1457
               49      Vir  Beta       38 (A')      0.1991


 EOMEE transition 8/A'
 Total energy = -403.15754777 a.u.  Excitation energy = 291.4464 eV.
 R0^2 = 0.0000  R1^2 = 0.8097  R2_CCVV^2 = 0.0012  R2_COVV^2 = 0.0946  Res^2 = 3.63e-05
 Conv-d = yes

 Amplitude    Transitions between orbitals
  0.3307       8 (A') A                  ->    31 (A') A                  
  0.3307       8 (A') B                  ->    31 (A') B                  
 -0.2123       8 (A') A                  ->    25 (A') A                  
 -0.2123       8 (A') B                  ->    25 (A') B                  
  0.2052       8 (A') A                  ->    28 (A') A                  
  0.2052       8 (A') B                  ->    28 (A') B                  
  0.1941       8 (A') A                  ->    45 (A') A                  
  0.1941       8 (A') B                  ->    45 (A') B                  
 -0.1792       8 (A') A                  ->    29 (A') A                  
 -0.1792       8 (A') B                  ->    29 (A') B                  
 -0.1567       8 (A') A                  ->    37 (A') A                  
 -0.1567       8 (A') B                  ->    37 (A') B                  
  0.1425       8 (A') A                  ->    33 (A') A                  
  0.1425       8 (A') B                  ->    33 (A') B                  
 -0.1361       8 (A') A                  ->    34 (A') A                  
 -0.1361       8 (A') B                  ->    34 (A') B                  
 -0.1236       8 (A') A                  ->    48 (A') A                  
 -0.1236       8 (A') B                  ->    48 (A') B                  
 -0.1107       8 (A') A                  ->    30 (A') A                  
 -0.1107       8 (A') B                  ->    30 (A') B                  

              Summary of significant orbitals:

               Number  Type             Irrep      Energy
               8       Occ  Alpha       8 (A')    -11.2603
               8       Occ  Beta        8 (A')    -11.2603
               30      Vir  Alpha      25 (A')      0.0232
               33      Vir  Alpha      28 (A')      0.0708
               36      Vir  Alpha      29 (A')      0.1020
               37      Vir  Alpha      30 (A')      0.1094
               39      Vir  Alpha      31 (A')      0.1338
               42      Vir  Alpha      33 (A')      0.1581
               44      Vir  Alpha      34 (A')      0.1673
               48      Vir  Alpha      37 (A')      0.1982
               59      Vir  Alpha      45 (A')      0.3195
               63      Vir  Alpha      48 (A')      0.3828
               30      Vir  Beta       25 (A')      0.0232
               33      Vir  Beta       28 (A')      0.0708
               36      Vir  Beta       29 (A')      0.1020
               37      Vir  Beta       30 (A')      0.1094
               39      Vir  Beta       31 (A')      0.1338
               42      Vir  Beta       33 (A')      0.1581
               44      Vir  Beta       34 (A')      0.1673
               48      Vir  Beta       37 (A')      0.1982
               59      Vir  Beta       45 (A')      0.3195
               63      Vir  Beta       48 (A')      0.3828


 EOMEE transition 9/A'
 Total energy = -403.15684651 a.u.  Excitation energy = 291.4655 eV.
 R0^2 = 0.0000  R1^2 = 0.8005  R2_CCVV^2 = 0.0012  R2_COVV^2 = 0.0992  Res^2 = 6.21e-05
 Conv-d = yes

 Amplitude    Transitions between orbitals
  0.4987       7 (A') A                  ->    26 (A') A                  
  0.4987       7 (A') B                  ->    26 (A') B                  
  0.2138       7 (A') A                  ->    27 (A') A                  
  0.2138       7 (A') B                  ->    27 (A') B                  
 -0.1191       7 (A') A                  ->    29 (A') A                  
 -0.1191       7 (A') B                  ->    29 (A') B                  
 -0.1091       7 (A') A                  ->    28 (A') A                  
 -0.1091       7 (A') B                  ->    28 (A') B                  
  0.1070       7 (A') A                  ->    34 (A') A                  
  0.1070       7 (A') B                  ->    34 (A') B                  
 -0.1050       7 (A') A                  ->    30 (A') A                  
 -0.1050       7 (A') B                  ->    30 (A') B                  
  0.1036       7 (A') A                  ->    35 (A') A                  
  0.1036       7 (A') B                  ->    35 (A') B                  
 -0.1017       7 (A') A                  ->    32 (A') A                  
 -0.1017       7 (A') B                  ->    32 (A') B                  

              Summary of significant orbitals:

               Number  Type             Irrep      Energy
               7       Occ  Alpha       7 (A')    -11.3454
               7       Occ  Beta        7 (A')    -11.3454
               31      Vir  Alpha      26 (A')      0.0482
               32      Vir  Alpha      27 (A')      0.0607
               33      Vir  Alpha      28 (A')      0.0708
               36      Vir  Alpha      29 (A')      0.1020
               37      Vir  Alpha      30 (A')      0.1094
               41      Vir  Alpha      32 (A')      0.1457
               44      Vir  Alpha      34 (A')      0.1673
               45      Vir  Alpha      35 (A')      0.1764
               31      Vir  Beta       26 (A')      0.0482
               32      Vir  Beta       27 (A')      0.0607
               33      Vir  Beta       28 (A')      0.0708
               36      Vir  Beta       29 (A')      0.1020
               37      Vir  Beta       30 (A')      0.1094
               41      Vir  Beta       32 (A')      0.1457
               44      Vir  Beta       34 (A')      0.1673
               45      Vir  Beta       35 (A')      0.1764


 EOMEE transition 10/A'
 Total energy = -403.15112351 a.u.  Excitation energy = 291.6212 eV.
 R0^2 = 0.0000  R1^2 = 0.7981  R2_CCVV^2 = 0.0012  R2_COVV^2 = 0.1004  Res^2 = 4.65e-05
 Conv-d = yes

 Amplitude    Transitions between orbitals
  0.3760       7 (A') A                  ->    29 (A') A                  
  0.3760       7 (A') B                  ->    29 (A') B                  
 -0.3500       7 (A') A                  ->    27 (A') A                  
 -0.3500       7 (A') B                  ->    27 (A') B                  
  0.2578       7 (A') A                  ->    26 (A') A                  
  0.2578       7 (A') B                  ->    26 (A') B                  
  0.1278       7 (A') A                  ->    35 (A') A                  
  0.1278       7 (A') B                  ->    35 (A') B                  
  0.1055       7 (A') A                  ->    43 (A') A                  
  0.1055       7 (A') B                  ->    43 (A') B                  

              Summary of significant orbitals:

               Number  Type             Irrep      Energy
[...]
 State A: cvs_eomee_ccsd/rhfref/singlets: 4/A"
 State B: cvs_eomee_ccsd/rhfref/singlets: 7/A"
 Transition dipole moment (a.u.):
   A->B: 0.336301 (X -0.305543, Y -0.140507, Z 0.000000)
   B->A: 0.332649 (X -0.265276, Y -0.200709, Z 0.000000)
 Oscillator strength (a.u.): 0.005767
 Norm of one-particle transition density matrix:
   A->B: 0.696553;   B->A: 0.692745
   ||gamma^AB||*||gamma^BA||: 0.482534

 ------------------------------------------------------------------------------
 State A: cvs_eomee_ccsd/rhfref/singlets: 4/A"
 State B: cvs_eomee_ccsd/rhfref/singlets: 8/A"
 Transition dipole moment (a.u.):
   A->B: 0.482045 (X 0.065479, Y -0.477577, Z 0.000000)
   B->A: 0.450602 (X 0.158639, Y -0.421754, Z 0.000000)
 Oscillator strength (a.u.): 0.011782
 Norm of one-particle transition density matrix:
   A->B: 0.695877;   B->A: 0.692078
   ||gamma^AB||*||gamma^BA||: 0.481602

 ------------------------------------------------------------------------------
 State A: cvs_eomee_ccsd/rhfref/singlets: 4/A"
 State B: cvs_eomee_ccsd/rhfref/singlets: 9/A"
 Transition dipole moment (a.u.):
   A->B: 0.003357 (X 0.001479, Y -0.003014, Z 0.000000)
   B->A: 0.003537 (X 0.002963, Y -0.001932, Z 0.000000)
 Oscillator strength (a.u.): 0.000001
 Norm of one-particle transition density matrix:
   A->B: 0.050981;   B->A: 0.025363
   ||gamma^AB||*||gamma^BA||: 0.001293

 ------------------------------------------------------------------------------
 State A: cvs_eomee_ccsd/rhfref/singlets: 4/A"
 State B: cvs_eomee_ccsd/rhfref/singlets: 10/A"
 Transition dipole moment (a.u.):
   A->B: 0.071948 (X 0.071469, Y 0.008296, Z 0.000000)
   B->A: 0.072054 (X 0.071611, Y 0.007979, Z 0.000000)
 Oscillator strength (a.u.): 0.000416
 Norm of one-particle transition density matrix:
   A->B: 0.341008;   B->A: 0.347742
   ||gamma^AB||*||gamma^BA||: 0.118583

 ------------------------------------------------------------------------------
 State A: cvs_eomee_ccsd/rhfref/singlets: 5/A"
 State B: cvs_eomee_ccsd/rhfref/singlets: 6/A"
 Transition dipole moment (a.u.):
   A->B: 0.002979 (X 0.002497, Y 0.001625, Z 0.000000)
   B->A: 0.002830 (X 0.002343, Y 0.001588, Z 0.000000)
 Oscillator strength (a.u.): 0.000000
 Norm of one-particle transition density matrix:
   A->B: 0.020070;   B->A: 0.041150
   ||gamma^AB||*||gamma^BA||: 0.000826

 ------------------------------------------------------------------------------
 State A: cvs_eomee_ccsd/rhfref/singlets: 5/A"
 State B: cvs_eomee_ccsd/rhfref/singlets: 7/A"
 Transition dipole moment (a.u.):
   A->B: 2.245284 (X -1.093330, Y 1.961104, Z 0.000000)
   B->A: 2.236575 (X -1.024332, Y 1.988218, Z 0.000000)
 Oscillator strength (a.u.): 0.178775
 Norm of one-particle transition density matrix:
   A->B: 0.704302;   B->A: 0.703340
   ||gamma^AB||*||gamma^BA||: 0.495364

 ------------------------------------------------------------------------------
 State A: cvs_eomee_ccsd/rhfref/singlets: 5/A"
 State B: cvs_eomee_ccsd/rhfref/singlets: 8/A"
 Transition dipole moment (a.u.):
   A->B: 2.450927 (X -2.187807, Y -1.104782, Z 0.000000)
   B->A: 2.441925 (X -2.164936, Y -1.129625, Z 0.000000)
 Oscillator strength (a.u.): 0.230144
 Norm of one-particle transition density matrix:
   A->B: 0.704366;   B->A: 0.703310
   ||gamma^AB||*||gamma^BA||: 0.495388

 ------------------------------------------------------------------------------
 State A: cvs_eomee_ccsd/rhfref/singlets: 5/A"
 State B: cvs_eomee_ccsd/rhfref/singlets: 9/A"
 Transition dipole moment (a.u.):
   A->B: 0.036453 (X -0.031363, Y -0.018578, Z 0.000000)
   B->A: 0.034274 (X -0.029197, Y -0.017950, Z 0.000000)
 Oscillator strength (a.u.): 0.000060
 Norm of one-particle transition density matrix:
   A->B: 0.514746;   B->A: 0.512666
   ||gamma^AB||*||gamma^BA||: 0.263893

 ------------------------------------------------------------------------------
 State A: cvs_eomee_ccsd/rhfref/singlets: 5/A"
 State B: cvs_eomee_ccsd/rhfref/singlets: 10/A"
 Transition dipole moment (a.u.):
   A->B: 0.018128 (X -0.009816, Y 0.015240, Z 0.000000)
   B->A: 0.021642 (X -0.014034, Y 0.016475, Z 0.000000)
 Oscillator strength (a.u.): 0.000025
 Norm of one-particle transition density matrix:
   A->B: 0.085957;   B->A: 0.104560
   ||gamma^AB||*||gamma^BA||: 0.008988

 ------------------------------------------------------------------------------
 State A: cvs_eomee_ccsd/rhfref/singlets: 6/A"
 State B: cvs_eomee_ccsd/rhfref/singlets: 7/A"
 Transition dipole moment (a.u.):
   A->B: 0.004459 (X -0.002343, Y 0.003794, Z 0.000000)
   B->A: 0.004667 (X -0.002331, Y 0.004043, Z 0.000000)
 Oscillator strength (a.u.): 0.000001
 Norm of one-particle transition density matrix:
   A->B: 0.077946;   B->A: 0.075471
   ||gamma^AB||*||gamma^BA||: 0.005883

 ------------------------------------------------------------------------------
 State A: cvs_eomee_ccsd/rhfref/singlets: 6/A"
 State B: cvs_eomee_ccsd/rhfref/singlets: 8/A"
 Transition dipole moment (a.u.):
   A->B: 0.004665 (X -0.003737, Y -0.002793, Z 0.000000)
   B->A: 0.004881 (X -0.003853, Y -0.002997, Z 0.000000)
 Oscillator strength (a.u.): 0.000001
 Norm of one-particle transition density matrix:
   A->B: 0.051154;   B->A: 0.052852
   ||gamma^AB||*||gamma^BA||: 0.002704

 ------------------------------------------------------------------------------
 State A: cvs_eomee_ccsd/rhfref/singlets: 6/A"
 State B: cvs_eomee_ccsd/rhfref/singlets: 9/A"
 Transition dipole moment (a.u.):
   A->B: 0.000817 (X 0.000329, Y 0.000748, Z 0.000000)
   B->A: 0.000810 (X 0.000353, Y 0.000729, Z 0.000000)
 Oscillator strength (a.u.): 0.000000
 Norm of one-particle transition density matrix:
   A->B: 0.025118;   B->A: 0.024855
   ||gamma^AB||*||gamma^BA||: 0.000624

 ------------------------------------------------------------------------------
 State A: cvs_eomee_ccsd/rhfref/singlets: 6/A"
 State B: cvs_eomee_ccsd/rhfref/singlets: 10/A"
 Transition dipole moment (a.u.):
   A->B: 0.002377 (X -0.001252, Y -0.002020, Z 0.000000)
   B->A: 0.002356 (X -0.001299, Y -0.001966, Z 0.000000)
 Oscillator strength (a.u.): 0.000000
 Norm of one-particle transition density matrix:
   A->B: 0.381021;   B->A: 0.374254
   ||gamma^AB||*||gamma^BA||: 0.142598

 ------------------------------------------------------------------------------
 State A: cvs_eomee_ccsd/rhfref/singlets: 7/A"
 State B: cvs_eomee_ccsd/rhfref/singlets: 8/A"
 Transition dipole moment (a.u.):
   A->B: 0.516603 (X 0.369473, Y 0.361065, Z 0.000000)
   B->A: 0.553090 (X 0.358621, Y 0.421070, Z 0.000000)
 Oscillator strength (a.u.): 0.000807
 Norm of one-particle transition density matrix:
   A->B: 0.703205;   B->A: 0.703080
   ||gamma^AB||*||gamma^BA||: 0.494410

 ------------------------------------------------------------------------------
 State A: cvs_eomee_ccsd/rhfref/singlets: 7/A"
 State B: cvs_eomee_ccsd/rhfref/singlets: 9/A"
 Transition dipole moment (a.u.):
   A->B: 0.011341 (X 0.008638, Y 0.007348, Z 0.000000)
   B->A: 0.011359 (X 0.008597, Y 0.007424, Z 0.000000)
 Oscillator strength (a.u.): 0.000002
 Norm of one-particle transition density matrix:
   A->B: 0.012586;   B->A: 0.008866
   ||gamma^AB||*||gamma^BA||: 0.000112

 ------------------------------------------------------------------------------
 State A: cvs_eomee_ccsd/rhfref/singlets: 7/A"
 State B: cvs_eomee_ccsd/rhfref/singlets: 10/A"
 Transition dipole moment (a.u.):
   A->B: 0.021326 (X -0.016365, Y 0.013675, Z 0.000000)
   B->A: 0.021556 (X -0.017167, Y 0.013037, Z 0.000000)
 Oscillator strength (a.u.): 0.000013
 Norm of one-particle transition density matrix:
   A->B: 0.029161;   B->A: 0.026868
   ||gamma^AB||*||gamma^BA||: 0.000783

 ------------------------------------------------------------------------------
 State A: cvs_eomee_ccsd/rhfref/singlets: 8/A"
 State B: cvs_eomee_ccsd/rhfref/singlets: 9/A"
 Transition dipole moment (a.u.):
   A->B: 0.006210 (X 0.005058, Y -0.003602, Z 0.000000)
   B->A: 0.006185 (X 0.005210, Y -0.003333, Z 0.000000)
 Oscillator strength (a.u.): 0.000000
 Norm of one-particle transition density matrix:
   A->B: 0.145156;   B->A: 0.142161
   ||gamma^AB||*||gamma^BA||: 0.020636

 ------------------------------------------------------------------------------
 State A: cvs_eomee_ccsd/rhfref/singlets: 8/A"
 State B: cvs_eomee_ccsd/rhfref/singlets: 10/A"
 Transition dipole moment (a.u.):
   A->B: 0.013214 (X -0.000259, Y -0.013211, Z 0.000000)
   B->A: 0.012618 (X -0.001427, Y -0.012537, Z 0.000000)
 Oscillator strength (a.u.): 0.000004
 Norm of one-particle transition density matrix:
   A->B: 0.060161;   B->A: 0.065875
   ||gamma^AB||*||gamma^BA||: 0.003963

 ------------------------------------------------------------------------------
 State A: cvs_eomee_ccsd/rhfref/singlets: 9/A"
 State B: cvs_eomee_ccsd/rhfref/singlets: 10/A"
 Transition dipole moment (a.u.):
   A->B: 0.001345 (X 0.001199, Y 0.000608, Z 0.000000)
   B->A: 0.001374 (X 0.001272, Y 0.000521, Z 0.000000)
 Oscillator strength (a.u.): 0.000000
 Norm of one-particle transition density matrix:
   A->B: 0.005830;   B->A: 0.014240
   ||gamma^AB||*||gamma^BA||: 0.000083


 All requested transition properties have been computed

 Transition Properties:   CPU 2990.40 s  wall 558.53 s

 Total ccman2 time:   CPU 24773.68 s  wall 3235.24 s

 
 --------------------------------------------------------------
             Orbital Energies (a.u.) and Symmetries
 --------------------------------------------------------------
 
 Alpha MOs, Restricted
 -- Occupied --                  
-20.551 -20.545 -15.648 -15.631 -11.426 -11.387 -11.345 -11.260
  1 A'    2 A'    3 A'    4 A'    5 A'    6 A'    7 A'    8 A'                 
 -1.442  -1.404  -1.319  -1.250  -1.093  -0.938  -0.907  -0.812
  9 A'   10 A'   11 A'   12 A'   13 A'   14 A'   15 A'   16 A'                 
 -0.770  -0.719  -0.681  -0.671  -0.657  -0.619  -0.605  -0.573
 17 A'   18 A'   19 A'    1 A"   20 A'   21 A'   22 A'    2 A"                 
 -0.528  -0.487  -0.452  -0.439  -0.371
  3 A"   23 A'   24 A'    4 A"    5 A"                                         
 -- Virtual --                   
  0.023   0.048   0.061   0.071   0.074   0.091   0.102   0.109
 25 A'   26 A'   27 A'   28 A'    6 A"    7 A"   29 A'   30 A'                 
  0.129   0.134   0.138   0.146   0.158   0.161   0.167   0.176
  8 A"   31 A'    9 A"   32 A'   33 A'   10 A"   34 A'   35 A'                 
  0.186   0.192   0.198   0.199   0.219   0.229   0.243   0.251
 11 A"   36 A'   37 A'   38 A'   39 A'   40 A'   12 A"   41 A'                 
  0.256   0.286   0.292   0.298   0.310   0.320   0.339   0.354
 42 A'   13 A"   14 A"   43 A'   44 A'   45 A'   46 A'   47 A'                 
  0.369   0.383   0.386   0.397   0.407   0.408   0.415   0.428
 15 A"   48 A'   49 A'   50 A'   51 A'   16 A"   52 A'   53 A'                 
  0.430   0.443   0.469   0.485   0.497   0.518   0.556   0.557
 54 A'   55 A'   56 A'   57 A'   58 A'   59 A'   60 A'   61 A'                 
  0.634   0.668   0.697   0.706   0.739   0.742   0.758   0.771
 62 A'   63 A'   17 A"   64 A'   18 A"   65 A'   19 A"   66 A'                 
  0.786   0.796   0.832   0.854   0.907   0.928   0.945   0.967
 67 A'   20 A"   68 A'   69 A'   70 A'   71 A'   72 A'   73 A'                 
  0.976   0.996   1.014   1.019   1.048   1.056   1.081   1.099
 74 A'   75 A'   21 A"   76 A'   77 A'   22 A"   78 A'   79 A'                 
  1.140   1.209   1.225   1.242   1.251   1.302   1.358   1.359
 80 A'   81 A'   23 A"   24 A"   82 A'   83 A'   25 A"   84 A'                 
  1.376   1.398   1.415   1.419   1.432   1.438   1.457   1.501
 26 A"   27 A"   85 A'   28 A"   86 A'   87 A'   29 A"   88 A'                 
  1.511   1.528   1.575   1.746   1.779   1.796   1.811   1.883
 30 A"   89 A'   90 A'   91 A'   92 A'   93 A'   31 A"   94 A'                 
  1.896   1.909   1.925   1.951   1.970   2.011   2.011   2.067
 32 A"   95 A'   33 A"   96 A'   97 A'   34 A"   98 A'   99 A'                 
  2.118   2.137   2.187   2.220   2.223   2.272   2.292   2.339
100 A'  101 A'  102 A'   35 A"  103 A'  104 A'  105 A'   36 A"                 
  2.345   2.529   2.556   2.580   2.642   2.659   2.723   2.798
106 A'  107 A'   37 A"  108 A'   38 A"  109 A'   39 A"  110 A'                 
  2.820   2.848   2.915   2.960   3.000   3.015   3.041   3.070
 40 A"  111 A'  112 A'  113 A'  114 A'  115 A'  116 A'   41 A"                 
  3.144   3.170   3.173   3.207   3.260   3.263   3.291   3.307
 42 A"   43 A"  117 A'  118 A'   44 A"  119 A'  120 A'   45 A"                 
  3.314   3.343   3.394   3.506   3.568   3.751   3.762   3.799
121 A'   46 A"  122 A'  123 A'  124 A'   47 A"   48 A"  125 A'                 
  3.831   3.872   3.908   3.954   4.016   4.052   4.098   4.282
126 A'  127 A'  128 A'  129 A'  130 A'  131 A'  132 A'  133 A'                 
  4.289   4.337   4.416   4.485   4.623   5.193   5.283   5.348
 49 A"   50 A"  134 A'  135 A'  136 A'  137 A'  138 A'  139 A'                 
  5.600   5.627   5.686   5.763   5.857   6.328   6.365  24.853
 51 A"   52 A"  140 A'  141 A'  142 A'  143 A'  144 A'  145 A'                 
 24.967  25.028  25.324  36.989  37.046  51.709  51.753
146 A'  147 A'  148 A'  149 A'  150 A'  151 A'  152 A'                         
 
 Beta MOs, Restricted
 -- Occupied --                  
-20.551 -20.545 -15.648 -15.631 -11.426 -11.387 -11.345 -11.260
  1 A'    2 A'    3 A'    4 A'    5 A'    6 A'    7 A'    8 A'                 
 -1.442  -1.404  -1.319  -1.250  -1.093  -0.938  -0.907  -0.812
  9 A'   10 A'   11 A'   12 A'   13 A'   14 A'   15 A'   16 A'                 
 -0.770  -0.719  -0.681  -0.671  -0.657  -0.619  -0.605  -0.573
 17 A'   18 A'   19 A'    1 A"   20 A'   21 A'   22 A'    2 A"                 
 -0.528  -0.487  -0.452  -0.439  -0.371
  3 A"   23 A'   24 A'    4 A"    5 A"                                         
 -- Virtual --                   
  0.023   0.048   0.061   0.071   0.074   0.091   0.102   0.109
 25 A'   26 A'   27 A'   28 A'    6 A"    7 A"   29 A'   30 A'                 
  0.129   0.134   0.138   0.146   0.158   0.161   0.167   0.176
  8 A"   31 A'    9 A"   32 A'   33 A'   10 A"   34 A'   35 A'                 
  0.186   0.192   0.198   0.199   0.219   0.229   0.243   0.251
 11 A"   36 A'   37 A'   38 A'   39 A'   40 A'   12 A"   41 A'                 
  0.256   0.286   0.292   0.298   0.310   0.320   0.339   0.354
 42 A'   13 A"   14 A"   43 A'   44 A'   45 A'   46 A'   47 A'                 
  0.369   0.383   0.386   0.397   0.407   0.408   0.415   0.428
 15 A"   48 A'   49 A'   50 A'   51 A'   16 A"   52 A'   53 A'                 
  0.430   0.443   0.469   0.485   0.497   0.518   0.556   0.557
 54 A'   55 A'   56 A'   57 A'   58 A'   59 A'   60 A'   61 A'                 
  0.634   0.668   0.697   0.706   0.739   0.742   0.758   0.771
 62 A'   63 A'   17 A"   64 A'   18 A"   65 A'   19 A"   66 A'                 
  0.786   0.796   0.832   0.854   0.907   0.928   0.945   0.967
 67 A'   20 A"   68 A'   69 A'   70 A'   71 A'   72 A'   73 A'                 
  0.976   0.996   1.014   1.019   1.048   1.056   1.081   1.099
 74 A'   75 A'   21 A"   76 A'   77 A'   22 A"   78 A'   79 A'                 
  1.140   1.209   1.225   1.242   1.251   1.302   1.358   1.359
 80 A'   81 A'   23 A"   24 A"   82 A'   83 A'   25 A"   84 A'                 
  1.376   1.398   1.415   1.419   1.432   1.438   1.457   1.501
 26 A"   27 A"   85 A'   28 A"   86 A'   87 A'   29 A"   88 A'                 
  1.511   1.528   1.575   1.746   1.779   1.796   1.811   1.883
 30 A"   89 A'   90 A'   91 A'   92 A'   93 A'   31 A"   94 A'                 
  1.896   1.909   1.925   1.951   1.970   2.011   2.011   2.067
 32 A"   95 A'   33 A"   96 A'   97 A'   34 A"   98 A'   99 A'                 
  2.118   2.137   2.187   2.220   2.223   2.272   2.292   2.339
100 A'  101 A'  102 A'   35 A"  103 A'  104 A'  105 A'   36 A"                 
  2.345   2.529   2.556   2.580   2.642   2.659   2.723   2.798
106 A'  107 A'   37 A"  108 A'   38 A"  109 A'   39 A"  110 A'                 
  2.820   2.848   2.915   2.960   3.000   3.015   3.041   3.070
 40 A"  111 A'  112 A'  113 A'  114 A'  115 A'  116 A'   41 A"                 
  3.144   3.170   3.173   3.207   3.260   3.263   3.291   3.307
 42 A"   43 A"  117 A'  118 A'   44 A"  119 A'  120 A'   45 A"                 
  3.314   3.343   3.394   3.506   3.568   3.751   3.762   3.799
121 A'   46 A"  122 A'  123 A'  124 A'   47 A"   48 A"  125 A'                 
  3.831   3.872   3.908   3.954   4.016   4.052   4.098   4.282
126 A'  127 A'  128 A'  129 A'  130 A'  131 A'  132 A'  133 A'                 
  4.289   4.337   4.416   4.485   4.623   5.193   5.283   5.348
 49 A"   50 A"  134 A'  135 A'  136 A'  137 A'  138 A'  139 A'                 
  5.600   5.627   5.686   5.763   5.857   6.328   6.365  24.853
 51 A"   52 A"  140 A'  141 A'  142 A'  143 A'  144 A'  145 A'                 
 24.967  25.028  25.324  36.989  37.046  51.709  51.753
146 A'  147 A'  148 A'  149 A'  150 A'  151 A'  152 A'                         
 --------------------------------------------------------------
 
          Ground-State Mulliken Net Atomic Charges

     Atom                 Charge (a.u.)
  ----------------------------------------
      1 C                     0.093026
      2 H                     0.387156
      3 H                     0.226193
      4 H                     0.406725
      5 C                     0.569769
      6 O                    -0.441367
      7 C                     0.218011
      8 O                    -0.408517
      9 N                    -0.591918
     10 N                    -0.546948
     11 C                    -0.160334
     12 H                     0.248204
  ----------------------------------------
  Sum of atomic charges =    -0.000000

 -----------------------------------------------------------------
                    Cartesian Multipole Moments
 -----------------------------------------------------------------
    Charge (ESU x 10^10)
                 0.0000
    Dipole Moment (Debye)
         X      -1.3855      Y      -4.9595      Z      -0.0000
       Tot       5.1494
    Quadrupole Moments (Debye-Ang)
        XX     -60.6980     XY       2.5046     YY     -38.3422
        XZ       0.0000     YZ       0.0000     ZZ     -46.9622
    Octopole Moments (Debye-Ang^2)
       XXX     -11.3896    XXY     -34.8658    XYY      -5.2070
       YYY      -9.1039    XXZ      -0.0000    XYZ       0.0000
       YYZ      -0.0000    XZZ      -1.9258    YZZ       4.3435
       ZZZ      -0.0000
    Hexadecapole Moments (Debye-Ang^3)
      XXXX    -728.0727   XXXY      12.7532   XXYY    -176.8292
      XYYY      13.2972   YYYY    -303.9036   XXXZ       0.0000
      XXYZ       0.0000   XYYZ       0.0000   YYYZ       0.0000
      XXZZ    -114.0606   XYZZ       2.9926   YYZZ     -75.6239
      XZZZ       0.0000   YZZZ       0.0000   ZZZZ     -46.6065
 -----------------------------------------------------------------
Archival summary:
1\1\n-62-23-7\SP\ProcedureUnspecified\BasisUnspecified\2244\malop\ThuSep2015:31:462018ThuSep2015:31:462018\0\\#,ProcedureUnspecified,BasisUnspecified,\\0,1\N\H,1,1.01081\C,1,1.37966,2,115.327\O,3,1.21479,1,124.21,2,-0,0\N,3,1.3852,1,112.713,2,-180,0\H,5,1.00619,3,115.142,1,180,0\C,5,1.37008,3,123.626,1,-0,0\H,7,1.07981,5,115.516,3,-180,0\C,7,1.34802,5,121.979,3,0,0\H,9,1.07615,7,121.525,5,-180,0\C,1,1.40335,2,116.035,3,180,0\O,11,1.21832,1,120.541,2,-0,0\\HF=-412.579251\\@

 Total job time:  3310.55s(wall), 25040.68s(cpu) 
 Thu Sep 20 15:31:46 2018

        *************************************************************
        *                                                           *
        *  Thank you very much for using Q-Chem.  Have a nice day.  *
        *                                                           *
        *************************************************************


