n-62-29-19 10.66.29
Q-Chem Developer Version! Running on 10.66.29.*
                  Welcome to Q-Chem
     A Quantum Leap Into The Future Of Chemistry


 Q-Chem 5.1, Q-Chem, Inc., Pleasanton, CA (2018)

 Yihan Shao,  Zhengting Gan,  E. Epifanovsky,  A. T. B. Gilbert,  M. Wormit,  
 J. Kussmann,  A. W. Lange,  A. Behn,  Jia Deng,  Xintian Feng,  D. Ghosh,  
 M. Goldey,  P. R. Horn,  L. D. Jacobson,  I. Kaliman,  T. Kus,  A. Landau,  
 Jie Liu,  E. I. Proynov,  R. M. Richard,  R. P. Steele,  E. J. Sundstrom,  
 H. L. Woodcock III,  P. M. Zimmerman,  D. Zuev,  B. Albrecht,  E. Alguire,  
 S. A. Baeppler,  D. Barton,  Z. Benda,  Y. A. Bernard,  E. J. Berquist,  
 K. B. Bravaya,  H. Burton,  D. Casanova,  Chun-Min Chang,  Yunqing Chen,  
 A. Chien,  K. D. Closser,  M. P. Coons,  S. Coriani,  S. Dasgupta,  
 A. L. Dempwolff,  M. Diedenhofen,  Hainam Do,  R. G. Edgar,  Po-Tung Fang,  
 S. Faraji,  S. Fatehi,  Qingguo Feng,  K. D. Fenk,  J. Fosso-Tande,  
 Qinghui Ge,  A. Ghysels,  G. Gidofalvi,  J. Gomes,  J. Gonthier,  A. Gunina,  
 M. W. D. Hanson-Heine,  P. H. P. Harbach,  A. W. Hauser,  J. E. Herr,  
 E. G. Hohenstein,  Z. C. Holden,  Kerwin Hui,  T.-C. Jagau,  Hyunjun Ji,  
 B. Kaduk,  K. Khistyaev,  Jaehoon Kim,  P. Klunzinger,  K. Koh,  
 D. Kosenkov,  L. Koulias,  T. Kowalczyk,  C. M. Krauter,  A. Kunitsa,  
 Ka Un Lao,  A. Laurent,  K. V. Lawler,  Joonho Lee,  D. Lefrancois,  
 S. Lehtola,  D. S. Levine,  Yi-Pei Li,  You-Sheng Lin,  Fenglai Liu,  
 E. Livshits,  A. Luenser,  P. Manohar,  E. Mansoor,  S. F. Manzer,  
 Shan-Ping Mao,  Yuezhi Mao,  N. Mardirossian,  A. V. Marenich,  
 T. Markovich,  L. A. Martinez-Martinez,  S. A. Maurer,  N. J. Mayhall,  
 S. C. McKenzie,  J.-M. Mewes,  A. F. Morrison,  J. W. Mullinax,  K. Nanda,  
 T. S. Nguyen-Beck,  R. Olivares-Amaya,  J. A. Parkhill,  T. M. Perrine,  
 F. Plasser,  P. Pokhilko,  S. Prager,  A. Prociuk,  E. Ramos,  D. R. Rehn,  
 F. Rob,  M. Schneider,  N. Sergueev,  S. M. Sharada,  S. Sharma,  
 D. W. Small,  T. Stauch,  T. Stein,  Yu-Chuan Su,  A. J. W. Thom,  
 A. Tkatchenko,  T. Tsuchimochi,  N. M. Tubman,  L. Vogt,  M. L. Vidal,  
 O. Vydrov,  M. A. Watson,  J. Wenzel,  M. de Wergifosse,  T. A. Wesolowski,  
 A. White,  J. Witte,  A. Yamada,  Jun Yang,  K. Yao,  S. Yeganeh,  
 S. R. Yost,  Zhi-Qiang You,  A. Zech,  Igor Ying Zhang,  Xing Zhang,  
 Yan Zhao,  Ying Zhu,  B. R. Brooks,  G. K. L. Chan,  C. J. Cramer,  
 M. S. Gordon,  W. J. Hehre,  A. Klamt,  M. W. Schmidt,  C. D. Sherrill,  
 D. G. Truhlar,  A. Aspuru-Guzik,  R. Baer,  A. T. Bell,  N. A. Besley,  
 Jeng-Da Chai,  R. A. DiStasio Jr.,  A. Dreuw,  B. D. Dunietz,  
 T. R. Furlani,  Chao-Ping Hsu,  Yousung Jung,  Jing Kong,  D. S. Lambrecht,  
 WanZhen Liang,  C. Ochsenfeld,  V. A. Rassolov,  L. V. Slipchenko,  
 J. E. Subotnik,  T. Van Voorhis,  J. M. Herbert,  A. I. Krylov,  
 P. M. W. Gill,  M. Head-Gordon

 Contributors to earlier versions of Q-Chem not listed above: 
 R. D. Adamson,  B. Austin,  J. Baker,  G. J. O. Beran,  K. Brandhorst,  
 S. T. Brown,  E. F. C. Byrd,  A. K. Chakraborty,  C.-L. Cheng,  
 Siu Hung Chien,  D. M. Chipman,  D. L. Crittenden,  H. Dachsel,  
 R. J. Doerksen,  A. D. Dutoi,  L. Fusti-Molnar,  W. A. Goddard III,  
 A. Golubeva-Zadorozhnaya,  S. R. Gwaltney,  G. Hawkins,  A. Heyden,  
 S. Hirata,  G. Kedziora,  F. J. Keil,  C. Kelley,  Jihan Kim,  R. A. King,  
 R. Z. Khaliullin,  P. P. Korambath,  W. Kurlancheek,  A. M. Lee,  M. S. Lee,  
 S. V. Levchenko,  Ching Yeh Lin,  D. Liotard,  R. C. Lochan,  I. Lotan,  
 P. E. Maslen,  N. Nair,  D. P. O'Neill,  D. Neuhauser,  E. Neuscamman,  
 C. M. Oana,  R. Olson,  B. Peters,  R. Peverati,  P. A. Pieniazek,  
 Y. M. Rhee,  J. Ritchie,  M. A. Rohrdanz,  E. Rosta,  N. J. Russ,  
 H. F. Schaefer III,  N. E. Schultz,  N. Shenvi,  A. C. Simmonett,  A. Sodt,  
 D. Stuck,  K. S. Thanthiriwatte,  V. Vanovschi,  Tao Wang,  A. Warshel,  
 C. F. Williams,  Q. Wu,  X. Xu,  W. Zhang

 Please cite Q-Chem as follows:
 Y. Shao et al., Mol. Phys. 113, 184-215 (2015)
 DOI: 10.1080/00268976.2014.952696

 Q-Chem 5.1.0 for Intel X86 EM64T Linux

 Parts of Q-Chem use Armadillo 8.300.2 (Tropical Shenanigans).
 http://arma.sourceforge.net/

 Q-Chem begins on Thu Sep 20 12:00:04 2018  

Host: 
0

     Scratch files written to /work1/malop/qc_7245471.hnode2//

Checking the input file for inconsistencies... 	...done.

--------------------------------------------------------------
User input:
--------------------------------------------------------------
$comment 
URACIL O-edge
optimizion: mp2/cc-pvtz
$end

$molecule
0 1
C        0.052842   -1.701332    0.000000    
H       -2.016793   -1.512231    0.000000    
H       -0.025494   -2.778299    0.000000    
H       -0.023568    1.988544    0.000000    
C       -1.232948    0.358893    0.000000    
O       -2.294123    0.950188    0.000000    
C        1.274970    0.391620    0.000000    
O        2.275873    1.086244    0.000000    
N        0.000000    0.978006    0.000000    
N       -1.137535   -1.023018    0.000000    
C        1.239239   -1.061325    0.000000    
H        2.169983   -1.601520    0.000000  
$end

$rem
    jobtype = sp
    method = eom-ccsd
    cvs_ee_singlets    [10,10]
    eom_preconv_singles = true
    basis = 6-311++G**
    n_frozen_core = 2
    cc_trans_prop = true
   use_libqints = 1   !use new int library (will be def in trunk)
   thresh = 14   !this already should be default, but just in case
   scf_convergence = 12   !v. tight scf convergence, to reduce noise
   cc_convergence = 12   !tight CC, for the same reason
   basis_lin_dep_thresh = 8  !default is 6, use smaller, just in case
   cc_memory = 100000
   EOM_DAVIDSON_MAX_ITER 200
   EOM_DAVIDSON_MAXVECTORS = 1000
   eom_davidson_convergence = 4 
   eom_shift = 19590
$end
--------------------------------------------------------------
 ----------------------------------------------------------------
             Standard Nuclear Orientation (Angstroms)
    I     Atom           X                Y                Z
 ----------------------------------------------------------------
    1      C      -0.0071423615    -1.7021374661    -0.0000000000
    2      H      -2.0688284730    -1.4402241233     0.0000000000
    3      H      -0.1233798667    -2.7756752113     0.0000000000
    4      H       0.0465189185     1.9881394681    -0.0000000000
    5      C      -1.2195356258     0.4021166886     0.0000000000
    6      O      -2.2592155329     1.0304381418     0.0000000000
    7      C       1.2879780632     0.3464493659    -0.0000000000
    8      O       2.3127366072     1.0053721559    -0.0000000000
    9      N       0.0344629504     0.9773985746    -0.0000000000
   10      N      -1.1728776526    -0.9822982369     0.0000000000
   11      C       1.2010703878    -1.1043341925    -0.0000000000
   12      H       2.1122009607    -1.6769912546    -0.0000000000
 ----------------------------------------------------------------
 Molecular Point Group                 Cs    NOp =  2
 Largest Abelian Subgroup              Cs    NOp =  2
 Nuclear Repulsion Energy =   357.0116303482 hartrees
 There are       29 alpha and       29 beta electrons
 Requested basis set is 6-311++G(d,p)
 There are 68 shells and 204 basis functions
MEM_TOTAL is adjusted to CC_MEMORY + MEM_STATIC!
 Total memory of 100192MB is distributed as follows: 
   QALLOC including MEM_STATIC uses 192MB
   MEM_STATIC is set to 192MB
   CCMAN JOB total memory use is  100000MB
 Warning: actual memory use might exceed 100192MB

 Total QAlloc Memory Limit    192 MB
 Mega-Array Size       188 MB
 MEM_STATIC part       192 MB

                       Distance Matrix (Angstroms)
             C (  1)   H (  2)   H (  3)   H (  4)   C (  5)   O (  6)
   H (  2)  2.078256
   H (  3)  1.079812  2.359703
   H (  4)  3.690667  4.028445  4.766843
   C (  5)  2.428535  2.028674  3.361535  2.029375
   O (  6)  3.541017  2.477987  4.364435  2.496718  1.214793
   C (  7)  2.423643  3.802677  3.426309  2.058244  2.508132  3.612537
   O (  8)  3.565452  5.017873  4.497886  2.470136  3.583415  4.572021
   N (  9)  2.679859  3.204487  3.756392  1.010813  1.379660  2.294292
   N ( 10)  1.370076  1.006193  2.077895  3.210986  1.385201  2.287190
   C ( 11)  1.348016  3.287105  2.132498  3.300967  2.851092  4.065813
   H ( 12)  2.119492  4.187728  2.490969  4.207164  3.927233  5.141931
             C (  7)   O (  8)   N (  9)   N ( 10)   C ( 11)
   O (  8)  1.218322
   N (  9)  1.403352  2.278445
   N ( 10)  2.796673  4.012523  2.301756
   C ( 11)  1.453384  2.384672  2.386333  2.377083
   H ( 12)  2.184870  2.689849  3.370872  3.357728  1.076148
 
 A cutoff of  1.0D-14 yielded   2246 shell pairs
 There are     20506 function pairs (     22152 Cartesian)
 
 -------------------------------------------------------
 OpenMP Integral Computing Module                       
 Release: version 1.0, May 2013, Q-Chem Inc. Pittsburgh 
 -------------------------------------------------------
 Integral Job Info:
 Integral job number is                      11
 Integral operator is                         1
 short-range coefficients                     0
 long-range coefficients              100000000
 Omega coefficients                           0
 if combine SR and LR in K                    0
 Integral screening is                        0
 Integral computing path is                   2
 max size of driver memory is            800000
 size of driver memory is                593474
 size of scratch memory is              2361544
 max col of scratch BK array               1296
 max len of scratch array in speh3          155
 max len of scratch index in speh4           18
 max int batch size is                      520
 min int batch size is                       52
 fixed nKL is                                52
 max L of basis functions is                  2
 order of int derivative is                   0
 number of shells is                         68
 number of basis is                         212
 number of cartesian basis is               212
 number of contracted shell pairs          2246
 number of primitive shell pairs           6171
 maxK2 (contraction) of shell pair           36
 max number of K2 of shell pair               1
 max number of CS2 of shell pair            315
 max number of PS2 of shell pair           1128
 mem total for path MDJ                  546230
 -------------------------------------------------------
 Smallest overlap matrix eigenvalue = 1.32E-05

 Scale SEOQF with 1.000000e-01/1.000000e-01/1.000000e-01

 Standard Electronic Orientation quadrupole field applied
 Nucleus-field energy     =     0.0000000098 hartrees
 Guess from superposition of atomic densities
 Warning:  Energy on first SCF cycle will be non-variational
 SAD guess density has 58.000000 electrons

 -----------------------------------------------------------------------
  General SCF calculation program by
  Eric Jon Sundstrom, Paul Horn, Yuezhi Mao, Dmitri Zuev, Alec White,
  David Stuck, Shaama M.S., Shane Yost, Joonho Lee, David Small,
  Daniel Levine, Susi Lehtola, Hugh Burton, Evgeny Epifanovsky
 -----------------------------------------------------------------------
 Hartree-Fock
 A restricted SCF calculation will be
 performed using DIIS
 SCF converges when DIIS error is below 1.0e-12
 ---------------------------------------
  Cycle       Energy         DIIS error
 ---------------------------------------
    1    -415.5118963559      5.16e-02  
    2    -412.3400668808      6.88e-03  
    3    -412.4467157910      5.86e-03  
    4    -412.5749217527      6.51e-04  
    5    -412.5785863070      2.36e-04  
    6    -412.5790950778      8.43e-05  
    7    -412.5792187176      4.35e-05  
    8    -412.5792467617      1.78e-05  
    9    -412.5792501784      5.81e-06  
   10    -412.5792505216      1.82e-06  
   11    -412.5792505599      8.51e-07  
   12    -412.5792505691      2.12e-07  
   13    -412.5792505697      9.06e-08  
   14    -412.5792505698      2.72e-08  
   15    -412.5792505698      1.10e-08  
   16    -412.5792505698      3.50e-09  
   17    -412.5792505698      1.06e-09  
   18    -412.5792505698      3.22e-10  
   19    -412.5792505698      9.06e-11  
   20    -412.5792505698      1.70e-11  
   21    -412.5792505698      5.15e-12  
   22    -412.5792505698      1.60e-12  
   23    -412.5792505698      4.39e-13  Convergence criterion met
 ---------------------------------------
 SCF time:   CPU 200.33s  wall 20.00s 
 SCF   energy in the final basis set =     -412.5792505698


 ------------------------------------------------------------------------------

   CCMAN2: suite of methods based on coupled cluster
           and equation of motion theories.

   Components:
   * libvmm-1.3-trunk
     by Evgeny Epifanovsky, Ilya Kaliman.
   * libtensor-2.5-trunk
     by Evgeny Epifanovsky, Michael Wormit, Dmitry Zuev, Sam Manzer, 
        Ilya Kaliman.
   * libcc-2.5-trunk
     by Evgeny Epifanovsky, Arik Landau, Tomasz Kus, Kirill Khistyaev, 
        Dmitry Zuev, Prashant Manohar, Xintian Feng, Anna Krylov, 
        Matthew Goldey, Alec White, Thomas Jagau, Kaushik Nanda, 
        Anastasia Gunina, Alexander Kunitsa, Joonho Lee.

   CCMAN original authors:
   Anna I. Krylov, C. David Sherrill, Steven R. Gwaltney,
   Edward F. C. Byrd (2000)
   Sergey V. Levchenko, Lyudmila V. Slipchenko, Tao Wang,
   Ana-Maria C. Cristian (2003)
   Piotr A. Pieniazek, C. Melania Oana, Evgeny Epifanovsky (2007)
   Prashant Manohar (2009)

 ------------------------------------------------------------------------------


 Calculation will run on 10 cores with 100000MB of RAM.

 
 Alpha MOs, Restricted
 -- Occupied --                  
-20.551 -20.545 -15.648 -15.631 -11.426 -11.387 -11.345 -11.260
  1 A'    2 A'    3 A'    4 A'    5 A'    6 A'    7 A'    8 A'                 
 -1.442  -1.404  -1.319  -1.250  -1.093  -0.938  -0.907  -0.812
  9 A'   10 A'   11 A'   12 A'   13 A'   14 A'   15 A'   16 A'                 
 -0.770  -0.719  -0.681  -0.671  -0.657  -0.619  -0.605  -0.573
 17 A'   18 A'   19 A'    1 A"   20 A'   21 A'   22 A'    2 A"                 
 -0.528  -0.487  -0.452  -0.439  -0.371
  3 A"   23 A'   24 A'    4 A"    5 A"                                         
 -- Virtual --                   
  0.023   0.048   0.061   0.071   0.074   0.091   0.102   0.109
 25 A'   26 A'   27 A'   28 A'    6 A"    7 A"   29 A'   30 A'                 
  0.129   0.134   0.138   0.146   0.158   0.161   0.167   0.176
  8 A"   31 A'    9 A"   32 A'   33 A'   10 A"   34 A'   35 A'                 
  0.186   0.192   0.198   0.199   0.219   0.229   0.243   0.251
 11 A"   36 A'   37 A'   38 A'   39 A'   40 A'   12 A"   41 A'                 
  0.256   0.286   0.292   0.298   0.310   0.320   0.339   0.354
 42 A'   13 A"   14 A"   43 A'   44 A'   45 A'   46 A'   47 A'                 
  0.369   0.383   0.386   0.397   0.407   0.408   0.415   0.428
 15 A"   48 A'   49 A'   50 A'   51 A'   16 A"   52 A'   53 A'                 
  0.430   0.443   0.469   0.485   0.497   0.518   0.556   0.557
 54 A'   55 A'   56 A'   57 A'   58 A'   59 A'   60 A'   61 A'                 
  0.634   0.668   0.697   0.706   0.739   0.742   0.758   0.771
 62 A'   63 A'   17 A"   64 A'   18 A"   65 A'   19 A"   66 A'                 
  0.786   0.796   0.832   0.854   0.907   0.928   0.945   0.967
 67 A'   20 A"   68 A'   69 A'   70 A'   71 A'   72 A'   73 A'                 
  0.976   0.996   1.014   1.019   1.048   1.056   1.081   1.099
 74 A'   75 A'   21 A"   76 A'   77 A'   22 A"   78 A'   79 A'                 
  1.140   1.209   1.225   1.242   1.251   1.302   1.358   1.359
 80 A'   81 A'   23 A"   24 A"   82 A'   83 A'   25 A"   84 A'                 
  1.376   1.398   1.415   1.419   1.432   1.438   1.457   1.501
 26 A"   27 A"   85 A'   28 A"   86 A'   87 A'   29 A"   88 A'                 
  1.511   1.528   1.575   1.746   1.779   1.796   1.811   1.883
 30 A"   89 A'   90 A'   91 A'   92 A'   93 A'   31 A"   94 A'                 
  1.896   1.909   1.925   1.951   1.970   2.011   2.011   2.067
 32 A"   95 A'   33 A"   96 A'   97 A'   34 A"   98 A'   99 A'                 
  2.118   2.137   2.187   2.220   2.223   2.272   2.292   2.339
100 A'  101 A'  102 A'   35 A"  103 A'  104 A'  105 A'   36 A"                 
  2.345   2.529   2.556   2.580   2.642   2.659   2.723   2.798
106 A'  107 A'   37 A"  108 A'   38 A"  109 A'   39 A"  110 A'                 
  2.820   2.848   2.915   2.960   3.000   3.015   3.041   3.070
 40 A"  111 A'  112 A'  113 A'  114 A'  115 A'  116 A'   41 A"                 
  3.144   3.170   3.173   3.207   3.260   3.263   3.291   3.307
 42 A"   43 A"  117 A'  118 A'   44 A"  119 A'  120 A'   45 A"                 
  3.314   3.343   3.394   3.506   3.568   3.751   3.762   3.799
121 A'   46 A"  122 A'  123 A'  124 A'   47 A"   48 A"  125 A'                 
  3.831   3.872   3.908   3.954   4.016   4.052   4.098   4.282
126 A'  127 A'  128 A'  129 A'  130 A'  131 A'  132 A'  133 A'                 
  4.289   4.337   4.416   4.485   4.623   5.193   5.283   5.348
 49 A"   50 A"  134 A'  135 A'  136 A'  137 A'  138 A'  139 A'                 
  5.600   5.627   5.686   5.763   5.857   6.328   6.365  24.853
 51 A"   52 A"  140 A'  141 A'  142 A'  143 A'  144 A'  145 A'                 
 24.967  25.028  25.324  36.989  37.046  51.709  51.753
146 A'  147 A'  148 A'  149 A'  150 A'  151 A'  152 A'                         
 
 Beta MOs, Restricted
 -- Occupied --                  
-20.551 -20.545 -15.648 -15.631 -11.426 -11.387 -11.345 -11.260
  1 A'    2 A'    3 A'    4 A'    5 A'    6 A'    7 A'    8 A'                 
 -1.442  -1.404  -1.319  -1.250  -1.093  -0.938  -0.907  -0.812
  9 A'   10 A'   11 A'   12 A'   13 A'   14 A'   15 A'   16 A'                 
 -0.770  -0.719  -0.681  -0.671  -0.657  -0.619  -0.605  -0.573
 17 A'   18 A'   19 A'    1 A"   20 A'   21 A'   22 A'    2 A"                 
 -0.528  -0.487  -0.452  -0.439  -0.371
  3 A"   23 A'   24 A'    4 A"    5 A"                                         
 -- Virtual --                   
  0.023   0.048   0.061   0.071   0.074   0.091   0.102   0.109
 25 A'   26 A'   27 A'   28 A'    6 A"    7 A"   29 A'   30 A'                 
  0.129   0.134   0.138   0.146   0.158   0.161   0.167   0.176
  8 A"   31 A'    9 A"   32 A'   33 A'   10 A"   34 A'   35 A'                 
  0.186   0.192   0.198   0.199   0.219   0.229   0.243   0.251
 11 A"   36 A'   37 A'   38 A'   39 A'   40 A'   12 A"   41 A'                 
  0.256   0.286   0.292   0.298   0.310   0.320   0.339   0.354
 42 A'   13 A"   14 A"   43 A'   44 A'   45 A'   46 A'   47 A'                 
  0.369   0.383   0.386   0.397   0.407   0.408   0.415   0.428
 15 A"   48 A'   49 A'   50 A'   51 A'   16 A"   52 A'   53 A'                 
  0.430   0.443   0.469   0.485   0.497   0.518   0.556   0.557
 54 A'   55 A'   56 A'   57 A'   58 A'   59 A'   60 A'   61 A'                 
  0.634   0.668   0.697   0.706   0.739   0.742   0.758   0.771
 62 A'   63 A'   17 A"   64 A'   18 A"   65 A'   19 A"   66 A'                 
  0.786   0.796   0.832   0.854   0.907   0.928   0.945   0.967
 67 A'   20 A"   68 A'   69 A'   70 A'   71 A'   72 A'   73 A'                 
  0.976   0.996   1.014   1.019   1.048   1.056   1.081   1.099
 74 A'   75 A'   21 A"   76 A'   77 A'   22 A"   78 A'   79 A'                 
  1.140   1.209   1.225   1.242   1.251   1.302   1.358   1.359
 80 A'   81 A'   23 A"   24 A"   82 A'   83 A'   25 A"   84 A'                 
  1.376   1.398   1.415   1.419   1.432   1.438   1.457   1.501
 26 A"   27 A"   85 A'   28 A"   86 A'   87 A'   29 A"   88 A'                 
  1.511   1.528   1.575   1.746   1.779   1.796   1.811   1.883
 30 A"   89 A'   90 A'   91 A'   92 A'   93 A'   31 A"   94 A'                 
  1.896   1.909   1.925   1.951   1.970   2.011   2.011   2.067
 32 A"   95 A'   33 A"   96 A'   97 A'   34 A"   98 A'   99 A'                 
  2.118   2.137   2.187   2.220   2.223   2.272   2.292   2.339
100 A'  101 A'  102 A'   35 A"  103 A'  104 A'  105 A'   36 A"                 
  2.345   2.529   2.556   2.580   2.642   2.659   2.723   2.798
106 A'  107 A'   37 A"  108 A'   38 A"  109 A'   39 A"  110 A'                 
  2.820   2.848   2.915   2.960   3.000   3.015   3.041   3.070
 40 A"  111 A'  112 A'  113 A'  114 A'  115 A'  116 A'   41 A"                 
  3.144   3.170   3.173   3.207   3.260   3.263   3.291   3.307
 42 A"   43 A"  117 A'  118 A'   44 A"  119 A'  120 A'   45 A"                 
  3.314   3.343   3.394   3.506   3.568   3.751   3.762   3.799
121 A'   46 A"  122 A'  123 A'  124 A'   47 A"   48 A"  125 A'                 
  3.831   3.872   3.908   3.954   4.016   4.052   4.098   4.282
126 A'  127 A'  128 A'  129 A'  130 A'  131 A'  132 A'  133 A'                 
  4.289   4.337   4.416   4.485   4.623   5.193   5.283   5.348
 49 A"   50 A"  134 A'  135 A'  136 A'  137 A'  138 A'  139 A'                 
  5.600   5.627   5.686   5.763   5.857   6.328   6.365  24.853
 51 A"   52 A"  140 A'  141 A'  142 A'  143 A'  144 A'  145 A'                 
 24.967  25.028  25.324  36.989  37.046  51.709  51.753
146 A'  147 A'  148 A'  149 A'  150 A'  151 A'  152 A'                         

 Occupation and symmetry of molecular orbitals

 Point group: Cs (2 irreducible representations).

                           A'   A"    All 
 ------------------------------------------
 All molecular orbitals:
  - Alpha                  152  52    204 
  - Beta                   152  52    204 
 ------------------------------------------
 Alpha orbitals:
  - Frozen occupied        2    0     2   
  - Active occupied        22   5     27  
  - Active virtual         128  47    175 
  - Frozen virtual         0    0     0   
 ------------------------------------------
 Beta orbitals:
  - Frozen occupied        2    0     2   
  - Active occupied        22   5     27  
  - Active virtual         128  47    175 
  - Frozen virtual         0    0     0   
 ------------------------------------------

 Import integrals:   CPU 0.00 s  wall 0.00 s

 Import integrals:   CPU 280.98 s  wall 31.29 s

 MP2 amplitudes:   CPU 1.99 s  wall 1.29 s

           CCSD T amplitudes will be solved using DIIS.

           Start     Size      MaxIter   EConv     TConv     
           3         7         100       1.00e-12  1.00e-11  
 ------------------------------------------------------------------------------
           Energy (a.u.)   Ediff      Tdiff       Comment
 ------------------------------------------------------------------------------
          -413.96353496                           
     1    -413.93870200   2.48e-02   1.02e+00     
     2    -413.98340762   4.47e-02   1.36e-01     
     3    -413.97960675   3.80e-03   5.68e-02     
     4    -413.98423050   4.62e-03   2.40e-02     Switched to DIIS steps.
     5    -413.98584326   1.61e-03   1.33e-02     
     6    -413.98599180   1.49e-04   3.42e-03     
     7    -413.98599457   2.77e-06   1.38e-03     
     8    -413.98599038   4.19e-06   4.33e-04     
     9    -413.98599296   2.58e-06   1.76e-04     
    10    -413.98599285   1.10e-07   5.46e-05     
    11    -413.98599337   5.25e-07   3.26e-05     
    12    -413.98599335   2.19e-08   1.71e-05     
    13    -413.98599328   7.60e-08   8.43e-06     
    14    -413.98599318   9.18e-08   3.21e-06     
    15    -413.98599317   1.75e-08   1.46e-06     
    16    -413.98599314   2.41e-08   6.76e-07     
    17    -413.98599314   6.31e-09   2.66e-07     
    18    -413.98599313   2.16e-09   1.22e-07     
    19    -413.98599313   7.16e-10   3.94e-08     
    20    -413.98599313   2.61e-10   2.42e-08     
    21    -413.98599313   4.09e-11   9.56e-09     
    22    -413.98599313   3.30e-11   5.39e-09     
    23    -413.98599313   1.10e-11   2.30e-09     
    24    -413.98599313   1.81e-11   1.22e-09     
    25    -413.98599313   3.03e-12   6.20e-10     
    26    -413.98599313   1.24e-12   3.11e-10     
    27    -413.98599313   1.27e-13   1.46e-10     
    28    -413.98599313   4.26e-14   6.95e-11     
    29    -413.98599313   1.38e-13   4.16e-11     
    30    -413.98599313   1.07e-13   1.69e-11     
    31    -413.98599313   4.42e-14   9.31e-12     
 ------------------------------------------------------------------------------
          -413.98599313                           CCSD T converged.

 SCF energy                 = -412.57925057
 MP2 energy                 = -413.96353496
 CCSD correlation energy     =   -1.40674256
 CCSD total energy           = -413.98599313

 CCSD  T1^2 = 0.0265  T2^2 = 0.4136  Leading amplitudes:

 Amplitude    Orbitals with energies
  0.0317       2 (A") A                  ->    9 (A") A                   
              -0.5735                          0.1381                     
  0.0317       2 (A") B                  ->    9 (A") B                   
              -0.5735                          0.1381                     
 -0.0316       2 (A") A                  ->    6 (A") A                   
              -0.5735                          0.0738                     
 -0.0316       2 (A") B                  ->    6 (A") B                   
              -0.5735                          0.0738                     

 Amplitude    Orbitals with energies
 -0.0511       5 (A") A      5 (A") B    ->    6 (A") A      6 (A") B     
              -0.3713       -0.3713            0.0738        0.0738       
  0.0511       5 (A") A      5 (A") B    ->    6 (A") B      6 (A") A     
              -0.3713       -0.3713            0.0738        0.0738       
  0.0511       5 (A") B      5 (A") A    ->    6 (A") A      6 (A") B     
              -0.3713       -0.3713            0.0738        0.0738       
 -0.0511       5 (A") B      5 (A") A    ->    6 (A") B      6 (A") A     
              -0.3713       -0.3713            0.0738        0.0738       

 Computing CCSD intermediates for later calculations
 Finished.

           CCSD Lambda amplitudes will be solved using DIIS.
           Start     Size      MaxIter   EConv     LConv     
           3         7         100       1.00e-12  1.00e-11  
 ------------------------------------------------------------------------------
            Enorm      Ldiff       Comment
 ------------------------------------------------------------------------------
     1     7.17e-02   4.16e-02     
     2     2.68e-02   9.10e-03     
     3     1.22e-02   4.83e-04     
     4     5.02e-03   1.66e-03     Switched to DIIS steps.
     5     1.46e-03   9.44e-04     
     6     6.44e-04   2.02e-04     
     7     2.27e-04   5.43e-05     
     8     9.75e-05   1.04e-05     
     9     4.04e-05   3.53e-06     
    10     1.95e-05   1.40e-06     
    11     8.60e-06   1.74e-07     
    12     3.37e-06   1.73e-07     
    13     1.38e-06   2.42e-08     
    14     5.84e-07   5.81e-09     
    15     2.44e-07   3.94e-08     
    16     1.07e-07   7.48e-09     
    17     5.23e-08   5.26e-09     
    18     2.22e-08   4.12e-09     
    19     1.06e-08   4.27e-11     
    20     5.32e-09   1.52e-10     
    21     2.38e-09   1.23e-10     
    22     1.09e-09   1.54e-10     
    23     5.33e-10   7.68e-11     
    24     2.31e-10   1.85e-11     
    25     1.11e-10   9.47e-12     
    26     5.86e-11   3.36e-12     
    27     2.78e-11   1.21e-12     
    28     1.35e-11   8.53e-14     
    29     6.34e-12   6.62e-14     
    30     3.18e-12   1.84e-13     
    31     1.39e-12   3.64e-14     
    32     7.26e-13   2.53e-14     
 ------------------------------------------------------------------------------
                                   CCSD Lambda converged.

 CCSD calculation:   CPU 6208.62 s  wall 693.29 s

        Solving for CVS-EOMEE-CCSD A' singlet states.

       EOMEE-CCSD-SINGLES right amplitudes will be solved using Davidson.
        Amplitudes will be solved using shifted  algorithm.
     Hard-coded thresholds: 
     LinDepThresh=1.00e-15  NormThresh=1.00e-06  ReorthogonThresh=1.00e-02

      Roots     MaxVec    MaxIter   Precond   Conv      Shift    
      10        1000      200       1         1.00e-04  1.96e+01  
 ------------------------------------------------------------------------------
      Iter ConvRoots NVecs ResNorm Current eigenvalues (eV)
 ------------------------------------------------------------------------------
      0    0      10    1.72e-03   556.8131   557.2072   557.6014   557.7448   558.1509   558.3570   558.6573   558.7522   559.1681   559.2635   
      1    0      20    2.69e-02   556.4037   556.7256   557.3306   557.5651   558.0434   558.2606   558.3293   558.4334   559.0246   559.1677   
      2    0      30    4.15e-03   555.5762   555.7780   556.4947   556.8177   557.3977   557.6528   557.8174   557.8455   558.5881   558.8004   
      3    0      40    3.82e-03   555.5013   555.7021   556.3501   556.7013   556.8937   557.1781   557.6384   557.7011   558.4049   558.4704   
      4    5      50    4.29e-04   555.4959*  555.6972*  556.3418*  556.6971*  556.8082   557.0816   557.6218   557.6904*  558.3762   558.4338   
      5    10     55    1.94e-05   555.4957*  555.6971*  556.3415*  556.6971*  556.8029*  557.0774*  557.6208*  557.6899*  558.3735*  558.4295*  

     Davidson procedure converged

        CVS-EOMEE-CCSD/MP2 right amplitudes will be solved using Davidson.
        Amplitudes will be solved using shifted  algorithm.
     Hard-coded thresholds: 
     LinDepThresh=1.00e-15  NormThresh=1.00e-06  ReorthogonThresh=1.00e-02

      Roots     MaxVec    MaxIter   Precond   Conv      Shift    
      10        1000      200       1         1.00e-04  1.96e+01  
 ------------------------------------------------------------------------------
      Iter ConvRoots NVecs ResNorm Current eigenvalues (eV)
 ------------------------------------------------------------------------------
      0    0      10    3.74e+00   555.4957   555.6971   556.3415   556.6971   556.8029   557.0774   557.6208   557.6899   558.3735   558.4295   
      1    0      20    2.75e+00   552.3717   552.5853   553.2787   553.6342   553.9287   554.1774   554.4108   554.4566   555.1281   555.2021   
      2    0      30    1.62e-01   537.4188   537.6507   538.4530   538.7235   539.1966   539.3199   539.7226   540.0722   541.0840   541.1206   
      3    0      40    3.31e-02   536.5702   536.7674   537.4913   537.6255   538.1413   538.3580   538.7059   539.0499   539.7318   539.8142   
      4    0      50    7.12e-03   536.5344   536.7257   537.4354   537.5830   538.0011   538.2480   538.6458   538.9446   539.2917   539.3794   
      5    0      60    1.20e-02   536.5207   536.7084   537.3955   537.5568   537.9026   538.1699   538.6088   538.8332   538.9082   539.0379   
      6    0      70    5.04e-03   536.5078   536.6919   537.3630   537.5290   537.8192   538.0968   538.5341   538.6454   538.6785   538.9033   
      7    0      80    3.91e-03   536.5025   536.6834   537.3438   537.5105   537.7749   538.0513   538.3925   538.4661   538.5951   538.8378   
      8    1      90    1.66e-03   536.5014*  536.6806   537.3358   537.5031   537.7571   538.0314   538.3084   538.3728   538.5755   538.8099   
      9    2      99    1.03e-03   536.5012*  536.6786*  537.3300   537.4964   537.7405   538.0174   538.2624   538.3158   538.5643   538.7906   
      10   2      107   6.78e-04   536.5011*  536.6779*  537.3273   537.4934   537.7312   538.0106   538.2354   538.2951   538.5584   538.7788   
      11   4      115   2.94e-04   536.5011*  536.6776*  537.3265*  537.4924*  537.7269   538.0055   538.2233   538.2795   538.5541   538.7710   
      12   4      121   2.19e-04   536.5010*  536.6775*  537.3255*  537.4912*  537.7230   538.0035   538.2187   538.2765   538.5507   538.7659   
      13   4      127   1.56e-04   536.5010*  536.6773*  537.3254*  537.4909*  537.7207   538.0012   538.2104   538.2722   538.5474   538.7622   
      14   5      133   1.35e-04   536.5011*  536.6773*  537.3250*  537.4907*  537.7187*  537.9996   538.2076   538.2681   538.5423   538.7575   
      15   6      138   1.03e-04   536.5010*  536.6772*  537.3250*  537.4905*  537.7182*  537.9982*  538.2033   538.2660   538.5390   538.7539   
      16   8      142   6.05e-05   536.5011*  536.6773*  537.3250*  537.4904*  537.7182*  537.9987*  538.2035*  538.2654*  538.5383   538.7527   
Found complex roots...
      17   8      144   5.99e-05   536.5011*  536.6773*  537.3250*  537.4904*  537.7182*  537.9983*  538.2028*  538.2644*  538.5373   538.7500   
Found complex roots...
      18   9      146   4.43e-05   536.5011*  536.6773*  537.3249*  537.4904*  537.7178*  537.9975*  538.2027*  538.2639*  538.5347*  538.7474   
      19   9      147   4.16e-05   536.5010*  536.6773*  537.3249*  537.4904*  537.7178*  537.9973*  538.2027*  538.2633*  538.5347*  538.7463   
      20   10     148   3.67e-05   536.5010*  536.6773*  537.3249*  537.4904*  537.7178*  537.9977*  538.2027*  538.2634*  538.5347*  538.7456*  

     Davidson procedure converged

 EOMEE transition 1/A'
 Total energy = -394.26994265 a.u.  Excitation energy = 536.5010 eV.
 R0^2 = 0.0000  R1^2 = 0.8258  R2_CCVV^2 = 0.0005  R2_COVV^2 = 0.0869  Res^2 = 2.64e-05
 Conv-d = yes

 Amplitude    Transitions between orbitals
  0.3856       1 (A') A                  ->    27 (A') A                  
  0.3856       1 (A') B                  ->    27 (A') B                  
  0.3492       1 (A') A                  ->    25 (A') A                  
  0.3492       1 (A') B                  ->    25 (A') B                  
  0.2034       1 (A') A                  ->    26 (A') A                  
  0.2034       1 (A') B                  ->    26 (A') B                  
  0.1835       1 (A') A                  ->    30 (A') A                  
  0.1835       1 (A') B                  ->    30 (A') B                  
 -0.1397       1 (A') A                  ->    29 (A') A                  
 -0.1397       1 (A') B                  ->    29 (A') B                  
  0.1030       1 (A') A                  ->    40 (A') A                  
  0.1030       1 (A') B                  ->    40 (A') B                  

              Summary of significant orbitals:

               Number  Type             Irrep      Energy
               1       Occ  Alpha       1 (A')    -20.5505
               1       Occ  Beta        1 (A')    -20.5505
               30      Vir  Alpha      25 (A')      0.0232
               31      Vir  Alpha      26 (A')      0.0482
               32      Vir  Alpha      27 (A')      0.0607
               36      Vir  Alpha      29 (A')      0.1020
               37      Vir  Alpha      30 (A')      0.1094
               51      Vir  Alpha      40 (A')      0.2293
               30      Vir  Beta       25 (A')      0.0232
               31      Vir  Beta       26 (A')      0.0482
               32      Vir  Beta       27 (A')      0.0607
               36      Vir  Beta       29 (A')      0.1020
               37      Vir  Beta       30 (A')      0.1094
               51      Vir  Beta       40 (A')      0.2293


 EOMEE transition 2/A'
 Total energy = -394.26346637 a.u.  Excitation energy = 536.6772 eV.
 R0^2 = 0.0000  R1^2 = 0.8243  R2_CCVV^2 = 0.0005  R2_COVV^2 = 0.0876  Res^2 = 1.09e-05
 Conv-d = yes

 Amplitude    Transitions between orbitals
 -0.4329       2 (A') A                  ->    27 (A') A                  
 -0.4329       2 (A') B                  ->    27 (A') B                  
 -0.2258       2 (A') A                  ->    25 (A') A                  
 -0.2258       2 (A') B                  ->    25 (A') B                  
  0.2114       2 (A') A                  ->    30 (A') A                  
  0.2114       2 (A') B                  ->    30 (A') B                  
  0.2082       2 (A') A                  ->    26 (A') A                  
  0.2082       2 (A') B                  ->    26 (A') B                  
  0.1355       2 (A') A                  ->    34 (A') A                  
  0.1355       2 (A') B                  ->    34 (A') B                  
  0.1345       2 (A') A                  ->    31 (A') A                  
  0.1345       2 (A') B                  ->    31 (A') B                  
  0.1304       2 (A') A                  ->    29 (A') A                  
  0.1304       2 (A') B                  ->    29 (A') B                  

              Summary of significant orbitals:

               Number  Type             Irrep      Energy
               2       Occ  Alpha       2 (A')    -20.5450
               2       Occ  Beta        2 (A')    -20.5450
               30      Vir  Alpha      25 (A')      0.0232
               31      Vir  Alpha      26 (A')      0.0482
               32      Vir  Alpha      27 (A')      0.0607
               36      Vir  Alpha      29 (A')      0.1020
               37      Vir  Alpha      30 (A')      0.1094
               39      Vir  Alpha      31 (A')      0.1338
               44      Vir  Alpha      34 (A')      0.1673
               30      Vir  Beta       25 (A')      0.0232
               31      Vir  Beta       26 (A')      0.0482
               32      Vir  Beta       27 (A')      0.0607
               36      Vir  Beta       29 (A')      0.1020
               37      Vir  Beta       30 (A')      0.1094
               39      Vir  Beta       31 (A')      0.1338
               44      Vir  Beta       34 (A')      0.1673


 EOMEE transition 3/A'
 Total energy = -394.23966595 a.u.  Excitation energy = 537.3249 eV.
 R0^2 = 0.0000  R1^2 = 0.8238  R2_CCVV^2 = 0.0005  R2_COVV^2 = 0.0879  Res^2 = 8.94e-06
 Conv-d = yes

 Amplitude    Transitions between orbitals
 -0.3132       1 (A') A                  ->    25 (A') A                  
 -0.3132       1 (A') B                  ->    25 (A') B                  
  0.3043       1 (A') A                  ->    27 (A') A                  
  0.3043       1 (A') B                  ->    27 (A') B                  
  0.3020       1 (A') A                  ->    28 (A') A                  
  0.3020       1 (A') B                  ->    28 (A') B                  
 -0.2080       1 (A') A                  ->    26 (A') A                  
 -0.2080       1 (A') B                  ->    26 (A') B                  
  0.1312       1 (A') A                  ->    30 (A') A                  
  0.1312       1 (A') B                  ->    30 (A') B                  
 -0.1245       1 (A') A                  ->    33 (A') A                  
 -0.1245       1 (A') B                  ->    33 (A') B                  
 -0.1179       1 (A') A                  ->    32 (A') A                  
 -0.1179       1 (A') B                  ->    32 (A') B                  

              Summary of significant orbitals:

               Number  Type             Irrep      Energy
               1       Occ  Alpha       1 (A')    -20.5505
               1       Occ  Beta        1 (A')    -20.5505
               30      Vir  Alpha      25 (A')      0.0232
               31      Vir  Alpha      26 (A')      0.0482
               32      Vir  Alpha      27 (A')      0.0607
               33      Vir  Alpha      28 (A')      0.0708
               37      Vir  Alpha      30 (A')      0.1094
               41      Vir  Alpha      32 (A')      0.1457
               42      Vir  Alpha      33 (A')      0.1581
               30      Vir  Beta       25 (A')      0.0232
               31      Vir  Beta       26 (A')      0.0482
               32      Vir  Beta       27 (A')      0.0607
               33      Vir  Beta       28 (A')      0.0708
               37      Vir  Beta       30 (A')      0.1094
               41      Vir  Beta       32 (A')      0.1457
               42      Vir  Beta       33 (A')      0.1581


 EOMEE transition 4/A'
 Total energy = -394.23358252 a.u.  Excitation energy = 537.4904 eV.
 R0^2 = 0.0000  R1^2 = 0.8187  R2_CCVV^2 = 0.0005  R2_COVV^2 = 0.0904  Res^2 = 1.82e-05
 Conv-d = yes

 Amplitude    Transitions between orbitals
  0.4297       2 (A') A                  ->    25 (A') A                  
  0.4297       2 (A') B                  ->    25 (A') B                  
 -0.2769       2 (A') A                  ->    28 (A') A                  
 -0.2769       2 (A') B                  ->    28 (A') B                  
 -0.2295       2 (A') A                  ->    27 (A') A                  
 -0.2295       2 (A') B                  ->    27 (A') B                  
 -0.2004       2 (A') A                  ->    26 (A') A                  
 -0.2004       2 (A') B                  ->    26 (A') B                  
  0.1050       2 (A') A                  ->    31 (A') A                  
  0.1050       2 (A') B                  ->    31 (A') B                  

              Summary of significant orbitals:

               Number  Type             Irrep      Energy
               2       Occ  Alpha       2 (A')    -20.5450
               2       Occ  Beta        2 (A')    -20.5450
               30      Vir  Alpha      25 (A')      0.0232
               31      Vir  Alpha      26 (A')      0.0482
               32      Vir  Alpha      27 (A')      0.0607
               33      Vir  Alpha      28 (A')      0.0708
               39      Vir  Alpha      31 (A')      0.1338
               30      Vir  Beta       25 (A')      0.0232
               31      Vir  Beta       26 (A')      0.0482
               32      Vir  Beta       27 (A')      0.0607
               33      Vir  Beta       28 (A')      0.0708
               39      Vir  Beta       31 (A')      0.1338


 EOMEE transition 5/A'
 Total energy = -394.22522673 a.u.  Excitation energy = 537.7178 eV.
 R0^2 = 0.0000  R1^2 = 0.8191  R2_CCVV^2 = 0.0005  R2_COVV^2 = 0.0902  Res^2 = 2.91e-05
 Conv-d = yes

 Amplitude    Transitions between orbitals
 -0.3523       2 (A') A                  ->    25 (A') A                  
 -0.3523       2 (A') B                  ->    25 (A') B                  
 -0.3357       2 (A') A                  ->    26 (A') A                  
 -0.3357       2 (A') B                  ->    26 (A') B                  
 -0.2649       2 (A') A                  ->    28 (A') A                  
 -0.2649       2 (A') B                  ->    28 (A') B                  
 -0.1677       2 (A') A                  ->    31 (A') A                  
 -0.1677       2 (A') B                  ->    31 (A') B                  
 -0.1248       2 (A') A                  ->    32 (A') A                  
 -0.1248       2 (A') B                  ->    32 (A') B                  
 -0.1224       2 (A') A                  ->    35 (A') A                  
 -0.1224       2 (A') B                  ->    35 (A') B                  
 -0.1211       2 (A') A                  ->    30 (A') A                  
 -0.1211       2 (A') B                  ->    30 (A') B                  

              Summary of significant orbitals:

               Number  Type             Irrep      Energy
               2       Occ  Alpha       2 (A')    -20.5450
               2       Occ  Beta        2 (A')    -20.5450
               30      Vir  Alpha      25 (A')      0.0232
               31      Vir  Alpha      26 (A')      0.0482
               33      Vir  Alpha      28 (A')      0.0708
               37      Vir  Alpha      30 (A')      0.1094
               39      Vir  Alpha      31 (A')      0.1338
               41      Vir  Alpha      32 (A')      0.1457
               45      Vir  Alpha      35 (A')      0.1764
               30      Vir  Beta       25 (A')      0.0232
               31      Vir  Beta       26 (A')      0.0482
               33      Vir  Beta       28 (A')      0.0708
               37      Vir  Beta       30 (A')      0.1094
               39      Vir  Beta       31 (A')      0.1338
               41      Vir  Beta       32 (A')      0.1457
               45      Vir  Beta       35 (A')      0.1764


 EOMEE transition 6/A'
 Total energy = -394.21494266 a.u.  Excitation energy = 537.9976 eV.
 R0^2 = 0.0000  R1^2 = 0.8222  R2_CCVV^2 = 0.0005  R2_COVV^2 = 0.0886  Res^2 = 1.16e-05
 Conv-d = yes

 Amplitude    Transitions between orbitals
  0.3622       1 (A') A                  ->    25 (A') A                  
  0.3622       1 (A') B                  ->    25 (A') B                  
 -0.2637       1 (A') A                  ->    26 (A') A                  
 -0.2637       1 (A') B                  ->    26 (A') B                  
 -0.2610       1 (A') A                  ->    30 (A') A                  
 -0.2610       1 (A') B                  ->    30 (A') B                  
  0.2599       1 (A') A                  ->    28 (A') A                  
  0.2599       1 (A') B                  ->    28 (A') B                  
  0.1755       1 (A') A                  ->    31 (A') A                  
  0.1755       1 (A') B                  ->    31 (A') B                  
 -0.1013       1 (A') A                  ->    33 (A') A                  
 -0.1013       1 (A') B                  ->    33 (A') B                  

              Summary of significant orbitals:

               Number  Type             Irrep      Energy
               1       Occ  Alpha       1 (A')    -20.5505
               1       Occ  Beta        1 (A')    -20.5505
               30      Vir  Alpha      25 (A')      0.0232
               31      Vir  Alpha      26 (A')      0.0482
               33      Vir  Alpha      28 (A')      0.0708
               37      Vir  Alpha      30 (A')      0.1094
               39      Vir  Alpha      31 (A')      0.1338
               42      Vir  Alpha      33 (A')      0.1581
               30      Vir  Beta       25 (A')      0.0232
               31      Vir  Beta       26 (A')      0.0482
               33      Vir  Beta       28 (A')      0.0708
               37      Vir  Beta       30 (A')      0.1094
               39      Vir  Beta       31 (A')      0.1338
               42      Vir  Beta       33 (A')      0.1581


 EOMEE transition 7/A'
 Total energy = -394.20740791 a.u.  Excitation energy = 538.2027 eV.
 R0^2 = 0.0000  R1^2 = 0.8196  R2_CCVV^2 = 0.0005  R2_COVV^2 = 0.0900  Res^2 = 6.23e-05
 Conv-d = yes

 Amplitude    Transitions between orbitals
 -0.4697       2 (A') A                  ->    29 (A') A                  
 -0.4697       2 (A') B                  ->    29 (A') B                  
  0.2971       2 (A') A                  ->    26 (A') A                  
  0.2971       2 (A') B                  ->    26 (A') B                  
 -0.1633       2 (A') A                  ->    28 (A') A                  
 -0.1633       2 (A') B                  ->    28 (A') B                  
 -0.1146       2 (A') A                  ->    39 (A') A                  
 -0.1146       2 (A') B                  ->    39 (A') B                  
 -0.1123       2 (A') A                  ->    38 (A') A                  
 -0.1123       2 (A') B                  ->    38 (A') B                  
 -0.1001       2 (A') A                  ->    31 (A') A                  
 -0.1001       2 (A') B                  ->    31 (A') B                  

              Summary of significant orbitals:

               Number  Type             Irrep      Energy
               2       Occ  Alpha       2 (A')    -20.5450
               2       Occ  Beta        2 (A')    -20.5450
               31      Vir  Alpha      26 (A')      0.0482
               33      Vir  Alpha      28 (A')      0.0708
               36      Vir  Alpha      29 (A')      0.1020
               39      Vir  Alpha      31 (A')      0.1338
               49      Vir  Alpha      38 (A')      0.1991
               50      Vir  Alpha      39 (A')      0.2188
               31      Vir  Beta       26 (A')      0.0482
               33      Vir  Beta       28 (A')      0.0708
               36      Vir  Beta       29 (A')      0.1020
               39      Vir  Beta       31 (A')      0.1338
               49      Vir  Beta       38 (A')      0.1991
               50      Vir  Beta       39 (A')      0.2188


 EOMEE transition 8/A'
 Total energy = -394.20517610 a.u.  Excitation energy = 538.2634 eV.
 R0^2 = 0.0000  R1^2 = 0.8229  R2_CCVV^2 = 0.0005  R2_COVV^2 = 0.0883  Res^2 = 2.90e-05
 Conv-d = yes

 Amplitude    Transitions between orbitals
 -0.5252       1 (A') A                  ->    29 (A') A                  
 -0.5252       1 (A') B                  ->    29 (A') B                  
 -0.2130       1 (A') A                  ->    26 (A') A                  
 -0.2130       1 (A') B                  ->    26 (A') B                  
 -0.1320       1 (A') A                  ->    28 (A') A                  
 -0.1320       1 (A') B                  ->    28 (A') B                  
 -0.1110       1 (A') A                  ->    43 (A') A                  
 -0.1110       1 (A') B                  ->    43 (A') B                  
 -0.1097       1 (A') A                  ->    27 (A') A                  
 -0.1097       1 (A') B                  ->    27 (A') B                  
 -0.1006       1 (A') A                  ->    40 (A') A                  
 -0.1006       1 (A') B                  ->    40 (A') B                  

              Summary of significant orbitals:

               Number  Type             Irrep      Energy
               1       Occ  Alpha       1 (A')    -20.5505
               1       Occ  Beta        1 (A')    -20.5505
               31      Vir  Alpha      26 (A')      0.0482
               32      Vir  Alpha      27 (A')      0.0607
               33      Vir  Alpha      28 (A')      0.0708
               36      Vir  Alpha      29 (A')      0.1020
               51      Vir  Alpha      40 (A')      0.2293
               57      Vir  Alpha      43 (A')      0.2976
               31      Vir  Beta       26 (A')      0.0482
               32      Vir  Beta       27 (A')      0.0607
               33      Vir  Beta       28 (A')      0.0708
               36      Vir  Beta       29 (A')      0.1020
               51      Vir  Beta       40 (A')      0.2293
               57      Vir  Beta       43 (A')      0.2976


 EOMEE transition 9/A'
 Total energy = -394.19520487 a.u.  Excitation energy = 538.5347 eV.
 R0^2 = 0.0000  R1^2 = 0.8195  R2_CCVV^2 = 0.0005  R2_COVV^2 = 0.0900  Res^2 = 7.27e-05
 Conv-d = yes

 Amplitude    Transitions between orbitals
 -0.3352       2 (A') A                  ->    30 (A') A                  
 -0.3352       2 (A') B                  ->    30 (A') B                  
  0.2965       2 (A') A                  ->    26 (A') A                  
  0.2965       2 (A') B                  ->    26 (A') B                  
  0.2587       2 (A') A                  ->    29 (A') A                  
  0.2587       2 (A') B                  ->    29 (A') B                  
 -0.1780       2 (A') A                  ->    31 (A') A                  
 -0.1780       2 (A') B                  ->    31 (A') B                  
  0.1564       2 (A') A                  ->    33 (A') A                  
  0.1564       2 (A') B                  ->    33 (A') B                  
 -0.1495       2 (A') A                  ->    28 (A') A                  
 -0.1495       2 (A') B                  ->    28 (A') B                  
 -0.1408       2 (A') A                  ->    32 (A') A                  
 -0.1408       2 (A') B                  ->    32 (A') B                  
  0.1300       2 (A') A                  ->    25 (A') A                  
  0.1300       2 (A') B                  ->    25 (A') B                  

              Summary of significant orbitals:

               Number  Type             Irrep      Energy
               2       Occ  Alpha       2 (A')    -20.5450
               2       Occ  Beta        2 (A')    -20.5450
               30      Vir  Alpha      25 (A')      0.0232
               31      Vir  Alpha      26 (A')      0.0482
               33      Vir  Alpha      28 (A')      0.0708
               36      Vir  Alpha      29 (A')      0.1020
               37      Vir  Alpha      30 (A')      0.1094
               39      Vir  Alpha      31 (A')      0.1338
               41      Vir  Alpha      32 (A')      0.1457
               42      Vir  Alpha      33 (A')      0.1581
               30      Vir  Beta       25 (A')      0.0232
               31      Vir  Beta       26 (A')      0.0482
               33      Vir  Beta       28 (A')      0.0708
               36      Vir  Beta       29 (A')      0.1020
               37      Vir  Beta       30 (A')      0.1094
               39      Vir  Beta       31 (A')      0.1338
               41      Vir  Beta       32 (A')      0.1457
               42      Vir  Beta       33 (A')      0.1581


 EOMEE transition 10/A'
 Total energy = -394.18745702 a.u.  Excitation energy = 538.7456 eV.
 R0^2 = 0.0000  R1^2 = 0.8222  R2_CCVV^2 = 0.0005  R2_COVV^2 = 0.0886  Res^2 = 9.76e-05
 Conv-d = yes

 Amplitude    Transitions between orbitals
 -0.3881       1 (A') A                  ->    30 (A') A                  
 -0.3881       1 (A') B                  ->    30 (A') B                  
  0.2640       1 (A') A                  ->    26 (A') A                  
  0.2640       1 (A') B                  ->    26 (A') B                  
  0.2153       1 (A') A                  ->    27 (A') A                  
  0.2153       1 (A') B                  ->    27 (A') B                  
 -0.1948       1 (A') A                  ->    25 (A') A                  
 -0.1948       1 (A') B                  ->    25 (A') B                  
  0.1926       1 (A') A                  ->    32 (A') A                  
  0.1926       1 (A') B                  ->    32 (A') B                  
 -0.1154       1 (A') A                  ->    33 (A') A                  
 -0.1154       1 (A') B                  ->    33 (A') B                  
 -0.1118       1 (A') A                  ->    29 (A') A                  
 -0.1118       1 (A') B                  ->    29 (A') B                  

              Summary of significant orbitals:

               Number  Type             Irrep      Energy
               1       Occ  Alpha       1 (A')    -20.5505
               1       Occ  Beta        1 (A')    -20.5505
               30      Vir  Alpha      25 (A')      0.0232
               31      Vir  Alpha      26 (A')      0.0482
               32      Vir  Alpha      27 (A')      0.0607
               36      Vir  Alpha      29 (A')      0.1020
               37      Vir  Alpha      30 (A')      0.1094
               41      Vir  Alpha      32 (A')      0.1457
               42      Vir  Alpha      33 (A')      0.1581
               30      Vir  Beta       25 (A')      0.0232
               31      Vir  Beta       26 (A')      0.0482
               32      Vir  Beta       27 (A')      0.0607
               36      Vir  Beta       29 (A')      0.1020
               37      Vir  Beta       30 (A')      0.1094
               41      Vir  Beta       32 (A')      0.1457
               42      Vir  Beta       33 (A')      0.1581


      CVS-EOM-CCSD/MP2 left amplitudes will be solved using Davidson.
        Amplitudes will be solved using MOM  algorithm.
     Hard-coded thresholds: 
     LinDepThresh=1.00e-15  NormThresh=1.00e-06  ReorthogonThresh=1.00e-02

      Roots     MaxVec    MaxIter   Precond   Conv      Shift    
      10        1000      200       1         1.00e-04  1.96e+01  
 ------------------------------------------------------------------------------
      Iter ConvRoots NVecs ResNorm Current eigenvalues (eV)
 ------------------------------------------------------------------------------
      0    0      10    1.02e-01   536.5010   536.6773   537.3249   537.4904   537.7178   537.9977   538.2027   538.2634   538.5347   538.7456   
      1    0      20    5.46e-02   536.5007   536.6773   537.3248   537.4903   537.7175   537.9974   538.2021   538.2630   538.5346   538.7447   
      2    0      30    5.58e-04   536.5004   536.6773   537.3248   537.4904   537.7179   537.9975   538.2020   538.2630   538.5347   538.7446   
      3    9      40    8.07e-05   536.5003*  536.6772*  537.3248*  537.4903*  537.7178*  537.9974*  538.2019*  538.2629*  538.5345   538.7443*  
      4    10     41    7.46e-05   536.5003*  536.6772*  537.3248*  537.4903*  537.7178*  537.9974*  538.2019*  538.2629*  538.5344*  538.7443*  

     Davidson procedure converged

        Solving for CVS-EOMEE-CCSD A" singlet states.

       EOMEE-CCSD-SINGLES right amplitudes will be solved using Davidson.
        Amplitudes will be solved using shifted  algorithm.
     Hard-coded thresholds: 
     LinDepThresh=1.00e-15  NormThresh=1.00e-06  ReorthogonThresh=1.00e-02

      Roots     MaxVec    MaxIter   Precond   Conv      Shift    
      10        1000      200       1         1.00e-04  1.96e+01  
 ------------------------------------------------------------------------------
      Iter ConvRoots NVecs ResNorm Current eigenvalues (eV)
 ------------------------------------------------------------------------------
      0    0      10    1.49e-02   554.1352   556.2753   558.0061   558.0472   559.1666   559.3452   559.7234   560.0992   560.3256   560.4135   
      1    0      20    3.04e-02   552.0882   554.0154   557.6527   557.8388   559.0274   559.2117   559.6112   559.9578   560.1928   560.2430   
      2    3      30    2.14e-04   549.8468   550.9778   557.3979   557.6103   558.8985*  559.1333*  559.3876   559.7054   559.9609   560.1252*  
      3    10     37    1.24e-05   549.8420*  550.9567*  557.3946*  557.6070*  558.8984*  559.1332*  559.3834*  559.6919*  559.9495*  560.1235*  

     Davidson procedure converged

        CVS-EOMEE-CCSD/MP2 right amplitudes will be solved using Davidson.
        Amplitudes will be solved using shifted  algorithm.
     Hard-coded thresholds: 
     LinDepThresh=1.00e-15  NormThresh=1.00e-06  ReorthogonThresh=1.00e-02

      Roots     MaxVec    MaxIter   Precond   Conv      Shift    
      10        1000      200       1         1.00e-04  1.96e+01  
 ------------------------------------------------------------------------------
      Iter ConvRoots NVecs ResNorm Current eigenvalues (eV)
 ------------------------------------------------------------------------------
      0    0      10    3.81e+00   549.8420   550.9567   557.3946   557.6070   558.8984   559.1332   559.3834   559.6919   559.9495   560.1235   
      1    0      20    2.90e+00   547.0074   548.0805   554.1671   554.3845   555.4709   555.5687   556.1087   556.3835   556.6304   556.8303   
      2    0      30    1.70e-01   534.2316   535.1625   538.8580   538.8771   538.9062   539.3067   540.5185   540.8435   541.0263   541.2935   
      3    0      40    1.71e-02   533.3374   534.2879   537.6876   537.8550   538.0125   538.2133   539.4693   539.8315   539.9318   540.2736   
      4    0      50    2.42e-03   533.2122   534.1696   537.6318   537.8061   537.9825   538.1601   539.4263   539.7857   539.8605   540.2139   
      5    0      60    2.62e-03   533.1832   534.1415   537.5998   537.7617   537.9727   538.1285   539.4082   539.7667   539.8204   540.1886   
      6    0      70    1.25e-03   533.1778   534.1343   537.5625   537.6932   537.9653   538.0983   539.3752   539.7392   539.7740   540.1570   
      7    0      80    5.94e-04   533.1736   534.1294   537.5560   537.6748   537.9619   538.0899   539.3613   539.7252   539.7548   540.1368   
      8    3      90    1.77e-04   533.1732*  534.1290*  537.5476   537.6614   537.9609*  538.0856   539.3532   539.7196   539.7452   540.1250   
      9    6      97    8.85e-05   533.1733*  534.1291*  537.5454*  537.6577   537.9607*  538.0842*  539.3496   539.7173*  539.7423   540.1171   
      10   9      101   4.85e-05   533.1733*  534.1291*  537.5453*  537.6568*  537.9606*  538.0837*  539.3476*  539.7172*  539.7414*  540.1142   
      11   9      102   4.42e-05   533.1733*  534.1291*  537.5453*  537.6568*  537.9606*  538.0837*  539.3476*  539.7168*  539.7414*  540.1130   
      12   9      103   4.97e-05   533.1733*  534.1291*  537.5453*  537.6568*  537.9606*  538.0837*  539.3476*  539.7164*  539.7414*  540.1121   
      13   10     104   3.96e-05   533.1733*  534.1291*  537.5453*  537.6568*  537.9606*  538.0837*  539.3476*  539.7159*  539.7414*  540.1089*  

     Davidson procedure converged

 EOMEE transition 1/A"
 Total energy = -394.39223434 a.u.  Excitation energy = 533.1733 eV.
 R0^2 = 0.0000  R1^2 = 0.8335  R2_CCVV^2 = 0.0005  R2_COVV^2 = 0.0830  Res^2 = 1.27e-05
 Conv-d = yes

 Amplitude    Transitions between orbitals
  0.4125       2 (A') A                  ->    6 (A") A                   
  0.4125       2 (A') B                  ->    6 (A") B                   
 -0.2944       2 (A') A                  ->    9 (A") A                   
 -0.2944       2 (A') B                  ->    9 (A") B                   
 -0.2244       2 (A') A                  ->    10 (A") A                  
 -0.2244       2 (A') B                  ->    10 (A") B                  
  0.1990       2 (A') A                  ->    7 (A") A                   
  0.1990       2 (A') B                  ->    7 (A") B                   
 -0.1642       2 (A') A                  ->    13 (A") A                  
 -0.1642       2 (A') B                  ->    13 (A") B                  
  0.1317       2 (A') A                  ->    15 (A") A                  
  0.1317       2 (A') B                  ->    15 (A") B                  

              Summary of significant orbitals:

               Number  Type             Irrep      Energy
               2       Occ  Alpha       2 (A')    -20.5450
               2       Occ  Beta        2 (A')    -20.5450
               34      Vir  Alpha       6 (A")      0.0738
               35      Vir  Alpha       7 (A")      0.0908
               40      Vir  Alpha       9 (A")      0.1381
               43      Vir  Alpha      10 (A")      0.1606
               55      Vir  Alpha      13 (A")      0.2862
               62      Vir  Alpha      15 (A")      0.3695
               34      Vir  Beta        6 (A")      0.0738
               35      Vir  Beta        7 (A")      0.0908
               40      Vir  Beta        9 (A")      0.1381
               43      Vir  Beta       10 (A")      0.1606
               55      Vir  Beta       13 (A")      0.2862
               62      Vir  Beta       15 (A")      0.3695


 EOMEE transition 2/A"
 Total energy = -394.35711049 a.u.  Excitation energy = 534.1291 eV.
 R0^2 = 0.0000  R1^2 = 0.8365  R2_CCVV^2 = 0.0005  R2_COVV^2 = 0.0815  Res^2 = 6.67e-06
 Conv-d = yes

 Amplitude    Transitions between orbitals
  0.3773       1 (A') A                  ->    10 (A") A                  
  0.3773       1 (A') B                  ->    10 (A") B                  
 -0.3232       1 (A') A                  ->    11 (A") A                  
 -0.3232       1 (A') B                  ->    11 (A") B                  
 -0.2165       1 (A') A                  ->    8 (A") A                   
 -0.2165       1 (A') B                  ->    8 (A") B                   
  0.1943       1 (A') A                  ->    9 (A") A                   
  0.1943       1 (A') B                  ->    9 (A") B                   
  0.1579       1 (A') A                  ->    15 (A") A                  
  0.1579       1 (A') B                  ->    15 (A") B                  
  0.1542       1 (A') A                  ->    6 (A") A                   
  0.1542       1 (A') B                  ->    6 (A") B                   
 -0.1360       1 (A') A                  ->    13 (A") A                  
 -0.1360       1 (A') B                  ->    13 (A") B                  

              Summary of significant orbitals:

               Number  Type             Irrep      Energy
               1       Occ  Alpha       1 (A')    -20.5505
               1       Occ  Beta        1 (A')    -20.5505
               34      Vir  Alpha       6 (A")      0.0738
               38      Vir  Alpha       8 (A")      0.1287
               40      Vir  Alpha       9 (A")      0.1381
               43      Vir  Alpha      10 (A")      0.1606
               46      Vir  Alpha      11 (A")      0.1862
               55      Vir  Alpha      13 (A")      0.2862
               62      Vir  Alpha      15 (A")      0.3695
               34      Vir  Beta        6 (A")      0.0738
               38      Vir  Beta        8 (A")      0.1287
               40      Vir  Beta        9 (A")      0.1381
               43      Vir  Beta       10 (A")      0.1606
               46      Vir  Beta       11 (A")      0.1862
               55      Vir  Beta       13 (A")      0.2862
               62      Vir  Beta       15 (A")      0.3695


 EOMEE transition 3/A"
 Total energy = -394.23156667 a.u.  Excitation energy = 537.5453 eV.
 R0^2 = 0.0000  R1^2 = 0.8070  R2_CCVV^2 = 0.0005  R2_COVV^2 = 0.0962  Res^2 = 3.15e-05
 Conv-d = yes

 Amplitude    Transitions between orbitals
 -0.5511       1 (A') A                  ->    6 (A") A                   
 -0.5511       1 (A') B                  ->    6 (A") B                   
 -0.2036       1 (A') A                  ->    7 (A") A                   
 -0.2036       1 (A') B                  ->    7 (A") B                   
  0.2028       1 (A') A                  ->    9 (A") A                   
  0.2028       1 (A') B                  ->    9 (A") B                   
  0.1161       1 (A') A                  ->    10 (A") A                  
  0.1161       1 (A') B                  ->    10 (A") B                  

              Summary of significant orbitals:

               Number  Type             Irrep      Energy
               1       Occ  Alpha       1 (A')    -20.5505
               1       Occ  Beta        1 (A')    -20.5505
               34      Vir  Alpha       6 (A")      0.0738
               35      Vir  Alpha       7 (A")      0.0908
               40      Vir  Alpha       9 (A")      0.1381
               43      Vir  Alpha      10 (A")      0.1606
               34      Vir  Beta        6 (A")      0.0738
               35      Vir  Beta        7 (A")      0.0908
               40      Vir  Beta        9 (A")      0.1381
               43      Vir  Beta       10 (A")      0.1606


 EOMEE transition 4/A"
 Total energy = -394.22746792 a.u.  Excitation energy = 537.6568 eV.
 R0^2 = 0.0000  R1^2 = 0.8087  R2_CCVV^2 = 0.0005  R2_COVV^2 = 0.0954  Res^2 = 3.26e-05
 Conv-d = yes

 Amplitude    Transitions between orbitals
 -0.3098       2 (A') A                  ->    6 (A") A                   
 -0.3098       2 (A') B                  ->    6 (A") B                   
 -0.2945       2 (A') A                  ->    9 (A") A                   
 -0.2945       2 (A') B                  ->    9 (A") B                   
 -0.2772       2 (A') A                  ->    7 (A") A                   
 -0.2772       2 (A') B                  ->    7 (A") B                   
  0.2455       2 (A') A                  ->    8 (A") A                   
  0.2455       2 (A') B                  ->    8 (A") B                   
 -0.1906       2 (A') A                  ->    10 (A") A                  
 -0.1906       2 (A') B                  ->    10 (A") B                  
 -0.1495       2 (A') A                  ->    13 (A") A                  
 -0.1495       2 (A') B                  ->    13 (A") B                  
  0.1469       2 (A') A                  ->    11 (A") A                  
  0.1469       2 (A') B                  ->    11 (A") B                  

              Summary of significant orbitals:

               Number  Type             Irrep      Energy
               2       Occ  Alpha       2 (A')    -20.5450
               2       Occ  Beta        2 (A')    -20.5450
               34      Vir  Alpha       6 (A")      0.0738
               35      Vir  Alpha       7 (A")      0.0908
               38      Vir  Alpha       8 (A")      0.1287
               40      Vir  Alpha       9 (A")      0.1381
               43      Vir  Alpha      10 (A")      0.1606
               46      Vir  Alpha      11 (A")      0.1862
               55      Vir  Alpha      13 (A")      0.2862
               34      Vir  Beta        6 (A")      0.0738
               35      Vir  Beta        7 (A")      0.0908
               38      Vir  Beta        8 (A")      0.1287
               40      Vir  Beta        9 (A")      0.1381
               43      Vir  Beta       10 (A")      0.1606
               46      Vir  Beta       11 (A")      0.1862
               55      Vir  Beta       13 (A")      0.2862


 EOMEE transition 5/A"
 Total energy = -394.21630493 a.u.  Excitation energy = 537.9606 eV.
 R0^2 = 0.0000  R1^2 = 0.8251  R2_CCVV^2 = 0.0005  R2_COVV^2 = 0.0872  Res^2 = 2.26e-05
 Conv-d = yes

 Amplitude    Transitions between orbitals
 -0.5368       1 (A') A                  ->    7 (A") A                   
 -0.5368       1 (A') B                  ->    7 (A") B                   
 -0.2016       1 (A') A                  ->    8 (A") A                   
 -0.2016       1 (A') B                  ->    8 (A") B                   
  0.1931       1 (A') A                  ->    6 (A") A                   
  0.1931       1 (A') B                  ->    6 (A") B                   
 -0.1244       1 (A') A                  ->    10 (A") A                  
 -0.1244       1 (A') B                  ->    10 (A") B                  

              Summary of significant orbitals:

               Number  Type             Irrep      Energy
               1       Occ  Alpha       1 (A')    -20.5505
               1       Occ  Beta        1 (A')    -20.5505
               34      Vir  Alpha       6 (A")      0.0738
               35      Vir  Alpha       7 (A")      0.0908
               38      Vir  Alpha       8 (A")      0.1287
               43      Vir  Alpha      10 (A")      0.1606
               34      Vir  Beta        6 (A")      0.0738
               35      Vir  Beta        7 (A")      0.0908
               38      Vir  Beta        8 (A")      0.1287
               43      Vir  Beta       10 (A")      0.1606


 EOMEE transition 6/A"
 Total energy = -394.21177893 a.u.  Excitation energy = 538.0837 eV.
 R0^2 = 0.0000  R1^2 = 0.8203  R2_CCVV^2 = 0.0005  R2_COVV^2 = 0.0896  Res^2 = 1.90e-05
 Conv-d = yes

 Amplitude    Transitions between orbitals
  0.4386       2 (A') A                  ->    7 (A") A                   
  0.4386       2 (A') B                  ->    7 (A") B                   
 -0.2872       2 (A') A                  ->    6 (A") A                   
 -0.2872       2 (A') B                  ->    6 (A") B                   
 -0.2791       2 (A') A                  ->    10 (A") A                  
 -0.2791       2 (A') B                  ->    10 (A") B                  
  0.1828       2 (A') A                  ->    9 (A") A                   
  0.1828       2 (A') B                  ->    9 (A") B                   

              Summary of significant orbitals:

               Number  Type             Irrep      Energy
               2       Occ  Alpha       2 (A')    -20.5450
               2       Occ  Beta        2 (A')    -20.5450
               34      Vir  Alpha       6 (A")      0.0738
               35      Vir  Alpha       7 (A")      0.0908
               40      Vir  Alpha       9 (A")      0.1381
               43      Vir  Alpha      10 (A")      0.1606
               34      Vir  Beta        6 (A")      0.0738
               35      Vir  Beta        7 (A")      0.0908
               40      Vir  Beta        9 (A")      0.1381
               43      Vir  Beta       10 (A")      0.1606


 EOMEE transition 7/A"
 Total energy = -394.16533419 a.u.  Excitation energy = 539.3476 eV.
 R0^2 = 0.0000  R1^2 = 0.8176  R2_CCVV^2 = 0.0005  R2_COVV^2 = 0.0910  Res^2 = 7.89e-05
 Conv-d = yes

 Amplitude    Transitions between orbitals
 -0.3637       2 (A') A                  ->    9 (A") A                   
 -0.3637       2 (A') B                  ->    9 (A") B                   
 -0.3356       2 (A') A                  ->    8 (A") A                   
 -0.3356       2 (A') B                  ->    8 (A") B                   
  0.2351       2 (A') A                  ->    7 (A") A                   
  0.2351       2 (A') B                  ->    7 (A") B                   
  0.2186       2 (A') A                  ->    10 (A") A                  
  0.2186       2 (A') B                  ->    10 (A") B                  
 -0.2030       2 (A') A                  ->    6 (A") A                   
 -0.2030       2 (A') B                  ->    6 (A") B                   

              Summary of significant orbitals:

               Number  Type             Irrep      Energy
               2       Occ  Alpha       2 (A')    -20.5450
               2       Occ  Beta        2 (A')    -20.5450
               34      Vir  Alpha       6 (A")      0.0738
               35      Vir  Alpha       7 (A")      0.0908
               38      Vir  Alpha       8 (A")      0.1287
               40      Vir  Alpha       9 (A")      0.1381
               43      Vir  Alpha      10 (A")      0.1606
               34      Vir  Beta        6 (A")      0.0738
               35      Vir  Beta        7 (A")      0.0908
               38      Vir  Beta        8 (A")      0.1287
               40      Vir  Beta        9 (A")      0.1381
               43      Vir  Beta       10 (A")      0.1606


 EOMEE transition 8/A"
 Total energy = -394.15179992 a.u.  Excitation energy = 539.7158 eV.
 R0^2 = 0.0000  R1^2 = 0.8196  R2_CCVV^2 = 0.0005  R2_COVV^2 = 0.0900  Res^2 = 7.60e-05
 Conv-d = yes

 Amplitude    Transitions between orbitals
  0.4661       1 (A') A                  ->    8 (A") A                   
  0.4661       1 (A') B                  ->    8 (A") B                   
  0.2195       1 (A') A                  ->    9 (A") A                   
  0.2195       1 (A') B                  ->    9 (A") B                   
  0.2160       1 (A') A                  ->    10 (A") A                  
  0.2160       1 (A') B                  ->    10 (A") B                  
 -0.1810       1 (A') A                  ->    7 (A") A                   
 -0.1810       1 (A') B                  ->    7 (A") B                   
  0.1690       1 (A') A                  ->    6 (A") A                   
  0.1690       1 (A') B                  ->    6 (A") B                   
  0.1192       1 (A') A                  ->    11 (A") A                  
  0.1192       1 (A') B                  ->    11 (A") B                  

              Summary of significant orbitals:

               Number  Type             Irrep      Energy
               1       Occ  Alpha       1 (A')    -20.5505
               1       Occ  Beta        1 (A')    -20.5505
               34      Vir  Alpha       6 (A")      0.0738
               35      Vir  Alpha       7 (A")      0.0908
               38      Vir  Alpha       8 (A")      0.1287
               40      Vir  Alpha       9 (A")      0.1381
               43      Vir  Alpha      10 (A")      0.1606
               46      Vir  Alpha      11 (A")      0.1862
               34      Vir  Beta        6 (A")      0.0738
               35      Vir  Beta        7 (A")      0.0908
               38      Vir  Beta        8 (A")      0.1287
               40      Vir  Beta        9 (A")      0.1381
               43      Vir  Beta       10 (A")      0.1606
               46      Vir  Beta       11 (A")      0.1862


 EOMEE transition 9/A"
 Total energy = -394.15086133 a.u.  Excitation energy = 539.7414 eV.
 R0^2 = 0.0000  R1^2 = 0.8169  R2_CCVV^2 = 0.0005  R2_COVV^2 = 0.0913  Res^2 = 4.62e-05
 Conv-d = yes

 Amplitude    Transitions between orbitals
 -0.4433       2 (A') A                  ->    8 (A") A                   
 -0.4433       2 (A') B                  ->    8 (A") B                   
 -0.3367       2 (A') A                  ->    10 (A") A                  
 -0.3367       2 (A') B                  ->    10 (A") B                  
 -0.1878       2 (A') A                  ->    7 (A") A                   
 -0.1878       2 (A') B                  ->    7 (A") B                   
  0.1819       2 (A') A                  ->    11 (A") A                  
  0.1819       2 (A') B                  ->    11 (A") B                  
  0.1098       2 (A') A                  ->    9 (A") A                   
  0.1098       2 (A') B                  ->    9 (A") B                   

              Summary of significant orbitals:

               Number  Type             Irrep      Energy
               2       Occ  Alpha       2 (A')    -20.5450
               2       Occ  Beta        2 (A')    -20.5450
               35      Vir  Alpha       7 (A")      0.0908
               38      Vir  Alpha       8 (A")      0.1287
               40      Vir  Alpha       9 (A")      0.1381
               43      Vir  Alpha      10 (A")      0.1606
               46      Vir  Alpha      11 (A")      0.1862
               35      Vir  Beta        7 (A")      0.0908
               38      Vir  Beta        8 (A")      0.1287
               40      Vir  Beta        9 (A")      0.1381
               43      Vir  Beta       10 (A")      0.1606
               46      Vir  Beta       11 (A")      0.1862


 EOMEE transition 10/A"
 Total energy = -394.13735508 a.u.  Excitation energy = 540.1089 eV.
 R0^2 = 0.0000  R1^2 = 0.8185  R2_CCVV^2 = 0.0005  R2_COVV^2 = 0.0905  Res^2 = 6.95e-05
 Conv-d = yes

 Amplitude    Transitions between orbitals
 -0.4962       1 (A') A                  ->    9 (A") A                   
 -0.4962       1 (A') B                  ->    9 (A") B                   
  0.3065       1 (A') A                  ->    10 (A") A                  
  0.3065       1 (A') B                  ->    10 (A") B                  
 -0.1697       1 (A') A                  ->    7 (A") A                   
 -0.1697       1 (A') B                  ->    7 (A") B                   
  0.1433       1 (A') A                  ->    12 (A") A                  
  0.1433       1 (A') B                  ->    12 (A") B                  

              Summary of significant orbitals:

               Number  Type             Irrep      Energy
               1       Occ  Alpha       1 (A')    -20.5505
               1       Occ  Beta        1 (A')    -20.5505
               35      Vir  Alpha       7 (A")      0.0908
               40      Vir  Alpha       9 (A")      0.1381
               43      Vir  Alpha      10 (A")      0.1606
               52      Vir  Alpha      12 (A")      0.2432
               35      Vir  Beta        7 (A")      0.0908
               40      Vir  Beta        9 (A")      0.1381
               43      Vir  Beta       10 (A")      0.1606
               52      Vir  Beta       12 (A")      0.2432


      CVS-EOM-CCSD/MP2 left amplitudes will be solved using Davidson.
        Amplitudes will be solved using MOM  algorithm.
     Hard-coded thresholds: 
     LinDepThresh=1.00e-15  NormThresh=1.00e-06  ReorthogonThresh=1.00e-02

      Roots     MaxVec    MaxIter   Precond   Conv      Shift    
      10        1000      200       1         1.00e-04  1.96e+01  
 ------------------------------------------------------------------------------
      Iter ConvRoots NVecs ResNorm Current eigenvalues (eV)
 ------------------------------------------------------------------------------
      0    0      10    1.00e-01   533.1733   534.1291   537.5453   537.6568   537.9606   538.0837   539.3476   539.7159   539.7414   540.1089   
      1    0      20    4.51e-02   533.1735   534.1291   537.5453   537.6567   537.9604   538.0837   539.3472   539.7156   539.7408   540.1080   
      2    0      30    5.73e-04   533.1733   534.1290   537.5453   537.6568   537.9601   538.0838   539.3477   539.7157   539.7408   540.1081   
[...]


 Start computing the transition properties

 ------------------------------------------------------------------------------
 State A: ccsd: 0/A'
 State B: cvs_eomee_ccsd/rhfref/singlets: 1/A'
 Transition dipole moment (a.u.):
   A->B: 0.003548 (X -0.003106, Y -0.001715, Z 0.000000)
   B->A: 0.003852 (X -0.003358, Y -0.001888, Z 0.000000)
 Oscillator strength (a.u.): 0.000180
 Norm of one-particle transition density matrix:
   A->B: 0.907571;   B->A: 0.868587
   ||gamma^AB||*||gamma^BA||: 0.788304

 ------------------------------------------------------------------------------
 State A: ccsd: 0/A'
 State B: cvs_eomee_ccsd/rhfref/singlets: 2/A'
 Transition dipole moment (a.u.):
   A->B: 0.005348 (X 0.000031, Y 0.005348, Z 0.000000)
   B->A: 0.005525 (X -0.000008, Y 0.005525, Z 0.000000)
 Oscillator strength (a.u.): 0.000388
 Norm of one-particle transition density matrix:
   A->B: 0.906865;   B->A: 0.866186
   ||gamma^AB||*||gamma^BA||: 0.785514

 ------------------------------------------------------------------------------
 State A: ccsd: 0/A'
 State B: cvs_eomee_ccsd/rhfref/singlets: 3/A'
 Transition dipole moment (a.u.):
   A->B: 0.012872 (X 0.008688, Y 0.009498, Z 0.000000)
   B->A: 0.013118 (X 0.008827, Y 0.009703, Z 0.000000)
 Oscillator strength (a.u.): 0.002223
 Norm of one-particle transition density matrix:
   A->B: 0.906583;   B->A: 0.867469
   ||gamma^AB||*||gamma^BA||: 0.786433

 ------------------------------------------------------------------------------
 State A: ccsd: 0/A'
 State B: cvs_eomee_ccsd/rhfref/singlets: 4/A'
 Transition dipole moment (a.u.):
   A->B: 0.008922 (X -0.005407, Y 0.007097, Z 0.000000)
   B->A: 0.008953 (X -0.005462, Y 0.007094, Z 0.000000)
 Oscillator strength (a.u.): 0.001052
 Norm of one-particle transition density matrix:
   A->B: 0.903967;   B->A: 0.861949
   ||gamma^AB||*||gamma^BA||: 0.779174

 ------------------------------------------------------------------------------
 State A: ccsd: 0/A'
 State B: cvs_eomee_ccsd/rhfref/singlets: 5/A'
 Transition dipole moment (a.u.):
   A->B: 0.010772 (X -0.004477, Y 0.009797, Z 0.000000)
   B->A: 0.011190 (X -0.004523, Y 0.010235, Z 0.000000)
 Oscillator strength (a.u.): 0.001588
 Norm of one-particle transition density matrix:
   A->B: 0.904043;   B->A: 0.862706
   ||gamma^AB||*||gamma^BA||: 0.779923

 ------------------------------------------------------------------------------
 State A: ccsd: 0/A'
 State B: cvs_eomee_ccsd/rhfref/singlets: 6/A'
 Transition dipole moment (a.u.):
   A->B: 0.010359 (X 0.002995, Y 0.009917, Z 0.000000)
   B->A: 0.010808 (X 0.002975, Y 0.010391, Z 0.000000)
 Oscillator strength (a.u.): 0.001476
 Norm of one-particle transition density matrix:
   A->B: 0.906099;   B->A: 0.866482
   ||gamma^AB||*||gamma^BA||: 0.785119

 ------------------------------------------------------------------------------
 State A: ccsd: 0/A'
 State B: cvs_eomee_ccsd/rhfref/singlets: 7/A'
 Transition dipole moment (a.u.):
   A->B: 0.012214 (X 0.008560, Y 0.008713, Z 0.000000)
   B->A: 0.012439 (X 0.008684, Y 0.008906, Z 0.000000)
 Oscillator strength (a.u.): 0.002003
 Norm of one-particle transition density matrix:
   A->B: 0.904311;   B->A: 0.862593
   ||gamma^AB||*||gamma^BA||: 0.780053

 ------------------------------------------------------------------------------
 State A: ccsd: 0/A'
 State B: cvs_eomee_ccsd/rhfref/singlets: 8/A'
 Transition dipole moment (a.u.):
   A->B: 0.014355 (X 0.010326, Y -0.009973, Z 0.000000)
   B->A: 0.014542 (X 0.010324, Y -0.010242, Z 0.000000)
 Oscillator strength (a.u.): 0.002753
 Norm of one-particle transition density matrix:
   A->B: 0.906670;   B->A: 0.866469
   ||gamma^AB||*||gamma^BA||: 0.785602

 ------------------------------------------------------------------------------
 State A: ccsd: 0/A'
 State B: cvs_eomee_ccsd/rhfref/singlets: 9/A'
 Transition dipole moment (a.u.):
   A->B: 0.005654 (X -0.005328, Y -0.001892, Z 0.000000)
   B->A: 0.005672 (X -0.005353, Y -0.001874, Z 0.000000)
 Oscillator strength (a.u.): 0.000423
 Norm of one-particle transition density matrix:
   A->B: 0.904912;   B->A: 0.862495
   ||gamma^AB||*||gamma^BA||: 0.780482

 ------------------------------------------------------------------------------
 State A: ccsd: 0/A'
 State B: cvs_eomee_ccsd/rhfref/singlets: 10/A'
 Transition dipole moment (a.u.):
   A->B: 0.005350 (X 0.001781, Y -0.005045, Z 0.000000)
   B->A: 0.005372 (X 0.001728, Y -0.005087, Z 0.000000)
 Oscillator strength (a.u.): 0.000379
 Norm of one-particle transition density matrix:
   A->B: 0.906700;   B->A: 0.866076
   ||gamma^AB||*||gamma^BA||: 0.785272

 ------------------------------------------------------------------------------
 State A: ccsd: 0/A'
 State B: cvs_eomee_ccsd/rhfref/singlets: 1/A"
 Transition dipole moment (a.u.):
   A->B: 0.051131 (X 0.000000, Y 0.000000, Z -0.051131)
   B->A: 0.054943 (X 0.000000, Y 0.000000, Z -0.054943)
 Oscillator strength (a.u.): 0.036697
 Norm of one-particle transition density matrix:
   A->B: 0.884609;   B->A: 0.888553
   ||gamma^AB||*||gamma^BA||: 0.786021

 ------------------------------------------------------------------------------
 State A: ccsd: 0/A'
 State B: cvs_eomee_ccsd/rhfref/singlets: 2/A"
 Transition dipole moment (a.u.):
   A->B: 0.049588 (X 0.000000, Y 0.000000, Z 0.049588)
   B->A: 0.052878 (X 0.000000, Y 0.000000, Z 0.052878)
 Oscillator strength (a.u.): 0.034313
 Norm of one-particle transition density matrix:
   A->B: 0.889545;   B->A: 0.888968
   ||gamma^AB||*||gamma^BA||: 0.790777

 ------------------------------------------------------------------------------
 State A: ccsd: 0/A'
 State B: cvs_eomee_ccsd/rhfref/singlets: 3/A"
 Transition dipole moment (a.u.):
   A->B: 0.004235 (X 0.000000, Y 0.000000, Z 0.004235)
   B->A: 0.004601 (X 0.000000, Y 0.000000, Z 0.004601)
 Oscillator strength (a.u.): 0.000257
 Norm of one-particle transition density matrix:
   A->B: 0.872809;   B->A: 0.857425
   ||gamma^AB||*||gamma^BA||: 0.748368

 ------------------------------------------------------------------------------
 State A: ccsd: 0/A'
 State B: cvs_eomee_ccsd/rhfref/singlets: 4/A"
 Transition dipole moment (a.u.):
   A->B: 0.004981 (X 0.000000, Y 0.000000, Z -0.004981)
   B->A: 0.005484 (X 0.000000, Y 0.000000, Z -0.005484)
 Oscillator strength (a.u.): 0.000360
 Norm of one-particle transition density matrix:
   A->B: 0.881930;   B->A: 0.856288
   ||gamma^AB||*||gamma^BA||: 0.755186

 ------------------------------------------------------------------------------
 State A: ccsd: 0/A'
 State B: cvs_eomee_ccsd/rhfref/singlets: 5/A"
 Transition dipole moment (a.u.):
   A->B: 0.011085 (X 0.000000, Y 0.000000, Z -0.011085)
   B->A: 0.012029 (X 0.000000, Y 0.000000, Z -0.012029)
 Oscillator strength (a.u.): 0.001757
 Norm of one-particle transition density matrix:
   A->B: 0.908266;   B->A: 0.867930
   ||gamma^AB||*||gamma^BA||: 0.788311

 ------------------------------------------------------------------------------
 State A: ccsd: 0/A'
 State B: cvs_eomee_ccsd/rhfref/singlets: 6/A"
 Transition dipole moment (a.u.):
   A->B: 0.012407 (X 0.000000, Y 0.000000, Z -0.012407)
   B->A: 0.013159 (X 0.000000, Y 0.000000, Z -0.013159)
 Oscillator strength (a.u.): 0.002152
 Norm of one-particle transition density matrix:
   A->B: 0.903480;   B->A: 0.863238
   ||gamma^AB||*||gamma^BA||: 0.779919

 ------------------------------------------------------------------------------
 State A: ccsd: 0/A'
 State B: cvs_eomee_ccsd/rhfref/singlets: 7/A"
 Transition dipole moment (a.u.):
   A->B: 0.007484 (X 0.000000, Y 0.000000, Z 0.007484)
   B->A: 0.007899 (X 0.000000, Y 0.000000, Z 0.007899)
 Oscillator strength (a.u.): 0.000781
 Norm of one-particle transition density matrix:
   A->B: 0.903191;   B->A: 0.860865
   ||gamma^AB||*||gamma^BA||: 0.777525

 ------------------------------------------------------------------------------
 State A: ccsd: 0/A'
 State B: cvs_eomee_ccsd/rhfref/singlets: 8/A"
 Transition dipole moment (a.u.):
   A->B: 0.008339 (X 0.000000, Y 0.000000, Z 0.008339)
   B->A: 0.008469 (X 0.000000, Y 0.000000, Z 0.008469)
 Oscillator strength (a.u.): 0.000934
 Norm of one-particle transition density matrix:
   A->B: 0.904913;   B->A: 0.864070
   ||gamma^AB||*||gamma^BA||: 0.781909

 ------------------------------------------------------------------------------
 State A: ccsd: 0/A'
 State B: cvs_eomee_ccsd/rhfref/singlets: 9/A"
 Transition dipole moment (a.u.):
   A->B: 0.007897 (X 0.000000, Y 0.000000, Z -0.007897)
   B->A: 0.007930 (X 0.000000, Y 0.000000, Z -0.007930)
 Oscillator strength (a.u.): 0.000828
 Norm of one-particle transition density matrix:
   A->B: 0.901941;   B->A: 0.860785
   ||gamma^AB||*||gamma^BA||: 0.776377

 ------------------------------------------------------------------------------
 State A: ccsd: 0/A'
 State B: cvs_eomee_ccsd/rhfref/singlets: 10/A"
 Transition dipole moment (a.u.):
   A->B: 0.008084 (X 0.000000, Y 0.000000, Z 0.008084)
   B->A: 0.008193 (X 0.000000, Y 0.000000, Z 0.008193)
 Oscillator strength (a.u.): 0.000876
 Norm of one-particle transition density matrix:
   A->B: 0.905361;   B->A: 0.863446
   ||gamma^AB||*||gamma^BA||: 0.781730


 All requested transition properties have been computed

 Transition Properties:   CPU 240.72 s  wall 39.15 s

 Total ccman2 time:   CPU 26377.90 s  wall 3518.84 s

 
 --------------------------------------------------------------
             Orbital Energies (a.u.) and Symmetries
 --------------------------------------------------------------
 
 Alpha MOs, Restricted
 -- Occupied --                  
-20.551 -20.545 -15.648 -15.631 -11.426 -11.387 -11.345 -11.260
  1 A'    2 A'    3 A'    4 A'    5 A'    6 A'    7 A'    8 A'                 
 -1.442  -1.404  -1.319  -1.250  -1.093  -0.938  -0.907  -0.812
  9 A'   10 A'   11 A'   12 A'   13 A'   14 A'   15 A'   16 A'                 
 -0.770  -0.719  -0.681  -0.671  -0.657  -0.619  -0.605  -0.573
 17 A'   18 A'   19 A'    1 A"   20 A'   21 A'   22 A'    2 A"                 
 -0.528  -0.487  -0.452  -0.439  -0.371
  3 A"   23 A'   24 A'    4 A"    5 A"                                         
 -- Virtual --                   
  0.023   0.048   0.061   0.071   0.074   0.091   0.102   0.109
 25 A'   26 A'   27 A'   28 A'    6 A"    7 A"   29 A'   30 A'                 
  0.129   0.134   0.138   0.146   0.158   0.161   0.167   0.176
  8 A"   31 A'    9 A"   32 A'   33 A'   10 A"   34 A'   35 A'                 
  0.186   0.192   0.198   0.199   0.219   0.229   0.243   0.251
 11 A"   36 A'   37 A'   38 A'   39 A'   40 A'   12 A"   41 A'                 
  0.256   0.286   0.292   0.298   0.310   0.320   0.339   0.354
 42 A'   13 A"   14 A"   43 A'   44 A'   45 A'   46 A'   47 A'                 
  0.369   0.383   0.386   0.397   0.407   0.408   0.415   0.428
 15 A"   48 A'   49 A'   50 A'   51 A'   16 A"   52 A'   53 A'                 
  0.430   0.443   0.469   0.485   0.497   0.518   0.556   0.557
 54 A'   55 A'   56 A'   57 A'   58 A'   59 A'   60 A'   61 A'                 
  0.634   0.668   0.697   0.706   0.739   0.742   0.758   0.771
 62 A'   63 A'   17 A"   64 A'   18 A"   65 A'   19 A"   66 A'                 
  0.786   0.796   0.832   0.854   0.907   0.928   0.945   0.967
 67 A'   20 A"   68 A'   69 A'   70 A'   71 A'   72 A'   73 A'                 
  0.976   0.996   1.014   1.019   1.048   1.056   1.081   1.099
 74 A'   75 A'   21 A"   76 A'   77 A'   22 A"   78 A'   79 A'                 
  1.140   1.209   1.225   1.242   1.251   1.302   1.358   1.359
 80 A'   81 A'   23 A"   24 A"   82 A'   83 A'   25 A"   84 A'                 
  1.376   1.398   1.415   1.419   1.432   1.438   1.457   1.501
 26 A"   27 A"   85 A'   28 A"   86 A'   87 A'   29 A"   88 A'                 
  1.511   1.528   1.575   1.746   1.779   1.796   1.811   1.883
 30 A"   89 A'   90 A'   91 A'   92 A'   93 A'   31 A"   94 A'                 
  1.896   1.909   1.925   1.951   1.970   2.011   2.011   2.067
 32 A"   95 A'   33 A"   96 A'   97 A'   34 A"   98 A'   99 A'                 
  2.118   2.137   2.187   2.220   2.223   2.272   2.292   2.339
100 A'  101 A'  102 A'   35 A"  103 A'  104 A'  105 A'   36 A"                 
  2.345   2.529   2.556   2.580   2.642   2.659   2.723   2.798
106 A'  107 A'   37 A"  108 A'   38 A"  109 A'   39 A"  110 A'                 
  2.820   2.848   2.915   2.960   3.000   3.015   3.041   3.070
 40 A"  111 A'  112 A'  113 A'  114 A'  115 A'  116 A'   41 A"                 
  3.144   3.170   3.173   3.207   3.260   3.263   3.291   3.307
 42 A"   43 A"  117 A'  118 A'   44 A"  119 A'  120 A'   45 A"                 
  3.314   3.343   3.394   3.506   3.568   3.751   3.762   3.799
121 A'   46 A"  122 A'  123 A'  124 A'   47 A"   48 A"  125 A'                 
  3.831   3.872   3.908   3.954   4.016   4.052   4.098   4.282
126 A'  127 A'  128 A'  129 A'  130 A'  131 A'  132 A'  133 A'                 
  4.289   4.337   4.416   4.485   4.623   5.193   5.283   5.348
 49 A"   50 A"  134 A'  135 A'  136 A'  137 A'  138 A'  139 A'                 
  5.600   5.627   5.686   5.763   5.857   6.328   6.365  24.853
 51 A"   52 A"  140 A'  141 A'  142 A'  143 A'  144 A'  145 A'                 
 24.967  25.028  25.324  36.989  37.046  51.709  51.753
146 A'  147 A'  148 A'  149 A'  150 A'  151 A'  152 A'                         
 
 Beta MOs, Restricted
 -- Occupied --                  
-20.551 -20.545 -15.648 -15.631 -11.426 -11.387 -11.345 -11.260
  1 A'    2 A'    3 A'    4 A'    5 A'    6 A'    7 A'    8 A'                 
 -1.442  -1.404  -1.319  -1.250  -1.093  -0.938  -0.907  -0.812
  9 A'   10 A'   11 A'   12 A'   13 A'   14 A'   15 A'   16 A'                 
 -0.770  -0.719  -0.681  -0.671  -0.657  -0.619  -0.605  -0.573
 17 A'   18 A'   19 A'    1 A"   20 A'   21 A'   22 A'    2 A"                 
 -0.528  -0.487  -0.452  -0.439  -0.371
  3 A"   23 A'   24 A'    4 A"    5 A"                                         
 -- Virtual --                   
  0.023   0.048   0.061   0.071   0.074   0.091   0.102   0.109
 25 A'   26 A'   27 A'   28 A'    6 A"    7 A"   29 A'   30 A'                 
  0.129   0.134   0.138   0.146   0.158   0.161   0.167   0.176
  8 A"   31 A'    9 A"   32 A'   33 A'   10 A"   34 A'   35 A'                 
  0.186   0.192   0.198   0.199   0.219   0.229   0.243   0.251
 11 A"   36 A'   37 A'   38 A'   39 A'   40 A'   12 A"   41 A'                 
  0.256   0.286   0.292   0.298   0.310   0.320   0.339   0.354
 42 A'   13 A"   14 A"   43 A'   44 A'   45 A'   46 A'   47 A'                 
  0.369   0.383   0.386   0.397   0.407   0.408   0.415   0.428
 15 A"   48 A'   49 A'   50 A'   51 A'   16 A"   52 A'   53 A'                 
  0.430   0.443   0.469   0.485   0.497   0.518   0.556   0.557
 54 A'   55 A'   56 A'   57 A'   58 A'   59 A'   60 A'   61 A'                 
  0.634   0.668   0.697   0.706   0.739   0.742   0.758   0.771
 62 A'   63 A'   17 A"   64 A'   18 A"   65 A'   19 A"   66 A'                 
  0.786   0.796   0.832   0.854   0.907   0.928   0.945   0.967
 67 A'   20 A"   68 A'   69 A'   70 A'   71 A'   72 A'   73 A'                 
  0.976   0.996   1.014   1.019   1.048   1.056   1.081   1.099
 74 A'   75 A'   21 A"   76 A'   77 A'   22 A"   78 A'   79 A'                 
  1.140   1.209   1.225   1.242   1.251   1.302   1.358   1.359
 80 A'   81 A'   23 A"   24 A"   82 A'   83 A'   25 A"   84 A'                 
  1.376   1.398   1.415   1.419   1.432   1.438   1.457   1.501
 26 A"   27 A"   85 A'   28 A"   86 A'   87 A'   29 A"   88 A'                 
  1.511   1.528   1.575   1.746   1.779   1.796   1.811   1.883
 30 A"   89 A'   90 A'   91 A'   92 A'   93 A'   31 A"   94 A'                 
  1.896   1.909   1.925   1.951   1.970   2.011   2.011   2.067
 32 A"   95 A'   33 A"   96 A'   97 A'   34 A"   98 A'   99 A'                 
  2.118   2.137   2.187   2.220   2.223   2.272   2.292   2.339
100 A'  101 A'  102 A'   35 A"  103 A'  104 A'  105 A'   36 A"                 
  2.345   2.529   2.556   2.580   2.642   2.659   2.723   2.798
106 A'  107 A'   37 A"  108 A'   38 A"  109 A'   39 A"  110 A'                 
  2.820   2.848   2.915   2.960   3.000   3.015   3.041   3.070
 40 A"  111 A'  112 A'  113 A'  114 A'  115 A'  116 A'   41 A"                 
  3.144   3.170   3.173   3.207   3.260   3.263   3.291   3.307
 42 A"   43 A"  117 A'  118 A'   44 A"  119 A'  120 A'   45 A"                 
  3.314   3.343   3.394   3.506   3.568   3.751   3.762   3.799
121 A'   46 A"  122 A'  123 A'  124 A'   47 A"   48 A"  125 A'                 
  3.831   3.872   3.908   3.954   4.016   4.052   4.098   4.282
126 A'  127 A'  128 A'  129 A'  130 A'  131 A'  132 A'  133 A'                 
  4.289   4.337   4.416   4.485   4.623   5.193   5.283   5.348
 49 A"   50 A"  134 A'  135 A'  136 A'  137 A'  138 A'  139 A'                 
  5.600   5.627   5.686   5.763   5.857   6.328   6.365  24.853
 51 A"   52 A"  140 A'  141 A'  142 A'  143 A'  144 A'  145 A'                 
 24.967  25.028  25.324  36.989  37.046  51.709  51.753
146 A'  147 A'  148 A'  149 A'  150 A'  151 A'  152 A'                         
 --------------------------------------------------------------
 
          Ground-State Mulliken Net Atomic Charges

     Atom                 Charge (a.u.)
  ----------------------------------------
      1 C                     0.093026
      2 H                     0.387156
      3 H                     0.226193
      4 H                     0.406725
      5 C                     0.569769
      6 O                    -0.441367
      7 C                     0.218011
      8 O                    -0.408517
      9 N                    -0.591918
     10 N                    -0.546948
     11 C                    -0.160334
     12 H                     0.248204
  ----------------------------------------
  Sum of atomic charges =    -0.000000

 -----------------------------------------------------------------
                    Cartesian Multipole Moments
 -----------------------------------------------------------------
    Charge (ESU x 10^10)
                -0.0000
    Dipole Moment (Debye)
         X      -1.3855      Y      -4.9595      Z      -0.0000
       Tot       5.1494
    Quadrupole Moments (Debye-Ang)
        XX     -60.6980     XY       2.5046     YY     -38.3422
        XZ      -0.0000     YZ      -0.0000     ZZ     -46.9622
    Octopole Moments (Debye-Ang^2)
       XXX     -11.3896    XXY     -34.8658    XYY      -5.2070
       YYY      -9.1039    XXZ      -0.0000    XYZ      -0.0000
       YYZ      -0.0000    XZZ      -1.9258    YZZ       4.3435
       ZZZ      -0.0000
    Hexadecapole Moments (Debye-Ang^3)
      XXXX    -728.0727   XXXY      12.7532   XXYY    -176.8292
      XYYY      13.2972   YYYY    -303.9036   XXXZ      -0.0000
      XXYZ      -0.0000   XYYZ       0.0000   YYYZ      -0.0000
      XXZZ    -114.0606   XYZZ       2.9926   YYZZ     -75.6239
      XZZZ      -0.0000   YZZZ      -0.0000   ZZZZ     -46.6065
 -----------------------------------------------------------------
Archival summary:
1\1\n-62-29-19\SP\ProcedureUnspecified\BasisUnspecified\2244\malop\ThuSep2012:59:292018ThuSep2012:59:292018\0\\#,ProcedureUnspecified,BasisUnspecified,\\0,1\N\H,1,1.01081\C,1,1.37966,2,115.327\O,3,1.21479,1,124.21,2,-0,0\N,3,1.3852,1,112.713,2,-180,0\H,5,1.00619,3,115.142,1,-180,0\C,5,1.37008,3,123.626,1,-0,0\H,7,1.07981,5,115.516,3,-180,0\C,7,1.34802,5,121.979,3,-0,0\H,9,1.07615,7,121.525,5,180,0\C,1,1.40335,2,116.035,3,-180,0\O,11,1.21832,1,120.541,2,-0,0\\HF=-412.579251\\@

 Total job time:  3564.77s(wall), 26609.73s(cpu) 
 Thu Sep 20 12:59:29 2018

        *************************************************************
        *                                                           *
        *  Thank you very much for using Q-Chem.  Have a nice day.  *
        *                                                           *
        *************************************************************


