n-62-29-36 10.66.29
Q-Chem Developer Version! Running on 10.66.29.*
                  Welcome to Q-Chem
     A Quantum Leap Into The Future Of Chemistry


 Q-Chem 5.1, Q-Chem, Inc., Pleasanton, CA (2018)

 Yihan Shao,  Zhengting Gan,  E. Epifanovsky,  A. T. B. Gilbert,  M. Wormit,  
 J. Kussmann,  A. W. Lange,  A. Behn,  Jia Deng,  Xintian Feng,  D. Ghosh,  
 M. Goldey,  P. R. Horn,  L. D. Jacobson,  I. Kaliman,  T. Kus,  A. Landau,  
 Jie Liu,  E. I. Proynov,  R. M. Richard,  R. P. Steele,  E. J. Sundstrom,  
 H. L. Woodcock III,  P. M. Zimmerman,  D. Zuev,  B. Albrecht,  E. Alguire,  
 S. A. Baeppler,  D. Barton,  Z. Benda,  Y. A. Bernard,  E. J. Berquist,  
 K. B. Bravaya,  H. Burton,  D. Casanova,  Chun-Min Chang,  Yunqing Chen,  
 A. Chien,  K. D. Closser,  M. P. Coons,  S. Coriani,  S. Dasgupta,  
 A. L. Dempwolff,  M. Diedenhofen,  Hainam Do,  R. G. Edgar,  Po-Tung Fang,  
 S. Faraji,  S. Fatehi,  Qingguo Feng,  K. D. Fenk,  J. Fosso-Tande,  
 Qinghui Ge,  A. Ghysels,  G. Gidofalvi,  J. Gomes,  J. Gonthier,  A. Gunina,  
 M. W. D. Hanson-Heine,  P. H. P. Harbach,  A. W. Hauser,  J. E. Herr,  
 E. G. Hohenstein,  Z. C. Holden,  Kerwin Hui,  T.-C. Jagau,  Hyunjun Ji,  
 B. Kaduk,  K. Khistyaev,  Jaehoon Kim,  P. Klunzinger,  K. Koh,  
 D. Kosenkov,  L. Koulias,  T. Kowalczyk,  C. M. Krauter,  A. Kunitsa,  
 Ka Un Lao,  A. Laurent,  K. V. Lawler,  Joonho Lee,  D. Lefrancois,  
 S. Lehtola,  D. S. Levine,  Yi-Pei Li,  You-Sheng Lin,  Fenglai Liu,  
 E. Livshits,  A. Luenser,  P. Manohar,  E. Mansoor,  S. F. Manzer,  
 Shan-Ping Mao,  Yuezhi Mao,  N. Mardirossian,  A. V. Marenich,  
 T. Markovich,  L. A. Martinez-Martinez,  S. A. Maurer,  N. J. Mayhall,  
 S. C. McKenzie,  J.-M. Mewes,  A. F. Morrison,  J. W. Mullinax,  K. Nanda,  
 T. S. Nguyen-Beck,  R. Olivares-Amaya,  J. A. Parkhill,  T. M. Perrine,  
 F. Plasser,  P. Pokhilko,  S. Prager,  A. Prociuk,  E. Ramos,  D. R. Rehn,  
 F. Rob,  M. Schneider,  N. Sergueev,  S. M. Sharada,  S. Sharma,  
 D. W. Small,  T. Stauch,  T. Stein,  Yu-Chuan Su,  A. J. W. Thom,  
 A. Tkatchenko,  T. Tsuchimochi,  N. M. Tubman,  L. Vogt,  M. L. Vidal,  
 O. Vydrov,  M. A. Watson,  J. Wenzel,  M. de Wergifosse,  T. A. Wesolowski,  
 A. White,  J. Witte,  A. Yamada,  Jun Yang,  K. Yao,  S. Yeganeh,  
 S. R. Yost,  Zhi-Qiang You,  A. Zech,  Igor Ying Zhang,  Xing Zhang,  
 Yan Zhao,  Ying Zhu,  B. R. Brooks,  G. K. L. Chan,  C. J. Cramer,  
 M. S. Gordon,  W. J. Hehre,  A. Klamt,  M. W. Schmidt,  C. D. Sherrill,  
 D. G. Truhlar,  A. Aspuru-Guzik,  R. Baer,  A. T. Bell,  N. A. Besley,  
 Jeng-Da Chai,  R. A. DiStasio Jr.,  A. Dreuw,  B. D. Dunietz,  
 T. R. Furlani,  Chao-Ping Hsu,  Yousung Jung,  Jing Kong,  D. S. Lambrecht,  
 WanZhen Liang,  C. Ochsenfeld,  V. A. Rassolov,  L. V. Slipchenko,  
 J. E. Subotnik,  T. Van Voorhis,  J. M. Herbert,  A. I. Krylov,  
 P. M. W. Gill,  M. Head-Gordon

 Contributors to earlier versions of Q-Chem not listed above: 
 R. D. Adamson,  B. Austin,  J. Baker,  G. J. O. Beran,  K. Brandhorst,  
 S. T. Brown,  E. F. C. Byrd,  A. K. Chakraborty,  C.-L. Cheng,  
 Siu Hung Chien,  D. M. Chipman,  D. L. Crittenden,  H. Dachsel,  
 R. J. Doerksen,  A. D. Dutoi,  L. Fusti-Molnar,  W. A. Goddard III,  
 A. Golubeva-Zadorozhnaya,  S. R. Gwaltney,  G. Hawkins,  A. Heyden,  
 S. Hirata,  G. Kedziora,  F. J. Keil,  C. Kelley,  Jihan Kim,  R. A. King,  
 R. Z. Khaliullin,  P. P. Korambath,  W. Kurlancheek,  A. M. Lee,  M. S. Lee,  
 S. V. Levchenko,  Ching Yeh Lin,  D. Liotard,  R. C. Lochan,  I. Lotan,  
 P. E. Maslen,  N. Nair,  D. P. O'Neill,  D. Neuhauser,  E. Neuscamman,  
 C. M. Oana,  R. Olson,  B. Peters,  R. Peverati,  P. A. Pieniazek,  
 Y. M. Rhee,  J. Ritchie,  M. A. Rohrdanz,  E. Rosta,  N. J. Russ,  
 H. F. Schaefer III,  N. E. Schultz,  N. Shenvi,  A. C. Simmonett,  A. Sodt,  
 D. Stuck,  K. S. Thanthiriwatte,  V. Vanovschi,  Tao Wang,  A. Warshel,  
 C. F. Williams,  Q. Wu,  X. Xu,  W. Zhang

 Please cite Q-Chem as follows:
 Y. Shao et al., Mol. Phys. 113, 184-215 (2015)
 DOI: 10.1080/00268976.2014.952696

 Q-Chem 5.1.0 for Intel X86 EM64T Linux

 Parts of Q-Chem use Armadillo 8.300.2 (Tropical Shenanigans).
 http://arma.sourceforge.net/

 Q-Chem begins on Fri Aug 10 13:54:16 2018  

Host: 
0

     Scratch files written to /work1/malop/qc_7098714.hnode2//

Checking the input file for inconsistencies... 	...done.

--------------------------------------------------------------
User input:
--------------------------------------------------------------
$comment 
NEXAFS VINYLFLUORIDE / 6-311++G**+Rydberg
Optimized geometry with CFour
$end

$molecule
0 1
C
Gh   1 nc2
F    2 fn3         1 fnc3
C    3 cf4         2 cfn4          1 dih4
H    4 hc5         1 hcc5          2 dih5
H    1 hc6         4 hcc6          3 dih6
H    1 hc7         4 hcc7          3 dih7

nc2         1.196145
fn3         1.174610
fnc3        159.355
cf4         1.342808
cfn4         18.424
dih4        180.000
hc5         1.080830
hcc5        125.835
dih5        180.000
hc6         1.080059
hcc6        121.377
dih6          0.000
hc7         1.078980
hcc7        118.942
dih7        180.000
$end

$rem
!    input_bohr = true
    jobtype = sp
    method = eom-ccsd
    cvs_ee_singlets    [10,10]
    basis = gen
    n_frozen_core = fc 
    cc_trans_prop = true
   EOM_DAVIDSON_MAXVECTORS = 1000
   eom_preconv_singles = true
   eom_shift = 10470
   eom_davidson_convergence = 4   !as we discussed, this is good for core
   use_libqints = 1   !use new int library (will be def in trunk)
   thresh = 14   !this already should be default, but just in case
   scf_convergence = 13   !v. tight scf convergence, to reduce noise
   cc_convergence = 12   !tight CC, for the same reason
   basis_lin_dep_thresh = 8  !default is 6, use smaller, just in case
   cc_memory = 100000
$end

$basis
C    0
S    6    1.000000
   4.56324000E+03    1.96665000E-03
   6.82024000E+02    1.52306000E-02
   1.54973000E+02    7.61269000E-02
   4.44553000E+01    2.60801000E-01
   1.30290000E+01    6.16462000E-01
   1.82773000E+00    2.21006000E-01
SP   3    1.000000
   2.09642000E+01    1.14660000E-01   4.02487000E-02
   4.80331000E+00    9.19999000E-01   2.37594000E-01
   1.45933000E+00   -3.03068000E-03   8.15854000E-01
SP   1    1.000000
   4.83456000E-01    1.00000000E+00   1.00000000E+00
SP   1    1.000000
   1.45585000E-01    1.00000000E+00   1.00000000E+00
SP   1    1.000000
   4.38000000E-02    1.00000000E+00   1.00000000E+00
D    1    1.000000
   6.26000000E-01    1.00000000E+00
****
Gh   0
S   1   1.00
        0.0112533427        1.0000000000
S   1   1.00
        0.0058583805        1.0000000000
S   1   1.00
        0.0033459739        1.0000000000
S   1   1.00
        0.0020484225        1.0000000000
S   1   1.00
        0.0013236424        1.0000000000
P   1   1.00
        0.0192542060        1.0000000000
P   1   1.00
        0.0099882106        1.0000000000
P   1   1.00
        0.0056893607        1.0000000000
P   1   1.00
        0.0034756797        1.0000000000
P   1   1.00
        0.0022420590        1.0000000000
D   1   1.00
        0.0274456919        1.0000000000
D   1   1.00
        0.0142043987        1.0000000000
D   1   1.00
        0.0080765930        1.0000000000
D   1   1.00
        0.0049271863        1.0000000000
D   1   1.00
        0.0031748110        1.0000000000
****
F    0
S    6    1.000000
   1.14271000E+04    1.80093000E-03
   1.72235000E+03    1.37419000E-02
   3.95746000E+02    6.81334000E-02
   1.15139000E+02    2.33325000E-01
   3.36026000E+01    5.89086000E-01
   4.91901000E+00    2.99505000E-01
SP   3    1.000000
   5.54441000E+01    1.14536000E-01   3.54609000E-02
   1.26323000E+01    9.20512000E-01   2.37451000E-01
   3.71756000E+00   -3.37804000E-03   8.20458000E-01
SP   1    1.000000
   1.16545000E+00    1.00000000E+00   1.00000000E+00
SP   1    1.000000
   3.21892000E-01    1.00000000E+00   1.00000000E+00
SP   1    1.000000
   1.07600000E-01    1.00000000E+00   1.00000000E+00
D    1    1.000000
   1.75000000E+00    1.00000000E+00
****
C    0
S    6    1.000000
   4.56324000E+03    1.96665000E-03
   6.82024000E+02    1.52306000E-02
   1.54973000E+02    7.61269000E-02
   4.44553000E+01    2.60801000E-01
   1.30290000E+01    6.16462000E-01
   1.82773000E+00    2.21006000E-01
SP   3    1.000000
   2.09642000E+01    1.14660000E-01   4.02487000E-02
   4.80331000E+00    9.19999000E-01   2.37594000E-01
   1.45933000E+00   -3.03068000E-03   8.15854000E-01
SP   1    1.000000
   4.83456000E-01    1.00000000E+00   1.00000000E+00
SP   1    1.000000
   1.45585000E-01    1.00000000E+00   1.00000000E+00
SP   1    1.000000
   4.38000000E-02    1.00000000E+00   1.00000000E+00
D    1    1.000000
   6.26000000E-01    1.00000000E+00
****
H    0
S    3    1.000000
   3.38650000E+01    2.54938000E-02
   5.09479000E+00    1.90373000E-01
   1.15879000E+00    8.52161000E-01
S    1    1.000000
   3.25840000E-01    1.00000000E+00
S    1    1.000000
   1.02741000E-01    1.00000000E+00
S    1    1.000000
   3.60000000E-02    1.00000000E+00
P    1    1.000000
   7.50000000E-01    1.00000000E+00
****
H    0
S    3    1.000000
   3.38650000E+01    2.54938000E-02
   5.09479000E+00    1.90373000E-01
   1.15879000E+00    8.52161000E-01
S    1    1.000000
   3.25840000E-01    1.00000000E+00
S    1    1.000000
   1.02741000E-01    1.00000000E+00
S    1    1.000000
   3.60000000E-02    1.00000000E+00
P    1    1.000000
   7.50000000E-01    1.00000000E+00
****
$end
--------------------------------------------------------------
 ----------------------------------------------------------------
             Standard Nuclear Orientation (Angstroms)
    I     Atom           X                Y                Z
 ----------------------------------------------------------------
    1      C       1.1793501531     0.1997297036     0.0000000000
    2      GH     -0.0000008629    -0.0000052260     0.0000000000
    3      F      -1.1529022759     0.2247768549    -0.0000000000
    4      C       0.0163188924    -0.4355678917     0.0000000000
    5      H      -0.1189529826    -1.5078994676    -0.0000000000
    6      H       1.2308255218     1.2785613540    -0.0000000000
    7      H       2.0902345342    -0.3786192262     0.0000000000
 ----------------------------------------------------------------
 Molecular Point Group                 Cs    NOp =  2
 Largest Abelian Subgroup              Cs    NOp =  2
 Nuclear Repulsion Energy =    67.5482146678 hartrees
 There are       12 alpha and       12 beta electrons

 Q-Chem warning in module forms1/BasisType.C, line 1685:

 Setting pure/cartesian flag to 2111 for general basis


 Requested basis set is non-standard
 There are 48 shells and 132 basis functions
MEM_TOTAL is adjusted to CC_MEMORY + MEM_STATIC!
 Total memory of 100192MB is distributed as follows: 
   QALLOC including MEM_STATIC uses 192MB
   MEM_STATIC is set to 192MB
   CCMAN JOB total memory use is  100000MB
 Warning: actual memory use might exceed 100192MB

 Total QAlloc Memory Limit    192 MB
 Mega-Array Size       188 MB
 MEM_STATIC part       192 MB

                       Distance Matrix (Angstroms)
             C (  1)   GH(  2)   F (  3)   C (  4)   H (  5)   H (  6)
   GH(  2)  1.196145
   F (  3)  2.332387  1.174610
   C (  4)  1.325234  0.435868  1.342808
   H (  5)  2.145131  1.512579  2.017726  1.080830
   H (  6)  1.080059  1.774730  2.606266  2.100777  3.096170
   H (  7)  1.078980  2.124249  3.298791  2.074697  2.481085  1.866770

 
 A cutoff of  1.0D-14 yielded   1174 shell pairs
 There are      8949 function pairs (     10081 Cartesian)
 
 -------------------------------------------------------
 OpenMP Integral Computing Module                       
 Release: version 1.0, May 2013, Q-Chem Inc. Pittsburgh 
 -------------------------------------------------------
 Integral Job Info:
 Integral job number is                      11
 Integral operator is                         1
 short-range coefficients                     0
 long-range coefficients              100000000
 Omega coefficients                           0
 if combine SR and LR in K                    0
 Integral screening is                        0
 Integral computing path is                   2
 max size of driver memory is            800000
 size of driver memory is                593474
 size of scratch memory is              2361544
 max col of scratch BK array               1296
 max len of scratch array in speh3          155
 max len of scratch index in speh4           18
 max int batch size is                      520
 min int batch size is                       52
 fixed nKL is                                52
 max L of basis functions is                  2
 order of int derivative is                   0
 number of shells is                         48
 number of basis is                         140
 number of cartesian basis is               140
 number of contracted shell pairs          1174
 number of primitive shell pairs           2621
 maxK2 (contraction) of shell pair           36
 max number of K2 of shell pair               1
 max number of CS2 of shell pair            127
 max number of PS2 of shell pair            264
 mem total for path MDJ                  524862
 -------------------------------------------------------
 Smallest overlap matrix eigenvalue = 4.92E-05

 Scale SEOQF with 1.000000e-02/1.000000e-02/1.000000e-02

 Standard Electronic Orientation quadrupole field applied
 Nucleus-field energy     =     0.0000000001 hartrees
 Guess MOs from core Hamiltonian diagonalization

 -----------------------------------------------------------------------
  General SCF calculation program by
  Eric Jon Sundstrom, Paul Horn, Yuezhi Mao, Dmitri Zuev, Alec White,
  David Stuck, Shaama M.S., Shane Yost, Joonho Lee, David Small,
  Daniel Levine, Susi Lehtola, Hugh Burton, Evgeny Epifanovsky
 -----------------------------------------------------------------------
 Hartree-Fock
 A restricted SCF calculation will be
 performed using DIIS
 SCF converges when DIIS error is below 1.0e-13
 ---------------------------------------
  Cycle       Energy         DIIS error
 ---------------------------------------
    1    -141.8762264088      1.72e-01  
    2    -134.6947093817      6.31e-02  
    3    -154.4282865833      9.70e-02  
    4    -161.0733311653      7.48e-02  
    5    -168.4340690195      5.94e-02  
    6    -171.0025084841      4.89e-02  
    7    -173.9713689260      3.51e-02  
    8    -175.9995999870      1.98e-02  
    9    -176.7763686186      7.57e-03  
   10    -176.9195996022      1.81e-03  
   11    -176.9342118110      6.70e-04  
   12    -176.9364326953      4.12e-04  
   13    -176.9368554418      2.06e-04  
   14    -176.9369963051      3.81e-05  
   15    -176.9370008631      5.67e-06  
   16    -176.9370009739      8.57e-07  
   17    -176.9370009779      1.95e-07  
   18    -176.9370009781      4.57e-08  
   19    -176.9370009782      9.26e-09  
   20    -176.9370009782      1.87e-09  
   21    -176.9370009782      3.44e-10  
   22    -176.9370009782      6.66e-11  
   23    -176.9370009782      1.57e-11  
   24    -176.9370009782      2.90e-12  
   25    -176.9370009782      5.48e-13  
   26    -176.9370009782      1.22e-13  
   27    -176.9370009782      3.77e-14  Convergence criterion met
 ---------------------------------------
 SCF time:   CPU 76.15s  wall 8.00s 
 SCF   energy in the final basis set =     -176.9370009782


 ------------------------------------------------------------------------------

   CCMAN2: suite of methods based on coupled cluster
           and equation of motion theories.

   Components:
   * libvmm-1.3-trunk
     by Evgeny Epifanovsky, Ilya Kaliman.
   * libtensor-2.5-trunk
     by Evgeny Epifanovsky, Michael Wormit, Dmitry Zuev, Sam Manzer, 
        Ilya Kaliman.
   * libcc-2.5-trunk
     by Evgeny Epifanovsky, Arik Landau, Tomasz Kus, Kirill Khistyaev, 
        Dmitry Zuev, Prashant Manohar, Xintian Feng, Anna Krylov, 
        Matthew Goldey, Alec White, Thomas Jagau, Kaushik Nanda, 
        Anastasia Gunina, Alexander Kunitsa, Joonho Lee.

   CCMAN original authors:
   Anna I. Krylov, C. David Sherrill, Steven R. Gwaltney,
   Edward F. C. Byrd (2000)
   Sergey V. Levchenko, Lyudmila V. Slipchenko, Tao Wang,
   Ana-Maria C. Cristian (2003)
   Piotr A. Pieniazek, C. Melania Oana, Evgeny Epifanovsky (2007)
   Prashant Manohar (2009)

 ------------------------------------------------------------------------------


 Calculation will run on 10 cores with 100000MB of RAM.

 
 Alpha MOs, Restricted
 -- Occupied --                  
-26.310 -11.332 -11.240  -1.628  -1.055  -0.840  -0.740  -0.690
  1 A'    2 A'    3 A'    4 A'    5 A'    6 A'    7 A'    1 A"                 
 -0.686  -0.591  -0.562  -0.386
  8 A'    9 A'   10 A'    2 A"                                                 
 -- Virtual --                   
  0.001   0.003   0.004   0.004   0.005   0.008   0.008   0.008
 11 A'   12 A'   13 A'    3 A"   14 A'   15 A'   16 A'    4 A"                 
  0.008   0.008   0.011   0.011   0.012   0.014   0.021   0.021
 17 A'    5 A"   18 A'   19 A'    6 A"   20 A'   21 A'   22 A'                 
  0.021   0.021   0.021   0.025   0.026   0.027   0.030   0.044
  7 A"   23 A'    8 A"   24 A'   25 A'    9 A"   26 A'   27 A'                 
  0.044   0.044   0.045   0.045   0.051   0.055   0.055   0.063
 28 A'   10 A"   29 A'   11 A"   30 A'   12 A"   31 A'   32 A'                 
  0.083   0.084   0.085   0.087   0.089   0.102   0.109   0.112
 13 A"   33 A'   34 A'   35 A'   14 A"   36 A'   37 A'   15 A"                 
  0.126   0.136   0.136   0.145   0.160   0.166   0.172   0.175
 38 A'   16 A"   39 A'   40 A'   41 A'   42 A'   43 A'   17 A"                 
  0.177   0.179   0.220   0.246   0.256   0.261   0.269   0.284
 18 A"   44 A'   45 A'   46 A'   19 A"   47 A'   20 A"   48 A'                 
  0.295   0.333   0.351   0.395   0.453   0.483   0.491   0.511
 49 A'   50 A'   51 A'   52 A'   53 A'   21 A"   54 A'   55 A'                 
  0.540   0.614   0.683   0.706   0.771   0.816   0.837   0.883
 56 A'   57 A'   58 A'   59 A'   60 A'   22 A"   23 A"   61 A'                 
  0.938   0.949   0.994   1.037   1.098   1.257   1.312   1.481
 62 A'   63 A'   64 A'   65 A'   66 A'   24 A"   25 A"   26 A"                 
  1.602   1.661   1.695   1.724   1.749   1.840   1.860   1.913
 67 A'   68 A'   69 A'   27 A"   70 A'   71 A'   72 A'   28 A"                 
  1.960   2.032   2.172   2.286   2.316   2.369   2.402   2.460
 73 A'   29 A"   74 A'   75 A'   30 A"   76 A'   31 A"   77 A'                 
  2.587   2.797   2.877   2.935   3.041   3.061   3.137   3.286
 78 A'   79 A'   80 A'   81 A'   82 A'   83 A'   32 A"   33 A"                 
  3.383   3.598   3.895   4.148   4.225   4.251   4.436   4.444
 84 A'   85 A'   86 A'   87 A'   34 A"   88 A'   89 A'   35 A"                 
  4.591   5.330   6.981   7.029   7.342  24.846  25.411  68.776
 90 A'   91 A'   36 A"   92 A'   93 A'   94 A'   95 A'   96 A'                 
 
 Beta MOs, Restricted
 -- Occupied --                  
-26.310 -11.332 -11.240  -1.628  -1.055  -0.840  -0.740  -0.690
  1 A'    2 A'    3 A'    4 A'    5 A'    6 A'    7 A'    1 A"                 
 -0.686  -0.591  -0.562  -0.386
  8 A'    9 A'   10 A'    2 A"                                                 
 -- Virtual --                   
  0.001   0.003   0.004   0.004   0.005   0.008   0.008   0.008
 11 A'   12 A'   13 A'    3 A"   14 A'   15 A'   16 A'    4 A"                 
  0.008   0.008   0.011   0.011   0.012   0.014   0.021   0.021
 17 A'    5 A"   18 A'   19 A'    6 A"   20 A'   21 A'   22 A'                 
  0.021   0.021   0.021   0.025   0.026   0.027   0.030   0.044
  7 A"   23 A'    8 A"   24 A'   25 A'    9 A"   26 A'   27 A'                 
  0.044   0.044   0.045   0.045   0.051   0.055   0.055   0.063
 28 A'   10 A"   29 A'   11 A"   30 A'   12 A"   31 A'   32 A'                 
  0.083   0.084   0.085   0.087   0.089   0.102   0.109   0.112
 13 A"   33 A'   34 A'   35 A'   14 A"   36 A'   37 A'   15 A"                 
  0.126   0.136   0.136   0.145   0.160   0.166   0.172   0.175
 38 A'   16 A"   39 A'   40 A'   41 A'   42 A'   43 A'   17 A"                 
  0.177   0.179   0.220   0.246   0.256   0.261   0.269   0.284
 18 A"   44 A'   45 A'   46 A'   19 A"   47 A'   20 A"   48 A'                 
  0.295   0.333   0.351   0.395   0.453   0.483   0.491   0.511
 49 A'   50 A'   51 A'   52 A'   53 A'   21 A"   54 A'   55 A'                 
  0.540   0.614   0.683   0.706   0.771   0.816   0.837   0.883
 56 A'   57 A'   58 A'   59 A'   60 A'   22 A"   23 A"   61 A'                 
  0.938   0.949   0.994   1.037   1.098   1.257   1.312   1.481
 62 A'   63 A'   64 A'   65 A'   66 A'   24 A"   25 A"   26 A"                 
  1.602   1.661   1.695   1.724   1.749   1.840   1.860   1.913
 67 A'   68 A'   69 A'   27 A"   70 A'   71 A'   72 A'   28 A"                 
  1.960   2.032   2.172   2.286   2.316   2.369   2.402   2.460
 73 A'   29 A"   74 A'   75 A'   30 A"   76 A'   31 A"   77 A'                 
  2.587   2.797   2.877   2.935   3.041   3.061   3.137   3.286
 78 A'   79 A'   80 A'   81 A'   82 A'   83 A'   32 A"   33 A"                 
  3.383   3.598   3.895   4.148   4.225   4.251   4.436   4.444
 84 A'   85 A'   86 A'   87 A'   34 A"   88 A'   89 A'   35 A"                 
  4.591   5.330   6.981   7.029   7.342  24.846  25.411  68.776
 90 A'   91 A'   36 A"   92 A'   93 A'   94 A'   95 A'   96 A'                 

 Occupation and symmetry of molecular orbitals

 Point group: Cs (2 irreducible representations).

                           A'   A"    All 
 ------------------------------------------
 All molecular orbitals:
  - Alpha                  96   36    132 
  - Beta                   96   36    132 
 ------------------------------------------
 Alpha orbitals:
  - Frozen occupied        3    0     3   
  - Active occupied        7    2     9   
  - Active virtual         86   34    120 
  - Frozen virtual         0    0     0   
 ------------------------------------------
 Beta orbitals:
  - Frozen occupied        3    0     3   
  - Active occupied        7    2     9   
  - Active virtual         86   34    120 
  - Frozen virtual         0    0     0   
 ------------------------------------------

 Import integrals:   CPU 0.00 s  wall 0.00 s

 Import integrals:   CPU 50.02 s  wall 6.45 s

 MP2 amplitudes:   CPU 0.51 s  wall 0.35 s

           CCSD T amplitudes will be solved using DIIS.

           Start     Size      MaxIter   EConv     TConv     
           3         7         100       1.00e-12  1.00e-11  
 ------------------------------------------------------------------------------
           Energy (a.u.)   Ediff      Tdiff       Comment
 ------------------------------------------------------------------------------
          -177.42617045                           
     1    -177.43208300   5.91e-03   6.17e-01     
     2    -177.44563135   1.35e-02   7.48e-02     
     3    -177.44637663   7.45e-04   2.95e-02     
     4    -177.44787452   1.50e-03   1.07e-02     Switched to DIIS steps.
     5    -177.44846011   5.86e-04   9.18e-03     
     6    -177.44847626   1.62e-05   1.55e-03     
     7    -177.44847124   5.02e-06   6.63e-04     
     8    -177.44847037   8.68e-07   1.08e-04     
     9    -177.44847049   1.18e-07   4.41e-05     
    10    -177.44847050   1.15e-08   1.10e-05     
    11    -177.44847051   1.11e-08   3.68e-06     
    12    -177.44847052   3.58e-09   1.70e-06     
    13    -177.44847052   2.70e-09   5.55e-07     
    14    -177.44847051   9.32e-10   1.80e-07     
    15    -177.44847051   8.05e-11   6.44e-08     
    16    -177.44847051   4.05e-10   3.02e-08     
    17    -177.44847051   9.59e-11   1.14e-08     
    18    -177.44847051   2.48e-11   5.62e-09     
    19    -177.44847051   2.05e-11   1.76e-09     
    20    -177.44847051   1.57e-12   7.14e-10     
    21    -177.44847051   5.84e-13   2.93e-10     
    22    -177.44847051   7.90e-13   1.24e-10     
    23    -177.44847051   2.09e-13   4.34e-11     
    24    -177.44847051   3.95e-13   1.90e-11     
    25    -177.44847051   9.45e-14   8.85e-12     
 ------------------------------------------------------------------------------
          -177.44847051                           CCSD T converged.

 SCF energy                 = -176.93700098
 MP2 energy                 = -177.42617045
 CCSD correlation energy     =   -0.51146954
 CCSD total energy           = -177.44847051

 CCSD  T1^2 = 0.0059  T2^2 = 0.1647  Leading amplitudes:

 Amplitude    Orbitals with energies
 -0.0190       1 (A") A                  ->    16 (A") A                  
              -0.6904                          0.1356                     
 -0.0190       1 (A") B                  ->    16 (A") B                  
              -0.6904                          0.1356                     
 -0.0186       2 (A") A                  ->    22 (A") A                  
              -0.3860                          0.8157                     
 -0.0186       2 (A") B                  ->    22 (A") B                  
              -0.3860                          0.8157                     

 Amplitude    Orbitals with energies
 -0.0658       2 (A") A      2 (A") B    ->    16 (A") A     16 (A") B    
              -0.3860       -0.3860            0.1356        0.1356       
  0.0658       2 (A") A      2 (A") B    ->    16 (A") B     16 (A") A    
              -0.3860       -0.3860            0.1356        0.1356       
  0.0658       2 (A") B      2 (A") A    ->    16 (A") A     16 (A") B    
              -0.3860       -0.3860            0.1356        0.1356       
 -0.0658       2 (A") B      2 (A") A    ->    16 (A") B     16 (A") A    
              -0.3860       -0.3860            0.1356        0.1356       

 Computing CCSD intermediates for later calculations
 Finished.

           CCSD Lambda amplitudes will be solved using DIIS.
           Start     Size      MaxIter   EConv     LConv     
           3         7         100       1.00e-12  1.00e-11  
 ------------------------------------------------------------------------------
            Enorm      Ldiff       Comment
 ------------------------------------------------------------------------------
     1     3.67e-02   2.33e-02     
     2     1.09e-02   4.90e-03     
     3     4.09e-03   7.02e-04     
     4     2.06e-03   6.98e-04     Switched to DIIS steps.
     5     5.07e-04   3.86e-04     
     6     2.22e-04   6.85e-05     
     7     5.99e-05   1.43e-05     
     8     2.49e-05   1.01e-06     
     9     8.98e-06   2.34e-06     
    10     3.35e-06   9.66e-07     
    11     1.29e-06   2.94e-07     
    12     3.72e-07   1.42e-07     
    13     1.41e-07   2.52e-08     
    14     5.26e-08   1.37e-08     
    15     1.89e-08   6.98e-09     
    16     9.07e-09   2.26e-09     
    17     3.72e-09   1.17e-09     
    18     1.66e-09   2.93e-10     
    19     6.95e-10   3.04e-11     
    20     3.00e-10   2.72e-11     
    21     1.35e-10   2.02e-11     
    22     5.47e-11   1.23e-11     
    23     2.00e-11   5.84e-12     
    24     8.05e-12   1.05e-12     
    25     3.26e-12   7.21e-13     
    26     1.21e-12   1.68e-13     
    27     4.61e-13   4.83e-14     
 ------------------------------------------------------------------------------
                                   CCSD Lambda converged.

 CCSD calculation:   CPU 654.24 s  wall 92.02 s

        Solving for CVS-EOMEE-CCSD A' singlet states.

       EOMEE-CCSD-SINGLES right amplitudes will be solved using Davidson.
      Amplitudes will be solved using shifted  algorithm
      Roots     MaxVec    MaxIter   Precond   Conv      Thresh    Shift    
      10        1000      60        1         1.00e-04  1.00e-04  1.05e+01  
 ------------------------------------------------------------------------------
      Iter ConvRoots NVecs ResNorm Current eigenvalues (eV)
 ------------------------------------------------------------------------------
      0    5      10    3.04e-04   303.4584   304.0904   304.1917   304.5840   304.6300*  304.6373*  304.6466*  304.7770   304.8003*  304.9352*  
Rerun orthogonalization...
      1    0      15    1.46e-02   301.9918   302.9004   303.4756   304.1194   304.3675   304.4911   304.6255   304.6363   304.6432   304.7043   
      2    0      25    2.81e-03   300.4945   301.4048   303.0645   303.6266   304.0717   304.2588   304.2868   304.3241   304.3517   304.4945   
      3    0      35    3.10e-03   300.2784   300.6104   302.9336   303.3431   303.5016   303.9378   303.9930   304.1035   304.2355   304.3298   
      4    1      45    5.30e-04   300.2593*  300.5019   302.9036   303.0577   303.4128   303.7812   303.8905   304.0414   304.2141   304.2486   
      5    4      54    1.89e-04   300.2587*  300.4967*  302.9001   303.0168   303.4041   303.7566   303.8829*  304.0328*  304.2089   304.2359   
      6    6      60    1.09e-02   300.2586*  300.4959*  301.3439   302.9017   303.0128*  303.4061   303.7530*  303.8820*  304.0321*  304.2125   
      7    6      64    3.19e-03   300.2585*  300.4953*  300.9050   302.9014*  303.0120   303.3103   303.4075   303.7534*  303.8821*  304.0327*  
      8    8      68    2.58e-04   300.2585*  300.4951*  300.8737   302.7671   302.9014*  303.0143*  303.4061*  303.7532*  303.8820*  304.0325*  
      9    9      70    3.73e-05   300.2585*  300.4951*  300.8725*  302.7352   302.9014*  303.0141*  303.4061*  303.7532*  303.8820*  304.0325*  
      10   10     71    5.59e-06   300.2585*  300.4951*  300.8724*  302.7293*  302.9014*  303.0141*  303.4061*  303.7532*  303.8820*  304.0325*  

     Davidson procedure converged

        CVS-EOMEE-CCSD/MP2 right amplitudes will be solved using Davidson.
      Amplitudes will be solved using shifted  algorithm
      Roots     MaxVec    MaxIter   Precond   Conv      Thresh    Shift    
      10        1000      60        1         1.00e-04  1.00e-04  1.05e+01  
 ------------------------------------------------------------------------------
      Iter ConvRoots NVecs ResNorm Current eigenvalues (eV)
 ------------------------------------------------------------------------------
      0    0      10    1.84e+00   300.2585   300.4951   300.8724   302.7293   302.9014   303.0141   303.4061   303.7532   303.8820   304.0325   
      1    0      20    1.09e+00   297.6914   297.9779   298.5308   300.0267   300.1756   300.2124   300.5382   300.8832   301.0069   301.1522   
      2    0      30    5.98e-02   288.7476   289.4512   289.8540   290.4711   290.6172   290.8031   291.0223   291.2135   291.9095   292.7001   
      3    0      40    1.64e-02   288.2720   288.9437   289.4010   289.9267   290.1746   290.3663   290.4477   290.6220   291.1574   292.0149   
      4    0      50    3.75e-03   288.2011   288.8507   289.3667   289.8153   290.1410   290.3156   290.3550   290.5362   290.9093   291.7676   
      5    0      60    3.30e-03   288.1699   288.8055   289.3534   289.7591   290.1239   290.2625   290.3413   290.5023   290.7836   291.6355   
      6    0      70    1.41e-03   288.1560   288.7825   289.3463   289.7256   290.1058   290.2269   290.3327   290.4792   290.7087   291.5586   
      7    0      80    1.07e-03   288.1495   288.7707   289.3420   289.7039   290.0885   290.2027   290.3258   290.4653   290.6653   291.5094   
      8    2      90    4.63e-04   288.1476*  288.7671   289.3408*  289.6979   290.0808   290.1933   290.3214   290.4584   290.6489   291.4877   
      9    3      98    1.79e-03   288.1473*  288.7657*  289.3402*  289.6924   290.0730   290.1849   290.3178   290.4529   290.6321   291.4192   
      10   4      105   1.39e-03   288.1472*  288.7646*  289.3396*  289.6868   290.0667   290.1791   290.3151*  290.4479   290.6194   291.1823   
      11   4      111   1.02e-03   288.1471*  288.7644*  289.3393*  289.6861*  290.0639   290.1765   290.3140   290.4455   290.6164   291.0031   
      12   7      117   6.67e-04   288.1471*  288.7644*  289.3393*  289.6859*  290.0630*  290.1747   290.3138*  290.4442*  290.6143   290.9135   
      13   8      120   5.59e-04   288.1470*  288.7644*  289.3393*  289.6859*  290.0621*  290.1720*  290.3126*  290.4434*  290.6101   290.8235   
      14   8      122   2.94e-04   288.1470*  288.7644*  289.3393*  289.6859*  290.0620*  290.1708*  290.3117*  290.4429*  290.6079   290.7582   
      15   9      124   2.28e-04   288.1470*  288.7644*  289.3392*  289.6858*  290.0620*  290.1705*  290.3115*  290.4429*  290.6071*  290.7294   
      16   9      125   1.77e-04   288.1470*  288.7643*  289.3392*  289.6858*  290.0620*  290.1704*  290.3114*  290.4425*  290.6071*  290.7062   
      17   9      126   2.11e-04   288.1470*  288.7643*  289.3393*  289.6857*  290.0620*  290.1703*  290.3112*  290.4422*  290.6071*  290.6808   
      18   9      127   1.31e-04   288.1470*  288.7643*  289.3392*  289.6857*  290.0620*  290.1702*  290.3108*  290.4419*  290.6071*  290.6578   
      19   9      128   9.37e-05   288.1470*  288.7643*  289.3392*  289.6857*  290.0620*  290.1700*  290.3107*  290.4419*  290.6071*  290.6480   
      20   9      129   8.56e-05   288.1470*  288.7643*  289.3392*  289.6857*  290.0620*  290.1700*  290.3106*  290.4419*  290.6071*  290.6414   
      21   9      130   7.77e-05   288.1470*  288.7643*  289.3392*  289.6857*  290.0620*  290.1700*  290.3106*  290.4419*  290.6071*  290.6313   
      22   9      131   7.90e-05   288.1470*  288.7643*  289.3392*  289.6857*  290.0619*  290.1699*  290.3106*  290.4419*  290.6071*  290.6250   
      23   9      132   6.98e-05   288.1470*  288.7643*  289.3392*  289.6856*  290.0620*  290.1699*  290.3106*  290.4419*  290.6070*  290.6178   
      24   8      133   9.16e-05   288.1470*  288.7643*  289.3393*  289.6856*  290.0619*  290.1698*  290.3106*  290.4418*  290.6070   290.6144   
      25   5      135   1.00e-02   288.1470*  288.7643*  289.3393*  289.6856*  290.0616   290.1696   290.3105*  290.4416   290.5742   290.6066   
      26   9      140   6.71e-05   288.1470*  288.7643*  289.3392*  289.6854*  290.0609*  290.1693*  290.3105*  290.4408*  290.6058*  290.6150   
      27   9      141   4.01e-05   288.1470*  288.7643*  289.3392*  289.6854*  290.0608*  290.1693*  290.3105*  290.4408*  290.6055*  290.6094   
      28   9      142   4.40e-05   288.1470*  288.7643*  289.3392*  289.6854*  290.0608*  290.1693*  290.3105*  290.4407*  290.6055*  290.6096   
      29   8      143   3.22e-04   288.1470*  288.7643*  289.3391*  289.6854*  290.0608*  290.1692*  290.3105*  290.4407*  290.5998   290.6063   
      30   8      145   1.12e-04   288.1470*  288.7643*  289.3392*  289.6854*  290.0608*  290.1692*  290.3105*  290.4408*  290.6054   290.6096   
      31   8      147   4.94e-05   288.1470*  288.7643*  289.3392*  289.6854*  290.0608*  290.1693*  290.3105*  290.4407*  290.6042   290.6070   
      32   7      149   3.77e-04   288.1470*  288.7643*  289.3391*  289.6854*  290.0608*  290.1693*  290.3104*  290.4406   290.5978   290.6061   
      33   8      152   9.85e-05   288.1470*  288.7643*  289.3391*  289.6854*  290.0608*  290.1693*  290.3104*  290.4398*  290.6045   290.6073   
      34   9      154   4.04e-05   288.1470*  288.7643*  289.3391*  289.6853*  290.0608*  290.1693*  290.3105*  290.4397*  290.6011   290.6062*  
      35   9      155   5.25e-05   288.1470*  288.7643*  289.3391*  289.6853*  290.0608*  290.1693*  290.3104*  290.4395*  290.6003   290.6062*  
      36   8      156   4.47e-03   288.1470*  288.7643*  289.3391*  289.6853*  290.0608*  290.1693*  290.3105*  290.4389   290.5680   290.6058*  
      37   9      158   7.27e-05   288.1470*  288.7643*  289.3391*  289.6853*  290.0608*  290.1693*  290.3104*  290.4389*  290.5987   290.6061*  
      38   9      159   3.91e-05   288.1470*  288.7643*  289.3391*  289.6853*  290.0608*  290.1693*  290.3104*  290.4388*  290.5965   290.6060*  
      39   9      160   7.52e-05   288.1470*  288.7643*  289.3391*  289.6853*  290.0608*  290.1693*  290.3104*  290.4385*  290.5925   290.6060*  
      40   5      161   3.62e-01   288.0851   288.1483   288.7643*  289.3391*  289.6853*  290.0608   290.1693*  290.3105*  290.4391   290.5996   
      41   9      166   4.86e-05   288.1468*  288.7642*  289.3391*  289.6852*  290.0598*  290.1691*  290.3104*  290.4384*  290.5915   290.6060*  
      42   9      167   5.57e-05   288.1468*  288.7642*  289.3391*  289.6852*  290.0598*  290.1691*  290.3103*  290.4383*  290.5908   290.6060*  
      43   5      168   9.87e-03   288.1468*  288.7642*  289.3391*  289.6852*  290.0598   290.1690*  290.3102   290.4377   290.5489   290.6058   
      44   9      173   3.57e-05   288.1468*  288.7642*  289.3391*  289.6852*  290.0595*  290.1689*  290.3102*  290.4383*  290.5901   290.6059*  
      45   9      174   2.50e-05   288.1468*  288.7642*  289.3391*  289.6852*  290.0594*  290.1689*  290.3102*  290.4382*  290.5887   290.6059*  
      46   9      175   2.00e-04   288.1468*  288.7642*  289.3391*  289.6852*  290.0594*  290.1689*  290.3101*  290.4381*  290.5858   290.6059*  
      47   9      176   5.79e-05   288.1468*  288.7642*  289.3391*  289.6852*  290.0594*  290.1689*  290.3102*  290.4382*  290.5894   290.6059*  
      48   9      177   2.61e-05   288.1468*  288.7642*  289.3391*  289.6852*  290.0594*  290.1689*  290.3102*  290.4382*  290.5871   290.6059*  
      49   9      178   8.16e-05   288.1468*  288.7642*  289.3391*  289.6851*  290.0594*  290.1689*  290.3102*  290.4381*  290.5842   290.6059*  
      50   8      179   3.78e-01   286.8394   288.1469*  288.7642*  289.3391*  289.6852*  290.0595*  290.1689*  290.3102*  290.4382*  290.5889   
      51   9      181   4.01e-05   288.1468*  288.7642*  289.3391*  289.6851*  290.0594*  290.1689*  290.3102*  290.4381*  290.5836   290.6059*  
      52   9      182   5.13e-05   288.1468*  288.7642*  289.3391*  289.6851*  290.0594*  290.1689*  290.3102*  290.4380*  290.5828   290.6059*  
      53   5      183   1.03e-01   288.1342   288.1470   288.7642*  289.3391   289.6851*  290.0594*  290.1689*  290.3102*  290.4383   290.5901   
      54   10     188   1.95e-05   288.1468*  288.7642*  289.3387*  289.6851*  290.0594*  290.1689*  290.3100*  290.4378*  290.5821*  290.6059*  

     Davidson procedure converged

 EOMEE transition 1/A'
 Total energy = -166.85927199 a.u.  Excitation energy = 288.1467 eV.
 R0^2 = 0.0000  R1^2 = 0.8138  R2_CCVV^2 = 0.0012  R2_COVV^2 = 0.0925  Res^2 = 4.83e-07
 Conv-d = yes

 Amplitude    Transitions between orbitals
  0.2742       3 (A') A                  ->    32 (A') A                  
  0.2742       3 (A') B                  ->    32 (A') B                  
  0.2199       3 (A') A                  ->    39 (A') A                  
  0.2199       3 (A') B                  ->    39 (A') B                  
 -0.2161       3 (A') A                  ->    26 (A') A                  
 -0.2161       3 (A') B                  ->    26 (A') B                  
  0.1970       3 (A') A                  ->    25 (A') A                  
  0.1970       3 (A') B                  ->    25 (A') B                  
  0.1848       3 (A') A                  ->    20 (A') A                  
  0.1848       3 (A') B                  ->    20 (A') B                  
 -0.1764       3 (A') A                  ->    31 (A') A                  
 -0.1764       3 (A') B                  ->    31 (A') B                  
 -0.1516       3 (A') A                  ->    14 (A') A                  
 -0.1516       3 (A') B                  ->    14 (A') B                  
 -0.1343       3 (A') A                  ->    19 (A') A                  
 -0.1343       3 (A') B                  ->    19 (A') B                  
 -0.1290       3 (A') A                  ->    38 (A') A                  
 -0.1290       3 (A') B                  ->    38 (A') B                  
  0.1239       3 (A') A                  ->    50 (A') A                  
  0.1239       3 (A') B                  ->    50 (A') B                  

              Summary of significant orbitals:

               Number  Type             Irrep      Energy
               3       Occ  Alpha       3 (A')    -11.2400
               3       Occ  Beta        3 (A')    -11.2400
               17      Vir  Alpha      14 (A')      0.0052
               24      Vir  Alpha      19 (A')      0.0114
               26      Vir  Alpha      20 (A')      0.0137
               33      Vir  Alpha      25 (A')      0.0263
               35      Vir  Alpha      26 (A')      0.0297
               43      Vir  Alpha      31 (A')      0.0547
               44      Vir  Alpha      32 (A')      0.0626
               53      Vir  Alpha      38 (A')      0.1257
               55      Vir  Alpha      39 (A')      0.1359
               70      Vir  Alpha      50 (A')      0.3333
               17      Vir  Beta       14 (A')      0.0052
               24      Vir  Beta       19 (A')      0.0114
               26      Vir  Beta       20 (A')      0.0137
               33      Vir  Beta       25 (A')      0.0263
               35      Vir  Beta       26 (A')      0.0297
               43      Vir  Beta       31 (A')      0.0547
               44      Vir  Beta       32 (A')      0.0626
               53      Vir  Beta       38 (A')      0.1257
               55      Vir  Beta       39 (A')      0.1359
               70      Vir  Beta       50 (A')      0.3333


 EOMEE transition 2/A'
 Total energy = -166.83658094 a.u.  Excitation energy = 288.7642 eV.
 R0^2 = 0.0000  R1^2 = 0.8144  R2_CCVV^2 = 0.0012  R2_COVV^2 = 0.0922  Res^2 = 3.92e-06
 Conv-d = yes

 Amplitude    Transitions between orbitals
 -0.3069       3 (A') A                  ->    30 (A') A                  
 -0.3069       3 (A') B                  ->    30 (A') B                  
  0.2725       3 (A') A                  ->    36 (A') A                  
  0.2725       3 (A') B                  ->    36 (A') B                  
  0.2483       3 (A') A                  ->    24 (A') A                  
  0.2483       3 (A') B                  ->    24 (A') B                  
 -0.1588       3 (A') A                  ->    18 (A') A                  
 -0.1588       3 (A') B                  ->    18 (A') B                  
 -0.1379       3 (A') A                  ->    46 (A') A                  
 -0.1379       3 (A') B                  ->    46 (A') B                  
 -0.1330       3 (A') A                  ->    41 (A') A                  
 -0.1330       3 (A') B                  ->    41 (A') B                  
  0.1250       3 (A') A                  ->    51 (A') A                  
  0.1250       3 (A') B                  ->    51 (A') B                  
 -0.1127       3 (A') A                  ->    38 (A') A                  
 -0.1127       3 (A') B                  ->    38 (A') B                  
  0.1095       3 (A') A                  ->    48 (A') A                  
  0.1095       3 (A') B                  ->    48 (A') B                  
  0.1015       3 (A') A                  ->    33 (A') A                  
  0.1015       3 (A') B                  ->    33 (A') B                  

              Summary of significant orbitals:

               Number  Type             Irrep      Energy
               3       Occ  Alpha       3 (A')    -11.2400
               3       Occ  Beta        3 (A')    -11.2400
               23      Vir  Alpha      18 (A')      0.0111
               32      Vir  Alpha      24 (A')      0.0254
               41      Vir  Alpha      30 (A')      0.0513
               46      Vir  Alpha      33 (A')      0.0841
               50      Vir  Alpha      36 (A')      0.1023
               53      Vir  Alpha      38 (A')      0.1257
               57      Vir  Alpha      41 (A')      0.1604
               64      Vir  Alpha      46 (A')      0.2456
               68      Vir  Alpha      48 (A')      0.2844
               71      Vir  Alpha      51 (A')      0.3513
               23      Vir  Beta       18 (A')      0.0111
               32      Vir  Beta       24 (A')      0.0254
               41      Vir  Beta       30 (A')      0.0513
               46      Vir  Beta       33 (A')      0.0841
               50      Vir  Beta       36 (A')      0.1023
               53      Vir  Beta       38 (A')      0.1257
               57      Vir  Beta       41 (A')      0.1604
               64      Vir  Beta       46 (A')      0.2456
               68      Vir  Beta       48 (A')      0.2844
               71      Vir  Beta       51 (A')      0.3513


 EOMEE transition 3/A'
 Total energy = -166.81546789 a.u.  Excitation energy = 289.3387 eV.
 R0^2 = 0.0000  R1^2 = 0.8043  R2_CCVV^2 = 0.0012  R2_COVV^2 = 0.0973  Res^2 = 4.85e-06
 Conv-d = yes

 Amplitude    Transitions between orbitals
  0.2490       3 (A') A                  ->    31 (A') A                  
  0.2490       3 (A') B                  ->    31 (A') B                  
 -0.2192       3 (A') A                  ->    26 (A') A                  
 -0.2192       3 (A') B                  ->    26 (A') B                  
 -0.1977       3 (A') A                  ->    25 (A') A                  
 -0.1977       3 (A') B                  ->    25 (A') B                  
  0.1940       3 (A') A                  ->    32 (A') A                  
  0.1940       3 (A') B                  ->    32 (A') B                  
  0.1733       3 (A') A                  ->    37 (A') A                  
  0.1733       3 (A') B                  ->    37 (A') B                  
  0.1581       3 (A') A                  ->    20 (A') A                  
  0.1581       3 (A') B                  ->    20 (A') B                  
  0.1409       3 (A') A                  ->    19 (A') A                  
  0.1409       3 (A') B                  ->    19 (A') B                  
  0.1387       3 (A') A                  ->    38 (A') A                  
  0.1387       3 (A') B                  ->    38 (A') B                  
  0.1265       3 (A') A                  ->    35 (A') A                  
  0.1265       3 (A') B                  ->    35 (A') B                  
  0.1088       3 (A') A                  ->    29 (A') A                  
  0.1088       3 (A') B                  ->    29 (A') B                  
  0.1059       3 (A') A                  ->    39 (A') A                  
  0.1059       3 (A') B                  ->    39 (A') B                  

              Summary of significant orbitals:

               Number  Type             Irrep      Energy
               3       Occ  Alpha       3 (A')    -11.2400
               3       Occ  Beta        3 (A')    -11.2400
               24      Vir  Alpha      19 (A')      0.0114
               26      Vir  Alpha      20 (A')      0.0137
               33      Vir  Alpha      25 (A')      0.0263
               35      Vir  Alpha      26 (A')      0.0297
               39      Vir  Alpha      29 (A')      0.0449
               43      Vir  Alpha      31 (A')      0.0547
               44      Vir  Alpha      32 (A')      0.0626
               48      Vir  Alpha      35 (A')      0.0874
               51      Vir  Alpha      37 (A')      0.1093
               53      Vir  Alpha      38 (A')      0.1257
               55      Vir  Alpha      39 (A')      0.1359
               24      Vir  Beta       19 (A')      0.0114
               26      Vir  Beta       20 (A')      0.0137
               33      Vir  Beta       25 (A')      0.0263
               35      Vir  Beta       26 (A')      0.0297
               39      Vir  Beta       29 (A')      0.0449
               43      Vir  Beta       31 (A')      0.0547
               44      Vir  Beta       32 (A')      0.0626
               48      Vir  Beta       35 (A')      0.0874
               51      Vir  Beta       37 (A')      0.1093
               53      Vir  Beta       38 (A')      0.1257
               55      Vir  Beta       39 (A')      0.1359


 EOMEE transition 4/A'
 Total energy = -166.80273711 a.u.  Excitation energy = 289.6851 eV.
 R0^2 = 0.0000  R1^2 = 0.8062  R2_CCVV^2 = 0.0012  R2_COVV^2 = 0.0963  Res^2 = 2.42e-05
 Conv-d = yes

 Amplitude    Transitions between orbitals
  0.2495       3 (A') A                  ->    34 (A') A                  
  0.2495       3 (A') B                  ->    34 (A') B                  
  0.2175       3 (A') A                  ->    45 (A') A                  
  0.2175       3 (A') B                  ->    45 (A') B                  
 -0.2058       3 (A') A                  ->    42 (A') A                  
 -0.2058       3 (A') B                  ->    42 (A') B                  
  0.1824       3 (A') A                  ->    28 (A') A                  
  0.1824       3 (A') B                  ->    28 (A') B                  
 -0.1506       3 (A') A                  ->    37 (A') A                  
 -0.1506       3 (A') B                  ->    37 (A') B                  
 -0.1407       3 (A') A                  ->    51 (A') A                  
 -0.1407       3 (A') B                  ->    51 (A') B                  
 -0.1376       3 (A') A                  ->    22 (A') A                  
 -0.1376       3 (A') B                  ->    22 (A') B                  
  0.1324       3 (A') A                  ->    24 (A') A                  
  0.1324       3 (A') B                  ->    24 (A') B                  
  0.1216       3 (A') A                  ->    27 (A') A                  
  0.1216       3 (A') B                  ->    27 (A') B                  
 -0.1176       3 (A') A                  ->    33 (A') A                  
 -0.1176       3 (A') B                  ->    33 (A') B                  
 -0.1165       3 (A') A                  ->    18 (A') A                  
 -0.1165       3 (A') B                  ->    18 (A') B                  
 -0.1114       3 (A') A                  ->    52 (A') A                  
 -0.1114       3 (A') B                  ->    52 (A') B                  
  0.1087       3 (A') A                  ->    41 (A') A                  
  0.1087       3 (A') B                  ->    41 (A') B                  
  0.1052       3 (A') A                  ->    38 (A') A                  
  0.1052       3 (A') B                  ->    38 (A') B                  

              Summary of significant orbitals:

               Number  Type             Irrep      Energy
               3       Occ  Alpha       3 (A')    -11.2400
               3       Occ  Beta        3 (A')    -11.2400
               23      Vir  Alpha      18 (A')      0.0111
               28      Vir  Alpha      22 (A')      0.0210
               32      Vir  Alpha      24 (A')      0.0254
               36      Vir  Alpha      27 (A')      0.0436
               37      Vir  Alpha      28 (A')      0.0442
               46      Vir  Alpha      33 (A')      0.0841
               47      Vir  Alpha      34 (A')      0.0851
               51      Vir  Alpha      37 (A')      0.1093
               53      Vir  Alpha      38 (A')      0.1257
               57      Vir  Alpha      41 (A')      0.1604
               58      Vir  Alpha      42 (A')      0.1655
               63      Vir  Alpha      45 (A')      0.2198
               71      Vir  Alpha      51 (A')      0.3513
               72      Vir  Alpha      52 (A')      0.3947
               23      Vir  Beta       18 (A')      0.0111
               28      Vir  Beta       22 (A')      0.0210
               32      Vir  Beta       24 (A')      0.0254
               36      Vir  Beta       27 (A')      0.0436
               37      Vir  Beta       28 (A')      0.0442
               46      Vir  Beta       33 (A')      0.0841
               47      Vir  Beta       34 (A')      0.0851
               51      Vir  Beta       37 (A')      0.1093
               53      Vir  Beta       38 (A')      0.1257
               57      Vir  Beta       41 (A')      0.1604
               58      Vir  Beta       42 (A')      0.1655
               63      Vir  Beta       45 (A')      0.2198
               71      Vir  Beta       51 (A')      0.3513
               72      Vir  Beta       52 (A')      0.3947


 EOMEE transition 5/A'
 Total energy = -166.78898259 a.u.  Excitation energy = 290.0594 eV.
 R0^2 = 0.0000  R1^2 = 0.8069  R2_CCVV^2 = 0.0012  R2_COVV^2 = 0.0960  Res^2 = 1.69e-05
 Conv-d = yes

 Amplitude    Transitions between orbitals
 -0.2288       3 (A') A                  ->    14 (A') A                  
 -0.2288       3 (A') B                  ->    14 (A') B                  
  0.1807       3 (A') A                  ->    11 (A') A                  
  0.1807       3 (A') B                  ->    11 (A') B                  
 -0.1608       3 (A') A                  ->    19 (A') A                  
 -0.1608       3 (A') B                  ->    19 (A') B                  
 -0.1465       3 (A') A                  ->    39 (A') A                  
 -0.1465       3 (A') B                  ->    39 (A') B                  
  0.1427       3 (A') A                  ->    38 (A') A                  
  0.1427       3 (A') B                  ->    38 (A') B                  
  0.1410       3 (A') A                  ->    20 (A') A                  
  0.1410       3 (A') B                  ->    20 (A') B                  
 -0.1343       3 (A') A                  ->    33 (A') A                  
 -0.1343       3 (A') B                  ->    33 (A') B                  
  0.1326       3 (A') A                  ->    27 (A') A                  
  0.1326       3 (A') B                  ->    27 (A') B                  
 -0.1293       3 (A') A                  ->    32 (A') A                  
 -0.1293       3 (A') B                  ->    32 (A') B                  
 -0.1176       3 (A') A                  ->    28 (A') A                  
 -0.1176       3 (A') B                  ->    28 (A') B                  
 -0.1134       3 (A') A                  ->    34 (A') A                  
 -0.1134       3 (A') B                  ->    34 (A') B                  
 -0.1117       3 (A') A                  ->    13 (A') A                  
 -0.1117       3 (A') B                  ->    13 (A') B                  
  0.1102       3 (A') A                  ->    35 (A') A                  
  0.1102       3 (A') B                  ->    35 (A') B                  
 -0.1093       3 (A') A                  ->    50 (A') A                  
 -0.1093       3 (A') B                  ->    50 (A') B                  
  0.1075       3 (A') A                  ->    40 (A') A                  
  0.1075       3 (A') B                  ->    40 (A') B                  

              Summary of significant orbitals:

               Number  Type             Irrep      Energy
               3       Occ  Alpha       3 (A')    -11.2400
               3       Occ  Beta        3 (A')    -11.2400
               13      Vir  Alpha      11 (A')      0.0011
               15      Vir  Alpha      13 (A')      0.0036
               17      Vir  Alpha      14 (A')      0.0052
               24      Vir  Alpha      19 (A')      0.0114
               26      Vir  Alpha      20 (A')      0.0137
               36      Vir  Alpha      27 (A')      0.0436
               37      Vir  Alpha      28 (A')      0.0442
               44      Vir  Alpha      32 (A')      0.0626
               46      Vir  Alpha      33 (A')      0.0841
               47      Vir  Alpha      34 (A')      0.0851
               48      Vir  Alpha      35 (A')      0.0874
               53      Vir  Alpha      38 (A')      0.1257
               55      Vir  Alpha      39 (A')      0.1359
               56      Vir  Alpha      40 (A')      0.1450
               70      Vir  Alpha      50 (A')      0.3333
               13      Vir  Beta       11 (A')      0.0011
               15      Vir  Beta       13 (A')      0.0036
               17      Vir  Beta       14 (A')      0.0052
               24      Vir  Beta       19 (A')      0.0114
               26      Vir  Beta       20 (A')      0.0137
               36      Vir  Beta       27 (A')      0.0436
               37      Vir  Beta       28 (A')      0.0442
               44      Vir  Beta       32 (A')      0.0626
               46      Vir  Beta       33 (A')      0.0841
               47      Vir  Beta       34 (A')      0.0851
               48      Vir  Beta       35 (A')      0.0874
               53      Vir  Beta       38 (A')      0.1257
               55      Vir  Beta       39 (A')      0.1359
               56      Vir  Beta       40 (A')      0.1450
               70      Vir  Beta       50 (A')      0.3333


 EOMEE transition 6/A'
 Total energy = -166.78496026 a.u.  Excitation energy = 290.1689 eV.
 R0^2 = 0.0000  R1^2 = 0.8040  R2_CCVV^2 = 0.0012  R2_COVV^2 = 0.0974  Res^2 = 1.85e-05
 Conv-d = yes

 Amplitude    Transitions between orbitals
  0.2399       3 (A') A                  ->    29 (A') A                  
  0.2399       3 (A') B                  ->    29 (A') B                  
  0.2214       3 (A') A                  ->    35 (A') A                  
  0.2214       3 (A') B                  ->    35 (A') B                  
 -0.1986       3 (A') A                  ->    27 (A') A                  
 -0.1986       3 (A') B                  ->    27 (A') B                  
  0.1976       3 (A') A                  ->    33 (A') A                  
  0.1976       3 (A') B                  ->    33 (A') B                  
  0.1888       3 (A') A                  ->    21 (A') A                  
  0.1888       3 (A') B                  ->    21 (A') B                  
 -0.1721       3 (A') A                  ->    23 (A') A                  
 -0.1721       3 (A') B                  ->    23 (A') B                  
 -0.1619       3 (A') A                  ->    41 (A') A                  
 -0.1619       3 (A') B                  ->    41 (A') B                  
  0.1410       3 (A') A                  ->    28 (A') A                  
  0.1410       3 (A') B                  ->    28 (A') B                  
  0.1065       3 (A') A                  ->    25 (A') A                  
  0.1065       3 (A') B                  ->    25 (A') B                  
 -0.1000       3 (A') A                  ->    43 (A') A                  
 -0.1000       3 (A') B                  ->    43 (A') B                  

              Summary of significant orbitals:

               Number  Type             Irrep      Energy
               3       Occ  Alpha       3 (A')    -11.2400
               3       Occ  Beta        3 (A')    -11.2400
               27      Vir  Alpha      21 (A')      0.0209
               30      Vir  Alpha      23 (A')      0.0213
               33      Vir  Alpha      25 (A')      0.0263
               36      Vir  Alpha      27 (A')      0.0436
               37      Vir  Alpha      28 (A')      0.0442
               39      Vir  Alpha      29 (A')      0.0449
               46      Vir  Alpha      33 (A')      0.0841
               48      Vir  Alpha      35 (A')      0.0874
               57      Vir  Alpha      41 (A')      0.1604
               59      Vir  Alpha      43 (A')      0.1720
               27      Vir  Beta       21 (A')      0.0209
               30      Vir  Beta       23 (A')      0.0213
               33      Vir  Beta       25 (A')      0.0263
               36      Vir  Beta       27 (A')      0.0436
               37      Vir  Beta       28 (A')      0.0442
               39      Vir  Beta       29 (A')      0.0449
               46      Vir  Beta       33 (A')      0.0841
               48      Vir  Beta       35 (A')      0.0874
               57      Vir  Beta       41 (A')      0.1604
               59      Vir  Beta       43 (A')      0.1720


 EOMEE transition 7/A'
 Total energy = -166.77977331 a.u.  Excitation energy = 290.3100 eV.
 R0^2 = 0.0000  R1^2 = 0.8040  R2_CCVV^2 = 0.0012  R2_COVV^2 = 0.0974  Res^2 = 1.18e-05
 Conv-d = yes

 Amplitude    Transitions between orbitals
 -0.2396       3 (A') A                  ->    14 (A') A                  
 -0.2396       3 (A') B                  ->    14 (A') B                  
  0.2046       3 (A') A                  ->    11 (A') A                  
  0.2046       3 (A') B                  ->    11 (A') B                  
 -0.1683       3 (A') A                  ->    29 (A') A                  
 -0.1683       3 (A') B                  ->    29 (A') B                  
 -0.1402       3 (A') A                  ->    32 (A') A                  
 -0.1402       3 (A') B                  ->    32 (A') B                  
 -0.1394       3 (A') A                  ->    27 (A') A                  
 -0.1394       3 (A') B                  ->    27 (A') B                  
  0.1385       3 (A') A                  ->    31 (A') A                  
  0.1385       3 (A') B                  ->    31 (A') B                  
  0.1382       3 (A') A                  ->    21 (A') A                  
  0.1382       3 (A') B                  ->    21 (A') B                  
  0.1358       3 (A') A                  ->    23 (A') A                  
  0.1358       3 (A') B                  ->    23 (A') B                  
  0.1327       3 (A') A                  ->    20 (A') A                  
  0.1327       3 (A') B                  ->    20 (A') B                  
 -0.1211       3 (A') A                  ->    39 (A') A                  
 -0.1211       3 (A') B                  ->    39 (A') B                  
  0.1207       3 (A') A                  ->    28 (A') A                  
  0.1207       3 (A') B                  ->    28 (A') B                  
  0.1144       3 (A') A                  ->    34 (A') A                  
  0.1144       3 (A') B                  ->    34 (A') B                  
  0.1121       3 (A') A                  ->    37 (A') A                  
  0.1121       3 (A') B                  ->    37 (A') B                  
 -0.1110       3 (A') A                  ->    24 (A') A                  
 -0.1110       3 (A') B                  ->    24 (A') B                  
 -0.1102       3 (A') A                  ->    35 (A') A                  
 -0.1102       3 (A') B                  ->    35 (A') B                  
 -0.1048       3 (A') A                  ->    22 (A') A                  
 -0.1048       3 (A') B                  ->    22 (A') B                  

              Summary of significant orbitals:

               Number  Type             Irrep      Energy
               3       Occ  Alpha       3 (A')    -11.2400
               3       Occ  Beta        3 (A')    -11.2400
               13      Vir  Alpha      11 (A')      0.0011
               17      Vir  Alpha      14 (A')      0.0052
               26      Vir  Alpha      20 (A')      0.0137
               27      Vir  Alpha      21 (A')      0.0209
               28      Vir  Alpha      22 (A')      0.0210
               30      Vir  Alpha      23 (A')      0.0213
               32      Vir  Alpha      24 (A')      0.0254
               36      Vir  Alpha      27 (A')      0.0436
               37      Vir  Alpha      28 (A')      0.0442
               39      Vir  Alpha      29 (A')      0.0449
               43      Vir  Alpha      31 (A')      0.0547
               44      Vir  Alpha      32 (A')      0.0626
               47      Vir  Alpha      34 (A')      0.0851
               48      Vir  Alpha      35 (A')      0.0874
               51      Vir  Alpha      37 (A')      0.1093
               55      Vir  Alpha      39 (A')      0.1359
               13      Vir  Beta       11 (A')      0.0011
               17      Vir  Beta       14 (A')      0.0052
               26      Vir  Beta       20 (A')      0.0137
               27      Vir  Beta       21 (A')      0.0209
               28      Vir  Beta       22 (A')      0.0210
               30      Vir  Beta       23 (A')      0.0213
               32      Vir  Beta       24 (A')      0.0254
               36      Vir  Beta       27 (A')      0.0436
               37      Vir  Beta       28 (A')      0.0442
               39      Vir  Beta       29 (A')      0.0449
               43      Vir  Beta       31 (A')      0.0547
               44      Vir  Beta       32 (A')      0.0626
               47      Vir  Beta       34 (A')      0.0851
               48      Vir  Beta       35 (A')      0.0874
               51      Vir  Beta       37 (A')      0.1093
               55      Vir  Beta       39 (A')      0.1359


 EOMEE transition 8/A'
 Total energy = -166.77507857 a.u.  Excitation energy = 290.4378 eV.
 R0^2 = 0.0000  R1^2 = 0.8047  R2_CCVV^2 = 0.0012  R2_COVV^2 = 0.0971  Res^2 = 1.56e-05
 Conv-d = yes

 Amplitude    Transitions between orbitals
 -0.3579       3 (A') A                  ->    18 (A') A                  
 -0.3579       3 (A') B                  ->    18 (A') B                  
 -0.2752       3 (A') A                  ->    12 (A') A                  
 -0.2752       3 (A') B                  ->    12 (A') B                  
 -0.1773       3 (A') A                  ->    36 (A') A                  
 -0.1773       3 (A') B                  ->    36 (A') B                  
  0.1512       3 (A') A                  ->    24 (A') A                  
  0.1512       3 (A') B                  ->    24 (A') B                  
  0.1370       3 (A') A                  ->    21 (A') A                  
  0.1370       3 (A') B                  ->    21 (A') B                  
 -0.1175       3 (A') A                  ->    28 (A') A                  
 -0.1175       3 (A') B                  ->    28 (A') B                  
  0.1042       3 (A') A                  ->    19 (A') A                  
  0.1042       3 (A') B                  ->    19 (A') B                  
 -0.1025       3 (A') A                  ->    34 (A') A                  
 -0.1025       3 (A') B                  ->    34 (A') B                  
 -0.1022       3 (A') A                  ->    27 (A') A                  
 -0.1022       3 (A') B                  ->    27 (A') B                  
  0.1014       3 (A') A                  ->    30 (A') A                  
  0.1014       3 (A') B                  ->    30 (A') B                  

              Summary of significant orbitals:

               Number  Type             Irrep      Energy
               3       Occ  Alpha       3 (A')    -11.2400
               3       Occ  Beta        3 (A')    -11.2400
               14      Vir  Alpha      12 (A')      0.0035
               23      Vir  Alpha      18 (A')      0.0111
               24      Vir  Alpha      19 (A')      0.0114
               27      Vir  Alpha      21 (A')      0.0209
               32      Vir  Alpha      24 (A')      0.0254
               36      Vir  Alpha      27 (A')      0.0436
               37      Vir  Alpha      28 (A')      0.0442
               41      Vir  Alpha      30 (A')      0.0513
               47      Vir  Alpha      34 (A')      0.0851
               50      Vir  Alpha      36 (A')      0.1023
               14      Vir  Beta       12 (A')      0.0035
               23      Vir  Beta       18 (A')      0.0111
               24      Vir  Beta       19 (A')      0.0114
               27      Vir  Beta       21 (A')      0.0209
               32      Vir  Beta       24 (A')      0.0254
               36      Vir  Beta       27 (A')      0.0436
               37      Vir  Beta       28 (A')      0.0442
               41      Vir  Beta       30 (A')      0.0513
               47      Vir  Beta       34 (A')      0.0851
               50      Vir  Beta       36 (A')      0.1023


 EOMEE transition 9/A'
 Total energy = -166.76977620 a.u.  Excitation energy = 290.5821 eV.
 R0^2 = 0.0000  R1^2 = 0.8035  R2_CCVV^2 = 0.0012  R2_COVV^2 = 0.0977  Res^2 = 9.84e-05
 Conv-d = yes

 Amplitude    Transitions between orbitals
  0.2980       3 (A') A                  ->    19 (A') A                  
  0.2980       3 (A') B                  ->    19 (A') B                  
  0.2853       3 (A') A                  ->    13 (A') A                  
  0.2853       3 (A') B                  ->    13 (A') B                  
  0.2049       3 (A') A                  ->    20 (A') A                  
  0.2049       3 (A') B                  ->    20 (A') B                  
 -0.1682       3 (A') A                  ->    14 (A') A                  
 -0.1682       3 (A') B                  ->    14 (A') B                  
 -0.1578       3 (A') A                  ->    37 (A') A                  
 -0.1578       3 (A') B                  ->    37 (A') B                  
 -0.1417       3 (A') A                  ->    23 (A') A                  
 -0.1417       3 (A') B                  ->    23 (A') B                  
  0.1301       3 (A') A                  ->    17 (A') A                  
  0.1301       3 (A') B                  ->    17 (A') B                  
 -0.1220       3 (A') A                  ->    31 (A') A                  
 -0.1220       3 (A') B                  ->    31 (A') B                  
 -0.1104       3 (A') A                  ->    32 (A') A                  
 -0.1104       3 (A') B                  ->    32 (A') B                  

              Summary of significant orbitals:

               Number  Type             Irrep      Energy
               3       Occ  Alpha       3 (A')    -11.2400
               3       Occ  Beta        3 (A')    -11.2400
               15      Vir  Alpha      13 (A')      0.0036
               17      Vir  Alpha      14 (A')      0.0052
               21      Vir  Alpha      17 (A')      0.0079
               24      Vir  Alpha      19 (A')      0.0114
               26      Vir  Alpha      20 (A')      0.0137
               30      Vir  Alpha      23 (A')      0.0213
               43      Vir  Alpha      31 (A')      0.0547
               44      Vir  Alpha      32 (A')      0.0626
               51      Vir  Alpha      37 (A')      0.1093
               15      Vir  Beta       13 (A')      0.0036
               17      Vir  Beta       14 (A')      0.0052
               21      Vir  Beta       17 (A')      0.0079
               24      Vir  Beta       19 (A')      0.0114
               26      Vir  Beta       20 (A')      0.0137
               30      Vir  Beta       23 (A')      0.0213
               43      Vir  Beta       31 (A')      0.0547
               44      Vir  Beta       32 (A')      0.0626
               51      Vir  Beta       37 (A')      0.1093


 EOMEE transition 10/A'
 Total energy = -166.76889978 a.u.  Excitation energy = 290.6059 eV.
 R0^2 = 0.0000  R1^2 = 0.8164  R2_CCVV^2 = 0.0012  R2_COVV^2 = 0.0912  Res^2 = 5.20e-07
 Conv-d = yes

 Amplitude    Transitions between orbitals
 -0.2608       2 (A') A                  ->    32 (A') A                  
 -0.2608       2 (A') B                  ->    32 (A') B                  
  0.2058       2 (A') A                  ->    26 (A') A                  
  0.2058       2 (A') B                  ->    26 (A') B                  
 -0.2058       2 (A') A                  ->    39 (A') A                  
 -0.2058       2 (A') B                  ->    39 (A') B                  
  0.1743       2 (A') A                  ->    30 (A') A                  
  0.1743       2 (A') B                  ->    30 (A') B                  
 -0.1674       2 (A') A                  ->    50 (A') A                  
 -0.1674       2 (A') B                  ->    50 (A') B                  
 -0.1666       2 (A') A                  ->    20 (A') A                  
 -0.1666       2 (A') B                  ->    20 (A') B                  
 -0.1606       2 (A') A                  ->    36 (A') A                  
 -0.1606       2 (A') B                  ->    36 (A') B                  
 -0.1605       2 (A') A                  ->    24 (A') A                  
 -0.1605       2 (A') B                  ->    24 (A') B                  
  0.1271       2 (A') A                  ->    14 (A') A                  
  0.1271       2 (A') B                  ->    14 (A') B                  
  0.1257       2 (A') A                  ->    46 (A') A                  
  0.1257       2 (A') B                  ->    46 (A') B                  
  0.1047       2 (A') A                  ->    18 (A') A                  
  0.1047       2 (A') B                  ->    18 (A') B                  

              Summary of significant orbitals:

               Number  Type             Irrep      Energy
               2       Occ  Alpha       2 (A')    -11.3324
               2       Occ  Beta        2 (A')    -11.3324
               17      Vir  Alpha      14 (A')      0.0052
               23      Vir  Alpha      18 (A')      0.0111
               26      Vir  Alpha      20 (A')      0.0137
               32      Vir  Alpha      24 (A')      0.0254
               35      Vir  Alpha      26 (A')      0.0297
               41      Vir  Alpha      30 (A')      0.0513
               44      Vir  Alpha      32 (A')      0.0626
               50      Vir  Alpha      36 (A')      0.1023
               55      Vir  Alpha      39 (A')      0.1359
               64      Vir  Alpha      46 (A')      0.2456
               70      Vir  Alpha      50 (A')      0.3333
               17      Vir  Beta       14 (A')      0.0052
               23      Vir  Beta       18 (A')      0.0111
               26      Vir  Beta       20 (A')      0.0137
               32      Vir  Beta       24 (A')      0.0254
               35      Vir  Beta       26 (A')      0.0297
               41      Vir  Beta       30 (A')      0.0513
               44      Vir  Beta       32 (A')      0.0626
               50      Vir  Beta       36 (A')      0.1023
               55      Vir  Beta       39 (A')      0.1359
               64      Vir  Beta       46 (A')      0.2456
               70      Vir  Beta       50 (A')      0.3333


      CVS-EOM-CCSD/MP2 left amplitudes will be solved using Davidson.
      Amplitudes will be solved using MOM  algorithm
      Roots     MaxVec    MaxIter   Precond   Conv      Thresh    Shift    
      10        1000      60        1         1.00e-04  1.00e-04  1.05e+01  
 ------------------------------------------------------------------------------
      Iter ConvRoots NVecs ResNorm Current eigenvalues (eV)
 ------------------------------------------------------------------------------
      0    0      10    2.56e-02   288.1468   288.7642   289.3387   289.6851   290.0594   290.1689   290.3100   290.4378   290.5821   290.6059   
      1    0      20    1.46e-02   288.1468   288.7641   289.3386   289.6848   290.0593   290.1686   290.3099   290.4376   290.5811   290.6059   
      2    0      30    8.19e-04   288.1468   288.7642   289.3387   289.6850   290.0594   290.1687   290.3100   290.4375   290.5819   290.6059   
      3    1      40    2.78e-03   288.1468*  288.7641   289.3386   289.6849   290.0594   290.1686   290.3099   290.4386   290.5826   290.6059   
      4    6      49    1.81e-04   288.1468*  288.7641*  289.3386*  289.6850*  290.0594   290.1686   290.3099*  290.4377   290.5820   290.6059*  
      5    7      53    6.56e-05   288.1468*  288.7641*  289.3386*  289.6850*  290.0593   290.1687   290.3099*  290.4377*  290.5819   290.6059*  
      6    5      56    5.25e-03   288.1468*  288.7641*  289.3386   289.6850*  290.0594   290.1686*  290.3099   290.4376   290.5813   290.6059*  
      7    7      61    1.05e-04   288.1468*  288.7641*  289.3386*  289.6850*  290.0592   290.1685   290.3099   290.4377*  290.5820*  290.6059*  
      8    10     64    3.39e-05   288.1468*  288.7641*  289.3386*  289.6850*  290.0593*  290.1686*  290.3099*  290.4377*  290.5819*  290.6059*  

     Davidson procedure converged

        Solving for CVS-EOMEE-CCSD A" singlet states.

       EOMEE-CCSD-SINGLES right amplitudes will be solved using Davidson.
      Amplitudes will be solved using shifted  algorithm
      Roots     MaxVec    MaxIter   Precond   Conv      Thresh    Shift    
      10        1000      60        1         1.00e-04  1.00e-04  1.05e+01  
 ------------------------------------------------------------------------------
      Iter ConvRoots NVecs ResNorm Current eigenvalues (eV)
 ------------------------------------------------------------------------------
      0    0      10    3.59e-04   303.4346   304.1671   304.2449   304.4386   304.7145   304.7449   304.8301   305.1729   305.2155   305.2997   
Rerun orthogonalization...
      1    0      20    1.66e-02   301.3431   302.7962   304.0617   304.1630   304.2751   304.6316   304.6763   304.7572   304.9776   305.0273   
Rerun orthogonalization...
      2    4      30    2.61e-04   296.3796   302.6340   303.9611   304.0631   304.1357*  304.5841   304.6274*  304.6639*  304.9334   304.9562*  
      3    2      36    5.01e-02   296.3652*  302.2438   302.6599   303.9584   304.0628   304.1364   304.5822   304.6268   304.6639*  304.9314   
Rerun orthogonalization...
      4    9      44    1.36e-04   296.3652*  297.6451   302.6334*  303.9560*  304.0617*  304.1356*  304.5810*  304.6263*  304.6637*  304.9296*  
      5    10     45    4.87e-06   296.3652*  297.6319*  302.6334*  303.9560*  304.0617*  304.1356*  304.5810*  304.6263*  304.6637*  304.9296*  

     Davidson procedure converged

        CVS-EOMEE-CCSD/MP2 right amplitudes will be solved using Davidson.
      Amplitudes will be solved using shifted  algorithm
      Roots     MaxVec    MaxIter   Precond   Conv      Thresh    Shift    
      10        1000      60        1         1.00e-04  1.00e-04  1.05e+01  
 ------------------------------------------------------------------------------
      Iter ConvRoots NVecs ResNorm Current eigenvalues (eV)
 ------------------------------------------------------------------------------
      0    0      10    1.85e+00   296.3652   297.6319   302.6334   303.9560   304.0617   304.1356   304.5810   304.6263   304.6637   304.9296   
      1    0      20    1.07e+00   293.8947   295.3102   299.7868   301.0811   301.1837   301.2611   301.7049   301.7491   301.7878   302.0572   
      2    0      30    5.75e-02   286.6727   289.0418   289.8446   290.7960   290.8758   291.0995   291.4365   291.4758   291.5897   291.9104   
      3    0      40    7.57e-03   286.0431   288.2934   289.3984   290.3595   290.4347   290.6314   290.9747   291.0101   291.1099   291.4190   
      4    0      50    1.37e-03   285.9268   288.1008   289.3610   290.3428   290.4180   290.6046   290.9585   290.9936   291.0857   291.3817   
      5    1      60    5.32e-04   285.9062   288.0564   289.3448   290.3372   290.4124   290.5936   290.9539*  290.9888   291.0768   291.3676   
      6    4      69    1.92e-04   285.9018   288.0408   289.3370   290.3355*  290.4101*  290.5873   290.9530*  290.9869*  291.0713   291.3575   
      7    5      75    1.83e-04   285.9005*  288.0322   289.3334   290.3348*  290.4093*  290.5832   290.9524*  290.9861*  291.0673   291.3491   
      8    9      80    5.65e-05   285.9005*  288.0327*  289.3324*  290.3345*  290.4088*  290.5817*  290.9522*  290.9855*  291.0657*  291.3450   
      9    9      81    4.29e-05   285.9004*  288.0327*  289.3324*  290.3343*  290.4086*  290.5811*  290.9520*  290.9852*  291.0647*  291.3419   
      10   9      82    4.38e-05   285.9004*  288.0327*  289.3323*  290.3342*  290.4085*  290.5809*  290.9518*  290.9851*  291.0643*  291.3400   
      11   9      83    5.32e-05   285.9004*  288.0327*  289.3324*  290.3342*  290.4085*  290.5809*  290.9518*  290.9850*  291.0641*  291.3380   
      12   9      84    4.46e-05   285.9004*  288.0327*  289.3324*  290.3342*  290.4085*  290.5809*  290.9517*  290.9849*  291.0638*  291.3356   
[...]

 Amplitude    Transitions between orbitals
 -0.3926       3 (A') A                  ->    7 (A") A                   
 -0.3926       3 (A') B                  ->    7 (A") B                   
  0.2635       3 (A') A                  ->    4 (A") A                   
  0.2635       3 (A') B                  ->    4 (A") B                   
  0.2191       3 (A') A                  ->    9 (A") A                   
  0.2191       3 (A') B                  ->    9 (A") B                   
 -0.2172       3 (A') A                  ->    13 (A") A                  
 -0.2172       3 (A') B                  ->    13 (A") B                  
 -0.2118       3 (A') A                  ->    6 (A") A                   
 -0.2118       3 (A') B                  ->    6 (A") B                   

              Summary of significant orbitals:

               Number  Type             Irrep      Energy
               3       Occ  Alpha       3 (A')    -11.2400
               3       Occ  Beta        3 (A')    -11.2400
               20      Vir  Alpha       4 (A")      0.0078
               25      Vir  Alpha       6 (A")      0.0117
               29      Vir  Alpha       7 (A")      0.0212
               34      Vir  Alpha       9 (A")      0.0267
               45      Vir  Alpha      13 (A")      0.0832
               20      Vir  Beta        4 (A")      0.0078
               25      Vir  Beta        6 (A")      0.0117
               29      Vir  Beta        7 (A")      0.0212
               34      Vir  Beta        9 (A")      0.0267
               45      Vir  Beta       13 (A")      0.0832


      CVS-EOM-CCSD/MP2 left amplitudes will be solved using Davidson.
      Amplitudes will be solved using MOM  algorithm
      Roots     MaxVec    MaxIter   Precond   Conv      Thresh    Shift    
      10        1000      60        1         1.00e-04  1.00e-04  1.05e+01  
 ------------------------------------------------------------------------------
      Iter ConvRoots NVecs ResNorm Current eigenvalues (eV)
 ------------------------------------------------------------------------------
      0    0      10    2.46e-02   285.9004   288.0327   289.3324   290.3342   290.4085   290.5809   290.9516   290.9849   291.0636   291.3335   
      1    0      20    1.39e-02   285.9005   288.0313   289.3319   290.3341   290.4081   290.5803   290.9510   290.9844   291.0632   291.3327   
      2    0      30    4.72e-04   285.9005   288.0317   289.3319   290.3343   290.4085   290.5804   290.9514   290.9848   291.0633   291.3329   
      3    8      40    7.78e-05   285.9004   288.0316   289.3317*  290.3343*  290.4084*  290.5801*  290.9514*  290.9847*  291.0631*  291.3326*  
      4    10     42    5.49e-05   285.9004*  288.0318*  289.3317*  290.3343*  290.4084*  290.5801*  290.9514*  290.9847*  291.0631*  291.3326*  

     Davidson procedure converged

 CVS-EOMEE-CCSD calculation:   CPU 10758.35 s  wall 2132.05 s


 Start computing the transition properties

 ------------------------------------------------------------------------------
 State A: ccsd: 0/A'
 State B: cvs_eomee_ccsd/rhfref/singlets: 1/A'
 Transition dipole moment (a.u.):
   A->B: 0.027802 (X 0.027785, Y -0.000958, Z 0.000000)
   B->A: 0.027372 (X 0.027361, Y -0.000766, Z 0.000000)
 Oscillator strength (a.u.): 0.005372
 Norm of one-particle transition density matrix:
   A->B: 0.903517;   B->A: 0.869889
   ||gamma^AB||*||gamma^BA||: 0.785959

 ------------------------------------------------------------------------------
 State A: ccsd: 0/A'
 State B: cvs_eomee_ccsd/rhfref/singlets: 2/A'
 Transition dipole moment (a.u.):
   A->B: 0.039950 (X 0.009239, Y -0.038867, Z 0.000000)
   B->A: 0.038920 (X 0.008677, Y -0.037940, Z 0.000000)
 Oscillator strength (a.u.): 0.011000
 Norm of one-particle transition density matrix:
   A->B: 0.903370;   B->A: 0.870257
   ||gamma^AB||*||gamma^BA||: 0.786164

 ------------------------------------------------------------------------------
 State A: ccsd: 0/A'
 State B: cvs_eomee_ccsd/rhfref/singlets: 3/A'
 Transition dipole moment (a.u.):
   A->B: 0.020817 (X -0.016746, Y 0.012366, Z 0.000000)
   B->A: 0.020484 (X -0.016257, Y 0.012462, Z 0.000000)
 Oscillator strength (a.u.): 0.003022
 Norm of one-particle transition density matrix:
   A->B: 0.900098;   B->A: 0.861970
   ||gamma^AB||*||gamma^BA||: 0.775858

 ------------------------------------------------------------------------------
 State A: ccsd: 0/A'
 State B: cvs_eomee_ccsd/rhfref/singlets: 4/A'
 Transition dipole moment (a.u.):
   A->B: 0.024891 (X 0.002097, Y 0.024803, Z 0.000000)
   B->A: 0.024595 (X 0.001782, Y 0.024530, Z 0.000000)
 Oscillator strength (a.u.): 0.004345
 Norm of one-particle transition density matrix:
   A->B: 0.898273;   B->A: 0.863923
   ||gamma^AB||*||gamma^BA||: 0.776039

 ------------------------------------------------------------------------------
 State A: ccsd: 0/A'
 State B: cvs_eomee_ccsd/rhfref/singlets: 5/A'
 Transition dipole moment (a.u.):
   A->B: 0.014816 (X -0.013769, Y 0.005471, Z 0.000000)
   B->A: 0.014678 (X -0.013709, Y 0.005247, Z 0.000000)
 Oscillator strength (a.u.): 0.001545
 Norm of one-particle transition density matrix:
   A->B: 0.901316;   B->A: 0.863732
   ||gamma^AB||*||gamma^BA||: 0.778496

 ------------------------------------------------------------------------------
 State A: ccsd: 0/A'
 State B: cvs_eomee_ccsd/rhfref/singlets: 6/A'
 Transition dipole moment (a.u.):
   A->B: 0.012899 (X -0.012735, Y -0.002044, Z 0.000000)
   B->A: 0.012585 (X -0.012429, Y -0.001976, Z 0.000000)
 Oscillator strength (a.u.): 0.001154
 Norm of one-particle transition density matrix:
   A->B: 0.900106;   B->A: 0.861099
   ||gamma^AB||*||gamma^BA||: 0.775080

 ------------------------------------------------------------------------------
 State A: ccsd: 0/A'
 State B: cvs_eomee_ccsd/rhfref/singlets: 7/A'
 Transition dipole moment (a.u.):
   A->B: 0.006205 (X -0.003638, Y -0.005027, Z 0.000000)
   B->A: 0.006042 (X -0.003578, Y -0.004869, Z 0.000000)
 Oscillator strength (a.u.): 0.000267
 Norm of one-particle transition density matrix:
   A->B: 0.900626;   B->A: 0.860898
   ||gamma^AB||*||gamma^BA||: 0.775347

 ------------------------------------------------------------------------------
 State A: ccsd: 0/A'
 State B: cvs_eomee_ccsd/rhfref/singlets: 8/A'
 Transition dipole moment (a.u.):
   A->B: 0.013198 (X -0.002893, Y 0.012877, Z 0.000000)
   B->A: 0.012723 (X -0.002702, Y 0.012433, Z 0.000000)
 Oscillator strength (a.u.): 0.001195
 Norm of one-particle transition density matrix:
   A->B: 0.900685;   B->A: 0.861534
   ||gamma^AB||*||gamma^BA||: 0.775970

 ------------------------------------------------------------------------------
 State A: ccsd: 0/A'
 State B: cvs_eomee_ccsd/rhfref/singlets: 9/A'
 Transition dipole moment (a.u.):
   A->B: 0.013701 (X 0.010201, Y -0.009146, Z 0.000000)
   B->A: 0.013216 (X 0.009866, Y -0.008793, Z 0.000000)
 Oscillator strength (a.u.): 0.001289
 Norm of one-particle transition density matrix:
   A->B: 0.900209;   B->A: 0.860493
   ||gamma^AB||*||gamma^BA||: 0.774624

 ------------------------------------------------------------------------------
 State A: ccsd: 0/A'
 State B: cvs_eomee_ccsd/rhfref/singlets: 10/A'
 Transition dipole moment (a.u.):
   A->B: 0.052202 (X 0.019633, Y -0.048370, Z 0.000000)
   B->A: 0.051402 (X 0.019340, Y -0.047625, Z 0.000000)
 Oscillator strength (a.u.): 0.019104
 Norm of one-particle transition density matrix:
   A->B: 0.904512;   B->A: 0.873055
   ||gamma^AB||*||gamma^BA||: 0.789689

 ------------------------------------------------------------------------------
 State A: ccsd: 0/A'
 State B: cvs_eomee_ccsd/rhfref/singlets: 1/A"
 Transition dipole moment (a.u.):
   A->B: 0.080042 (X 0.000000, Y 0.000000, Z 0.080042)
   B->A: 0.081784 (X 0.000000, Y 0.000000, Z 0.081784)
 Oscillator strength (a.u.): 0.045852
 Norm of one-particle transition density matrix:
   A->B: 0.884194;   B->A: 0.887407
   ||gamma^AB||*||gamma^BA||: 0.784640

 ------------------------------------------------------------------------------
 State A: ccsd: 0/A'
 State B: cvs_eomee_ccsd/rhfref/singlets: 2/A"
 Transition dipole moment (a.u.):
   A->B: 0.090708 (X 0.000000, Y 0.000000, Z 0.090708)
   B->A: 0.092004 (X 0.000000, Y 0.000000, Z 0.092004)
 Oscillator strength (a.u.): 0.058892
 Norm of one-particle transition density matrix:
   A->B: 0.886883;   B->A: 0.890741
   ||gamma^AB||*||gamma^BA||: 0.789983

 ------------------------------------------------------------------------------
 State A: ccsd: 0/A'
 State B: cvs_eomee_ccsd/rhfref/singlets: 3/A"
 Transition dipole moment (a.u.):
   A->B: 0.023880 (X 0.000000, Y 0.000000, Z 0.023880)
   B->A: 0.024343 (X 0.000000, Y 0.000000, Z 0.024343)
 Oscillator strength (a.u.): 0.004121
 Norm of one-particle transition density matrix:
   A->B: 0.901648;   B->A: 0.864263
   ||gamma^AB||*||gamma^BA||: 0.779261

 ------------------------------------------------------------------------------
 State A: ccsd: 0/A'
 State B: cvs_eomee_ccsd/rhfref/singlets: 4/A"
 Transition dipole moment (a.u.):
   A->B: 0.009922 (X 0.000000, Y 0.000000, Z 0.009922)
   B->A: 0.009671 (X 0.000000, Y 0.000000, Z 0.009671)
 Oscillator strength (a.u.): 0.000683
 Norm of one-particle transition density matrix:
   A->B: 0.900295;   B->A: 0.860471
   ||gamma^AB||*||gamma^BA||: 0.774678

 ------------------------------------------------------------------------------
 State A: ccsd: 0/A'
 State B: cvs_eomee_ccsd/rhfref/singlets: 5/A"
 Transition dipole moment (a.u.):
   A->B: 0.006990 (X 0.000000, Y 0.000000, Z 0.006990)
   B->A: 0.006803 (X 0.000000, Y 0.000000, Z 0.006803)
 Oscillator strength (a.u.): 0.000338
 Norm of one-particle transition density matrix:
   A->B: 0.900119;   B->A: 0.860064
   ||gamma^AB||*||gamma^BA||: 0.774160

 ------------------------------------------------------------------------------
 State A: ccsd: 0/A'
 State B: cvs_eomee_ccsd/rhfref/singlets: 6/A"
 Transition dipole moment (a.u.):
   A->B: 0.013378 (X 0.000000, Y 0.000000, Z -0.013378)
   B->A: 0.013572 (X 0.000000, Y 0.000000, Z -0.013572)
 Oscillator strength (a.u.): 0.001293
 Norm of one-particle transition density matrix:
   A->B: 0.900939;   B->A: 0.861630
   ||gamma^AB||*||gamma^BA||: 0.776276

 ------------------------------------------------------------------------------
 State A: ccsd: 0/A'
 State B: cvs_eomee_ccsd/rhfref/singlets: 7/A"
 Transition dipole moment (a.u.):
   A->B: 0.006290 (X 0.000000, Y 0.000000, Z -0.006290)
   B->A: 0.006073 (X 0.000000, Y 0.000000, Z -0.006073)
 Oscillator strength (a.u.): 0.000272
 Norm of one-particle transition density matrix:
   A->B: 0.900514;   B->A: 0.860394
   ||gamma^AB||*||gamma^BA||: 0.774796

 ------------------------------------------------------------------------------
 State A: ccsd: 0/A'
 State B: cvs_eomee_ccsd/rhfref/singlets: 8/A"
 Transition dipole moment (a.u.):
   A->B: 0.005340 (X 0.000000, Y 0.000000, Z -0.005340)
   B->A: 0.005169 (X 0.000000, Y 0.000000, Z -0.005169)
 Oscillator strength (a.u.): 0.000197
 Norm of one-particle transition density matrix:
   A->B: 0.900348;   B->A: 0.860285
   ||gamma^AB||*||gamma^BA||: 0.774556

 ------------------------------------------------------------------------------
 State A: ccsd: 0/A'
 State B: cvs_eomee_ccsd/rhfref/singlets: 9/A"
 Transition dipole moment (a.u.):
   A->B: 0.009224 (X 0.000000, Y 0.000000, Z 0.009224)
   B->A: 0.009330 (X 0.000000, Y 0.000000, Z 0.009330)
 Oscillator strength (a.u.): 0.000614
 Norm of one-particle transition density matrix:
   A->B: 0.900706;   B->A: 0.860959
   ||gamma^AB||*||gamma^BA||: 0.775471

 ------------------------------------------------------------------------------
 State A: ccsd: 0/A'
 State B: cvs_eomee_ccsd/rhfref/singlets: 10/A"
 Transition dipole moment (a.u.):
   A->B: 0.011552 (X 0.000000, Y 0.000000, Z 0.011552)
   B->A: 0.011275 (X 0.000000, Y 0.000000, Z 0.011275)
 Oscillator strength (a.u.): 0.000930
 Norm of one-particle transition density matrix:
   A->B: 0.900742;   B->A: 0.860925
   ||gamma^AB||*||gamma^BA||: 0.775472


 All requested transition properties have been computed

 Transition Properties:   CPU 72.35 s  wall 15.83 s

 Total ccman2 time:   CPU 11556.01 s  wall 2250.70 s

 
 --------------------------------------------------------------
             Orbital Energies (a.u.) and Symmetries
 --------------------------------------------------------------
 
 Alpha MOs, Restricted
 -- Occupied --                  
-26.310 -11.332 -11.240  -1.628  -1.055  -0.840  -0.740  -0.690
  1 A'    2 A'    3 A'    4 A'    5 A'    6 A'    7 A'    1 A"                 
 -0.686  -0.591  -0.562  -0.386
  8 A'    9 A'   10 A'    2 A"                                                 
 -- Virtual --                   
  0.001   0.003   0.004   0.004   0.005   0.008   0.008   0.008
 11 A'   12 A'   13 A'    3 A"   14 A'   15 A'   16 A'    4 A"                 
  0.008   0.008   0.011   0.011   0.012   0.014   0.021   0.021
 17 A'    5 A"   18 A'   19 A'    6 A"   20 A'   21 A'   22 A'                 
  0.021   0.021   0.021   0.025   0.026   0.027   0.030   0.044
  7 A"   23 A'    8 A"   24 A'   25 A'    9 A"   26 A'   27 A'                 
  0.044   0.044   0.045   0.045   0.051   0.055   0.055   0.063
 28 A'   10 A"   29 A'   11 A"   30 A'   12 A"   31 A'   32 A'                 
  0.083   0.084   0.085   0.087   0.089   0.102   0.109   0.112
 13 A"   33 A'   34 A'   35 A'   14 A"   36 A'   37 A'   15 A"                 
  0.126   0.136   0.136   0.145   0.160   0.166   0.172   0.175
 38 A'   16 A"   39 A'   40 A'   41 A'   42 A'   43 A'   17 A"                 
  0.177   0.179   0.220   0.246   0.256   0.261   0.269   0.284
 18 A"   44 A'   45 A'   46 A'   19 A"   47 A'   20 A"   48 A'                 
  0.295   0.333   0.351   0.395   0.453   0.483   0.491   0.511
 49 A'   50 A'   51 A'   52 A'   53 A'   21 A"   54 A'   55 A'                 
  0.540   0.614   0.683   0.706   0.771   0.816   0.837   0.883
 56 A'   57 A'   58 A'   59 A'   60 A'   22 A"   23 A"   61 A'                 
  0.938   0.949   0.994   1.037   1.098   1.257   1.312   1.481
 62 A'   63 A'   64 A'   65 A'   66 A'   24 A"   25 A"   26 A"                 
  1.602   1.661   1.695   1.724   1.749   1.840   1.860   1.913
 67 A'   68 A'   69 A'   27 A"   70 A'   71 A'   72 A'   28 A"                 
  1.960   2.032   2.172   2.286   2.316   2.369   2.402   2.460
 73 A'   29 A"   74 A'   75 A'   30 A"   76 A'   31 A"   77 A'                 
  2.587   2.797   2.877   2.935   3.041   3.061   3.137   3.286
 78 A'   79 A'   80 A'   81 A'   82 A'   83 A'   32 A"   33 A"                 
  3.383   3.598   3.895   4.148   4.225   4.251   4.436   4.444
 84 A'   85 A'   86 A'   87 A'   34 A"   88 A'   89 A'   35 A"                 
  4.591   5.330   6.981   7.029   7.342  24.846  25.411  68.776
 90 A'   91 A'   36 A"   92 A'   93 A'   94 A'   95 A'   96 A'                 
 
 Beta MOs, Restricted
 -- Occupied --                  
-26.310 -11.332 -11.240  -1.628  -1.055  -0.840  -0.740  -0.690
  1 A'    2 A'    3 A'    4 A'    5 A'    6 A'    7 A'    1 A"                 
 -0.686  -0.591  -0.562  -0.386
  8 A'    9 A'   10 A'    2 A"                                                 
 -- Virtual --                   
  0.001   0.003   0.004   0.004   0.005   0.008   0.008   0.008
 11 A'   12 A'   13 A'    3 A"   14 A'   15 A'   16 A'    4 A"                 
  0.008   0.008   0.011   0.011   0.012   0.014   0.021   0.021
 17 A'    5 A"   18 A'   19 A'    6 A"   20 A'   21 A'   22 A'                 
  0.021   0.021   0.021   0.025   0.026   0.027   0.030   0.044
  7 A"   23 A'    8 A"   24 A'   25 A'    9 A"   26 A'   27 A'                 
  0.044   0.044   0.045   0.045   0.051   0.055   0.055   0.063
 28 A'   10 A"   29 A'   11 A"   30 A'   12 A"   31 A'   32 A'                 
  0.083   0.084   0.085   0.087   0.089   0.102   0.109   0.112
 13 A"   33 A'   34 A'   35 A'   14 A"   36 A'   37 A'   15 A"                 
  0.126   0.136   0.136   0.145   0.160   0.166   0.172   0.175
 38 A'   16 A"   39 A'   40 A'   41 A'   42 A'   43 A'   17 A"                 
  0.177   0.179   0.220   0.246   0.256   0.261   0.269   0.284
 18 A"   44 A'   45 A'   46 A'   19 A"   47 A'   20 A"   48 A'                 
  0.295   0.333   0.351   0.395   0.453   0.483   0.491   0.511
 49 A'   50 A'   51 A'   52 A'   53 A'   21 A"   54 A'   55 A'                 
  0.540   0.614   0.683   0.706   0.771   0.816   0.837   0.883
 56 A'   57 A'   58 A'   59 A'   60 A'   22 A"   23 A"   61 A'                 
  0.938   0.949   0.994   1.037   1.098   1.257   1.312   1.481
 62 A'   63 A'   64 A'   65 A'   66 A'   24 A"   25 A"   26 A"                 
  1.602   1.661   1.695   1.724   1.749   1.840   1.860   1.913
 67 A'   68 A'   69 A'   27 A"   70 A'   71 A'   72 A'   28 A"                 
  1.960   2.032   2.172   2.286   2.316   2.369   2.402   2.460
 73 A'   29 A"   74 A'   75 A'   30 A"   76 A'   31 A"   77 A'                 
  2.587   2.797   2.877   2.935   3.041   3.061   3.137   3.286
 78 A'   79 A'   80 A'   81 A'   82 A'   83 A'   32 A"   33 A"                 
  3.383   3.598   3.895   4.148   4.225   4.251   4.436   4.444
 84 A'   85 A'   86 A'   87 A'   34 A"   88 A'   89 A'   35 A"                 
  4.591   5.330   6.981   7.029   7.342  24.846  25.411  68.776
 90 A'   91 A'   36 A"   92 A'   93 A'   94 A'   95 A'   96 A'                 
 --------------------------------------------------------------
 
          Ground-State Mulliken Net Atomic Charges

     Atom                 Charge (a.u.)
  ----------------------------------------
      1 C                    -0.245028
      2 GH                    0.027262
      3 F                    -0.123103
      4 C                    -0.019896
      5 H                     0.148834
      6 H                     0.111171
      7 H                     0.100761
  ----------------------------------------
  Sum of atomic charges =    -0.000000

 -----------------------------------------------------------------
                    Cartesian Multipole Moments
 -----------------------------------------------------------------
    Charge (ESU x 10^10)
                -0.0000
    Dipole Moment (Debye)
         X       1.4873      Y      -0.9279      Z       0.0000
       Tot       1.7530
    Quadrupole Moments (Debye-Ang)
        XX     -18.0200     XY       0.9639     YY     -15.3308
        XZ      -0.0000     YZ      -0.0000     ZZ     -19.4790
    Octopole Moments (Debye-Ang^2)
       XXX      -3.3932    XXY      -0.3848    XYY      -2.1723
       YYY       0.4720    XXZ      -0.0000    XYZ      -0.0000
       YYZ      -0.0000    XZZ      -5.0030    YZZ       0.7012
       ZZZ       0.0000
    Hexadecapole Moments (Debye-Ang^3)
      XXXX    -121.0948   XXXY      -3.6510   XXYY     -26.6324
      XYYY       0.7415   YYYY     -36.0508   XXXZ       0.0000
      XXYZ       0.0000   XYYZ       0.0000   YYYZ       0.0000
      XXZZ     -27.2041   XYZZ      -0.3800   YYZZ     -11.5549
      XZZZ       0.0000   YZZZ       0.0000   ZZZZ     -23.8792
 -----------------------------------------------------------------
Archival summary:
1\1\n-62-29-36\SP\ProcedureUnspecified\BasisUnspecified\123h1\malop\FriAug1014:32:202018FriAug1014:32:202018\0\\#,ProcedureUnspecified,BasisUnspecified,\\0,1\C\Gh,1,0.435868\H,1,1.08083,2,170.664\F,2,1.17461,1,103.178,3,0,0\C,2,1.19615,1,97.4666,3,-180,0\H,5,1.07898,2,137.975,1,-0,0\H,5,1.08006,2,102.344,1,180,0\\HF=-176.937001\\@

 Total job time:  2284.17s(wall), 11662.73s(cpu) 
 Fri Aug 10 14:32:20 2018

        *************************************************************
        *                                                           *
        *  Thank you very much for using Q-Chem.  Have a nice day.  *
        *                                                           *
        *************************************************************


