n-62-29-12 10.66.29
Q-Chem Developer Version! Running on 10.66.29.*
                  Welcome to Q-Chem
     A Quantum Leap Into The Future Of Chemistry


 Q-Chem 5.1, Q-Chem, Inc., Pleasanton, CA (2018)

 Yihan Shao,  Zhengting Gan,  E. Epifanovsky,  A. T. B. Gilbert,  M. Wormit,  
 J. Kussmann,  A. W. Lange,  A. Behn,  Jia Deng,  Xintian Feng,  D. Ghosh,  
 M. Goldey,  P. R. Horn,  L. D. Jacobson,  I. Kaliman,  T. Kus,  A. Landau,  
 Jie Liu,  E. I. Proynov,  R. M. Richard,  R. P. Steele,  E. J. Sundstrom,  
 H. L. Woodcock III,  P. M. Zimmerman,  D. Zuev,  B. Albrecht,  E. Alguire,  
 S. A. Baeppler,  D. Barton,  Z. Benda,  Y. A. Bernard,  E. J. Berquist,  
 K. B. Bravaya,  H. Burton,  D. Casanova,  Chun-Min Chang,  Yunqing Chen,  
 A. Chien,  K. D. Closser,  M. P. Coons,  S. Coriani,  S. Dasgupta,  
 A. L. Dempwolff,  M. Diedenhofen,  Hainam Do,  R. G. Edgar,  Po-Tung Fang,  
 S. Faraji,  S. Fatehi,  Qingguo Feng,  K. D. Fenk,  J. Fosso-Tande,  
 Qinghui Ge,  A. Ghysels,  G. Gidofalvi,  J. Gomes,  J. Gonthier,  A. Gunina,  
 M. W. D. Hanson-Heine,  P. H. P. Harbach,  A. W. Hauser,  J. E. Herr,  
 E. G. Hohenstein,  Z. C. Holden,  Kerwin Hui,  T.-C. Jagau,  Hyunjun Ji,  
 B. Kaduk,  K. Khistyaev,  Jaehoon Kim,  P. Klunzinger,  K. Koh,  
 D. Kosenkov,  L. Koulias,  T. Kowalczyk,  C. M. Krauter,  A. Kunitsa,  
 Ka Un Lao,  A. Laurent,  K. V. Lawler,  Joonho Lee,  D. Lefrancois,  
 S. Lehtola,  D. S. Levine,  Yi-Pei Li,  You-Sheng Lin,  Fenglai Liu,  
 E. Livshits,  A. Luenser,  P. Manohar,  E. Mansoor,  S. F. Manzer,  
 Shan-Ping Mao,  Yuezhi Mao,  N. Mardirossian,  A. V. Marenich,  
 T. Markovich,  L. A. Martinez-Martinez,  S. A. Maurer,  N. J. Mayhall,  
 S. C. McKenzie,  J.-M. Mewes,  A. F. Morrison,  J. W. Mullinax,  K. Nanda,  
 T. S. Nguyen-Beck,  R. Olivares-Amaya,  J. A. Parkhill,  T. M. Perrine,  
 F. Plasser,  P. Pokhilko,  S. Prager,  A. Prociuk,  E. Ramos,  D. R. Rehn,  
 F. Rob,  M. Schneider,  N. Sergueev,  S. M. Sharada,  S. Sharma,  
 D. W. Small,  T. Stauch,  T. Stein,  Yu-Chuan Su,  A. J. W. Thom,  
 A. Tkatchenko,  T. Tsuchimochi,  N. M. Tubman,  L. Vogt,  M. L. Vidal,  
 O. Vydrov,  M. A. Watson,  J. Wenzel,  M. de Wergifosse,  T. A. Wesolowski,  
 A. White,  J. Witte,  A. Yamada,  Jun Yang,  K. Yao,  S. Yeganeh,  
 S. R. Yost,  Zhi-Qiang You,  A. Zech,  Igor Ying Zhang,  Xing Zhang,  
 Yan Zhao,  Ying Zhu,  B. R. Brooks,  G. K. L. Chan,  C. J. Cramer,  
 M. S. Gordon,  W. J. Hehre,  A. Klamt,  M. W. Schmidt,  C. D. Sherrill,  
 D. G. Truhlar,  A. Aspuru-Guzik,  R. Baer,  A. T. Bell,  N. A. Besley,  
 Jeng-Da Chai,  R. A. DiStasio Jr.,  A. Dreuw,  B. D. Dunietz,  
 T. R. Furlani,  Chao-Ping Hsu,  Yousung Jung,  Jing Kong,  D. S. Lambrecht,  
 WanZhen Liang,  C. Ochsenfeld,  V. A. Rassolov,  L. V. Slipchenko,  
 J. E. Subotnik,  T. Van Voorhis,  J. M. Herbert,  A. I. Krylov,  
 P. M. W. Gill,  M. Head-Gordon

 Contributors to earlier versions of Q-Chem not listed above: 
 R. D. Adamson,  B. Austin,  J. Baker,  G. J. O. Beran,  K. Brandhorst,  
 S. T. Brown,  E. F. C. Byrd,  A. K. Chakraborty,  C.-L. Cheng,  
 Siu Hung Chien,  D. M. Chipman,  D. L. Crittenden,  H. Dachsel,  
 R. J. Doerksen,  A. D. Dutoi,  L. Fusti-Molnar,  W. A. Goddard III,  
 A. Golubeva-Zadorozhnaya,  S. R. Gwaltney,  G. Hawkins,  A. Heyden,  
 S. Hirata,  G. Kedziora,  F. J. Keil,  C. Kelley,  Jihan Kim,  R. A. King,  
 R. Z. Khaliullin,  P. P. Korambath,  W. Kurlancheek,  A. M. Lee,  M. S. Lee,  
 S. V. Levchenko,  Ching Yeh Lin,  D. Liotard,  R. C. Lochan,  I. Lotan,  
 P. E. Maslen,  N. Nair,  D. P. O'Neill,  D. Neuhauser,  E. Neuscamman,  
 C. M. Oana,  R. Olson,  B. Peters,  R. Peverati,  P. A. Pieniazek,  
 Y. M. Rhee,  J. Ritchie,  M. A. Rohrdanz,  E. Rosta,  N. J. Russ,  
 H. F. Schaefer III,  N. E. Schultz,  N. Shenvi,  A. C. Simmonett,  A. Sodt,  
 D. Stuck,  K. S. Thanthiriwatte,  V. Vanovschi,  Tao Wang,  A. Warshel,  
 C. F. Williams,  Q. Wu,  X. Xu,  W. Zhang

 Please cite Q-Chem as follows:
 Y. Shao et al., Mol. Phys. 113, 184-215 (2015)
 DOI: 10.1080/00268976.2014.952696

 Q-Chem 5.1.0 for Intel X86 EM64T Linux

 Parts of Q-Chem use Armadillo 8.300.2 (Tropical Shenanigans).
 http://arma.sourceforge.net/

 Q-Chem begins on Fri May 25 09:28:31 2018  

Host: 
0

     Scratch files written to /work1/malop/qc_6071908.hnode2//

Checking the input file for inconsistencies... 	...done.

--------------------------------------------------------------
User input:
--------------------------------------------------------------
$comment 
NEXAFS VINYLFLUORIDE
Optimized geometry with CFour
$end

$molecule
0 1
C
Gh   1 nc2
F    2 fn3         1 fnc3
C    3 cf4         2 cfn4          1 dih4
H    4 hc5         1 hcc5          2 dih4
H    1 hc6         4 hcc6          3 dih6
H    1 hc7         4 hcc7          3 dih4

nc2         1.196145
fn3         1.174610
fnc3        178.580
cf4         1.342808
cfn4         18.424
dih4        180.000
hc5         1.080830
hcc5        108.653
hc6         1.479184
hcc6        103.458
dih6          0.000
hc7         0.928288
hcc7        157.426
$end

$rem
!    input_bohr = true
    jobtype = sp
    method = eom-ccsd
    cvs_ee_singlets    [5,5]
    eom_preconv_singles = true
    eom_davidson_convergence = 3
    eom_davidson_threshold = 00103
    eom_davidson_maxvectors = 1000
    !EOM_GPLMR_MSUBSIZE = 4
    basis = gen
    n_frozen_core = fc 
    cc_trans_prop = true
$end

$basis
C    0
S    6    1.000000
   4.56324000E+03    1.96665000E-03
   6.82024000E+02    1.52306000E-02
   1.54973000E+02    7.61269000E-02
   4.44553000E+01    2.60801000E-01
   1.30290000E+01    6.16462000E-01
   1.82773000E+00    2.21006000E-01
SP   3    1.000000
   2.09642000E+01    1.14660000E-01   4.02487000E-02
   4.80331000E+00    9.19999000E-01   2.37594000E-01
   1.45933000E+00   -3.03068000E-03   8.15854000E-01
SP   1    1.000000
   4.83456000E-01    1.00000000E+00   1.00000000E+00
SP   1    1.000000
   1.45585000E-01    1.00000000E+00   1.00000000E+00
SP   1    1.000000
   4.38000000E-02    1.00000000E+00   1.00000000E+00
D    1    1.000000
   6.26000000E-01    1.00000000E+00
****
C    0
S    6    1.000000
   4.56324000E+03    1.96665000E-03
   6.82024000E+02    1.52306000E-02
   1.54973000E+02    7.61269000E-02
   4.44553000E+01    2.60801000E-01
   1.30290000E+01    6.16462000E-01
   1.82773000E+00    2.21006000E-01
SP   3    1.000000
   2.09642000E+01    1.14660000E-01   4.02487000E-02
   4.80331000E+00    9.19999000E-01   2.37594000E-01
   1.45933000E+00   -3.03068000E-03   8.15854000E-01
SP   1    1.000000
   4.83456000E-01    1.00000000E+00   1.00000000E+00
SP   1    1.000000
   1.45585000E-01    1.00000000E+00   1.00000000E+00
SP   1    1.000000
   4.38000000E-02    1.00000000E+00   1.00000000E+00
D    1    1.000000
   6.26000000E-01    1.00000000E+00
****
F    0
S    6    1.000000
   1.14271000E+04    1.80093000E-03
   1.72235000E+03    1.37419000E-02
   3.95746000E+02    6.81334000E-02
   1.15139000E+02    2.33325000E-01
   3.36026000E+01    5.89086000E-01
   4.91901000E+00    2.99505000E-01
SP   3    1.000000
   5.54441000E+01    1.14536000E-01   3.54609000E-02
   1.26323000E+01    9.20512000E-01   2.37451000E-01
   3.71756000E+00   -3.37804000E-03   8.20458000E-01
SP   1    1.000000
   1.16545000E+00    1.00000000E+00   1.00000000E+00
SP   1    1.000000
   3.21892000E-01    1.00000000E+00   1.00000000E+00
SP   1    1.000000
   1.07600000E-01    1.00000000E+00   1.00000000E+00
D    1    1.000000
   1.75000000E+00    1.00000000E+00
****
H    0
S    3    1.000000
   3.38650000E+01    2.54938000E-02
   5.09479000E+00    1.90373000E-01
   1.15879000E+00    8.52161000E-01
S    1    1.000000
   3.25840000E-01    1.00000000E+00
S    1    1.000000
   1.02741000E-01    1.00000000E+00
S    1    1.000000
   3.60000000E-02    1.00000000E+00
P    1    1.000000
   7.50000000E-01    1.00000000E+00
****
H    0
S    3    1.000000
   3.38650000E+01    2.54938000E-02
   5.09479000E+00    1.90373000E-01
   1.15879000E+00    8.52161000E-01
S    1    1.000000
   3.25840000E-01    1.00000000E+00
S    1    1.000000
   1.02741000E-01    1.00000000E+00
S    1    1.000000
   3.60000000E-02    1.00000000E+00
P    1    1.000000
   7.50000000E-01    1.00000000E+00
****
H    0
S    3    1.000000
   3.38650000E+01    2.54938000E-02
   5.09479000E+00    1.90373000E-01
   1.15879000E+00    8.52161000E-01
S    1    1.000000
   3.25840000E-01    1.00000000E+00
S    1    1.000000
   1.02741000E-01    1.00000000E+00
S    1    1.000000
   3.60000000E-02    1.00000000E+00
P    1    1.000000
   7.50000000E-01    1.00000000E+00
****
Gh   0
S   1   1.00
        0.0058583805        1.0000000000
S   1   1.00
        0.0033459739        1.0000000000
S   1   1.00
        0.0020484225        1.0000000000
P   1   1.00
        0.0099882106        1.0000000000
P   1   1.00
        0.0056893607        1.0000000000
P   1   1.00
        0.0034756797        1.0000000000
D   1   1.00
        0.0142043987        1.0000000000
D   1   1.00
        0.0080765930        1.0000000000
D   1   1.00
        0.0049271863        1.0000000000
****
$end

--------------------------------------------------------------
 ----------------------------------------------------------------
             Standard Nuclear Orientation (Angstroms)
    I     Atom           X                Y                Z
 ----------------------------------------------------------------
    1      C       1.1826448394     0.0548061476     0.0000000000
    2      GH     -0.0128243667     0.0950086116     0.0000000000
    3      F      -1.1854318948     0.1635668874    -0.0000000000
    4      C       0.0616065814    -0.3344575735     0.0000000000
    5      H       0.0709590846    -1.4152471088    -0.0000000000
    6      H       1.0359692299     1.5267000199     0.0000000000
    7      H       2.1092745806    -0.0006549534     0.0000000000
 ----------------------------------------------------------------
 Molecular Point Group                 Cs    NOp =  2
 Largest Abelian Subgroup              Cs    NOp =  2
 Nuclear Repulsion Energy =    68.9560576726 hartrees
 There are       12 alpha and       12 beta electrons

 Q-Chem warning in module forms1/BasisType.C, line 1685:

 Setting pure/cartesian flag to 2111 for general basis


 Requested basis set is non-standard
 There are 42 shells and 114 basis functions
 Total memory of 2000MB is distributed as follows: 
   QALLOC including MEM_STATIC uses 192MB
   MEM_STATIC is set to 192MB
   CCMAN JOB total memory use is  1808MB
 Warning: actual memory use might exceed 2000MB

 Total QAlloc Memory Limit    192 MB
 Mega-Array Size       188 MB
 MEM_STATIC part       192 MB

                       Distance Matrix (Angstroms)
             C (  1)   GH(  2)   F (  3)   C (  4)   H (  5)   H (  6)
   GH(  2)  1.196145
   F (  3)  2.370573  1.174610
   C (  4)  1.186698  0.435868  1.342808
   H (  5)  1.843069  1.512578  2.017715  1.080830
   H (  6)  1.479184  1.774742  2.606291  2.100783  3.096175
   H (  7)  0.928288  2.124254  3.298797  2.074697  2.481089  1.866761

 
 A cutoff of  1.0D-14 yielded    901 shell pairs
 There are      6700 function pairs (      7435 Cartesian)
 Smallest overlap matrix eigenvalue = 3.47E-05

 Scale SEOQF with 1.000000e-02/1.000000e-02/1.000000e-02

 Standard Electronic Orientation quadrupole field applied
 Nucleus-field energy     =     0.0000000001 hartrees
 Guess MOs from core Hamiltonian diagonalization

 -----------------------------------------------------------------------
  General SCF calculation program by
  Eric Jon Sundstrom, Paul Horn, Yuezhi Mao, Dmitri Zuev, Alec White,
  David Stuck, Shaama M.S., Shane Yost, Joonho Lee, David Small,
  Daniel Levine, Susi Lehtola, Hugh Burton, Evgeny Epifanovsky
 -----------------------------------------------------------------------
 Hartree-Fock
 A restricted SCF calculation will be
 performed using DIIS
 SCF converges when DIIS error is below 1.0e-08
 ---------------------------------------
  Cycle       Energy         DIIS error
 ---------------------------------------
    1    -141.2086343473      2.01e-01  
    2    -133.9075749103      7.61e-02  
    3    -155.5661657333      1.11e-01  
    4    -162.5866955712      8.37e-02  
    5    -172.0611176394      5.44e-02  
    6    -174.0892060783      3.71e-02  
    7    -176.5052549442      1.21e-02  
    8    -176.7624098459      3.97e-03  
    9    -176.7941462579      1.37e-03  
   10    -176.7991710894      4.35e-04  
   11    -176.7997488634      1.27e-04  
   12    -176.7998097199      4.44e-05  
   13    -176.7998140467      9.87e-06  
   14    -176.7998142605      1.38e-06  
   15    -176.7998142665      2.96e-07  
   16    -176.7998142668      6.55e-08  
   17    -176.7998142669      1.25e-08  
   18    -176.7998142669      2.07e-09  Convergence criterion met
 ---------------------------------------
 SCF time:   CPU 8.92s  wall 10.00s 
 SCF   energy in the final basis set =     -176.7998142669


 ------------------------------------------------------------------------------

   CCMAN2: suite of methods based on coupled cluster
           and equation of motion theories.

   Components:
   * libvmm-1.3-trunk
     by Evgeny Epifanovsky, Ilya Kaliman.
   * libtensor-2.5-trunk
     by Evgeny Epifanovsky, Michael Wormit, Dmitry Zuev, Sam Manzer, 
        Ilya Kaliman.
   * libcc-2.5-trunk
     by Evgeny Epifanovsky, Arik Landau, Tomasz Kus, Kirill Khistyaev, 
        Dmitry Zuev, Prashant Manohar, Xintian Feng, Anna Krylov, 
        Matthew Goldey, Alec White, Thomas Jagau, Kaushik Nanda, 
        Anastasia Gunina, Alexander Kunitsa, Joonho Lee.

   CCMAN original authors:
   Anna I. Krylov, C. David Sherrill, Steven R. Gwaltney,
   Edward F. C. Byrd (2000)
   Sergey V. Levchenko, Lyudmila V. Slipchenko, Tao Wang,
   Ana-Maria C. Cristian (2003)
   Piotr A. Pieniazek, C. Melania Oana, Evgeny Epifanovsky (2007)
   Prashant Manohar (2009)

 ------------------------------------------------------------------------------


 Calculation will run on 1 core with 1808MB of RAM.

 
 Alpha MOs, Restricted
 -- Occupied --                  
-26.327 -11.326 -11.251  -1.638  -1.114  -0.847  -0.764  -0.743
  1 A'    2 A'    3 A'    4 A'    5 A'    6 A'    7 A'    8 A'                 
 -0.704  -0.608  -0.442  -0.427
  1 A"    9 A'    2 A"   10 A'                                                 
 -- Virtual --                   
  0.002   0.006   0.006   0.006   0.010   0.013   0.013   0.013
 11 A'   12 A'   13 A'    3 A"   14 A'   15 A'   16 A'    4 A"                 
  0.013   0.013   0.020   0.020   0.021   0.029   0.036   0.037
 17 A'    5 A"   18 A'   19 A'    6 A"   20 A'   21 A'   22 A'                 
  0.037   0.037   0.038   0.049   0.052   0.053   0.082   0.082
  7 A"   23 A'    8 A"   24 A'   25 A'    9 A"   26 A'   27 A'                 
  0.083   0.085   0.087   0.091   0.109   0.124   0.152   0.155
 10 A"   28 A'   11 A"   29 A'   30 A'   31 A'   12 A"   32 A'                 
  0.171   0.174   0.210   0.215   0.220   0.229   0.240   0.270
 13 A"   33 A'   34 A'   35 A'   36 A'   37 A'   38 A'   14 A"                 
  0.326   0.355   0.406   0.410   0.462   0.485   0.568   0.574
 39 A'   40 A'   41 A'   15 A"   42 A'   43 A'   44 A'   45 A'                 
  0.640   0.664   0.677   0.713   0.821   0.829   0.849   0.911
 46 A'   47 A'   48 A'   16 A"   49 A'   17 A"   50 A'   51 A'                 
  1.016   1.145   1.226   1.233   1.396   1.454   1.507   1.630
 52 A'   53 A'   54 A'   18 A"   19 A"   20 A"   55 A'   56 A'                 
  1.664   1.692   1.729   1.778   1.873   1.889   1.913   2.009
 21 A"   57 A'   58 A'   59 A'   22 A"   60 A'   61 A'   23 A"                 
  2.040   2.199   2.240   2.378   2.421   2.526   2.649   2.729
 62 A'   24 A"   63 A'   64 A'   65 A'   66 A'   25 A"   67 A'                 
  2.893   2.938   3.059   3.109   3.133   3.301   3.498   3.659
 68 A'   69 A'   70 A'   26 A"   71 A'   27 A"   72 A'   73 A'                 
  3.765   4.116   4.206   4.215   4.272   4.453   4.602   5.268
 74 A'   75 A'   76 A'   28 A"   77 A'   29 A"   78 A'   79 A'                 
  6.935   7.022   7.348  24.810  26.230  68.744
 30 A"   80 A'   81 A'   82 A'   83 A'   84 A'                                 
 
 Beta MOs, Restricted
 -- Occupied --                  
-26.327 -11.326 -11.251  -1.638  -1.114  -0.847  -0.764  -0.743
  1 A'    2 A'    3 A'    4 A'    5 A'    6 A'    7 A'    8 A'                 
 -0.704  -0.608  -0.442  -0.427
  1 A"    9 A'    2 A"   10 A'                                                 
 -- Virtual --                   
  0.002   0.006   0.006   0.006   0.010   0.013   0.013   0.013
 11 A'   12 A'   13 A'    3 A"   14 A'   15 A'   16 A'    4 A"                 
  0.013   0.013   0.020   0.020   0.021   0.029   0.036   0.037
 17 A'    5 A"   18 A'   19 A'    6 A"   20 A'   21 A'   22 A'                 
  0.037   0.037   0.038   0.049   0.052   0.053   0.082   0.082
  7 A"   23 A'    8 A"   24 A'   25 A'    9 A"   26 A'   27 A'                 
  0.083   0.085   0.087   0.091   0.109   0.124   0.152   0.155
 10 A"   28 A'   11 A"   29 A'   30 A'   31 A'   12 A"   32 A'                 
  0.171   0.174   0.210   0.215   0.220   0.229   0.240   0.270
 13 A"   33 A'   34 A'   35 A'   36 A'   37 A'   38 A'   14 A"                 
  0.326   0.355   0.406   0.410   0.462   0.485   0.568   0.574
 39 A'   40 A'   41 A'   15 A"   42 A'   43 A'   44 A'   45 A'                 
  0.640   0.664   0.677   0.713   0.821   0.829   0.849   0.911
 46 A'   47 A'   48 A'   16 A"   49 A'   17 A"   50 A'   51 A'                 
  1.016   1.145   1.226   1.233   1.396   1.454   1.507   1.630
 52 A'   53 A'   54 A'   18 A"   19 A"   20 A"   55 A'   56 A'                 
  1.664   1.692   1.729   1.778   1.873   1.889   1.913   2.009
 21 A"   57 A'   58 A'   59 A'   22 A"   60 A'   61 A'   23 A"                 
  2.040   2.199   2.240   2.378   2.421   2.526   2.649   2.729
 62 A'   24 A"   63 A'   64 A'   65 A'   66 A'   25 A"   67 A'                 
  2.893   2.938   3.059   3.109   3.133   3.301   3.498   3.659
 68 A'   69 A'   70 A'   26 A"   71 A'   27 A"   72 A'   73 A'                 
  3.765   4.116   4.206   4.215   4.272   4.453   4.602   5.268
 74 A'   75 A'   76 A'   28 A"   77 A'   29 A"   78 A'   79 A'                 
  6.935   7.022   7.348  24.810  26.230  68.744
 30 A"   80 A'   81 A'   82 A'   83 A'   84 A'                                 

 Occupation and symmetry of molecular orbitals

 Point group: Cs (2 irreducible representations).

                           A'   A"    All 
 ------------------------------------------
 All molecular orbitals:
  - Alpha                  84   30    114 
  - Beta                   84   30    114 
 ------------------------------------------
 Alpha orbitals:
  - Frozen occupied        3    0     3   
  - Active occupied        7    2     9   
  - Active virtual         74   28    102 
  - Frozen virtual         0    0     0   
 ------------------------------------------
 Beta orbitals:
  - Frozen occupied        3    0     3   
  - Active occupied        7    2     9   
  - Active virtual         74   28    102 
  - Frozen virtual         0    0     0   
 ------------------------------------------

 Import integrals:   CPU 0.00 s  wall 0.00 s

 Import integrals:   CPU 7.53 s  wall 9.76 s

 MP2 amplitudes:   CPU 0.21 s  wall 0.22 s

           CCSD T amplitudes will be solved using DIIS.

           Start     Size      MaxIter   EConv     TConv     
           3         7         100       1.00e-06  1.00e-04  
 ------------------------------------------------------------------------------
           Energy (a.u.)   Ediff      Tdiff       Comment
 ------------------------------------------------------------------------------
          -177.29080080                           
     1    -177.29690019   6.10e-03   6.15e-01     
     2    -177.31089597   1.40e-02   7.77e-02     
     3    -177.31189540   9.99e-04   3.09e-02     
     4    -177.31360864   1.71e-03   1.18e-02     Switched to DIIS steps.
     5    -177.31426792   6.59e-04   9.95e-03     
     6    -177.31428431   1.64e-05   1.48e-03     
     7    -177.31428297   1.34e-06   6.83e-04     
     8    -177.31428338   4.10e-07   1.53e-04     
     9    -177.31428397   5.89e-07   6.19e-05     
 ------------------------------------------------------------------------------
          -177.31428397                           CCSD T converged.

 SCF energy                 = -176.79981427
 MP2 energy                 = -177.29080080
 CCSD correlation energy     =   -0.51446970
 CCSD total energy           = -177.31428397

 CCSD  T1^2 = 0.0066  T2^2 = 0.1706  Leading amplitudes:

 Amplitude    Orbitals with energies
 -0.0179       1 (A") A                  ->    12 (A") A                  
              -0.7038                          0.1523                     
 -0.0179       1 (A") B                  ->    12 (A") B                  
              -0.7038                          0.1523                     
 -0.0145       1 (A") A                  ->    14 (A") A                  
              -0.7038                          0.2699                     
 -0.0145       1 (A") B                  ->    14 (A") B                  
              -0.7038                          0.2699                     

 Amplitude    Orbitals with energies
 -0.0567       2 (A") A      2 (A") B    ->    14 (A") A     14 (A") B    
              -0.4417       -0.4417            0.2699        0.2699       
  0.0567       2 (A") A      2 (A") B    ->    14 (A") B     14 (A") A    
              -0.4417       -0.4417            0.2699        0.2699       
  0.0567       2 (A") B      2 (A") A    ->    14 (A") A     14 (A") B    
              -0.4417       -0.4417            0.2699        0.2699       
 -0.0567       2 (A") B      2 (A") A    ->    14 (A") B     14 (A") A    
              -0.4417       -0.4417            0.2699        0.2699       

 Computing CCSD intermediates for later calculations
 Finished.

           CCSD Lambda amplitudes will be solved using DIIS.
           Start     Size      MaxIter   EConv     LConv     
           3         7         100       1.00e-06  1.00e-04  
 ------------------------------------------------------------------------------
            Enorm      Ldiff       Comment
 ------------------------------------------------------------------------------
     1     3.86e-02   2.42e-02     
     2     1.14e-02   5.23e-03     
     3     4.35e-03   8.44e-04     
     4     2.21e-03   7.88e-04     Switched to DIIS steps.
     5     5.11e-04   4.65e-04     
     6     2.19e-04   7.56e-05     
     7     5.65e-05   1.65e-05     
     8     2.15e-05   3.83e-07     
     9     6.86e-06   1.73e-06     
    10     2.47e-06   6.19e-07     
    11     9.80e-07   1.78e-07     
 ------------------------------------------------------------------------------
                                   CCSD Lambda converged.

 CCSD calculation:   CPU 46.85 s  wall 51.75 s

        Solving for CVS-EOMEE-CCSD A' singlet states.

       EOMEE-CCSD-SINGLES right amplitudes will be solved using Davidson.
      Amplitudes will be solved using standard  algorithm
      Roots     MaxVec    MaxIter   Precond   Conv      Thresh    Shift    
      5         1000      60        1         1.00e-03  1.00e-103 0.00e+00  
 ------------------------------------------------------------------------------
      Iter ConvRoots NVecs ResNorm Current eigenvalues (eV)
 ------------------------------------------------------------------------------
      0    4      5     4.69e-04   303.7046   304.4761*  304.5151*  304.7212*  304.8263*  
      1    1      6     3.13e-02   302.1668   304.3420   304.4842   304.5185   304.7220*  
      2    0      10    8.22e-03   299.3974   303.3139   303.8008   303.9702   304.6760   
      3    1      15    1.14e-02   296.5856   301.6479   303.1538   303.5138*  304.0955   
      4    0      19    3.44e-03   296.1661   301.2769   302.7808   303.4861   303.8985   
      5    4      24    8.79e-04   296.1457*  301.2250*  302.6932   303.2737*  303.8094*  
      6    3      25    7.07e-04   296.1449*  301.2167*  302.6516   303.2727*  303.7962   
      7    2      27    2.09e-02   296.1448*  301.2151*  302.0211   302.7351   303.2851   
      8    4      30    3.59e-03   296.1445*  300.3090   301.2144*  302.6727*  303.2598*  
      9    4      31    4.12e-04   296.1445*  300.1542   301.2143*  302.6697*  303.2578*  
      10   4      32    3.58e-04   296.1445*  300.1276   301.2143*  302.6694*  303.2578*  
      11   4      33    5.73e-03   296.1445*  300.1121*  301.2141*  302.6677*  302.9580   
      12   4      34    7.43e-04   296.1445*  300.1107*  301.2141*  302.5521   302.6757*  
      13   5      35    1.49e-04   296.1445*  300.1106*  301.2141*  302.5083*  302.6747*  

     Davidson procedure converged

        CVS-EOMEE-CCSD/MP2 right amplitudes will be solved using Davidson.
      Amplitudes will be solved using standard  algorithm
      Roots     MaxVec    MaxIter   Precond   Conv      Thresh    Shift    
      5         1000      60        1         1.00e-03  1.00e-103 0.00e+00  
 ------------------------------------------------------------------------------
      Iter ConvRoots NVecs ResNorm Current eigenvalues (eV)
 ------------------------------------------------------------------------------
      0    0      5     1.83e+00   296.1445   300.1106   301.2141   302.5083   302.6747   
      1    0      10    1.07e+00   293.7793   297.6161   298.4359   299.7333   299.9209   
      2    0      15    6.45e-02   287.0872   289.1896   290.0543   291.0012   292.0205   
      3    0      20    2.78e-02   286.2735   288.7072   289.5325   290.2154   291.3198   
      4    0      25    6.98e-03   286.0537   288.6243   289.4377   289.8879   291.0864   
      5    0      30    5.98e-03   286.0074   288.5779   289.3819   289.7163   290.9415   
      6    1      35    2.65e-03   285.9892*  288.5469   289.3440   289.6323   290.8330   
      7    2      39    1.85e-03   285.9869*  288.5292*  289.3189   289.5889   290.7602   
      8    3      42    1.20e-03   285.9865*  288.5283*  289.3116*  289.5745   290.7250   
      9    4      44    1.31e-03   285.9864*  288.5278*  289.3115*  289.5585*  290.6788   
      10   4      45    1.15e-03   285.9863*  288.5270*  289.3114*  289.5535*  290.6328   
      11   4      46    1.33e-03   285.9862*  288.5261*  289.3114*  289.5524*  290.5931   
      12   4      47    2.55e-03   285.9861*  288.5244*  289.3114*  289.5520*  290.5299   
      13   4      48    6.20e-03   285.9859*  288.5207*  289.3112*  289.5516*  290.2656   
      14   4      49    4.14e-03   285.9858*  288.5170*  289.3110*  289.5513*  289.9672   
      15   4      50    2.91e-03   285.9858*  288.5150*  289.3109*  289.5509*  289.7778   
      16   4      51    1.89e-03   285.9858*  288.5144*  289.3109*  289.5501*  289.6635   
      17   4      52    1.18e-03   285.9858*  288.5139*  289.3109*  289.5484*  289.5876   
      18   3      53    8.83e-04   285.9858*  288.5138*  289.3108*  289.5451   289.5602   
      19   4      55    6.27e-04   285.9857*  288.5138*  289.3108*  289.5251   289.5506*  
      20   5      56    5.16e-04   285.9857*  288.5137*  289.3108*  289.5157*  289.5494*  

     Davidson procedure converged

 EOMEE transition 1/A'
 Total energy = -166.80450164 a.u.  Excitation energy = 285.9857 eV.
 R0^2 = 0.0000  R1^2 = 0.8144  R2_CCVV^2 = 0.0013  R2_COVV^2 = 0.0921  Res^2 = 5.09e-04
 Conv-d = yes

 Amplitude    Transitions between orbitals
  0.3412       3 (A') A                  ->    30 (A') A                  
  0.3412       3 (A') B                  ->    30 (A') B                  
 -0.2119       3 (A') A                  ->    38 (A') A                  
 -0.2119       3 (A') B                  ->    38 (A') B                  
  0.1990       3 (A') A                  ->    36 (A') A                  
  0.1990       3 (A') B                  ->    36 (A') B                  
  0.1939       3 (A') A                  ->    31 (A') A                  
  0.1939       3 (A') B                  ->    31 (A') B                  
  0.1844       3 (A') A                  ->    37 (A') A                  
  0.1844       3 (A') B                  ->    37 (A') B                  
  0.1635       3 (A') A                  ->    24 (A') A                  
  0.1635       3 (A') B                  ->    24 (A') B                  
  0.1591       3 (A') A                  ->    29 (A') A                  
  0.1591       3 (A') B                  ->    29 (A') B                  
  0.1349       3 (A') A                  ->    32 (A') A                  
  0.1349       3 (A') B                  ->    32 (A') B                  
  0.1277       3 (A') A                  ->    27 (A') A                  
  0.1277       3 (A') B                  ->    27 (A') B                  
 -0.1078       3 (A') A                  ->    35 (A') A                  
 -0.1078       3 (A') B                  ->    35 (A') B                  

              Summary of significant orbitals:

               Number  Type             Irrep      Energy
               3       Occ  Alpha       3 (A')    -11.2513
               3       Occ  Beta        3 (A')    -11.2513
               32      Vir  Alpha      24 (A')      0.0485
               36      Vir  Alpha      27 (A')      0.0822
               40      Vir  Alpha      29 (A')      0.0914
               41      Vir  Alpha      30 (A')      0.1095
               42      Vir  Alpha      31 (A')      0.1243
               44      Vir  Alpha      32 (A')      0.1547
               48      Vir  Alpha      35 (A')      0.2146
               49      Vir  Alpha      36 (A')      0.2200
               50      Vir  Alpha      37 (A')      0.2285
               51      Vir  Alpha      38 (A')      0.2397
               32      Vir  Beta       24 (A')      0.0485
               36      Vir  Beta       27 (A')      0.0822
               40      Vir  Beta       29 (A')      0.0914
               41      Vir  Beta       30 (A')      0.1095
               42      Vir  Beta       31 (A')      0.1243
               44      Vir  Beta       32 (A')      0.1547
               48      Vir  Beta       35 (A')      0.2146
               49      Vir  Beta       36 (A')      0.2200
               50      Vir  Beta       37 (A')      0.2285
               51      Vir  Beta       38 (A')      0.2397


 EOMEE transition 2/A'
 Total energy = -166.71160030 a.u.  Excitation energy = 288.5137 eV.
 R0^2 = 0.0000  R1^2 = 0.8096  R2_CCVV^2 = 0.0012  R2_COVV^2 = 0.0946  Res^2 = 4.77e-04
 Conv-d = yes

 Amplitude    Transitions between orbitals
  0.3291       3 (A') A                  ->    20 (A') A                  
  0.3291       3 (A') B                  ->    20 (A') B                  
 -0.2866       3 (A') A                  ->    29 (A') A                  
 -0.2866       3 (A') B                  ->    29 (A') B                  
  0.2327       3 (A') A                  ->    14 (A') A                  
  0.2327       3 (A') B                  ->    14 (A') B                  
  0.1616       3 (A') A                  ->    26 (A') A                  
  0.1616       3 (A') B                  ->    26 (A') B                  
 -0.1529       3 (A') A                  ->    19 (A') A                  
 -0.1529       3 (A') B                  ->    19 (A') B                  
  0.1475       3 (A') A                  ->    11 (A') A                  
  0.1475       3 (A') B                  ->    11 (A') B                  
 -0.1201       3 (A') A                  ->    25 (A') A                  
 -0.1201       3 (A') B                  ->    25 (A') B                  
  0.1065       3 (A') A                  ->    36 (A') A                  
  0.1065       3 (A') B                  ->    36 (A') B                  
 -0.1006       3 (A') A                  ->    35 (A') A                  
 -0.1006       3 (A') B                  ->    35 (A') B                  

              Summary of significant orbitals:

               Number  Type             Irrep      Energy
               3       Occ  Alpha       3 (A')    -11.2513
               3       Occ  Beta        3 (A')    -11.2513
               13      Vir  Alpha      11 (A')      0.0019
               17      Vir  Alpha      14 (A')      0.0097
               24      Vir  Alpha      19 (A')      0.0205
               26      Vir  Alpha      20 (A')      0.0291
               33      Vir  Alpha      25 (A')      0.0520
               35      Vir  Alpha      26 (A')      0.0817
               40      Vir  Alpha      29 (A')      0.0914
               48      Vir  Alpha      35 (A')      0.2146
               49      Vir  Alpha      36 (A')      0.2200
               13      Vir  Beta       11 (A')      0.0019
               17      Vir  Beta       14 (A')      0.0097
               24      Vir  Beta       19 (A')      0.0205
               26      Vir  Beta       20 (A')      0.0291
               33      Vir  Beta       25 (A')      0.0520
               35      Vir  Beta       26 (A')      0.0817
               40      Vir  Beta       29 (A')      0.0914
               48      Vir  Beta       35 (A')      0.2146
               49      Vir  Beta       36 (A')      0.2200


 EOMEE transition 3/A'
 Total energy = -166.68230715 a.u.  Excitation energy = 289.3108 eV.
 R0^2 = 0.0000  R1^2 = 0.8063  R2_CCVV^2 = 0.0012  R2_COVV^2 = 0.0962  Res^2 = 6.12e-04
 Conv-d = yes

 Amplitude    Transitions between orbitals
 -0.2884       3 (A') A                  ->    24 (A') A                  
 -0.2884       3 (A') B                  ->    24 (A') B                  
  0.2403       3 (A') A                  ->    31 (A') A                  
  0.2403       3 (A') B                  ->    31 (A') B                  
 -0.2394       3 (A') A                  ->    18 (A') A                  
 -0.2394       3 (A') B                  ->    18 (A') B                  
  0.1944       3 (A') A                  ->    27 (A') A                  
  0.1944       3 (A') B                  ->    27 (A') B                  
  0.1622       3 (A') A                  ->    33 (A') A                  
  0.1622       3 (A') B                  ->    33 (A') B                  
  0.1256       3 (A') A                  ->    21 (A') A                  
  0.1256       3 (A') B                  ->    21 (A') B                  
 -0.1138       3 (A') A                  ->    26 (A') A                  
 -0.1138       3 (A') B                  ->    26 (A') B                  
 -0.1131       3 (A') A                  ->    12 (A') A                  
 -0.1131       3 (A') B                  ->    12 (A') B                  
 -0.1131       3 (A') A                  ->    25 (A') A                  
 -0.1131       3 (A') B                  ->    25 (A') B                  
 -0.1120       3 (A') A                  ->    30 (A') A                  
 -0.1120       3 (A') B                  ->    30 (A') B                  
 -0.1017       3 (A') A                  ->    38 (A') A                  
 -0.1017       3 (A') B                  ->    38 (A') B                  

              Summary of significant orbitals:

               Number  Type             Irrep      Energy
               3       Occ  Alpha       3 (A')    -11.2513
               3       Occ  Beta        3 (A')    -11.2513
               14      Vir  Alpha      12 (A')      0.0060
               23      Vir  Alpha      18 (A')      0.0199
               27      Vir  Alpha      21 (A')      0.0363
               32      Vir  Alpha      24 (A')      0.0485
               33      Vir  Alpha      25 (A')      0.0520
               35      Vir  Alpha      26 (A')      0.0817
               36      Vir  Alpha      27 (A')      0.0822
               41      Vir  Alpha      30 (A')      0.1095
               42      Vir  Alpha      31 (A')      0.1243
               46      Vir  Alpha      33 (A')      0.1743
               51      Vir  Alpha      38 (A')      0.2397
               14      Vir  Beta       12 (A')      0.0060
               23      Vir  Beta       18 (A')      0.0199
               27      Vir  Beta       21 (A')      0.0363
               32      Vir  Beta       24 (A')      0.0485
               33      Vir  Beta       25 (A')      0.0520
               35      Vir  Beta       26 (A')      0.0817
               36      Vir  Beta       27 (A')      0.0822
               41      Vir  Beta       30 (A')      0.1095
               42      Vir  Beta       31 (A')      0.1243
               46      Vir  Beta       33 (A')      0.1743
               51      Vir  Beta       38 (A')      0.2397


 EOMEE transition 4/A'
 Total energy = -166.67477652 a.u.  Excitation energy = 289.5157 eV.
 R0^2 = 0.0000  R1^2 = 0.8014  R2_CCVV^2 = 0.0012  R2_COVV^2 = 0.0987  Res^2 = 7.56e-04
 Conv-d = yes

 Amplitude    Transitions between orbitals
  0.3582       3 (A') A                  ->    25 (A') A                  
  0.3582       3 (A') B                  ->    25 (A') B                  
  0.2615       3 (A') A                  ->    32 (A') A                  
  0.2615       3 (A') B                  ->    32 (A') B                  
  0.2402       3 (A') A                  ->    19 (A') A                  
  0.2402       3 (A') B                  ->    19 (A') B                  
  0.1313       3 (A') A                  ->    20 (A') A                  
  0.1313       3 (A') B                  ->    20 (A') B                  
 -0.1178       3 (A') A                  ->    24 (A') A                  
 -0.1178       3 (A') B                  ->    24 (A') B                  
 -0.1112       3 (A') A                  ->    18 (A') A                  
 -0.1112       3 (A') B                  ->    18 (A') B                  
 -0.1013       3 (A') A                  ->    22 (A') A                  
 -0.1013       3 (A') B                  ->    22 (A') B                  
 -0.1004       3 (A') A                  ->    13 (A') A                  
 -0.1004       3 (A') B                  ->    13 (A') B                  

              Summary of significant orbitals:

               Number  Type             Irrep      Energy
               3       Occ  Alpha       3 (A')    -11.2513
               3       Occ  Beta        3 (A')    -11.2513
               15      Vir  Alpha      13 (A')      0.0061
               23      Vir  Alpha      18 (A')      0.0199
               24      Vir  Alpha      19 (A')      0.0205
               26      Vir  Alpha      20 (A')      0.0291
               28      Vir  Alpha      22 (A')      0.0368
               32      Vir  Alpha      24 (A')      0.0485
               33      Vir  Alpha      25 (A')      0.0520
               44      Vir  Alpha      32 (A')      0.1547
               15      Vir  Beta       13 (A')      0.0061
               23      Vir  Beta       18 (A')      0.0199
               24      Vir  Beta       19 (A')      0.0205
               26      Vir  Beta       20 (A')      0.0291
               28      Vir  Beta       22 (A')      0.0368
               32      Vir  Beta       24 (A')      0.0485
               33      Vir  Beta       25 (A')      0.0520
               44      Vir  Beta       32 (A')      0.1547


 EOMEE transition 5/A'
 Total energy = -166.67353915 a.u.  Excitation energy = 289.5494 eV.
 R0^2 = 0.0000  R1^2 = 0.8255  R2_CCVV^2 = 0.0013  R2_COVV^2 = 0.0866  Res^2 = 2.25e-04
 Conv-d = yes

 Amplitude    Transitions between orbitals
 -0.3424       2 (A') A                  ->    30 (A') A                  
 -0.3424       2 (A') B                  ->    30 (A') B                  
 -0.2189       2 (A') A                  ->    32 (A') A                  
 -0.2189       2 (A') B                  ->    32 (A') B                  
 -0.1923       2 (A') A                  ->    36 (A') A                  
 -0.1923       2 (A') B                  ->    36 (A') B                  
 -0.1891       2 (A') A                  ->    24 (A') A                  
 -0.1891       2 (A') B                  ->    24 (A') B                  
  0.1312       2 (A') A                  ->    38 (A') A                  
  0.1312       2 (A') B                  ->    38 (A') B                  
 -0.1307       2 (A') A                  ->    37 (A') A                  
 -0.1307       2 (A') B                  ->    37 (A') B                  
 -0.1287       2 (A') A                  ->    31 (A') A                  
 -0.1287       2 (A') B                  ->    31 (A') B                  
 -0.1209       2 (A') A                  ->    27 (A') A                  
 -0.1209       2 (A') B                  ->    27 (A') B                  
  0.1157       2 (A') A                  ->    35 (A') A                  
  0.1157       2 (A') B                  ->    35 (A') B                  
 -0.1139       2 (A') A                  ->    41 (A') A                  
 -0.1139       2 (A') B                  ->    41 (A') B                  
  0.1043       3 (A') A                  ->    25 (A') A                  
  0.1043       3 (A') B                  ->    25 (A') B                  

              Summary of significant orbitals:

               Number  Type             Irrep      Energy
               2       Occ  Alpha       2 (A')    -11.3258
               3       Occ  Alpha       3 (A')    -11.2513
               2       Occ  Beta        2 (A')    -11.3258
               3       Occ  Beta        3 (A')    -11.2513
               32      Vir  Alpha      24 (A')      0.0485
               33      Vir  Alpha      25 (A')      0.0520
               36      Vir  Alpha      27 (A')      0.0822
               41      Vir  Alpha      30 (A')      0.1095
               42      Vir  Alpha      31 (A')      0.1243
               44      Vir  Alpha      32 (A')      0.1547
               48      Vir  Alpha      35 (A')      0.2146
               49      Vir  Alpha      36 (A')      0.2200
               50      Vir  Alpha      37 (A')      0.2285
               51      Vir  Alpha      38 (A')      0.2397
               55      Vir  Alpha      41 (A')      0.4057
               32      Vir  Beta       24 (A')      0.0485
               33      Vir  Beta       25 (A')      0.0520
               36      Vir  Beta       27 (A')      0.0822
               41      Vir  Beta       30 (A')      0.1095
               42      Vir  Beta       31 (A')      0.1243
               44      Vir  Beta       32 (A')      0.1547
               48      Vir  Beta       35 (A')      0.2146
               49      Vir  Beta       36 (A')      0.2200
               50      Vir  Beta       37 (A')      0.2285
               51      Vir  Beta       38 (A')      0.2397
               55      Vir  Beta       41 (A')      0.4057


      CVS-EOM-CCSD/MP2 left amplitudes will be solved using Davidson.
      Amplitudes will be solved using MOM  algorithm
      Roots     MaxVec    MaxIter   Precond   Conv      Thresh    Shift    
      5         1000      60        1         1.00e-03  1.00e-103 0.00e+00  
 ------------------------------------------------------------------------------
      Iter ConvRoots NVecs ResNorm Current eigenvalues (eV)
 ------------------------------------------------------------------------------
      0    0      5     2.25e-02   285.9857   288.5137   289.3108   289.5157   289.5494   
      1    0      10    4.40e-02   285.9796   288.5092   289.3040   289.5074   289.5476   
      2    1      15    1.20e-03   285.9808*  288.5113   289.3043   289.5110   289.5489   
      3    5      19    3.86e-04   285.9808*  288.5092*  289.3008*  289.5083*  289.5485*  

     Davidson procedure converged

        Solving for CVS-EOMEE-CCSD A" singlet states.

       EOMEE-CCSD-SINGLES right amplitudes will be solved using Davidson.
      Amplitudes will be solved using standard  algorithm
      Roots     MaxVec    MaxIter   Precond   Conv      Thresh    Shift    
      5         1000      60        1         1.00e-03  1.00e-103 0.00e+00  
 ------------------------------------------------------------------------------
      Iter ConvRoots NVecs ResNorm Current eigenvalues (eV)
 ------------------------------------------------------------------------------
      0    5      5     3.06e-04   303.9674*  304.4545*  304.6876*  304.8311*  305.0597*  

     Davidson procedure converged

        CVS-EOMEE-CCSD/MP2 right amplitudes will be solved using Davidson.
      Amplitudes will be solved using standard  algorithm
      Roots     MaxVec    MaxIter   Precond   Conv      Thresh    Shift    
      5         1000      60        1         1.00e-03  1.00e-103 0.00e+00  
 ------------------------------------------------------------------------------
      Iter ConvRoots NVecs ResNorm Current eigenvalues (eV)
 ------------------------------------------------------------------------------
      0    0      5     1.90e+00   303.9674   304.4545   304.6876   304.8311   305.0597   
      1    0      10    1.21e+00   301.0032   301.4843   301.7206   301.8656   302.0915   
      2    0      15    6.35e-02   290.7482   291.1969   291.4619   291.6197   291.8275   
      3    0      20    3.70e-03   290.1934   290.6937   290.9597   291.1109   291.3167   
      4    0      25    3.03e-03   290.1342   290.6585   290.9342   291.0830   291.2856   
      5    1      30    7.04e-03   289.9417   290.5504   290.9101*  291.0319   291.2119   
      6    0      34    1.72e-02   289.0769   289.8278   290.7898   290.9084   290.9438   
      7    0      39    8.44e-03   288.3013   289.5252   290.6994   290.7836   290.8532   
      8    0      44    1.22e-02   287.6891   289.4604   290.6645   290.6658   290.7426   
      9    0      49    4.03e-03   287.0816   289.4201   290.5473   290.5982   290.7080   
      10   4      54    8.21e-04   286.9642   289.4024*  290.5103*  290.5682*  290.6921*  
      11   5      55    3.04e-04   286.9506*  289.4005*  290.5014*  290.5642*  290.6909*  

     Davidson procedure converged

 EOMEE transition 1/A"
 Total energy = -166.76904150 a.u.  Excitation energy = 286.9506 eV.
 R0^2 = 0.0000  R1^2 = 0.8331  R2_CCVV^2 = 0.0013  R2_COVV^2 = 0.0828  Res^2 = 2.29e-04
 Conv-d = yes

 Amplitude    Transitions between orbitals
  0.4799       3 (A') A                  ->    12 (A") A                  
  0.4799       3 (A') B                  ->    12 (A") B                  
  0.3758       3 (A') A                  ->    14 (A") A                  
  0.3758       3 (A') B                  ->    14 (A") B                  
  0.1491       3 (A') A                  ->    10 (A") A                  
  0.1491       3 (A') B                  ->    10 (A") B                  
  0.1057       3 (A') A                  ->    17 (A") A                  
  0.1057       3 (A') B                  ->    17 (A") B                  

              Summary of significant orbitals:

               Number  Type             Irrep      Energy
               3       Occ  Alpha       3 (A')    -11.2513
               3       Occ  Beta        3 (A')    -11.2513
               37      Vir  Alpha      10 (A")      0.0830
               43      Vir  Alpha      12 (A")      0.1523
               52      Vir  Alpha      14 (A")      0.2699
               66      Vir  Alpha      17 (A")      0.8294
               37      Vir  Beta       10 (A")      0.0830
               43      Vir  Beta       12 (A")      0.1523
               52      Vir  Beta       14 (A")      0.2699
               66      Vir  Beta       17 (A")      0.8294


 EOMEE transition 2/A"
 Total energy = -166.67900928 a.u.  Excitation energy = 289.4005 eV.
 R0^2 = 0.0000  R1^2 = 0.8051  R2_CCVV^2 = 0.0012  R2_COVV^2 = 0.0969  Res^2 = 2.42e-04
 Conv-d = yes

 Amplitude    Transitions between orbitals
 -0.4168       3 (A') A                  ->    9 (A") A                   
 -0.4168       3 (A') B                  ->    9 (A") B                   
  0.3308       3 (A') A                  ->    6 (A") A                   
  0.3308       3 (A') B                  ->    6 (A") B                   
 -0.2418       3 (A') A                  ->    13 (A") A                  
 -0.2418       3 (A') B                  ->    13 (A") B                  
  0.1668       3 (A') A                  ->    3 (A") A                   
  0.1668       3 (A') B                  ->    3 (A") B                   

              Summary of significant orbitals:

               Number  Type             Irrep      Energy
               3       Occ  Alpha       3 (A')    -11.2513
               3       Occ  Beta        3 (A')    -11.2513
               16      Vir  Alpha       3 (A")      0.0062
               25      Vir  Alpha       6 (A")      0.0209
               34      Vir  Alpha       9 (A")      0.0528
               45      Vir  Alpha      13 (A")      0.1713
               16      Vir  Beta        3 (A")      0.0062
               25      Vir  Beta        6 (A")      0.0209
               34      Vir  Beta        9 (A")      0.0528
               45      Vir  Beta       13 (A")      0.1713


 EOMEE transition 3/A"
 Total energy = -166.63855224 a.u.  Excitation energy = 290.5014 eV.
 R0^2 = 0.0000  R1^2 = 0.8005  R2_CCVV^2 = 0.0012  R2_COVV^2 = 0.0992  Res^2 = 2.93e-04
 Conv-d = yes

 Amplitude    Transitions between orbitals
 -0.3352       3 (A') A                  ->    7 (A") A                   
 -0.3352       3 (A') B                  ->    7 (A") B                   
  0.3042       3 (A') A                  ->    8 (A") A                   
  0.3042       3 (A') B                  ->    8 (A") B                   
  0.2849       3 (A') A                  ->    4 (A") A                   
  0.2849       3 (A') B                  ->    4 (A") B                   
  0.2276       3 (A') A                  ->    10 (A") A                  
  0.2276       3 (A') B                  ->    10 (A") B                  
  0.2121       3 (A') A                  ->    5 (A") A                   
  0.2121       3 (A') B                  ->    5 (A") B                   

              Summary of significant orbitals:

               Number  Type             Irrep      Energy
               3       Occ  Alpha       3 (A')    -11.2513
               3       Occ  Beta        3 (A')    -11.2513
               20      Vir  Alpha       4 (A")      0.0132
               22      Vir  Alpha       5 (A")      0.0133
               29      Vir  Alpha       7 (A")      0.0368
               31      Vir  Alpha       8 (A")      0.0377
               37      Vir  Alpha      10 (A")      0.0830
               20      Vir  Beta        4 (A")      0.0132
               22      Vir  Beta        5 (A")      0.0133
               29      Vir  Beta        7 (A")      0.0368
               31      Vir  Beta        8 (A")      0.0377
               37      Vir  Beta       10 (A")      0.0830


 EOMEE transition 4/A"
 Total energy = -166.63624685 a.u.  Excitation energy = 290.5642 eV.
 R0^2 = 0.0000  R1^2 = 0.8005  R2_CCVV^2 = 0.0012  R2_COVV^2 = 0.0992  Res^2 = 3.23e-04
 Conv-d = yes

 Amplitude    Transitions between orbitals
  0.3491       3 (A') A                  ->    8 (A") A                   
  0.3491       3 (A') B                  ->    8 (A") B                   
  0.3138       3 (A') A                  ->    5 (A") A                   
  0.3138       3 (A') B                  ->    5 (A") B                   
  0.2781       3 (A') A                  ->    7 (A") A                   
  0.2781       3 (A') B                  ->    7 (A") B                   
 -0.1963       3 (A') A                  ->    4 (A") A                   
 -0.1963       3 (A') B                  ->    4 (A") B                   
  0.1868       3 (A') A                  ->    11 (A") A                  
  0.1868       3 (A') B                  ->    11 (A") B                  
  0.1027       3 (A') A                  ->    9 (A") A                   
  0.1027       3 (A') B                  ->    9 (A") B                   

              Summary of significant orbitals:

               Number  Type             Irrep      Energy
               3       Occ  Alpha       3 (A')    -11.2513
               3       Occ  Beta        3 (A')    -11.2513
               20      Vir  Alpha       4 (A")      0.0132
               22      Vir  Alpha       5 (A")      0.0133
               29      Vir  Alpha       7 (A")      0.0368
               31      Vir  Alpha       8 (A")      0.0377
               34      Vir  Alpha       9 (A")      0.0528
               39      Vir  Alpha      11 (A")      0.0867
               20      Vir  Beta        4 (A")      0.0132
               22      Vir  Beta        5 (A")      0.0133
               29      Vir  Beta        7 (A")      0.0368
               31      Vir  Beta        8 (A")      0.0377
               34      Vir  Beta        9 (A")      0.0528
               39      Vir  Beta       11 (A")      0.0867


 EOMEE transition 5/A"
 Total energy = -166.63158955 a.u.  Excitation energy = 290.6909 eV.
 R0^2 = 0.0000  R1^2 = 0.8017  R2_CCVV^2 = 0.0012  R2_COVV^2 = 0.0985  Res^2 = 4.32e-04
 Conv-d = yes

 Amplitude    Transitions between orbitals
  0.4904       3 (A') A                  ->    3 (A") A                   
  0.4904       3 (A') B                  ->    3 (A") B                   
  0.2412       3 (A') A                  ->    9 (A") A                   
  0.2412       3 (A') B                  ->    9 (A") B                   
  0.2253       3 (A') A                  ->    6 (A") A                   
  0.2253       3 (A') B                  ->    6 (A") B                   
  0.1761       3 (A') A                  ->    13 (A") A                  
  0.1761       3 (A') B                  ->    13 (A") B                  

              Summary of significant orbitals:

               Number  Type             Irrep      Energy
               3       Occ  Alpha       3 (A')    -11.2513
               3       Occ  Beta        3 (A')    -11.2513
               16      Vir  Alpha       3 (A")      0.0062
               25      Vir  Alpha       6 (A")      0.0209
               34      Vir  Alpha       9 (A")      0.0528
               45      Vir  Alpha      13 (A")      0.1713
               16      Vir  Beta        3 (A")      0.0062
               25      Vir  Beta        6 (A")      0.0209
               34      Vir  Beta        9 (A")      0.0528
               45      Vir  Beta       13 (A")      0.1713


      CVS-EOM-CCSD/MP2 left amplitudes will be solved using Davidson.
      Amplitudes will be solved using MOM  algorithm
      Roots     MaxVec    MaxIter   Precond   Conv      Thresh    Shift    
      5         1000      60        1         1.00e-03  1.00e-103 0.00e+00  
 ------------------------------------------------------------------------------
      Iter ConvRoots NVecs ResNorm Current eigenvalues (eV)
 ------------------------------------------------------------------------------
      0    0      5     2.41e-02   286.9506   289.4005   290.5014   290.5642   290.6909   
      1    0      10    2.64e-02   286.9501   289.3971   290.4976   290.5594   290.6852   
      2    3      15    1.01e-03   286.9507*  289.3999*  290.4983   290.5599   290.6866*  
      3    5      17    6.25e-04   286.9504*  289.3999*  290.4966*  290.5580*  290.6866*  

     Davidson procedure converged

 CVS-EOMEE-CCSD calculation:   CPU 742.62 s  wall 1227.61 s


 Start computing the transition properties

 ------------------------------------------------------------------------------
 State A: ccsd: 0/A'
 State B: cvs_eomee_ccsd/rhfref/singlets: 1/A'
 Transition dipole moment (a.u.):
   A->B: 0.083022 (X 0.000087, Y 0.083021, Z 0.000000)
   B->A: 0.083163 (X 0.000597, Y 0.083161, Z 0.000000)
 Oscillator strength (a.u.): 0.048374
 Norm of one-particle transition density matrix:
   A->B: 0.884731;   B->A: 0.882432
   ||gamma^AB||*||gamma^BA||: 0.780715

 ------------------------------------------------------------------------------
 State A: ccsd: 0/A'
 State B: cvs_eomee_ccsd/rhfref/singlets: 2/A'
 Transition dipole moment (a.u.):
   A->B: 0.017282 (X -0.016320, Y 0.005685, Z 0.000000)
   B->A: 0.016805 (X -0.015896, Y 0.005450, Z 0.000000)
 Oscillator strength (a.u.): 0.002053
 Norm of one-particle transition density matrix:
   A->B: 0.902358;   B->A: 0.866462
   ||gamma^AB||*||gamma^BA||: 0.781859

 ------------------------------------------------------------------------------
 State A: ccsd: 0/A'
 State B: cvs_eomee_ccsd/rhfref/singlets: 3/A'
 Transition dipole moment (a.u.):
   A->B: 0.019514 (X -0.017311, Y 0.009008, Z 0.000000)
   B->A: 0.019200 (X -0.017086, Y 0.008758, Z 0.000000)
 Oscillator strength (a.u.): 0.002656
 Norm of one-particle transition density matrix:
   A->B: 0.901192;   B->A: 0.863097
   ||gamma^AB||*||gamma^BA||: 0.777816

 ------------------------------------------------------------------------------
 State A: ccsd: 0/A'
 State B: cvs_eomee_ccsd/rhfref/singlets: 4/A'
 Transition dipole moment (a.u.):
   A->B: 0.025676 (X 0.020828, Y -0.015015, Z 0.000000)
   B->A: 0.029813 (X 0.023441, Y -0.018421, Z 0.000000)
 Oscillator strength (a.u.): 0.005425
 Norm of one-particle transition density matrix:
   A->B: 0.897773;   B->A: 0.864470
   ||gamma^AB||*||gamma^BA||: 0.776098

 ------------------------------------------------------------------------------
 State A: ccsd: 0/A'
 State B: cvs_eomee_ccsd/rhfref/singlets: 5/A'
 Transition dipole moment (a.u.):
   A->B: 0.050749 (X -0.031678, Y 0.039649, Z 0.000000)
   B->A: 0.052661 (X -0.033382, Y 0.040729, Z 0.000000)
 Oscillator strength (a.u.): 0.018957
 Norm of one-particle transition density matrix:
   A->B: 0.894192;   B->A: 0.886453
   ||gamma^AB||*||gamma^BA||: 0.792660

 ------------------------------------------------------------------------------
 State A: ccsd: 0/A'
 State B: cvs_eomee_ccsd/rhfref/singlets: 1/A"
 Transition dipole moment (a.u.):
   A->B: 0.078244 (X 0.000000, Y 0.000000, Z -0.078244)
   B->A: 0.079839 (X 0.000000, Y 0.000000, Z -0.079839)
 Oscillator strength (a.u.): 0.043917
 Norm of one-particle transition density matrix:
   A->B: 0.895989;   B->A: 0.892405
   ||gamma^AB||*||gamma^BA||: 0.799585

 ------------------------------------------------------------------------------
 State A: ccsd: 0/A'
 State B: cvs_eomee_ccsd/rhfref/singlets: 2/A"
 Transition dipole moment (a.u.):
   A->B: 0.025770 (X 0.000000, Y 0.000000, Z -0.025770)
   B->A: 0.026274 (X 0.000000, Y 0.000000, Z -0.026274)
 Oscillator strength (a.u.): 0.004801
 Norm of one-particle transition density matrix:
   A->B: 0.901145;   B->A: 0.863936
   ||gamma^AB||*||gamma^BA||: 0.778531

 ------------------------------------------------------------------------------
 State A: ccsd: 0/A'
 State B: cvs_eomee_ccsd/rhfref/singlets: 3/A"
 Transition dipole moment (a.u.):
   A->B: 0.009347 (X 0.000000, Y 0.000000, Z 0.009347)
   B->A: 0.009119 (X 0.000000, Y 0.000000, Z 0.009119)
 Oscillator strength (a.u.): 0.000607
 Norm of one-particle transition density matrix:
   A->B: 0.899436;   B->A: 0.858406
   ||gamma^AB||*||gamma^BA||: 0.772082

 ------------------------------------------------------------------------------
 State A: ccsd: 0/A'
 State B: cvs_eomee_ccsd/rhfref/singlets: 4/A"
 Transition dipole moment (a.u.):
   A->B: 0.005521 (X 0.000000, Y 0.000000, Z -0.005521)
   B->A: 0.005625 (X 0.000000, Y 0.000000, Z -0.005625)
 Oscillator strength (a.u.): 0.000221
 Norm of one-particle transition density matrix:
   A->B: 0.899563;   B->A: 0.858248
   ||gamma^AB||*||gamma^BA||: 0.772048

 ------------------------------------------------------------------------------
 State A: ccsd: 0/A'
 State B: cvs_eomee_ccsd/rhfref/singlets: 5/A"
 Transition dipole moment (a.u.):
   A->B: 0.013249 (X 0.000000, Y 0.000000, Z 0.013249)
   B->A: 0.013614 (X 0.000000, Y 0.000000, Z 0.013614)
 Oscillator strength (a.u.): 0.001285
 Norm of one-particle transition density matrix:
   A->B: 0.900029;   B->A: 0.860409
   ||gamma^AB||*||gamma^BA||: 0.774393


 All requested transition properties have been computed

 Transition Properties:   CPU 3.84 s  wall 4.26 s

 Total ccman2 time:   CPU 802.90 s  wall 1295.50 s

 
 --------------------------------------------------------------
             Orbital Energies (a.u.) and Symmetries
 --------------------------------------------------------------
 
 Alpha MOs, Restricted
 -- Occupied --                  
-26.327 -11.326 -11.251  -1.638  -1.114  -0.847  -0.764  -0.743
  1 A'    2 A'    3 A'    4 A'    5 A'    6 A'    7 A'    8 A'                 
 -0.704  -0.608  -0.442  -0.427
  1 A"    9 A'    2 A"   10 A'                                                 
 -- Virtual --                   
  0.002   0.006   0.006   0.006   0.010   0.013   0.013   0.013
 11 A'   12 A'   13 A'    3 A"   14 A'   15 A'   16 A'    4 A"                 
  0.013   0.013   0.020   0.020   0.021   0.029   0.036   0.037
 17 A'    5 A"   18 A'   19 A'    6 A"   20 A'   21 A'   22 A'                 
  0.037   0.037   0.038   0.049   0.052   0.053   0.082   0.082
  7 A"   23 A'    8 A"   24 A'   25 A'    9 A"   26 A'   27 A'                 
  0.083   0.085   0.087   0.091   0.109   0.124   0.152   0.155
 10 A"   28 A'   11 A"   29 A'   30 A'   31 A'   12 A"   32 A'                 
  0.171   0.174   0.210   0.215   0.220   0.229   0.240   0.270
 13 A"   33 A'   34 A'   35 A'   36 A'   37 A'   38 A'   14 A"                 
  0.326   0.355   0.406   0.410   0.462   0.485   0.568   0.574
 39 A'   40 A'   41 A'   15 A"   42 A'   43 A'   44 A'   45 A'                 
  0.640   0.664   0.677   0.713   0.821   0.829   0.849   0.911
 46 A'   47 A'   48 A'   16 A"   49 A'   17 A"   50 A'   51 A'                 
  1.016   1.145   1.226   1.233   1.396   1.454   1.507   1.630
 52 A'   53 A'   54 A'   18 A"   19 A"   20 A"   55 A'   56 A'                 
  1.664   1.692   1.729   1.778   1.873   1.889   1.913   2.009
 21 A"   57 A'   58 A'   59 A'   22 A"   60 A'   61 A'   23 A"                 
  2.040   2.199   2.240   2.378   2.421   2.526   2.649   2.729
 62 A'   24 A"   63 A'   64 A'   65 A'   66 A'   25 A"   67 A'                 
  2.893   2.938   3.059   3.109   3.133   3.301   3.498   3.659
 68 A'   69 A'   70 A'   26 A"   71 A'   27 A"   72 A'   73 A'                 
  3.765   4.116   4.206   4.215   4.272   4.453   4.602   5.268
 74 A'   75 A'   76 A'   28 A"   77 A'   29 A"   78 A'   79 A'                 
  6.935   7.022   7.348  24.810  26.230  68.744
 30 A"   80 A'   81 A'   82 A'   83 A'   84 A'                                 
 
 Beta MOs, Restricted
 -- Occupied --                  
-26.327 -11.326 -11.251  -1.638  -1.114  -0.847  -0.764  -0.743
  1 A'    2 A'    3 A'    4 A'    5 A'    6 A'    7 A'    8 A'                 
 -0.704  -0.608  -0.442  -0.427
  1 A"    9 A'    2 A"   10 A'                                                 
 -- Virtual --                   
  0.002   0.006   0.006   0.006   0.010   0.013   0.013   0.013
 11 A'   12 A'   13 A'    3 A"   14 A'   15 A'   16 A'    4 A"                 
  0.013   0.013   0.020   0.020   0.021   0.029   0.036   0.037
 17 A'    5 A"   18 A'   19 A'    6 A"   20 A'   21 A'   22 A'                 
  0.037   0.037   0.038   0.049   0.052   0.053   0.082   0.082
  7 A"   23 A'    8 A"   24 A'   25 A'    9 A"   26 A'   27 A'                 
  0.083   0.085   0.087   0.091   0.109   0.124   0.152   0.155
 10 A"   28 A'   11 A"   29 A'   30 A'   31 A'   12 A"   32 A'                 
  0.171   0.174   0.210   0.215   0.220   0.229   0.240   0.270
 13 A"   33 A'   34 A'   35 A'   36 A'   37 A'   38 A'   14 A"                 
  0.326   0.355   0.406   0.410   0.462   0.485   0.568   0.574
 39 A'   40 A'   41 A'   15 A"   42 A'   43 A'   44 A'   45 A'                 
  0.640   0.664   0.677   0.713   0.821   0.829   0.849   0.911
 46 A'   47 A'   48 A'   16 A"   49 A'   17 A"   50 A'   51 A'                 
  1.016   1.145   1.226   1.233   1.396   1.454   1.507   1.630
 52 A'   53 A'   54 A'   18 A"   19 A"   20 A"   55 A'   56 A'                 
  1.664   1.692   1.729   1.778   1.873   1.889   1.913   2.009
 21 A"   57 A'   58 A'   59 A'   22 A"   60 A'   61 A'   23 A"                 
  2.040   2.199   2.240   2.378   2.421   2.526   2.649   2.729
 62 A'   24 A"   63 A'   64 A'   65 A'   66 A'   25 A"   67 A'                 
  2.893   2.938   3.059   3.109   3.133   3.301   3.498   3.659
 68 A'   69 A'   70 A'   26 A"   71 A'   27 A"   72 A'   73 A'                 
  3.765   4.116   4.206   4.215   4.272   4.453   4.602   5.268
 74 A'   75 A'   76 A'   28 A"   77 A'   29 A"   78 A'   79 A'                 
  6.935   7.022   7.348  24.810  26.230  68.744
 30 A"   80 A'   81 A'   82 A'   83 A'   84 A'                                 
 --------------------------------------------------------------
 
          Ground-State Mulliken Net Atomic Charges

     Atom                 Charge (a.u.)
  ----------------------------------------
      1 C                     0.022860
      2 GH                    0.003916
      3 F                    -0.176631
      4 C                    -0.124437
      5 H                     0.084836
      6 H                    -0.028172
      7 H                     0.217628
  ----------------------------------------
  Sum of atomic charges =     0.000000

 -----------------------------------------------------------------
                    Cartesian Multipole Moments
 -----------------------------------------------------------------
    Charge (ESU x 10^10)
                 0.0000
    Dipole Moment (Debye)
         X       1.7584      Y      -1.0975      Z      -0.0000
       Tot       2.0728
    Quadrupole Moments (Debye-Ang)
        XX     -17.1989     XY      -0.1474     YY     -17.4819
        XZ      -0.0000     YZ      -0.0000     ZZ     -18.9924
    Octopole Moments (Debye-Ang^2)
       XXX      -1.1865    XXY      -1.0326    XYY      -3.7637
       YYY      -2.0049    XXZ      -0.0000    XYZ      -0.0000
       YYZ      -0.0000    XZZ      -4.6476    YZZ      -0.3077
       ZZZ      -0.0000
    Hexadecapole Moments (Debye-Ang^3)
      XXXX    -110.6998   XXXY      -4.1295   XXYY     -30.5857
      XYYY      -4.4437   YYYY     -44.9845   XXXZ      -0.0000
      XXYZ       0.0000   XYYZ      -0.0000   YYYZ       0.0000
      XXZZ     -25.5883   XYZZ      -1.3535   YYZZ     -11.9872
      XZZZ      -0.0000   YZZZ       0.0000   ZZZZ     -20.0867
 -----------------------------------------------------------------
Archival summary:
1\1\n-62-29-12\SP\ProcedureUnspecified\BasisUnspecified\123h1\malop\FriMay2509:50:172018FriMay2509:50:172018\0\\#,ProcedureUnspecified,BasisUnspecified,\\0,1\C\Gh,1,0.435868\H,1,1.08083,2,170.664\F,2,1.17461,1,103.178,3,0,0\C,1,1.1867,2,80.6835,3,180,0\H,5,0.928288,1,157.426,2,180,0\H,5,1.47918,1,103.458,2,-0,0\\HF=-176.799814\\@

 Total job time:  1306.40s(wall), 812.52s(cpu) 
 Fri May 25 09:50:17 2018

        *************************************************************
        *                                                           *
        *  Thank you very much for using Q-Chem.  Have a nice day.  *
        *                                                           *
        *************************************************************


