[Molden Format]
[Atoms] (Angs)
  C      1    6     -0.13173890     -1.79208980      0.00000000
  H      2    1     -2.14962000     -1.30978739      0.00000000
  H      3    1     -0.31599560     -2.86503115      0.00000000
  H      4    1      0.14407746      2.04280963     -0.00000000
  C      5    6     -1.17258876      0.48030861      0.00000000
  O      6    8     -2.25008207      1.06833796      0.00000000
  C      7    6      1.31158357      0.28308717     -0.00000000
  O      8    8      2.36361668      0.96389345     -0.00000000
  N      9    7      0.07017030      1.03138997     -0.00000000
  N     10    7     -1.19586868     -0.94982644      0.00000000
  C     11    6      1.19165158     -1.13169473     -0.00000000
  H     12    1      2.09970506     -1.73445456     -0.00000000
[GTO]
1    0
S    6    1.000000
   4.56324000E+03    1.96665000E-03 
   6.82024000E+02    1.52306000E-02 
   1.54973000E+02    7.61269000E-02 
   4.44553000E+01    2.60801000E-01 
   1.30290000E+01    6.16462000E-01 
   1.82773000E+00    2.21006000E-01 
SP   3    1.000000
   2.09642000E+01    1.14660000E-01   4.02487000E-02 
   4.80331000E+00    9.19999000E-01   2.37594000E-01 
   1.45933000E+00   -3.03068000E-03   8.15854000E-01 
SP   1    1.000000
   4.83456000E-01    1.00000000E+00   1.00000000E+00 
SP   1    1.000000
   1.45585000E-01    1.00000000E+00   1.00000000E+00 
SP   1    1.000000
   4.38000000E-02    1.00000000E+00   1.00000000E+00 
D    1    1.000000
   6.26000000E-01    1.00000000E+00 

2    0
S    3    1.000000
   3.38650000E+01    2.54938000E-02 
   5.09479000E+00    1.90373000E-01 
   1.15879000E+00    8.52161000E-01 
S    1    1.000000
   3.25840000E-01    1.00000000E+00 
S    1    1.000000
   1.02741000E-01    1.00000000E+00 
S    1    1.000000
   3.60000000E-02    1.00000000E+00 
P    1    1.000000
   7.50000000E-01    1.00000000E+00 

3    0
S    3    1.000000
   3.38650000E+01    2.54938000E-02 
   5.09479000E+00    1.90373000E-01 
   1.15879000E+00    8.52161000E-01 
S    1    1.000000
   3.25840000E-01    1.00000000E+00 
S    1    1.000000
   1.02741000E-01    1.00000000E+00 
S    1    1.000000
   3.60000000E-02    1.00000000E+00 
P    1    1.000000
   7.50000000E-01    1.00000000E+00 

4    0
S    3    1.000000
   3.38650000E+01    2.54938000E-02 
   5.09479000E+00    1.90373000E-01 
   1.15879000E+00    8.52161000E-01 
S    1    1.000000
   3.25840000E-01    1.00000000E+00 
S    1    1.000000
   1.02741000E-01    1.00000000E+00 
S    1    1.000000
   3.60000000E-02    1.00000000E+00 
P    1    1.000000
   7.50000000E-01    1.00000000E+00 

5    0
S    6    1.000000
   4.56324000E+03    1.96665000E-03 
   6.82024000E+02    1.52306000E-02 
   1.54973000E+02    7.61269000E-02 
   4.44553000E+01    2.60801000E-01 
   1.30290000E+01    6.16462000E-01 
   1.82773000E+00    2.21006000E-01 
SP   3    1.000000
   2.09642000E+01    1.14660000E-01   4.02487000E-02 
   4.80331000E+00    9.19999000E-01   2.37594000E-01 
   1.45933000E+00   -3.03068000E-03   8.15854000E-01 
SP   1    1.000000
   4.83456000E-01    1.00000000E+00   1.00000000E+00 
SP   1    1.000000
   1.45585000E-01    1.00000000E+00   1.00000000E+00 
SP   1    1.000000
   4.38000000E-02    1.00000000E+00   1.00000000E+00 
D    1    1.000000
   6.26000000E-01    1.00000000E+00 

6    0
S    6    1.000000
   8.58850000E+03    1.89515000E-03 
   1.29723000E+03    1.43859000E-02 
   2.99296000E+02    7.07320000E-02 
   8.73771000E+01    2.40001000E-01 
   2.56789000E+01    5.94797000E-01 
   3.74004000E+00    2.80802000E-01 
SP   3    1.000000
   4.21175000E+01    1.13889000E-01   3.65114000E-02 
   9.62837000E+00    9.20811000E-01   2.37153000E-01 
   2.85332000E+00   -3.27447000E-03   8.19702000E-01 
SP   1    1.000000
   9.05661000E-01    1.00000000E+00   1.00000000E+00 
SP   1    1.000000
   2.55611000E-01    1.00000000E+00   1.00000000E+00 
SP   1    1.000000
   8.45000000E-02    1.00000000E+00   1.00000000E+00 
D    1    1.000000
   1.29200000E+00    1.00000000E+00 

7    0
S    6    1.000000
   4.56324000E+03    1.96665000E-03 
   6.82024000E+02    1.52306000E-02 
   1.54973000E+02    7.61269000E-02 
   4.44553000E+01    2.60801000E-01 
   1.30290000E+01    6.16462000E-01 
   1.82773000E+00    2.21006000E-01 
SP   3    1.000000
   2.09642000E+01    1.14660000E-01   4.02487000E-02 
   4.80331000E+00    9.19999000E-01   2.37594000E-01 
   1.45933000E+00   -3.03068000E-03   8.15854000E-01 
SP   1    1.000000
   4.83456000E-01    1.00000000E+00   1.00000000E+00 
SP   1    1.000000
   1.45585000E-01    1.00000000E+00   1.00000000E+00 
SP   1    1.000000
   4.38000000E-02    1.00000000E+00   1.00000000E+00 
D    1    1.000000
   6.26000000E-01    1.00000000E+00 

8    0
S    6    1.000000
   8.58850000E+03    1.89515000E-03 
   1.29723000E+03    1.43859000E-02 
   2.99296000E+02    7.07320000E-02 
   8.73771000E+01    2.40001000E-01 
   2.56789000E+01    5.94797000E-01 
   3.74004000E+00    2.80802000E-01 
SP   3    1.000000
   4.21175000E+01    1.13889000E-01   3.65114000E-02 
   9.62837000E+00    9.20811000E-01   2.37153000E-01 
   2.85332000E+00   -3.27447000E-03   8.19702000E-01 
SP   1    1.000000
   9.05661000E-01    1.00000000E+00   1.00000000E+00 
SP   1    1.000000
   2.55611000E-01    1.00000000E+00   1.00000000E+00 
SP   1    1.000000
   8.45000000E-02    1.00000000E+00   1.00000000E+00 
D    1    1.000000
   1.29200000E+00    1.00000000E+00 

9    0
S    6    1.000000
   6.29348000E+03    1.96979000E-03 
   9.49044000E+02    1.49613000E-02 
   2.18776000E+02    7.35006000E-02 
   6.36916000E+01    2.48937000E-01 
   1.88282000E+01    6.02460000E-01 
   2.72023000E+00    2.56202000E-01 
SP   3    1.000000
   3.06331000E+01    1.11906000E-01   3.83119000E-02 
   7.02614000E+00    9.21666000E-01   2.37403000E-01 
   2.11205000E+00   -2.56919000E-03   8.17592000E-01 
SP   1    1.000000
   6.84009000E-01    1.00000000E+00   1.00000000E+00 
SP   1    1.000000
   2.00878000E-01    1.00000000E+00   1.00000000E+00 
SP   1    1.000000
   6.39000000E-02    1.00000000E+00   1.00000000E+00 
D    1    1.000000
   9.13000000E-01    1.00000000E+00 

10    0
S    6    1.000000
   6.29348000E+03    1.96979000E-03 
   9.49044000E+02    1.49613000E-02 
   2.18776000E+02    7.35006000E-02 
   6.36916000E+01    2.48937000E-01 
   1.88282000E+01    6.02460000E-01 
   2.72023000E+00    2.56202000E-01 
SP   3    1.000000
   3.06331000E+01    1.11906000E-01   3.83119000E-02 
   7.02614000E+00    9.21666000E-01   2.37403000E-01 
   2.11205000E+00   -2.56919000E-03   8.17592000E-01 
SP   1    1.000000
   6.84009000E-01    1.00000000E+00   1.00000000E+00 
SP   1    1.000000
   2.00878000E-01    1.00000000E+00   1.00000000E+00 
SP   1    1.000000
   6.39000000E-02    1.00000000E+00   1.00000000E+00 
D    1    1.000000
   9.13000000E-01    1.00000000E+00 

11    0
S    6    1.000000
   4.56324000E+03    1.96665000E-03 
   6.82024000E+02    1.52306000E-02 
   1.54973000E+02    7.61269000E-02 
   4.44553000E+01    2.60801000E-01 
   1.30290000E+01    6.16462000E-01 
   1.82773000E+00    2.21006000E-01 
SP   3    1.000000
   2.09642000E+01    1.14660000E-01   4.02487000E-02 
   4.80331000E+00    9.19999000E-01   2.37594000E-01 
   1.45933000E+00   -3.03068000E-03   8.15854000E-01 
SP   1    1.000000
   4.83456000E-01    1.00000000E+00   1.00000000E+00 
SP   1    1.000000
   1.45585000E-01    1.00000000E+00   1.00000000E+00 
SP   1    1.000000
   4.38000000E-02    1.00000000E+00   1.00000000E+00 
D    1    1.000000
   6.26000000E-01    1.00000000E+00 

12    0
S    3    1.000000
   3.38650000E+01    2.54938000E-02 
   5.09479000E+00    1.90373000E-01 
   1.15879000E+00    8.52161000E-01 
S    1    1.000000
   3.25840000E-01    1.00000000E+00 
S    1    1.000000
   1.02741000E-01    1.00000000E+00 
S    1    1.000000
   3.60000000E-02    1.00000000E+00 
P    1    1.000000
   7.50000000E-01    1.00000000E+00 

[MO]
Sym=X
Ene= 2.009060
Spin=Alpha
Occup=1
     1   -1.286044666310e-14
     2   -7.583983848240e-15
     3   -2.990593796488e-14
     4    2.490999370194e-14
     5   -6.596698779221e-02
     6   -5.189541422768e-14
     7   -2.189253638364e-14
     8    4.704679652069e-14
     9   -1.145856923906e-01
    10    5.592502495319e-13
    11   -3.509260765344e-13
    12    1.664912853753e-13
    13   -1.035009029410e-01
    14   -1.849249588032e-12
    15    1.272426027768e-12
    16   -2.289016676524e-12
    17   -1.004505258182e-02
    18    4.913132360100e-15
    19   -5.748774917791e-03
    20   -8.745066946316e-03
    21    2.928527365040e-14
    22    3.668922358837e-15
    23    5.547469136047e-15
    24    1.941561318234e-13
    25   -1.687169633083e-12
    26    5.727374597873e-13
    27    2.599304198312e-14
    28   -1.067289726639e-15
    29   -1.463977690751e-03
    30   -2.085055684228e-14
    31    3.634382140851e-14
    32   -4.387209810800e-13
    33   -1.204573057366e-12
    34   -4.260854305081e-15
    35   -1.064187170497e-14
    36   -5.418178517938e-03
    37   -3.576237070339e-14
    38   -1.673547709613e-13
    39   -4.047091621786e-13
    40   -5.318683157756e-13
    41    2.747722556270e-15
    42    1.032564592418e-14
    43    3.553684136638e-03
    44    3.880399016149e-14
    45    2.233574753704e-14
    46   -2.847875600473e-14
    47    1.583582847206e-14
    48   -1.078762326399e-03
    49    3.263224627922e-14
    50   -1.929879832183e-14
    51   -4.246147450865e-14
    52   -1.085473905949e-05
    53    6.775585484270e-13
    54    2.652553934359e-13
    55   -4.467529558177e-13
    56   -6.776678192379e-03
    57    2.274769133620e-12
    58    1.452654704833e-12
    59    7.651154647168e-13
    60   -1.127725426133e-02
    61   -9.145230935648e-15
    62    7.333271879938e-03
    63    1.481450470132e-03
    64   -1.667375544825e-14
    65    3.016953608715e-14
    66    7.577810744654e-15
    67    5.262771443143e-15
    68   -1.946940565496e-15
    69   -5.256621071862e-14
    70   -1.967273621944e-02
    71    7.433963580201e-15
    72   -1.195779477984e-14
    73   -7.284945874376e-14
    74   -3.055401763250e-02
    75    8.633352770307e-14
    76    2.055698042218e-13
    77    6.340484557196e-14
    78   -3.099966837121e-02
    79    1.304893655720e-13
    80    5.072044224254e-14
    81    6.820763404816e-14
    82    9.495585167270e-04
    83   -1.350108049346e-15
    84   -1.366791913015e-03
    85    7.035038232760e-04
    86   -1.157049240046e-15
    87   -7.943761037967e-15
    88   -3.765176196313e-14
    89   -4.753497448027e-14
    90   -5.597421157542e-15
    91   -2.228859176702e-14
    92    6.721880561641e-02
    93    6.291773916454e-14
    94   -3.364998705911e-14
    95    1.016477586569e-14
    96    1.183080500437e-01
    97    3.858856548546e-13
    98   -7.562455747428e-13
    99   -5.792579043229e-13
   100    6.869846086076e-02
   101   -1.446782532354e-11
   102    1.176959552083e-12
   103    2.681775337702e-12
   104    4.149729053029e-02
   105    9.965893757794e-15
   106    3.033422845037e-02
   107    3.594234109332e-02
   108   -9.775182889785e-15
   109   -2.495750453289e-15
   110   -5.480248859543e-15
   111   -1.111894872254e-14
   112   -3.369961604157e-14
   113    2.151536566546e-14
   114    3.424873279437e-01
   115    5.752927262164e-14
   116   -9.567286459903e-15
   117    3.282338581599e-14
   118    3.948747175243e-01
   119    5.045247351574e-14
   120   -1.900691179981e-13
   121   -6.830627505082e-14
   122    2.629436245862e-01
   123    1.034639432378e-12
   124    1.706510994470e-14
   125   -4.033166521517e-13
   126    1.139985233978e-02
   127    2.062572324377e-15
   128   -1.989921458591e-02
   129   -1.142581242791e-02
   130    4.385568611651e-15
   131   -6.666636140148e-16
   132   -2.366463462804e-15
   133    1.963182446124e-14
   134   -1.230415489623e-14
   135   -1.612380550526e-14
   136    3.833495017019e-02
   137   -7.403444197241e-14
   138   -3.147708794120e-14
   139   -6.681720540004e-14
   140    6.405058280744e-02
   141   -4.896978312215e-13
   142   -2.004598069836e-13
   143    5.878866866654e-13
   144    5.595856265594e-02
   145   -2.807494501623e-14
   146    1.510651011762e-12
   147    1.170780506246e-13
   148   -7.461744978290e-03
   149    1.166524654217e-15
   150    4.083465252347e-03
   151   -2.254138663971e-03
   152    9.161885043873e-15
   153   -1.695204166518e-15
   154    7.802704858003e-15
   155   -1.084354449912e-14
   156   -2.146716611907e-14
   157    1.820162154404e-15
   158   -2.657571490240e-02
   159    2.098906838334e-13
   160   -1.314911994313e-14
   161   -2.386830622068e-14
   162   -4.522540042196e-02
   163   -7.541284356976e-13
   164   -8.535034958496e-14
   165   -1.122882158432e-13
   166   -2.003358636037e-02
   167    2.002012402342e-12
   168   -2.161818094040e-12
   169   -1.719232269109e-13
   170    2.291125313512e-02
   171    3.806432846961e-15
   172   -5.783506262007e-03
   173    3.737805411296e-03
   174   -5.349680654497e-15
   175   -1.905337993183e-14
   176   -8.546227770057e-14
   177   -6.901721364184e-14
   178   -5.403200504304e-14
   179    4.426486868375e-14
   180   -6.336080879208e-02
   181    5.439122024136e-14
   182   -4.497426358829e-14
   183    7.332184477759e-14
   184   -1.065159130827e-01
   185   -1.051292665325e-12
   186   -2.733207420834e-13
   187   -2.583912462238e-13
   188   -1.312387593506e-01
   189    1.184606063451e-11
   190   -2.581362134770e-12
   191    5.152404705280e-12
   192   -3.614822944969e-02
   193    2.434914604599e-14
   194    1.046660088930e-02
   195    7.154190908490e-03
   196   -2.334807325578e-14
   197    1.939272322829e-14
   198   -4.438100840559e-14
   199    1.983920951254e-14
   200    8.459146257161e-13
   201    1.890471458467e-12
   202    4.540999767328e-16
   203    9.476772663105e-15
   204   -4.560896399806e-03
Sym=X
Ene= 2.004888
Spin=Alpha
Occup=1
     1   -2.125490431553e-14
     2   -3.350282012646e-14
     3   -3.946575318974e-14
     4   -3.145442835427e-14
     5   -4.792565372224e-03
     6    7.719559144377e-14
     7   -5.357429309058e-14
     8   -2.944952734877e-14
     9   -8.087873061349e-03
    10    1.977166127773e-13
    11   -9.670967704598e-14
    12   -1.120798590071e-13
    13   -4.891721076163e-02
    14   -4.462682561884e-12
    15   -5.293953655964e-13
    16   -1.705750680492e-12
    17   -8.260104501951e-03
    18   -1.371463916740e-15
    19   -3.141849954702e-02
    20    5.735082427207e-03
    21    1.113605744237e-14
    22    1.004455050631e-15
    23   -9.175527989943e-15
    24    3.449173218818e-14
    25   -4.084234226554e-13
    26    1.917759211550e-13
    27    5.821956590890e-15
    28   -3.785126612790e-15
    29    1.423795952459e-02
    30    3.689021337338e-14
    31    5.656809278180e-14
    32   -2.795126879718e-13
    33   -7.876182091483e-13
    34   -4.014205415395e-15
    35    6.590426625486e-15
    36   -7.165684792162e-04
    37   -9.135166145894e-15
    38   -3.678205720151e-14
    39   -3.455000352910e-13
    40   -1.024609897377e-13
    41    2.661490546140e-15
    42    5.365552056890e-15
    43   -1.197582374064e-02
    44    2.365568796043e-14
    45    1.483014918179e-14
    46   -6.878211859967e-14
    47    6.774219577702e-14
    48    1.394854039131e-02
    49    3.206655901722e-14
    50   -1.013058937835e-13
    51    8.754777994026e-14
    52    2.860413182858e-02
    53    1.762732195714e-13
    54   -5.054575227999e-15
    55   -3.974227131367e-14
    56    1.398472799631e-02
    57    1.415622681607e-12
    58    5.472402638396e-13
    59   -1.847264166964e-14
    60   -7.881750348626e-03
    61   -3.309795777282e-16
    62   -2.440879740495e-02
    63   -2.423584156361e-02
    64    1.952313621063e-14
    65    5.442137573271e-16
    66    6.550507486199e-14
    67    3.142567407450e-14
    68    4.141161631930e-14
    69   -6.700899512941e-14
    70    2.638250706017e-02
    71    1.435947712351e-13
    72    5.986846143444e-14
    73   -9.713658369665e-14
    74    4.112970702608e-02
    75    1.005066608025e-13
    76    7.651354303114e-14
    77   -5.432935065164e-14
    78    3.476777014781e-02
    79   -1.342019561697e-13
    80   -3.540343156938e-14
    81    7.746872427776e-14
    82    4.138662700581e-03
    83   -6.552415859543e-15
    84    2.350583221913e-03
    85   -2.056751163044e-03
    86    4.529030862298e-15
    87   -9.631689325590e-15
    88   -8.006671806195e-14
    89   -5.056557391307e-14
    90   -2.806586450916e-16
    91    1.672080394969e-14
    92   -8.493618518694e-02
    93   -8.751246729372e-14
    94    6.548891394658e-15
    95    3.736255503241e-14
    96   -1.532786483784e-01
    97   -1.016316899956e-13
    98   -2.568119493478e-13
    99   -9.325952504529e-14
   100   -8.463050941211e-02
   101   -4.167666917040e-12
   102    9.525079486496e-13
   103    3.433134217899e-13
   104   -1.576932128509e-03
   105    1.140373935713e-14
   106    2.314477037713e-02
   107    7.031151865253e-03
   108    6.520611067146e-15
   109   -7.647955660575e-15
   110    1.272023532198e-14
   111    1.882953875371e-14
   112    3.672512172957e-14
   113   -3.925940809002e-14
   114    7.903538910781e-02
   115   -5.807403096058e-14
   116    5.040105460888e-14
   117   -4.079128497047e-14
   118    8.494046257976e-02
   119    4.052638120871e-16
   120   -1.965996316092e-14
   121   -7.020279909731e-14
   122    7.271901687342e-02
   123    3.067672916508e-13
   124   -2.830810291306e-14
   125   -1.664821321355e-13
   126    3.242403964335e-02
   127    2.361098434207e-15
   128    3.765511340035e-03
   129    2.522083303748e-03
   130   -1.608661920484e-15
   131   -1.105617387438e-15
   132    1.395713954860e-14
   133    2.462276126851e-14
   134   -4.768944024234e-15
   135    9.291099896160e-15
   136   -1.516640991248e-01
   137   -5.040248924877e-14
   138   -5.067608987979e-15
   139    8.230897589632e-15
   140   -2.486397379665e-01
   141   -7.517466737029e-14
   142   -8.226127116929e-14
   143    1.565757362287e-13
   144   -2.470076503407e-01
   145    1.479810470561e-13
   146    6.374621025287e-13
   147    4.370102861086e-13
   148   -1.517670139531e-02
   149    1.346988096243e-15
   150   -6.278389298250e-03
   151    6.780238410076e-03
   152    5.432186821370e-15
   153   -1.574153682886e-15
   154    3.157295872264e-14
   155    4.017683152870e-14
   156    2.217822754753e-15
   157   -5.769493907060e-14
   158    1.592343583192e-01
   159   -4.886903032476e-14
   160    5.576007762681e-15
   161   -1.009582281554e-13
   162    2.599428238253e-01
   163   -2.241440733841e-13
   164    1.975804409778e-14
   165   -7.263394132856e-14
   166    2.810347532722e-01
   167    1.044660224459e-12
   168   -3.275173131211e-13
   169    1.437764721870e-13
   170    4.937195348875e-02
   171    2.065354326442e-15
   172    1.723876692433e-03
   173    1.818703067380e-03
   174   -1.873008530237e-15
   175   -1.116398502426e-14
   176   -3.794508354733e-14
   177   -1.353782942015e-14
   178   -5.109440363653e-16
   179   -1.821237270159e-14
   180   -9.931635672585e-02
   181   -6.017007924528e-14
   182    2.997169576821e-15
   183   -3.364393890873e-14
   184   -1.701243301892e-01
   185   -3.311954775624e-13
   186   -8.300994579695e-14
   187    2.876663455804e-14
   188   -1.761463195926e-01
   189    6.372151727357e-12
   190   -2.373201402300e-12
   191    1.047204702696e-12
   192   -2.237543138733e-02
   193    9.966505798722e-15
   194    5.872761452448e-03
   195   -1.132378871527e-02
   196   -3.011216568234e-15
   197    4.536141024658e-15
   198   -2.452675323251e-15
   199    3.556915928265e-14
   200    3.732636632208e-13
   201    8.738654612992e-13
   202   -6.537148737010e-15
   203    1.920894701006e-15
   204   -7.802796780663e-03
Sym=X
Ene= 2.002874
Spin=Alpha
Occup=1
     1   -9.583747208789e-03
     2   -1.610991244936e-02
     3    3.210988633816e-02
     4    2.041721156220e-02
     5    4.477160692912e-16
     6    4.454341675610e-02
     7    5.590462744188e-02
     8    3.467860585403e-02
     9   -2.220637755839e-14
    10    6.828042154125e-02
    11    4.072225440624e-02
    12    4.933204892592e-02
    13    2.870340015256e-14
    14    1.711803249762e-01
    15    5.034854255901e-02
    16    4.430926631897e-02
    17   -2.668626676548e-14
    18   -8.361222413088e-04
    19   -3.622183088046e-14
    20    1.187882769337e-14
    21    5.952392601379e-03
    22    1.061695215278e-03
    23    2.422439567132e-03
    24    5.249285580193e-03
    25    3.646028093500e-04
    26   -6.517362105281e-03
    27    8.419694841227e-05
    28   -5.639993549889e-05
    29   -1.319256299059e-15
    30   -1.478135769327e-02
    31   -2.036714199186e-02
    32   -6.845389960883e-03
    33    1.994283441379e-02
    34    1.642751216615e-03
    35   -2.292318491036e-04
    36   -2.543755805525e-15
    37   -3.973636164539e-03
    38   -1.471840510241e-02
    39   -1.003400197023e-02
    40    4.245643516547e-02
    41    1.822778590917e-03
    42   -1.058392772510e-04
    43    1.655302752617e-14
    44    1.233751553134e-02
    45    2.049204110451e-02
    46   -3.434658354996e-02
    47   -1.322778076722e-02
    48    9.348111376327e-14
    49   -5.780248045534e-02
    50   -5.756331060009e-02
    51   -2.128962427634e-02
    52    1.558043961682e-13
    53   -6.082918161460e-02
    54   -4.374123483527e-02
    55    2.128051016941e-03
    56    1.022676415837e-13
    57   -4.609931404845e-02
    58   -1.476286170545e-02
    59   -2.574017593895e-02
    60    1.539867868647e-13
    61    1.212924572350e-03
    62   -7.207617570913e-14
    63    4.188590678991e-14
    64    4.348554314587e-03
    65   -8.769501658874e-03
    66   -2.628231925010e-03
    67   -4.387469689711e-03
    68    5.895826707955e-03
    69   -1.389082235759e-02
    70    4.610583832636e-14
    71    1.248998931909e-02
    72    7.290785093203e-03
    73   -2.072503837062e-02
    74    1.039945418621e-13
    75    2.801735237438e-03
    76    8.312068108917e-03
    77   -1.234567278999e-02
    78   -1.169414668465e-14
    79   -2.468654888528e-02
    80   -8.405594468268e-03
    81    2.603701565878e-03
    82   -1.157796685154e-13
    83   -3.578453803389e-04
    84    2.007428892455e-14
    85   -8.309604027366e-15
    86   -1.368164618438e-03
    87   -1.553848239089e-03
    88    4.993026707198e-03
    89    8.946025849732e-03
    90   -2.654418283122e-02
    91    5.434864249527e-02
    92    3.516973101056e-14
    93   -2.749232156097e-02
    94   -4.560397800697e-02
    95    1.003771871756e-01
    96    3.298756203803e-14
    97   -3.545239583856e-02
    98    1.407489035118e-02
    99   -1.849887759322e-02
   100    2.035396951485e-14
   101    3.071510526025e-01
   102    1.788670987401e-02
   103   -1.446647228894e-01
   104   -2.581176163127e-13
   105   -1.067449619145e-03
   106   -5.642827926031e-14
   107    2.069997468432e-14
   108    5.253399091776e-02
   109   -3.164459462247e-02
   110    3.915044446152e-03
   111    5.609490974052e-03
   112    1.972625274367e-01
   113   -3.007710422877e-01
   114    1.107428112421e-14
   115   -1.717761867125e-02
   116    2.262024508928e-01
   117   -3.449413774770e-01
   118    1.432844671859e-14
   119   -8.174144930438e-03
   120    1.629588092388e-01
   121   -2.480009600322e-01
   122   -1.581602622539e-14
   123    1.334122285873e-02
   124   -5.440672551869e-03
   125   -3.838303328041e-03
   126    1.809587623097e-13
   127    5.308886442233e-04
   128    3.383324449301e-15
   129    1.456242745654e-15
   130   -1.101525946868e-02
   131    5.411750453275e-03
   132   -1.935505850127e-02
   133   -3.196484703034e-02
   134    8.181414965928e-02
   135   -2.710000047712e-02
   136    1.159345608204e-13
   137    8.647294489547e-02
   138    1.318453335705e-01
   139   -3.812647534034e-02
   140    1.963758886609e-13
   141    1.591982005683e-01
   142    1.038359223812e-01
   143   -5.672858566965e-02
   144    1.605460690863e-13
   145    1.141691299994e-01
   146   -5.696453999701e-02
   147   -2.355573291884e-02
   148    6.033587027215e-14
   149    5.957961856841e-04
   150    2.084568368039e-14
   151   -5.147901906645e-15
   152    4.902806328884e-04
   153   -4.776062058814e-03
   154    6.701959042678e-04
   155    1.152152071195e-03
   156   -2.329855640167e-03
   157    5.116083611166e-04
   158    5.682850496417e-14
   159   -3.717468212669e-03
   160   -3.039681589378e-03
   161    6.669515023987e-04
   162    9.141891007823e-14
   163   -2.883545192737e-03
   164   -7.996295829686e-03
   165    6.988443486966e-03
   166    5.862386198174e-14
   167   -3.535674910748e-02
   168   -8.904679473954e-03
   169   -2.565925191397e-02
   170   -3.518711475308e-14
   171   -2.242803244086e-04
   172   -1.718658844856e-16
   173   -1.199386547733e-14
   174    3.301887896943e-03
   175   -1.101576778964e-03
   176    1.983773056096e-02
   177    3.195475863465e-02
   178   -3.633103901690e-02
   179   -5.936171151737e-02
   180   -7.839161315097e-16
   181   -7.924391479657e-02
   182   -6.200574956039e-02
   183   -8.240176314794e-02
   184   -4.983230934190e-14
   185   -1.455752242556e-01
   186   -1.011978341040e-02
   187   -7.768872805154e-02
   188    1.827321863804e-14
   189   -5.011874750956e-01
   190    6.171901100337e-02
   191   -6.187812875490e-02
   192    6.594843090501e-14
   193    6.423463686628e-04
   194   -4.852604925866e-16
   195    1.241167171963e-14
   196    3.370538355429e-03
   197   -1.917238118128e-04
   198   -1.366882607778e-02
   199   -1.555410177718e-02
   200   -2.362193170536e-03
   201   -2.898401533408e-02
   202    1.154626425666e-03
   203   -1.647658246188e-03
   204    1.222646690647e-14
Sym=X
Ene= 2.001707
Spin=Alpha
Occup=1
     1    2.791116966187e-03
     2    4.930120876347e-03
     3   -8.712118117953e-03
     4   -2.831685391088e-02
     5    2.997309489287e-14
     6   -1.309637207653e-02
     7   -1.336867012976e-02
     8   -4.606631288121e-02
     9    6.616327016090e-14
    10   -3.332326931108e-02
    11    3.403851456909e-03
    12   -3.974502267570e-02
    13    9.247493622753e-14
    14   -2.006503323396e-02
    15    1.414040633766e-02
    16   -5.780899862710e-03
    17    2.916128255667e-14
    18    1.089658461009e-03
    19    3.018180418891e-14
    20    4.178584572435e-15
    21   -5.986292563848e-03
    22   -5.888999792940e-03
    23   -2.554349466005e-02
    24   -4.831361040516e-02
    25   -2.500332931048e-02
    26    3.041501582541e-02
    27   -3.818277676471e-03
    28   -2.412148897106e-03
    29   -1.507109997769e-15
    30    2.229736095540e-02
    31    3.649940412238e-02
    32    2.747015644727e-03
    33    5.414424875142e-03
    34   -4.302892532460e-04
    35    3.096418047124e-03
    36    1.129840246453e-15
    37    1.725699483484e-02
    38    2.499252279341e-02
    39    2.100340441047e-02
    40   -2.029695821474e-02
    41   -2.880917342990e-03
    42   -4.563452448891e-03
    43   -1.175934138956e-15
    44   -1.339234197086e-02
    45   -2.185093479023e-02
    46    2.748356292258e-03
    47    6.500013884366e-03
    48    1.185553507402e-13
    49    6.442652724553e-02
    50    1.980721148027e-03
    51    5.814901593884e-03
    52    1.812081168142e-13
    53    5.891351483514e-02
    54    6.605128192703e-02
    55    9.081375918400e-02
    56    1.456375953073e-13
    57    1.995631334866e-03
    58    5.174918704080e-02
    59    8.287250308949e-02
    60    8.253157898672e-14
    61   -9.629047546333e-04
    62   -6.052933526665e-14
    63    3.193088055576e-14
    64   -5.454728397305e-02
    65   -2.887752453947e-02
    66    8.859273357962e-03
    67    1.488647647739e-02
    68    1.121970241162e-01
    69    1.697169876885e-01
    70    3.096657984425e-13
    71   -4.317635547980e-02
    72    1.739285886728e-01
    73    2.621404904982e-01
    74    4.755182001500e-13
    75   -5.172723563668e-02
    76    1.479502762700e-01
    77    2.451316286497e-01
    78    4.646925482695e-13
    79   -3.860038739744e-03
    80    4.898442422540e-03
    81    1.202204052305e-02
    82    1.384956362334e-14
    83   -9.352253052807e-04
    84    3.321671514451e-14
    85   -4.978849028240e-15
    86    1.270049875656e-02
    87    5.480129182285e-03
    88   -1.508969105755e-02
    89   -2.301531276653e-02
    90    7.884425374456e-02
    91    6.288905597015e-02
    92    5.018021971575e-14
    93    6.195021596894e-02
    94    1.287549870939e-01
    95    1.042250967546e-01
    96    9.946509606292e-14
    97    5.300293532764e-02
    98    2.532941319191e-02
    99    1.855713981906e-02
   100    9.003388985279e-14
   101    6.977660120673e-02
   102   -1.460842377895e-02
   103   -1.438418507831e-02
   104   -7.027824806286e-14
   105   -6.618125852959e-03
   106    4.051073208456e-14
   107   -1.149360723942e-14
   108    1.026256936745e-02
   109    1.372177358454e-02
   110   -1.074798722334e-02
   111   -1.520273603669e-02
   112   -1.335323267808e-01
   113   -1.257042709409e-01
   114    1.405645114558e-13
   115    4.539011752481e-02
   116   -1.542889584511e-01
   117   -1.443133401203e-01
   118    1.806259172159e-13
   119   -5.535531224387e-02
   120   -5.727653543249e-02
   121   -7.081609044697e-02
   122    5.355743685284e-14
   123   -3.090499962919e-02
   124    2.408157797107e-03
   125    1.577742521279e-03
   126    5.638716607934e-14
   127   -8.415440734019e-03
   128   -1.313196962713e-14
   129   -1.018250077563e-14
   130    5.715902752252e-03
   131    1.353116367262e-02
   132    1.141786137741e-02
   133    1.924212198629e-02
   134    1.089749141448e-02
   135    3.787325653425e-02
   136   -1.007018083079e-13
   137   -5.040774581567e-02
   138    7.659597854843e-03
   139    5.205852458071e-02
   140   -1.614258771410e-13
   141   -1.360615890842e-01
   142    6.349938255413e-02
   143    5.334410218630e-02
   144   -2.232910426539e-13