[Molden Format]
[Atoms] (Angs)
  C      1    6     -0.13173890     -1.79208980      0.00000000
  H      2    1     -2.14962000     -1.30978739      0.00000000
  H      3    1     -0.31599560     -2.86503115      0.00000000
  H      4    1      0.14407746      2.04280963     -0.00000000
  C      5    6     -1.17258876      0.48030861      0.00000000
  O      6    8     -2.25008207      1.06833796      0.00000000
  C      7    6      1.31158357      0.28308717     -0.00000000
  O      8    8      2.36361668      0.96389345     -0.00000000
  N      9    7      0.07017030      1.03138997     -0.00000000
  N     10    7     -1.19586868     -0.94982644      0.00000000
  C     11    6      1.19165158     -1.13169473     -0.00000000
  H     12    1      2.09970506     -1.73445456     -0.00000000
[GTO]
1    0
S    6    1.000000
   4.56324000E+03    1.96665000E-03 
   6.82024000E+02    1.52306000E-02 
   1.54973000E+02    7.61269000E-02 
   4.44553000E+01    2.60801000E-01 
   1.30290000E+01    6.16462000E-01 
   1.82773000E+00    2.21006000E-01 
SP   3    1.000000
   2.09642000E+01    1.14660000E-01   4.02487000E-02 
   4.80331000E+00    9.19999000E-01   2.37594000E-01 
   1.45933000E+00   -3.03068000E-03   8.15854000E-01 
SP   1    1.000000
   4.83456000E-01    1.00000000E+00   1.00000000E+00 
SP   1    1.000000
   1.45585000E-01    1.00000000E+00   1.00000000E+00 
SP   1    1.000000
   4.38000000E-02    1.00000000E+00   1.00000000E+00 
D    1    1.000000
   6.26000000E-01    1.00000000E+00 

2    0
S    3    1.000000
   3.38650000E+01    2.54938000E-02 
   5.09479000E+00    1.90373000E-01 
   1.15879000E+00    8.52161000E-01 
S    1    1.000000
   3.25840000E-01    1.00000000E+00 
S    1    1.000000
   1.02741000E-01    1.00000000E+00 
S    1    1.000000
   3.60000000E-02    1.00000000E+00 
P    1    1.000000
   7.50000000E-01    1.00000000E+00 

3    0
S    3    1.000000
   3.38650000E+01    2.54938000E-02 
   5.09479000E+00    1.90373000E-01 
   1.15879000E+00    8.52161000E-01 
S    1    1.000000
   3.25840000E-01    1.00000000E+00 
S    1    1.000000
   1.02741000E-01    1.00000000E+00 
S    1    1.000000
   3.60000000E-02    1.00000000E+00 
P    1    1.000000
   7.50000000E-01    1.00000000E+00 

4    0
S    3    1.000000
   3.38650000E+01    2.54938000E-02 
   5.09479000E+00    1.90373000E-01 
   1.15879000E+00    8.52161000E-01 
S    1    1.000000
   3.25840000E-01    1.00000000E+00 
S    1    1.000000
   1.02741000E-01    1.00000000E+00 
S    1    1.000000
   3.60000000E-02    1.00000000E+00 
P    1    1.000000
   7.50000000E-01    1.00000000E+00 

5    0
S    6    1.000000
   4.56324000E+03    1.96665000E-03 
   6.82024000E+02    1.52306000E-02 
   1.54973000E+02    7.61269000E-02 
   4.44553000E+01    2.60801000E-01 
   1.30290000E+01    6.16462000E-01 
   1.82773000E+00    2.21006000E-01 
SP   3    1.000000
   2.09642000E+01    1.14660000E-01   4.02487000E-02 
   4.80331000E+00    9.19999000E-01   2.37594000E-01 
   1.45933000E+00   -3.03068000E-03   8.15854000E-01 
SP   1    1.000000
   4.83456000E-01    1.00000000E+00   1.00000000E+00 
SP   1    1.000000
   1.45585000E-01    1.00000000E+00   1.00000000E+00 
SP   1    1.000000
   4.38000000E-02    1.00000000E+00   1.00000000E+00 
D    1    1.000000
   6.26000000E-01    1.00000000E+00 

6    0
S    6    1.000000
   8.58850000E+03    1.89515000E-03 
   1.29723000E+03    1.43859000E-02 
   2.99296000E+02    7.07320000E-02 
   8.73771000E+01    2.40001000E-01 
   2.56789000E+01    5.94797000E-01 
   3.74004000E+00    2.80802000E-01 
SP   3    1.000000
   4.21175000E+01    1.13889000E-01   3.65114000E-02 
   9.62837000E+00    9.20811000E-01   2.37153000E-01 
   2.85332000E+00   -3.27447000E-03   8.19702000E-01 
SP   1    1.000000
   9.05661000E-01    1.00000000E+00   1.00000000E+00 
SP   1    1.000000
   2.55611000E-01    1.00000000E+00   1.00000000E+00 
SP   1    1.000000
   8.45000000E-02    1.00000000E+00   1.00000000E+00 
D    1    1.000000
   1.29200000E+00    1.00000000E+00 

7    0
S    6    1.000000
   4.56324000E+03    1.96665000E-03 
   6.82024000E+02    1.52306000E-02 
   1.54973000E+02    7.61269000E-02 
   4.44553000E+01    2.60801000E-01 
   1.30290000E+01    6.16462000E-01 
   1.82773000E+00    2.21006000E-01 
SP   3    1.000000
   2.09642000E+01    1.14660000E-01   4.02487000E-02 
   4.80331000E+00    9.19999000E-01   2.37594000E-01 
   1.45933000E+00   -3.03068000E-03   8.15854000E-01 
SP   1    1.000000
   4.83456000E-01    1.00000000E+00   1.00000000E+00 
SP   1    1.000000
   1.45585000E-01    1.00000000E+00   1.00000000E+00 
SP   1    1.000000
   4.38000000E-02    1.00000000E+00   1.00000000E+00 
D    1    1.000000
   6.26000000E-01    1.00000000E+00 

8    0
S    6    1.000000
   8.58850000E+03    1.89515000E-03 
   1.29723000E+03    1.43859000E-02 
   2.99296000E+02    7.07320000E-02 
   8.73771000E+01    2.40001000E-01 
   2.56789000E+01    5.94797000E-01 
   3.74004000E+00    2.80802000E-01 
SP   3    1.000000
   4.21175000E+01    1.13889000E-01   3.65114000E-02 
   9.62837000E+00    9.20811000E-01   2.37153000E-01 
   2.85332000E+00   -3.27447000E-03   8.19702000E-01 
SP   1    1.000000
   9.05661000E-01    1.00000000E+00   1.00000000E+00 
SP   1    1.000000
   2.55611000E-01    1.00000000E+00   1.00000000E+00 
SP   1    1.000000
   8.45000000E-02    1.00000000E+00   1.00000000E+00 
D    1    1.000000
   1.29200000E+00    1.00000000E+00 

9    0
S    6    1.000000
   6.29348000E+03    1.96979000E-03 
   9.49044000E+02    1.49613000E-02 
   2.18776000E+02    7.35006000E-02 
   6.36916000E+01    2.48937000E-01 
   1.88282000E+01    6.02460000E-01 
   2.72023000E+00    2.56202000E-01 
SP   3    1.000000
   3.06331000E+01    1.11906000E-01   3.83119000E-02 
   7.02614000E+00    9.21666000E-01   2.37403000E-01 
   2.11205000E+00   -2.56919000E-03   8.17592000E-01 
SP   1    1.000000
   6.84009000E-01    1.00000000E+00   1.00000000E+00 
SP   1    1.000000
   2.00878000E-01    1.00000000E+00   1.00000000E+00 
SP   1    1.000000
   6.39000000E-02    1.00000000E+00   1.00000000E+00 
D    1    1.000000
   9.13000000E-01    1.00000000E+00 

10    0
S    6    1.000000
   6.29348000E+03    1.96979000E-03 
   9.49044000E+02    1.49613000E-02 
   2.18776000E+02    7.35006000E-02 
   6.36916000E+01    2.48937000E-01 
   1.88282000E+01    6.02460000E-01 
   2.72023000E+00    2.56202000E-01 
SP   3    1.000000
   3.06331000E+01    1.11906000E-01   3.83119000E-02 
   7.02614000E+00    9.21666000E-01   2.37403000E-01 
   2.11205000E+00   -2.56919000E-03   8.17592000E-01 
SP   1    1.000000
   6.84009000E-01    1.00000000E+00   1.00000000E+00 
SP   1    1.000000
   2.00878000E-01    1.00000000E+00   1.00000000E+00 
SP   1    1.000000
   6.39000000E-02    1.00000000E+00   1.00000000E+00 
D    1    1.000000
   9.13000000E-01    1.00000000E+00 

11    0
S    6    1.000000
   4.56324000E+03    1.96665000E-03 
   6.82024000E+02    1.52306000E-02 
   1.54973000E+02    7.61269000E-02 
   4.44553000E+01    2.60801000E-01 
   1.30290000E+01    6.16462000E-01 
   1.82773000E+00    2.21006000E-01 
SP   3    1.000000
   2.09642000E+01    1.14660000E-01   4.02487000E-02 
   4.80331000E+00    9.19999000E-01   2.37594000E-01 
   1.45933000E+00   -3.03068000E-03   8.15854000E-01 
SP   1    1.000000
   4.83456000E-01    1.00000000E+00   1.00000000E+00 
SP   1    1.000000
   1.45585000E-01    1.00000000E+00   1.00000000E+00 
SP   1    1.000000
   4.38000000E-02    1.00000000E+00   1.00000000E+00 
D    1    1.000000
   6.26000000E-01    1.00000000E+00 

12    0
S    3    1.000000
   3.38650000E+01    2.54938000E-02 
   5.09479000E+00    1.90373000E-01 
   1.15879000E+00    8.52161000E-01 
S    1    1.000000
   3.25840000E-01    1.00000000E+00 
S    1    1.000000
   1.02741000E-01    1.00000000E+00 
S    1    1.000000
   3.60000000E-02    1.00000000E+00 
P    1    1.000000
   7.50000000E-01    1.00000000E+00 

[MO]
Sym=X
Ene= 2.009913
Spin=Alpha
Occup=1
     1   -1.256703697934e-14
     2   -8.199077785800e-15
     3   -2.858591700494e-14
     4    2.026668891852e-14
     5   -6.684792332201e-02
     6   -4.913638645210e-14
     7   -1.981221425478e-14
     8    4.237473906325e-14
     9   -1.160655253849e-01
    10    5.987883346925e-13
    11   -3.448494040976e-13
    12    1.787751769651e-13
    13   -1.106465941061e-01
    14   -2.280535861684e-12
    15    1.223076612712e-12
    16   -2.421730676548e-12
    17   -1.272101866478e-02
    18    5.354706688216e-15
    19   -1.095807225387e-02
    20   -7.840233094523e-03
    21    3.182996180596e-14
    22    3.980627755003e-15
    23    6.668835052019e-15
    24    1.982969602779e-13
    25   -1.707564862293e-12
    26    6.016689468047e-13
    27    2.648635801104e-14
    28   -1.206855758298e-15
    29    7.655024855111e-04
    30   -1.739740243085e-14
    31    4.734916620664e-14
    32   -4.496349191432e-13
    33   -1.250537383257e-12
    34   -4.922414209432e-15
    35   -9.564073708449e-15
    36   -5.446822076605e-03
    37   -3.509380628080e-14
    38   -1.721869784355e-13
    39   -4.304749550580e-13
    40   -5.488949256096e-13
    41    3.160393807555e-15
    42    1.051452263440e-14
    43    2.151292362577e-03
    44    3.816209034489e-14
    45    2.282593011129e-14
    46   -3.072459751180e-14
    47    2.204453011104e-14
    48    2.817062632640e-03
    49    2.698705769160e-14
    50   -2.248589951680e-14
    51   -3.600797314879e-14
    52    7.408402482495e-03
    53    7.058078173673e-13
    54    2.728898119232e-13
    55   -4.658228810276e-13
    56   -2.946914837811e-03
    57    2.437118770293e-12
    58    1.518767621336e-12
    59    7.605591789982e-13
    60   -1.741718842379e-02
    61   -8.845567026363e-15
    62    4.502469774623e-03
    63   -2.162031130934e-03
    64   -1.543459809661e-14
    65    3.130315550519e-14
    66    1.208772029558e-14
    67    8.300348958368e-15
    68   -2.861598018723e-16
    69   -5.533725691714e-14
    70   -1.629606184620e-02
    71    1.407475269997e-14
    72   -1.020209971037e-14
    73   -7.719305086399e-14
    74   -2.516593897581e-02
    75    9.144515189920e-14
    76    2.148175562642e-13
    77    6.623842989144e-14
    78   -2.734732609419e-02
    79    1.365545034828e-13
    80    4.678495924921e-14
    81    6.769525087374e-14
    82    2.321268791476e-03
    83   -1.669869810195e-15
    84   -9.431386363520e-04
    85    3.489036279458e-04
    86   -1.205159858568e-15
    87   -8.407538577351e-15
    88   -4.045355962630e-14
    89   -4.780855197672e-14
    90   -8.139989397417e-15
    91   -1.580265933760e-14
    92    5.391767440767e-02
    93    5.074290686361e-14
    94   -3.711080360616e-14
    95    2.201547468579e-14
    96    9.453434241378e-02
    97    3.892367510440e-13
    98   -7.982687038217e-13
    99   -5.929127912242e-13
   100    5.747421712179e-02
   101   -1.487149108668e-11
   102    1.273415766368e-12
   103    2.732455166018e-12
   104    4.035063186914e-02
   105    1.109245404973e-14
   106    3.319349220233e-02
   107    3.722257094886e-02
   108   -8.985257537138e-15
   109   -5.086752935866e-15
   110   -3.355982468815e-15
   111   -7.765455560610e-15
   112   -2.939732148276e-14
   113    1.611518861872e-14
   114    3.478066308941e-01
   115    4.689644860884e-14
   116   -3.818110488123e-15
   117    2.735835279197e-14
   118    3.993166808554e-01
   119    5.358750670331e-14
   120   -1.938061055768e-13
   121   -7.948388630489e-14
   122    2.673884432602e-01
   123    1.071161967963e-12
   124    9.942770568790e-15
   125   -4.172038476020e-13
   126    1.609371792035e-02
   127    2.191592697001e-15
   128   -1.955905048786e-02
   129   -1.134763997502e-02
   130    4.378506316068e-15
   131   -6.120865924730e-16
   132    7.008609309475e-16
   133    2.056723636806e-14
   134   -9.611776081933e-15
   135   -1.689349718547e-14
   136    2.034602220138e-02
   137   -6.149181898235e-14
   138   -2.648055829681e-14
   139   -6.865439026793e-14
   140    3.458519565399e-02
   141   -4.948899619672e-13
   142   -2.058040791228e-13
   143    6.080998801399e-13
   144    2.652370356371e-02
   145   -3.999464832334e-14
   146    1.556323976506e-12
   147    1.539515622732e-13
   148   -9.066122169618e-03
   149    9.021244144607e-16
   150    2.930657620369e-03
   151   -1.389842857056e-03
   152    9.723137075964e-15
   153   -2.024561751308e-15
   154    1.083864439260e-14
   155   -5.923327600853e-15
   156   -2.552683922364e-14
   157   -2.656154692666e-15
   158   -9.848836089888e-04
   159    2.024063410324e-13
   160   -1.891552389289e-14
   161   -3.081089002103e-14
   162   -3.476030783134e-03
   163   -8.076408343787e-13
   164   -9.678410762442e-14
   165   -1.270447130423e-13
   166    2.479790120197e-02
   167    2.070467195137e-12
   168   -2.169542729232e-12
   169   -1.760033100493e-13
   170    3.165094453433e-02
   171    4.231069626536e-15
   172   -5.471632514504e-03
   173    4.126425448349e-03
   174   -5.060084042659e-15
   175   -1.906523733038e-14
   176   -8.015686811254e-14
   177   -6.403256164771e-14
   178   -5.256428068763e-14
   179    3.682699968420e-14
   180   -8.035430657173e-02
   181    5.611893620912e-14
   182   -4.214678884761e-14
   183    6.115239762412e-14
   184   -1.352031197100e-01
   185   -1.101759954827e-12
   186   -2.560096848512e-13
   187   -2.671768385424e-13
   188   -1.641288026202e-01
   189    1.245359939128e-11
   190   -2.767167520987e-12
   191    5.235574231536e-12
   192   -3.510231890261e-02
   193    2.575838185455e-14
   194    1.138446579790e-02
   195    5.437652250267e-03
   196   -2.313909019537e-14
   197    2.020926305193e-14
   198   -3.978367959904e-14
   199    2.895836473206e-14
   200    8.648767546067e-13
   201    1.941109799901e-12
   202   -5.386260345073e-16
   203    9.721077609553e-15
   204   -5.826181385535e-03
Sym=X
Ene= 2.004978
Spin=Alpha
Occup=1
     1   -2.022853163467e-14
     2   -3.401568543241e-14
     3   -3.511914501146e-14
     4   -3.297212578343e-14
     5    5.310644181414e-03
     6    8.914000671282e-14
     7   -4.983062079964e-14
     8   -3.230424593602e-14
     9    9.600774761992e-03
    10    1.219207622462e-13
    11   -4.326430807684e-14
    12   -1.381259286053e-13
    13   -3.083574839456e-02
    14   -4.473514538060e-12
    15   -7.526779193946e-13
    16   -1.475739823176e-12
    17   -7.496858130117e-03
    18   -2.190450892478e-15
    19   -2.955962190283e-02
    20    7.025229511589e-03
    21    7.319661700237e-15
    22   -2.878336189857e-16
    23   -1.405542958194e-14
    24    3.862349864905e-15
    25   -1.583528843345e-13
    26    1.220004857848e-13
    27    1.895142840373e-15
    28   -3.838701672830e-15
    29    1.355345229190e-02
    30    3.912818856967e-14
    31    5.000026944206e-14
    32   -2.211127540330e-13
    33   -6.480743430835e-13
    34   -3.410258547972e-15
    35    7.724816371458e-15
    36    1.094611419762e-04
    37    1.380987464938e-15
    38   -4.353359498537e-15
    39   -2.934681964720e-13
    40   -4.988993061322e-14
    41    2.149746725739e-15
    42    2.635436545139e-15
    43   -1.254240841967e-02
    44    9.026193534834e-15
    45    6.390618933116e-15
    46   -5.876137010746e-14
    47    6.532851815903e-14
    48    1.025670897891e-02
    49    1.432013815622e-14
    50   -8.807011922752e-14
    51    9.234028067454e-14
    52    2.161560087990e-02
    53    7.171165673119e-14
    54   -4.443372911564e-14
    55    2.636132963302e-14
    56    1.272641217841e-02
    57    1.184197544357e-12
    58    3.749816000211e-13
    59   -1.309481043261e-13
    60   -7.614468127482e-03
    61    1.852363513700e-15
    62   -2.548494474855e-02
    63   -2.447275067867e-02
    64    2.086268925298e-14
    65   -2.916873587062e-15
    66    6.307094899599e-14
    67    3.010817449222e-14
    68    3.688226247420e-14
    69   -5.302280488823e-14
    70    2.659049983375e-02
    71    1.398072634378e-13
    72    5.464682780397e-14
    73   -7.711831326155e-14
    74    4.136523666289e-02
    75    9.263283638932e-14
    76    4.474439741890e-14
    77   -5.583127214201e-14
    78    3.593394217210e-02
    79   -1.676970505225e-13
    80   -5.272633668008e-14
    81    7.059273608803e-14
    82    4.650058310996e-03
    83   -5.868748266088e-15
    84    2.135114181022e-03
    85   -1.915354869355e-03
    86    4.582578985350e-15
    87   -7.687730993370e-15
    88   -6.953089120046e-14
    89   -3.919055235973e-14
    90    7.091755484027e-16
    91    2.151525823275e-14
    92   -9.347720353374e-02
    93   -9.866663904516e-14
    94    1.316016329848e-14
    95    3.854193191873e-14
    96   -1.682919649185e-01
    97   -1.650878111995e-13
    98   -1.519231931035e-13
    99   -8.302959723847e-15
   100   -9.123038355444e-02
   101   -2.632345776397e-12
   102    8.332852228569e-13
   103    1.079643588278e-13
   104   -8.012033151119e-03
   105    9.756581355263e-15
   106    1.911239639525e-02
   107    1.710649864255e-03
   108    7.532008023008e-15
   109   -7.931202465587e-15
   110    1.337711853632e-14
   111    2.018321262336e-14
   112    3.871539277512e-14
   113   -3.854917504522e-14
   114    2.937312262423e-02
   115   -6.522207021424e-14
   116    4.878788698331e-14
   117   -4.150518553055e-14
   118    2.772187462181e-02
   119   -8.001756364179e-15
   120    4.248267770215e-15
   121   -5.618031539563e-14
   122    3.401492375418e-02
   123    1.779746607909e-13
   124   -3.699833670433e-14
   125   -1.193509222444e-13
   126    3.079094709348e-02
   127    1.936330532101e-15
   128    6.447066952650e-03
   129    4.007057808943e-03
   130   -2.076270239339e-15
   131   -1.140168402300e-15
   132    1.411539126393e-14
   133    1.920286397887e-14
   134   -3.136506204530e-15
   135    1.559533817375e-14
   136   -1.601587786846e-01
   137   -2.579603710824e-14
   138   -5.896115917860e-16
   139    2.381270588619e-14
   140   -2.626190228436e-01
   141    5.217476051253e-15
   142   -5.406684414657e-14
   143    7.607427987840e-14
   144   -2.605939638869e-01
   145    1.481507421538e-13
   146    4.163570745238e-13
   147    4.222898588131e-13
   148   -1.506944216413e-02
   149    8.892088134742e-16
   150   -6.210704937975e-03
   151    7.280352412013e-03
   152    3.895821649033e-15
   153   -1.111987364662e-15
   154    2.442739727735e-14
   155    3.755920865194e-14
   156    1.070660369798e-14
   157   -5.839166532366e-14
   158    1.579290553768e-01
   159   -8.171719407670e-14
   160    1.622621843146e-14
   161   -9.812994100025e-14
   162    2.580660239517e-01
   163   -1.220658794698e-13
   164    3.969494944289e-14
   165   -5.627335968288e-14
   166    2.758164091824e-01
   167    7.870720489016e-13
   168   -9.167285690355e-15
   169    1.777763036476e-13
   170    4.554036840051e-02
   171    1.965512055264e-15
   172    2.688228647457e-03
   173    1.274106804695e-03
   174   -1.079859583167e-15
   175   -8.879295359732e-15
   176   -1.228872784663e-14
   177    5.904571547660e-15
   178    9.374444421374e-15
   179   -2.743740054070e-14
   180   -8.814345126665e-02
   181   -5.954962313154e-14
   182    1.299047291473e-14
   183   -4.935434573565e-14
   184   -1.509205500393e-01
   185   -1.825816534210e-13
   186   -4.107764937641e-14
   187    6.916727900650e-14
   188   -1.554775014249e-01
   189    5.380030409405e-12
   190   -2.098929512678e-12
   191    4.493988262464e-13
   192   -1.517721250316e-02
   193    6.712018059624e-15
   194    4.012120450345e-03
   195   -1.218312461279e-02
   196    8.271085832157e-16
   197    2.129510788896e-15
   198    7.848518080791e-15
   199    4.135261688720e-14
   200    2.529861917721e-13
   201    6.460854309677e-13
   202   -7.499013085803e-15
   203    1.266631562182e-15
   204   -6.926693867946e-03
Sym=X
Ene= 2.002824
Spin=Alpha
Occup=1
     1   -9.603022577901e-03
     2   -1.602264718879e-02
     3    3.415930200168e-02
     4    2.153041681561e-02
     5    4.157842334388e-16
     6    4.386746822324e-02
     7    5.926963813142e-02
     8    3.640247959374e-02
     9   -2.166173054186e-14
    10    6.788241370027e-02
    11    4.133571558067e-02
    12    5.230821062384e-02
    13    2.781240054994e-14
    14    1.877674833756e-01
    15    5.587605381307e-02
    16    4.891629088459e-02
    17   -2.516892621043e-14
    18   -8.379148419003e-04
    19   -3.609331610854e-14
    20    1.206314573531e-14
    21    6.253496300294e-03
    22    1.137547935395e-03
    23    2.070644780767e-03
    24    4.598392884376e-03
    25   -1.475154245638e-03
    26   -6.998069734434e-03
    27   -5.196527182003e-07
    28   -1.301362000987e-04
    29   -7.965008216277e-16
    30   -1.603589645697e-02
    31   -2.179784532081e-02
    32   -6.225019202997e-03
    33    2.190649993647e-02
    34    1.629991908137e-03
    35   -3.805920237164e-04
    36   -2.700544036263e-15
    37   -5.147652040687e-03
    38   -1.643179397895e-02
    39   -9.043239326018e-03
    40    4.260227350236e-02
    41    1.750926974134e-03
    42    7.172117410305e-05
    43    1.666190234209e-14
    44    1.196708421094e-02
    45    1.984684821474e-02
    46   -3.354089672126e-02
    47   -1.331578322891e-02
    48    9.895940926386e-14
    49   -5.575775671577e-02
    50   -5.633886928553e-02
    51   -2.153162605774e-02
    52    1.659913441435e-13
    53   -5.936566792481e-02
    54   -4.218167569830e-02
    55    4.821449487587e-03
    56    1.088411768183e-13
    57   -4.610488173697e-02
    58   -1.371465446464e-02
    59   -2.338730274298e-02
    60    1.570916888262e-13
    61    1.143522273452e-03
    62   -7.208530424037e-14
    63    4.170612070577e-14
    64    3.273203091050e-03
    65   -9.486548065015e-03
    66   -2.426082462537e-03
    67   -4.058676747100e-03
    68    8.032164112471e-03
    69   -9.895559784366e-03
    70    5.480843383364e-14
    71    1.160448933469e-02
    72    1.057806452409e-02
    73   -1.455302157138e-02
    74    1.171017519223e-13
    75    1.871940463693e-03
    76    1.132399378675e-02
    77   -6.614373126332e-03
    78    1.961368659248e-15
    79   -2.454026626099e-02
    80   -8.282629836953e-03
    81    2.720194678515e-03
    82   -1.167989596798e-13
    83   -3.406287630181e-04
    84    2.064781494950e-14
    85   -8.373512715261e-15
    86   -1.103864275095e-03
    87   -1.375344464072e-03
    88    4.927085170288e-03
    89    8.941477909101e-03
    90   -2.498900784734e-02
    91    5.859934661114e-02
    92    3.075771961069e-14
    93   -2.762540596908e-02
    94   -4.307119206923e-02
    95    1.070483878196e-01
    96    2.633858382857e-14
    97   -3.513899063949e-02
    98    1.737913015760e-02
    99   -2.440858315373e-02
   100    1.728164644298e-14
   101    3.074485968967e-01
   102    1.548280291812e-02
   103   -1.459975355482e-01
   104   -2.597476235209e-13
   105   -1.228525606726e-03
   106   -5.488701518816e-14
   107    2.033471448379e-14
   108    5.341861217319e-02
   109   -3.116613702188e-02
   110    4.397589102538e-03
   111    6.319459156436e-03
   112    1.901945861913e-01
   113   -3.026458749193e-01
   114    6.663632987435e-15
   115   -2.011582805927e-02
   116    2.181157287756e-01
   117   -3.468083998045e-01
   118    9.553557252447e-15
   119   -1.058711383165e-02
   120    1.576896366437e-01
   121   -2.477211657727e-01
   122   -2.184809257495e-14
   123    1.450969768279e-02
   124   -6.468116941826e-03
   125   -3.092284287898e-03
   126    1.824031628241e-13
   127    2.188305651274e-04
   128    3.678726314136e-15
   129    1.671241345358e-15
   130   -1.131417515425e-02
   131    6.008254254099e-03
   132   -1.917974615485e-02
   133   -3.166463479368e-02
   134    8.242186914726e-02
   135   -2.834414346413e-02
   136    1.134632479708e-13
   137    8.558985936910e-02
   138    1.324715238539e-01
   139   -4.018677525578e-02
   140    1.922585802216e-13
   141    1.598700249446e-01
   142    1.077744350051e-01
   143   -5.875821691337e-02
   144    1.549465650909e-13
   145    1.139151038616e-01
   146   -5.568820008606e-02
   147   -2.607705030540e-02
   148    6.150461697593e-14
   149    5.438953910163e-04
   150    1.910583731364e-14
   151   -4.925629284198e-15
   152    8.411190601146e-04
   153   -4.627142162085e-03
   154    4.872667377997e-04
   155    8.575821515092e-04
   156   -2.258669015298e-03
   157    2.168364893486e-03
   158    6.156292354183e-14
   159   -2.924570569602e-03
   160   -2.931010587540e-03
   161    3.275048898058e-03
   162    9.923739127954e-14
   163   -5.991054410859e-04
   164   -8.865947382251e-03
   165    9.681913167768e-03
   166    6.696027202605e-14
   167   -3.449813982173e-02
   168   -1.149078570286e-02
   169   -2.774139348946e-02
   170   -3.618343972353e-14
   171   -1.845055402055e-04
   172    1.232621484716e-17
   173   -1.125556602861e-14
   174    3.363636382230e-03
   175   -9.312345018932e-04
   176    1.980761442699e-02
   177    3.209040137061e-02
   178   -3.705649110823e-02
   179   -6.336807086239e-02
   180   -3.428286961835e-15
   181   -8.011453668446e-02
   182   -6.330147139974e-02
   183   -8.883536018914e-02
   184   -5.341351615572e-14
   185   -1.524712833410e-01
   186   -1.135317043981e-02
   187   -8.493621328562e-02
   188    1.217757894828e-14
   189   -5.205633694905e-01
   190    6.797446403788e-02
   191   -6.021319239637e-02
   192    6.379665167214e-14
   193    7.588128562274e-04
   194   -4.478438579160e-16
   195    1.131937105977e-14
   196    4.058970529267e-03
   197   -1.873654721636e-04
   198   -1.241019308566e-02
   199   -1.348102249806e-02
   200   -1.914262168363e-03
   201   -2.930580987887e-02
   202    9.438659647575e-04
   203   -1.670445155196e-03
   204    1.177549690811e-14
Sym=X
Ene= 2.001589
Spin=Alpha
Occup=1
     1    4.647159272813e-03
     2    8.107065130387e-03
     3   -3.447498645637e-03
     4   -2.522407537555e-02
     5    2.449188814932e-14
     6   -2.183829045503e-02
     7   -4.879811249197e-03
     8   -4.158440254276e-02
     9    5.690686071461e-14
    10   -4.034032733696e-02
    11    6.821171498224e-03
    12   -3.611775258744e-02
    13    8.240823735044e-14
    14   -1.327438742188e-02
    15    1.860777804425e-02
    16    4.063740396085e-04
    17    3.054718434484e-14
    18    1.440747941361e-03
    19    3.020650541653e-14
    20    2.807200140282e-15
    21   -5.005879530260e-03
    22   -5.241644172474e-03
    23   -1.972492470776e-02
    24   -3.981124508062e-02
    25   -2.491857662419e-02
    26    3.305264790569e-02
    27   -3.012171465129e-03
    28   -2.354701618789e-03
    29   -1.873096270586e-15
    30    1.726986097450e-02
    31    2.864232527951e-02
    32    3.106599151004e-03
    33    9.341399495432e-03
    34   -2.179875552478e-04
    35    2.244872098343e-03
    36    9.269407940808e-16
    37    1.290965238992e-02
    38    2.048431225909e-02
    39    2.327734980417e-02
    40   -2.331150774630e-02
    41   -3.198292634682e-03
    42   -4.042855643525e-03
    43   -2.899735653601e-15
    44   -1.474763681932e-02
    45   -2.383188742312e-02
    46    7.916270914666e-03
    47    9.171075770449e-03
    48    1.306754305328e-13
    49    6.899491056651e-02
    50    9.820132350446e-03
    51    9.989516845166e-03
    52    2.036033727908e-13
    53    5.873318611567e-02
    54    7.199349809939e-02
    55    9.706204686058e-02
    56    1.577996848729e-13
    57    1.198590113947e-03
    58    5.632615242643e-02
    59    8.952403041459e-02
    60    7.157988697490e-14
    61   -1.189830716986e-03
    62   -7.017120058825e-14
    63    3.621650825043e-14
    64   -5.593167936552e-02
    65   -2.881476853487e-02
    66    9.523123504566e-03
    67    1.608945050733e-02
    68    1.159755974106e-01
    69    1.793758417678e-01
    70    3.432064027356e-13
    71   -4.701123058661e-02
    72    1.798641953227e-01
    73    2.771703675817e-01
    74    5.281553556313e-13
    75   -5.312006699707e-02
    76    1.536874549228e-01
    77    2.571330186477e-01
    78    5.115761704322e-13
    79   -8.668557340075e-04
    80    5.019607104873e-03
    81    1.154854781179e-02
    82    3.087559422823e-14
    83   -9.221505945547e-04
    84    3.620980460738e-14
    85   -6.814066297080e-15
    86    1.333464689720e-02
    87    6.183818732549e-03
    88   -1.197970536182e-02
    89   -1.798826471357e-02
    90    7.564588571106e-02
    91    6.257005930333e-02
    92    4.815755852465e-14
    93    4.808341920859e-02
    94    1.230265321453e-01
    95    1.027391079001e-01
    96    9.663379972378e-14
    97    4.424121818303e-02
    98    2.601342516271e-02
    99    2.132538409668e-02
   100    8.470047410468e-14
   101    4.887343840988e-02
   102   -1.049597258200e-02
   103   -5.155868384582e-03
   104   -5.165443683935e-14
   105   -5.988885125486e-03
   106    4.029399654609e-14
   107   -1.179039831202e-14
   108    9.369484533418e-03
   109    1.379985155712e-02
   110   -1.595537242271e-02
   111   -2.282783945456e-02
   112   -1.256262337285e-01
   113   -1.087283512986e-01
   114    1.449609456501e-13
   115    7.254047094883e-02
   116   -1.456008597402e-01
   117   -1.249534463521e-01
   118    1.827868115363e-13
   119   -3.863431590720e-02
   120   -5.292430613563e-02
   121   -5.848836069761e-02
   122    6.551993101147e-14
   123   -2.861723056568e-02
   124    1.522316218870e-03
   125    9.679264248120e-04
   126    4.374302572868e-14
   127   -8.058623099137e-03
   128   -1.318626607536e-14
   129   -1.017223664911e-14
   130    5.830779038784e-03
   131    1.269012805718e-02
   132    1.191630067063e-02
   133    2.010464569260e-02
   134    6.348660422749e-03
   135    3.319341372365e-02
   136   -1.088889068200e-13
   137   -5.269404716153e-02
   138   -1.405866305127e-04
   139    4.425952957043e-02
   140   -1.742513290461e-13
   141   -1.424526528004e-01
   142    6.107430496286e-02
   143    4.653449205811e-02
   144   -2.382280941237e-13