[Molden Format]
[Atoms] (Angs)
  C      1    6     -0.13173890     -1.79208980      0.00000000
  H      2    1     -2.14962000     -1.30978739      0.00000000
  H      3    1     -0.31599560     -2.86503115      0.00000000
  H      4    1      0.14407746      2.04280963     -0.00000000
  C      5    6     -1.17258876      0.48030861      0.00000000
  O      6    8     -2.25008207      1.06833796      0.00000000
  C      7    6      1.31158357      0.28308717     -0.00000000
  O      8    8      2.36361668      0.96389345     -0.00000000
  N      9    7      0.07017030      1.03138997     -0.00000000
  N     10    7     -1.19586868     -0.94982644      0.00000000
  C     11    6      1.19165158     -1.13169473     -0.00000000
  H     12    1      2.09970506     -1.73445456     -0.00000000
[GTO]
1    0
S    6    1.000000
   4.56324000E+03    1.96665000E-03 
   6.82024000E+02    1.52306000E-02 
   1.54973000E+02    7.61269000E-02 
   4.44553000E+01    2.60801000E-01 
   1.30290000E+01    6.16462000E-01 
   1.82773000E+00    2.21006000E-01 
SP   3    1.000000
   2.09642000E+01    1.14660000E-01   4.02487000E-02 
   4.80331000E+00    9.19999000E-01   2.37594000E-01 
   1.45933000E+00   -3.03068000E-03   8.15854000E-01 
SP   1    1.000000
   4.83456000E-01    1.00000000E+00   1.00000000E+00 
SP   1    1.000000
   1.45585000E-01    1.00000000E+00   1.00000000E+00 
SP   1    1.000000
   4.38000000E-02    1.00000000E+00   1.00000000E+00 
D    1    1.000000
   6.26000000E-01    1.00000000E+00 

2    0
S    3    1.000000
   3.38650000E+01    2.54938000E-02 
   5.09479000E+00    1.90373000E-01 
   1.15879000E+00    8.52161000E-01 
S    1    1.000000
   3.25840000E-01    1.00000000E+00 
S    1    1.000000
   1.02741000E-01    1.00000000E+00 
S    1    1.000000
   3.60000000E-02    1.00000000E+00 
P    1    1.000000
   7.50000000E-01    1.00000000E+00 

3    0
S    3    1.000000
   3.38650000E+01    2.54938000E-02 
   5.09479000E+00    1.90373000E-01 
   1.15879000E+00    8.52161000E-01 
S    1    1.000000
   3.25840000E-01    1.00000000E+00 
S    1    1.000000
   1.02741000E-01    1.00000000E+00 
S    1    1.000000
   3.60000000E-02    1.00000000E+00 
P    1    1.000000
   7.50000000E-01    1.00000000E+00 

4    0
S    3    1.000000
   3.38650000E+01    2.54938000E-02 
   5.09479000E+00    1.90373000E-01 
   1.15879000E+00    8.52161000E-01 
S    1    1.000000
   3.25840000E-01    1.00000000E+00 
S    1    1.000000
   1.02741000E-01    1.00000000E+00 
S    1    1.000000
   3.60000000E-02    1.00000000E+00 
P    1    1.000000
   7.50000000E-01    1.00000000E+00 

5    0
S    6    1.000000
   4.56324000E+03    1.96665000E-03 
   6.82024000E+02    1.52306000E-02 
   1.54973000E+02    7.61269000E-02 
   4.44553000E+01    2.60801000E-01 
   1.30290000E+01    6.16462000E-01 
   1.82773000E+00    2.21006000E-01 
SP   3    1.000000
   2.09642000E+01    1.14660000E-01   4.02487000E-02 
   4.80331000E+00    9.19999000E-01   2.37594000E-01 
   1.45933000E+00   -3.03068000E-03   8.15854000E-01 
SP   1    1.000000
   4.83456000E-01    1.00000000E+00   1.00000000E+00 
SP   1    1.000000
   1.45585000E-01    1.00000000E+00   1.00000000E+00 
SP   1    1.000000
   4.38000000E-02    1.00000000E+00   1.00000000E+00 
D    1    1.000000
   6.26000000E-01    1.00000000E+00 

6    0
S    6    1.000000
   8.58850000E+03    1.89515000E-03 
   1.29723000E+03    1.43859000E-02 
   2.99296000E+02    7.07320000E-02 
   8.73771000E+01    2.40001000E-01 
   2.56789000E+01    5.94797000E-01 
   3.74004000E+00    2.80802000E-01 
SP   3    1.000000
   4.21175000E+01    1.13889000E-01   3.65114000E-02 
   9.62837000E+00    9.20811000E-01   2.37153000E-01 
   2.85332000E+00   -3.27447000E-03   8.19702000E-01 
SP   1    1.000000
   9.05661000E-01    1.00000000E+00   1.00000000E+00 
SP   1    1.000000
   2.55611000E-01    1.00000000E+00   1.00000000E+00 
SP   1    1.000000
   8.45000000E-02    1.00000000E+00   1.00000000E+00 
D    1    1.000000
   1.29200000E+00    1.00000000E+00 

7    0
S    6    1.000000
   4.56324000E+03    1.96665000E-03 
   6.82024000E+02    1.52306000E-02 
   1.54973000E+02    7.61269000E-02 
   4.44553000E+01    2.60801000E-01 
   1.30290000E+01    6.16462000E-01 
   1.82773000E+00    2.21006000E-01 
SP   3    1.000000
   2.09642000E+01    1.14660000E-01   4.02487000E-02 
   4.80331000E+00    9.19999000E-01   2.37594000E-01 
   1.45933000E+00   -3.03068000E-03   8.15854000E-01 
SP   1    1.000000
   4.83456000E-01    1.00000000E+00   1.00000000E+00 
SP   1    1.000000
   1.45585000E-01    1.00000000E+00   1.00000000E+00 
SP   1    1.000000
   4.38000000E-02    1.00000000E+00   1.00000000E+00 
D    1    1.000000
   6.26000000E-01    1.00000000E+00 

8    0
S    6    1.000000
   8.58850000E+03    1.89515000E-03 
   1.29723000E+03    1.43859000E-02 
   2.99296000E+02    7.07320000E-02 
   8.73771000E+01    2.40001000E-01 
   2.56789000E+01    5.94797000E-01 
   3.74004000E+00    2.80802000E-01 
SP   3    1.000000
   4.21175000E+01    1.13889000E-01   3.65114000E-02 
   9.62837000E+00    9.20811000E-01   2.37153000E-01 
   2.85332000E+00   -3.27447000E-03   8.19702000E-01 
SP   1    1.000000
   9.05661000E-01    1.00000000E+00   1.00000000E+00 
SP   1    1.000000
   2.55611000E-01    1.00000000E+00   1.00000000E+00 
SP   1    1.000000
   8.45000000E-02    1.00000000E+00   1.00000000E+00 
D    1    1.000000
   1.29200000E+00    1.00000000E+00 

9    0
S    6    1.000000
   6.29348000E+03    1.96979000E-03 
   9.49044000E+02    1.49613000E-02 
   2.18776000E+02    7.35006000E-02 
   6.36916000E+01    2.48937000E-01 
   1.88282000E+01    6.02460000E-01 
   2.72023000E+00    2.56202000E-01 
SP   3    1.000000
   3.06331000E+01    1.11906000E-01   3.83119000E-02 
   7.02614000E+00    9.21666000E-01   2.37403000E-01 
   2.11205000E+00   -2.56919000E-03   8.17592000E-01 
SP   1    1.000000
   6.84009000E-01    1.00000000E+00   1.00000000E+00 
SP   1    1.000000
   2.00878000E-01    1.00000000E+00   1.00000000E+00 
SP   1    1.000000
   6.39000000E-02    1.00000000E+00   1.00000000E+00 
D    1    1.000000
   9.13000000E-01    1.00000000E+00 

10    0
S    6    1.000000
   6.29348000E+03    1.96979000E-03 
   9.49044000E+02    1.49613000E-02 
   2.18776000E+02    7.35006000E-02 
   6.36916000E+01    2.48937000E-01 
   1.88282000E+01    6.02460000E-01 
   2.72023000E+00    2.56202000E-01 
SP   3    1.000000
   3.06331000E+01    1.11906000E-01   3.83119000E-02 
   7.02614000E+00    9.21666000E-01   2.37403000E-01 
   2.11205000E+00   -2.56919000E-03   8.17592000E-01 
SP   1    1.000000
   6.84009000E-01    1.00000000E+00   1.00000000E+00 
SP   1    1.000000
   2.00878000E-01    1.00000000E+00   1.00000000E+00 
SP   1    1.000000
   6.39000000E-02    1.00000000E+00   1.00000000E+00 
D    1    1.000000
   9.13000000E-01    1.00000000E+00 

11    0
S    6    1.000000
   4.56324000E+03    1.96665000E-03 
   6.82024000E+02    1.52306000E-02 
   1.54973000E+02    7.61269000E-02 
   4.44553000E+01    2.60801000E-01 
   1.30290000E+01    6.16462000E-01 
   1.82773000E+00    2.21006000E-01 
SP   3    1.000000
   2.09642000E+01    1.14660000E-01   4.02487000E-02 
   4.80331000E+00    9.19999000E-01   2.37594000E-01 
   1.45933000E+00   -3.03068000E-03   8.15854000E-01 
SP   1    1.000000
   4.83456000E-01    1.00000000E+00   1.00000000E+00 
SP   1    1.000000
   1.45585000E-01    1.00000000E+00   1.00000000E+00 
SP   1    1.000000
   4.38000000E-02    1.00000000E+00   1.00000000E+00 
D    1    1.000000
   6.26000000E-01    1.00000000E+00 

12    0
S    3    1.000000
   3.38650000E+01    2.54938000E-02 
   5.09479000E+00    1.90373000E-01 
   1.15879000E+00    8.52161000E-01 
S    1    1.000000
   3.25840000E-01    1.00000000E+00 
S    1    1.000000
   1.02741000E-01    1.00000000E+00 
S    1    1.000000
   3.60000000E-02    1.00000000E+00 
P    1    1.000000
   7.50000000E-01    1.00000000E+00 

[MO]
Sym=X
Ene= 2.009529
Spin=Alpha
Occup=1
     1    1.185250940021e-14
     2    6.788097538272e-15
     3    3.179140415997e-14
     4   -2.465865430044e-14
     5    6.243265068098e-02
     6    5.299084004508e-14
     7    2.527132712447e-14
     8   -4.758002446651e-14
     9    1.084085457939e-01
    10   -5.944322727603e-13
    11    3.504773679234e-13
    12   -1.866793236830e-13
    13    9.743962103893e-02
    14    1.974041256125e-12
    15   -1.310458003660e-12
    16    2.351502315028e-12
    17    1.548138149871e-02
    18   -4.850338649753e-15
    19    4.872889189134e-03
    20    8.132828542019e-03
    21   -3.028092833667e-14
    22   -2.788262515114e-15
    23   -3.938497087658e-15
    24   -1.942815633550e-13
    25    1.716289083060e-12
    26   -5.719706045036e-13
    27   -2.629896447291e-14
    28    1.212469352445e-15
    29    1.690523905593e-03
    30    2.017850538518e-14
    31   -4.131332549949e-14
    32    4.348892881848e-13
    33    1.210797497282e-12
    34    4.680676847499e-15
    35    1.090917768271e-14
    36    5.156994528286e-03
    37    3.582272712972e-14
    38    1.700655377293e-13
    39    4.090265387378e-13
    40    5.506602975516e-13
    41   -2.452755009470e-15
    42   -9.831567340261e-15
    43   -3.651542761416e-03
    44   -3.895016389014e-14
    45   -2.295937437338e-14
    46    2.438931904706e-14
    47   -1.725091876053e-14
    48    1.600590289344e-03
    49   -2.837157769733e-14
    50    1.109044592230e-14
    51    4.175436740914e-14
    52    1.144792173848e-03
    53   -6.994257672681e-13
    54   -2.755202785746e-13
    55    4.646684990828e-13
    56    6.636729828862e-03
    57   -2.385871436671e-12
    58   -1.497639225435e-12
    59   -7.717895371371e-13
    60    1.999788033240e-02
    61    9.071272576976e-15
    62   -7.713917733856e-03
    63   -1.807179474847e-03
    64    1.687751321427e-14
    65   -3.103284087705e-14
    66   -3.331232946072e-15
    67   -3.046854395662e-15
    68    2.539131982828e-15
    69    4.994487647724e-14
    70    2.012245936669e-02
    71   -2.025721666534e-16
    72    1.322976648025e-14
    73    6.943121552284e-14
    74    3.116501240562e-02
    75   -8.416356569631e-14
    76   -2.114605047232e-13
    77   -7.081623895098e-14
    78    3.186832545419e-02
    79   -1.367873771885e-13
    80   -5.026708594320e-14
    81   -6.606990984770e-14
    82   -2.824685160846e-03
    83    1.142818934191e-15
    84    1.424307325595e-03
    85   -7.511098054841e-04
    86    9.555991404936e-16
    87    7.550933528582e-15
    88    3.435401646574e-14
    89    4.486904241801e-14
    90    6.481112172920e-15
    91    1.810525831951e-14
    92   -7.252444318429e-02
    93   -6.224540347552e-14
    94    3.554766660451e-14
    95   -1.689101976056e-14
    96   -1.277657694469e-01
    97   -3.990259627913e-13
    98    7.839507254652e-13
    99    5.939300163985e-13
   100   -7.509156172489e-02
   101    1.512409542687e-11
   102   -1.208467604655e-12
   103   -2.843525063842e-12
   104   -3.196809618551e-02
   105   -9.967851925285e-15
   106   -3.058983447132e-02
   107   -3.493102550747e-02
   108    9.122076206684e-15
   109    3.823934782780e-15
   110    5.804868417359e-15
   111    1.155861633539e-14
   112    3.533552409007e-14
   113   -1.957750457322e-14
   114   -3.444243188665e-01
   115   -5.957509344762e-14
   116    1.074609041826e-14
   117   -3.052095527983e-14
   118   -3.971725621137e-01
   119   -5.488985237682e-14
   120    1.963094717295e-13
   121    7.212203057698e-14
   122   -2.619260793622e-01
   123   -1.074668199847e-12
   124   -1.337329763736e-14
   125    4.146085103340e-13
   126   -1.022981992484e-02
   127   -1.943753032504e-15
   128    2.026382579537e-02
   129    1.210276868343e-02
   130   -4.873551316196e-15
   131    5.635031597212e-16
   132    9.556744554215e-15
   133   -1.147828238408e-14
   134    1.195141670927e-14
   135    1.833836039148e-14
   136   -4.002913182225e-02
   137    6.082509701257e-14
   138    3.054661143137e-14
   139    7.173837678601e-14
   140   -6.702313881930e-02
   141    4.969351771156e-13
   142    2.035431953372e-13
   143   -6.009497680712e-13
   144   -5.731867610662e-02
   145    4.030863012633e-14
   146   -1.526199924343e-12
   147   -1.047574312649e-13
   148    4.337826316979e-03
   149   -1.000287918823e-15
   150   -4.321797415513e-03
   151    2.530566330305e-03
   152   -1.006697784914e-14
   153    1.572867700974e-15
   154   -1.209834571619e-14
   155    6.932437388997e-15
   156    1.911779469164e-14
   157   -4.439687206384e-16
   158    2.801176491655e-02
   159   -2.135368282604e-13
   160    8.913468021772e-15
   161    2.576731321756e-14
   162    4.746671450663e-02
   163    7.897353644641e-13
   164    9.277405944991e-14
   165    1.202795994243e-13
   166    2.421652230577e-02
   167   -2.018751699479e-12
   168    2.211723146643e-12
   169    1.987038260962e-13
   170   -2.577714978837e-02
   171   -4.127302236610e-15
   172    5.477097317799e-03
   173   -3.502859403102e-03
   174    5.564930409181e-15
   175    1.951291790977e-14
   176    8.247455704858e-14
   177    6.606806946642e-14
   178    5.257630205825e-14
   179   -4.239616335044e-14
   180    5.675767876901e-02
   181   -5.418094868749e-14
   182    4.197232693603e-14
   183   -7.021695065505e-14
   184    9.510601690938e-02
   185    1.097927826415e-12
   186    2.582984507241e-13
   187    2.690128856078e-13
   188    1.202666910568e-01
   189   -1.244646693376e-11
   190    2.645461381631e-12
   191   -5.368698748870e-12
   192    2.635769683736e-02
   193   -2.583272269653e-14
   194   -9.767777727715e-03
   195   -8.175859457299e-03
   196    2.361924815472e-14
   197   -2.029620059791e-14
   198    4.306052291981e-14
   199   -2.317212055006e-14
   200   -8.527230327772e-13
   201   -1.961454999996e-12
   202   -8.895136537432e-17
   203   -1.006168079510e-14
   204    4.211250021669e-03
Sym=X
Ene= 2.004806
Spin=Alpha
Occup=1
     1    2.045065849918e-14
     2    3.275744153391e-14
     3    4.557406102071e-14
     4    3.372513305058e-14
     5    3.249474931794e-03
     6   -7.592958183465e-14
     7    6.339139408571e-14
     8    3.205303902288e-14
     9    5.143307411732e-03
    10   -2.128746960750e-13
    11    1.014226343616e-13
    12    1.154415278096e-13
    13    4.708568867665e-02
    14    4.914218245354e-12
    15    5.178952742183e-13
    16    1.907783473328e-12
    17    1.095201195641e-02
    18    1.428986564489e-15
    19    3.120264195086e-02
    20   -5.987067133579e-03
    21   -1.118633345312e-14
    22   -6.392701903552e-16
    23    8.917738602010e-15
    24   -4.225298433468e-14
    25    4.617209146432e-13
    26   -1.969558899935e-13
    27   -6.759801477918e-15
    28    3.841402118700e-15
    29   -1.442475074565e-02
    30   -3.926714515450e-14
    31   -6.262876955317e-14
    32    2.974998285529e-13
    33    8.498001193801e-13
    34    4.444471618533e-15
    35   -6.558914605608e-15
    36    5.954041291474e-04
    37    9.648126411208e-15
    38    3.957668100186e-14
    39    3.601937050222e-13
    40    1.277561845407e-13
    41   -2.573287809996e-15
    42   -5.633270799725e-15
    43    1.222094401435e-02
    44   -2.673078823873e-14
    45   -1.716941456642e-14
    46    7.583399360773e-14
    47   -7.292829153893e-14
    48   -1.338356335508e-02
    49   -3.323890634595e-14
    50    1.105414588040e-13
    51   -9.342595685625e-14
    52   -2.758677755041e-02
    53   -1.992654270647e-13
    54    4.983122924841e-15
    55    4.550710266135e-14
    56   -1.221351078342e-02
    57   -1.665171088614e-12
    58   -6.310429721648e-13
    59    3.619287090565e-14
    60    1.190387635364e-02
    61    2.035534052981e-16
    62    2.577639340716e-02
    63    2.432499992816e-02
    64   -1.909560499562e-14
    65    6.354570359024e-16
    66   -6.561819868251e-14
    67   -3.094008866318e-14
    68   -4.961298049642e-14
    69    6.857690637537e-14
    70   -2.894729364159e-02
    71   -1.469618366942e-13
    72   -7.227815425947e-14
    73    9.906609067922e-14
    74   -4.503871891994e-02
    75   -1.011209923815e-13
    76   -9.049908336837e-14
    77    5.169587138922e-14
    78   -3.902867158406e-02
    79    1.538796071481e-13
    80    4.489378079999e-14
    81   -8.424379428720e-14
    82   -6.472038321513e-03
    83    7.114111026242e-15
    84   -2.460675367756e-03
    85    2.148796557754e-03
    86   -5.350489920228e-15
    87    1.045938513184e-14
    88    8.042548595482e-14
    89    5.109544739583e-14
    90   -3.084020139928e-15
    91   -1.692253004127e-14
    92    7.935268101440e-02
    93    8.634806045222e-14
    94   -1.320842363332e-14
    95   -3.879637177889e-14
    96    1.438114346975e-01
    97    9.723961005851e-14
    98    2.834360079719e-13
    99    1.118575266190e-13
   100    7.323538529096e-02
   101    5.181692732516e-12
   102   -1.036058574121e-12
   103   -5.608707805072e-13
   104    4.817718462124e-03
   105   -1.172227465684e-14
   106   -2.486005480557e-02
   107   -7.715504934978e-03
   108   -6.991366483373e-15
   109    7.405189760521e-15
   110   -1.186886997139e-14
   111   -1.753591407028e-14
   112   -3.462463562155e-14
   113    4.585989521730e-14
   114   -8.996646708647e-02
   115    5.337680679882e-14
   116   -4.911768768939e-14
   117    4.825436087688e-14
   118   -9.815037412929e-02
   119   -1.990874907730e-15
   120    2.542176109480e-14
   121    7.629905188734e-14
   122   -8.045734557622e-02
   123   -3.660430520239e-13
   124    3.682014798130e-14
   125    1.885245541155e-13
   126   -3.240734179611e-02
   127   -2.107937934704e-15
   128   -2.866730566820e-03
   129   -1.833471037886e-03
   130    1.496587665488e-15
   131    7.058933584865e-16
   132   -1.339669988424e-14
   133   -2.655991766618e-14
   134    4.061118604342e-15
   135   -1.201637316993e-14
   136    1.545040325726e-01
   137    6.227049971934e-14
   138    4.286813211460e-15
   139   -1.133466820967e-14
   140    2.530578232097e-01
   141    9.524714814417e-14
   142    8.631329271500e-14
   143   -1.761389383228e-13
   144    2.532188160650e-01
   145   -1.435738087610e-13
   146   -6.752649192468e-13
   147   -4.402817305046e-13
   148    1.541317006578e-02
   149   -1.753907751006e-15
   150    5.528122925783e-03
   151   -6.763844895411e-03
   152   -5.908787620520e-15
   153    1.758023606223e-15
   154   -3.004827675350e-14
   155   -3.889221782104e-14
   156   -2.342250974491e-15
   157    6.153493125675e-14
   158   -1.599230978009e-01
   159    4.474572450429e-14
   160   -6.436493791011e-15
   161    1.080788987689e-13
   162   -2.610810422886e-01
   163    2.405706036266e-13
   164   -2.145144822225e-14
   165    7.851762997729e-14
   166   -2.816931093778e-01
   167   -1.145224469979e-12
   168    3.841393548617e-13
   169   -1.106313912740e-13
   170   -5.234409885833e-02
   171   -2.335326432510e-15
   172   -1.608304020919e-03
   173   -1.639572671527e-03
   174    2.135604420579e-15
   175    1.219136636094e-14
   176    4.311376490148e-14
   177    1.444280299713e-14
   178    1.502878076774e-15
   179    1.434667845003e-14
   180    9.669341422625e-02
   181    7.538715307041e-14
   182   -3.659449461912e-15
   183    2.816684655820e-14
   184    1.652907792535e-01
   185    3.850907989950e-13
   186    9.113765756905e-14
   187   -2.731383842770e-14
   188    1.744591660647e-01
   189   -7.458330837251e-12
   190    2.575159517561e-12
   191   -1.373339116829e-12
   192    1.824530442421e-02
   193   -1.149978567943e-14
   194   -5.531687676344e-03
   195    1.056902805051e-02
   196    4.149406825950e-15
   197   -5.387901862629e-15
   198    8.391171606988e-15
   199   -2.990334072655e-14
   200   -4.049095948402e-13
   201   -1.013421408457e-12
   202    6.063323512723e-15
   203   -1.876526161109e-15
   204    7.735310280674e-03
Sym=X
Ene= 2.003084
Spin=Alpha
Occup=1
     1    8.633011193733e-03
     2    1.451025377269e-02
     3   -2.870157781452e-02
     4   -1.844291417076e-02
     5   -3.980472121749e-16
     6   -4.014307628345e-02
     7   -5.034946114877e-02
     8   -3.148244980449e-02
     9    2.250537366244e-14
    10   -6.432091474526e-02
    11   -3.860048697204e-02
    12   -4.688855025358e-02
    13   -2.920854115143e-14
    14   -1.765812981115e-01
    15   -5.186131623006e-02
    16   -4.611665311908e-02
    17    2.419421653033e-14
    18    7.569681759063e-04
    19    3.639462585377e-14
    20   -1.198801138260e-14
    21   -5.950653540839e-03
    22   -5.559346710502e-04
    23   -2.623918385739e-03
    24   -5.125883094800e-03
    25   -1.247081985442e-03
    26    5.650577490184e-03
    27   -1.437574376484e-04
    28    1.024942453272e-04
    29    1.663011217784e-15
    30    1.380220803101e-02
    31    1.895819922002e-02
    32    6.681688677618e-03
    33   -2.037882503499e-02
    34   -1.466397723954e-03
    35    9.002004841150e-05
    36    2.546726507427e-15
    37    4.896827908617e-03
    38    1.573130800231e-02
    39    1.112840921754e-02
    40   -4.353495838857e-02
    41   -1.538897423452e-03
    42   -6.436439354411e-05
    43   -1.654748425069e-14
    44   -1.152935756799e-02
    45   -1.920862151202e-02
    46    3.039461622596e-02
    47    1.197884896782e-02
    48   -8.932979820993e-14
    49    5.449524259066e-02
    50    5.120480216215e-02
    51    1.939623569896e-02
    52   -1.490627407515e-13
    53    6.069553886125e-02
    54    4.227979556466e-02
    55   -5.001243169763e-04
    56   -9.843104974895e-14
    57    4.185081109021e-02
    58    1.311492106765e-02
    59    2.595888631477e-02
    60   -1.503692414532e-13
    61   -1.040026835113e-03
    62    7.399153059157e-14
    63   -4.280130568934e-14
    64   -4.961937503082e-03
    65    7.995931890101e-03
    66    2.365499909487e-03
    67    3.970774935393e-03
    68   -4.469789791750e-03
    69    1.323856425570e-02
    70   -4.165351632133e-14
    71   -1.143068709108e-02
    72   -5.161020531066e-03
    73    1.972201533135e-02
    74   -9.764768464089e-14
    75   -3.463730304399e-03
    76   -7.141629120044e-03
    77    1.211544500029e-02
    78    2.034038762708e-14
    79    2.184800854850e-02
    80    8.061546121946e-03
    81   -2.049052761699e-03
    82    1.118172458750e-13
    83    2.525388460013e-04
    84   -2.006670685750e-14
    85    7.658183570356e-15
    86    1.343108780528e-03
    87    1.334077131722e-03
    88   -4.651158143214e-03
    89   -8.527459191735e-03
    90    2.331058952780e-02
    91   -4.967274983263e-02
    92   -3.479508331106e-14
    93    2.669686612966e-02
    94    4.052070434124e-02
    95   -9.229199092310e-02
    96   -3.223612377682e-14
    97    3.608626078555e-02
    98   -1.713089318040e-02
    99    2.357563797707e-02
   100   -1.959600283330e-14
   101   -3.099547308528e-01
   102   -2.157048392755e-02
   103    1.507733826811e-01
   104    2.518586491261e-13
   105    8.689669091581e-04
   106    5.780711587812e-14
   107   -1.995937433734e-14
   108   -5.332200137342e-02
   109    3.183960245243e-02
   110   -2.655969507104e-03
   111   -3.771028280050e-03
   112   -2.015743029751e-01
   113    3.062882721414e-01
   114   -9.571418993201e-15
   115    1.129053812320e-02
   116   -2.307966090422e-01
   117    3.510882155812e-01
   118   -1.210114343888e-14
   119    4.039391682114e-03
   120   -1.649681202167e-01
   121    2.510953838622e-01
   122    1.482153884552e-14
   123   -1.304117541668e-02
   124    5.840396569149e-03
   125    2.524505634768e-03
   126   -1.760433326080e-13
   127   -3.304309512699e-04
   128   -3.599813960638e-15
   129   -1.541851847754e-15
   130    1.175724777157e-02
   131   -5.546964964619e-03
   132    1.942392552826e-02
   133    3.218290397742e-02
   134   -7.640021463545e-02
   135    2.829450936728e-02
   136   -1.125084443444e-13
   137   -8.751492520039e-02
   138   -1.230519672184e-01
   139    3.994718810083e-02
   140   -1.907902569122e-13
   141   -1.614431790512e-01
   142   -9.846593756413e-02
   143    5.839994996430e-02
   144   -1.552583773635e-13
   145   -1.208434668106e-01
   146    5.303934706043e-02
   147    2.376534940013e-02
   148   -6.045103360437e-14
   149   -6.735087175431e-04
   150   -2.141362843351e-14
   151    4.783443152432e-15
   152   -4.507789690117e-04
   153    4.139104875036e-03
   154   -6.589647475468e-04
   155   -1.120932045538e-03
   156    2.173800177920e-03
   157    8.620796292490e-04
   158   -5.243387227109e-14
   159    3.540820111791e-03
   160    2.855700286082e-03
   161    1.394672349472e-03
   162   -8.417027817223e-14
   163    2.949771390587e-03
   164    7.464523685869e-03
   165   -4.425259086815e-03
   166   -5.144413742188e-14
   167    3.765627565669e-02
   168    7.388650375765e-03
   169    2.635990398300e-02
   170    3.591836567638e-14
   171    2.124945503352e-04
   172    3.904337539673e-16
   173    1.296923579528e-14
   174   -3.079822594965e-03
   175    9.910377004541e-04
   176   -1.896410626973e-02
   177   -3.073096144126e-02
   178    3.133446562219e-02
   179    5.794869998863e-02
   180   -1.844994677234e-15
   181    7.700712804342e-02
   182    5.421068515393e-02
   183    7.996321903932e-02
   184    4.737271447304e-14
   185    1.456600067752e-01
   186    6.171932945745e-03
   187    7.786016711188e-02
   188   -2.355261973526e-14
   189    5.182931500752e-01
   190   -6.296510598890e-02
   191    6.491337732479e-02
   192   -6.004572186362e-14
   193   -4.304823679539e-04
   194    6.474095088245e-16
   195   -1.298810580298e-14
   196   -2.644380899313e-03
   197    4.495223949642e-04
   198    1.052003264979e-02
   199    1.087052754472e-02
   200    1.304340816880e-03
   201    2.974647911777e-02
   202   -7.929780446588e-04
   203    1.170435429799e-03
   204   -1.264891400385e-14
Sym=X
Ene= 2.001808
Spin=Alpha
Occup=1
     1   -3.890234639407e-03
     2   -6.769587589958e-03
     3    1.012897295138e-02
     4    2.852258107027e-02
     5   -3.350640622123e-14
     6    1.806311290766e-02
     7    1.566452148434e-02
     8    4.621659701381e-02
     9   -7.320882236182e-14
    10    3.640601672292e-02
    11   -2.218481317235e-03
    12    3.889609493959e-02
    13   -1.014847044580e-13
    14    1.607465357420e-02
    15   -1.435190228759e-02
    16    4.468863464861e-03
    17   -2.772337833158e-14
    18   -1.231306332574e-03
    19   -3.388349064618e-14
    20   -3.845388673062e-15
    21    5.808129510497e-03
    22    5.934951639851e-03
    23    2.333219289905e-02
    24    4.610582643364e-02
    25    2.473461888801e-02
    26   -3.059712316227e-02
    27    3.479883055527e-03
    28    2.396212428963e-03
    29    2.491479536387e-15
    30   -2.155541185373e-02
    31   -3.575795410761e-02
    32   -3.241443666930e-03
    33   -5.395495281527e-03
    34    4.437729586394e-04
    35   -2.979277554754e-03
    36   -1.489423497866e-15
    37   -1.440070945086e-02
    38   -2.133583646679e-02
    39   -2.105680527322e-02
    40    2.041464166894e-02
    41    2.719744760707e-03
    42    4.052160110800e-03
    43    8.832774996920e-16
    44    1.201693687895e-02
    45    1.974033954853e-02
    46    1.211731784846e-04
    47   -6.920785236397e-03
    48   -1.224534781940e-13
    49   -5.921079559966e-02
    50    2.859300295678e-03
    51   -6.492266961928e-03
    52   -1.870986320536e-13
    53   -5.705740979339e-02
    54   -6.371898463137e-02
    55   -9.158041977292e-02
    56   -1.474773012257e-13
    57    8.645451720219e-04
    58   -5.059034139974e-02
    59   -8.254858355223e-02
    60   -8.317485803262e-14
    61    6.715287630940e-04
    62    6.196351006448e-14
    63   -3.408273780082e-14
    64    5.397296020019e-02
    65    2.942638647531e-02
    66   -8.199252081990e-03
    67   -1.379914695740e-02
    68   -1.134404478739e-01
    69   -1.698247304518e-01
    70   -3.250983720711e-13
    71    4.009024796988e-02
    72   -1.757210473549e-01
    73   -2.623029483844e-01
    74   -4.993500688673e-13
    75    5.038576413914e-02
    76   -1.489945132253e-01
    77   -2.456697355597e-01
    78   -4.902554911628e-13
    79    5.838326555590e-03
    80   -4.615676761914e-03
    81   -1.243715328094e-02
    82   -1.772492924325e-14
    83    9.660900363946e-04
    84   -3.447444992084e-14
    85    5.128748829507e-15
    86   -1.269096183775e-02
    87   -5.326061456666e-03
    88    1.799670159355e-02
    89    2.798414656524e-02
    90   -7.720342840480e-02
    91   -6.297946129520e-02
    92   -5.301267605953e-14
    93   -7.638277217358e-02
    94   -1.260902155827e-01
    95   -1.045315988244e-01
    96   -1.059806225832e-13
    97   -6.146916547937e-02
    98   -2.248254979755e-02
    99   -1.463710338774e-02
   100   -9.127059420350e-14
   101   -7.362347765549e-02
   102    1.577999451817e-02
   103    1.374286232583e-02
   104    7.891091089933e-14
   105    7.234606162511e-03
   106   -3.971805659514e-14
   107    1.354308401000e-14
   108   -1.013155489868e-02
   109   -1.351812821723e-02
   110    1.121980041699e-02
   111    1.586667601866e-02
   112    1.380968253956e-01
   113    1.244761766792e-01
   114   -1.280571311408e-13
   115   -4.727410116348e-02
   116    1.594768538924e-01
   117    1.428912596647e-01
   118   -1.660416524627e-13
   119    5.462600970457e-02
   120    5.991537219856e-02
   121    6.896452372926e-02
   122   -4.082787992362e-14
   123    2.966774923496e-02
   124   -2.000831864019e-03
   125   -1.783917465674e-03
   126   -5.616972046235e-14
   127    8.606288772608e-03
   128    1.291473359572e-14
   129    1.027740524288e-14
   130   -5.932414653175e-03
   131   -1.382099937654e-02
   132   -1.233486283673e-02
   133   -2.069740702115e-02
   134   -1.490402644943e-02
   135   -3.484394672116e-02
   136    9.776683608758e-14
   137    5.406962456984e-02
   138   -1.411256670880e-02
   139   -4.712156801608e-02
   140    1.566099634624e-13
   141    1.383913219991e-01
   142   -6.728442107169e-02
   143   -5.005519421889e-02
   144    2.187061820166e-13