[Molden Format]
[Atoms] (Angs)
  C      1    6     -0.13173890     -1.79208980      0.00000000
  H      2    1     -2.14962000     -1.30978739      0.00000000
  H      3    1     -0.31599560     -2.86503115      0.00000000
  H      4    1      0.14407746      2.04280963     -0.00000000
  C      5    6     -1.17258876      0.48030861      0.00000000
  O      6    8     -2.25008207      1.06833796      0.00000000
  C      7    6      1.31158357      0.28308717     -0.00000000
  O      8    8      2.36361668      0.96389345     -0.00000000
  N      9    7      0.07017030      1.03138997     -0.00000000
  N     10    7     -1.19586868     -0.94982644      0.00000000
  C     11    6      1.19165158     -1.13169473     -0.00000000
  H     12    1      2.09970506     -1.73445456     -0.00000000
[GTO]
1    0
S    6    1.000000
   4.56324000E+03    1.96665000E-03 
   6.82024000E+02    1.52306000E-02 
   1.54973000E+02    7.61269000E-02 
   4.44553000E+01    2.60801000E-01 
   1.30290000E+01    6.16462000E-01 
   1.82773000E+00    2.21006000E-01 
SP   3    1.000000
   2.09642000E+01    1.14660000E-01   4.02487000E-02 
   4.80331000E+00    9.19999000E-01   2.37594000E-01 
   1.45933000E+00   -3.03068000E-03   8.15854000E-01 
SP   1    1.000000
   4.83456000E-01    1.00000000E+00   1.00000000E+00 
SP   1    1.000000
   1.45585000E-01    1.00000000E+00   1.00000000E+00 
SP   1    1.000000
   4.38000000E-02    1.00000000E+00   1.00000000E+00 
D    1    1.000000
   6.26000000E-01    1.00000000E+00 

2    0
S    3    1.000000
   3.38650000E+01    2.54938000E-02 
   5.09479000E+00    1.90373000E-01 
   1.15879000E+00    8.52161000E-01 
S    1    1.000000
   3.25840000E-01    1.00000000E+00 
S    1    1.000000
   1.02741000E-01    1.00000000E+00 
S    1    1.000000
   3.60000000E-02    1.00000000E+00 
P    1    1.000000
   7.50000000E-01    1.00000000E+00 

3    0
S    3    1.000000
   3.38650000E+01    2.54938000E-02 
   5.09479000E+00    1.90373000E-01 
   1.15879000E+00    8.52161000E-01 
S    1    1.000000
   3.25840000E-01    1.00000000E+00 
S    1    1.000000
   1.02741000E-01    1.00000000E+00 
S    1    1.000000
   3.60000000E-02    1.00000000E+00 
P    1    1.000000
   7.50000000E-01    1.00000000E+00 

4    0
S    3    1.000000
   3.38650000E+01    2.54938000E-02 
   5.09479000E+00    1.90373000E-01 
   1.15879000E+00    8.52161000E-01 
S    1    1.000000
   3.25840000E-01    1.00000000E+00 
S    1    1.000000
   1.02741000E-01    1.00000000E+00 
S    1    1.000000
   3.60000000E-02    1.00000000E+00 
P    1    1.000000
   7.50000000E-01    1.00000000E+00 

5    0
S    6    1.000000
   4.56324000E+03    1.96665000E-03 
   6.82024000E+02    1.52306000E-02 
   1.54973000E+02    7.61269000E-02 
   4.44553000E+01    2.60801000E-01 
   1.30290000E+01    6.16462000E-01 
   1.82773000E+00    2.21006000E-01 
SP   3    1.000000
   2.09642000E+01    1.14660000E-01   4.02487000E-02 
   4.80331000E+00    9.19999000E-01   2.37594000E-01 
   1.45933000E+00   -3.03068000E-03   8.15854000E-01 
SP   1    1.000000
   4.83456000E-01    1.00000000E+00   1.00000000E+00 
SP   1    1.000000
   1.45585000E-01    1.00000000E+00   1.00000000E+00 
SP   1    1.000000
   4.38000000E-02    1.00000000E+00   1.00000000E+00 
D    1    1.000000
   6.26000000E-01    1.00000000E+00 

6    0
S    6    1.000000
   8.58850000E+03    1.89515000E-03 
   1.29723000E+03    1.43859000E-02 
   2.99296000E+02    7.07320000E-02 
   8.73771000E+01    2.40001000E-01 
   2.56789000E+01    5.94797000E-01 
   3.74004000E+00    2.80802000E-01 
SP   3    1.000000
   4.21175000E+01    1.13889000E-01   3.65114000E-02 
   9.62837000E+00    9.20811000E-01   2.37153000E-01 
   2.85332000E+00   -3.27447000E-03   8.19702000E-01 
SP   1    1.000000
   9.05661000E-01    1.00000000E+00   1.00000000E+00 
SP   1    1.000000
   2.55611000E-01    1.00000000E+00   1.00000000E+00 
SP   1    1.000000
   8.45000000E-02    1.00000000E+00   1.00000000E+00 
D    1    1.000000
   1.29200000E+00    1.00000000E+00 

7    0
S    6    1.000000
   4.56324000E+03    1.96665000E-03 
   6.82024000E+02    1.52306000E-02 
   1.54973000E+02    7.61269000E-02 
   4.44553000E+01    2.60801000E-01 
   1.30290000E+01    6.16462000E-01 
   1.82773000E+00    2.21006000E-01 
SP   3    1.000000
   2.09642000E+01    1.14660000E-01   4.02487000E-02 
   4.80331000E+00    9.19999000E-01   2.37594000E-01 
   1.45933000E+00   -3.03068000E-03   8.15854000E-01 
SP   1    1.000000
   4.83456000E-01    1.00000000E+00   1.00000000E+00 
SP   1    1.000000
   1.45585000E-01    1.00000000E+00   1.00000000E+00 
SP   1    1.000000
   4.38000000E-02    1.00000000E+00   1.00000000E+00 
D    1    1.000000
   6.26000000E-01    1.00000000E+00 

8    0
S    6    1.000000
   8.58850000E+03    1.89515000E-03 
   1.29723000E+03    1.43859000E-02 
   2.99296000E+02    7.07320000E-02 
   8.73771000E+01    2.40001000E-01 
   2.56789000E+01    5.94797000E-01 
   3.74004000E+00    2.80802000E-01 
SP   3    1.000000
   4.21175000E+01    1.13889000E-01   3.65114000E-02 
   9.62837000E+00    9.20811000E-01   2.37153000E-01 
   2.85332000E+00   -3.27447000E-03   8.19702000E-01 
SP   1    1.000000
   9.05661000E-01    1.00000000E+00   1.00000000E+00 
SP   1    1.000000
   2.55611000E-01    1.00000000E+00   1.00000000E+00 
SP   1    1.000000
   8.45000000E-02    1.00000000E+00   1.00000000E+00 
D    1    1.000000
   1.29200000E+00    1.00000000E+00 

9    0
S    6    1.000000
   6.29348000E+03    1.96979000E-03 
   9.49044000E+02    1.49613000E-02 
   2.18776000E+02    7.35006000E-02 
   6.36916000E+01    2.48937000E-01 
   1.88282000E+01    6.02460000E-01 
   2.72023000E+00    2.56202000E-01 
SP   3    1.000000
   3.06331000E+01    1.11906000E-01   3.83119000E-02 
   7.02614000E+00    9.21666000E-01   2.37403000E-01 
   2.11205000E+00   -2.56919000E-03   8.17592000E-01 
SP   1    1.000000
   6.84009000E-01    1.00000000E+00   1.00000000E+00 
SP   1    1.000000
   2.00878000E-01    1.00000000E+00   1.00000000E+00 
SP   1    1.000000
   6.39000000E-02    1.00000000E+00   1.00000000E+00 
D    1    1.000000
   9.13000000E-01    1.00000000E+00 

10    0
S    6    1.000000
   6.29348000E+03    1.96979000E-03 
   9.49044000E+02    1.49613000E-02 
   2.18776000E+02    7.35006000E-02 
   6.36916000E+01    2.48937000E-01 
   1.88282000E+01    6.02460000E-01 
   2.72023000E+00    2.56202000E-01 
SP   3    1.000000
   3.06331000E+01    1.11906000E-01   3.83119000E-02 
   7.02614000E+00    9.21666000E-01   2.37403000E-01 
   2.11205000E+00   -2.56919000E-03   8.17592000E-01 
SP   1    1.000000
   6.84009000E-01    1.00000000E+00   1.00000000E+00 
SP   1    1.000000
   2.00878000E-01    1.00000000E+00   1.00000000E+00 
SP   1    1.000000
   6.39000000E-02    1.00000000E+00   1.00000000E+00 
D    1    1.000000
   9.13000000E-01    1.00000000E+00 

11    0
S    6    1.000000
   4.56324000E+03    1.96665000E-03 
   6.82024000E+02    1.52306000E-02 
   1.54973000E+02    7.61269000E-02 
   4.44553000E+01    2.60801000E-01 
   1.30290000E+01    6.16462000E-01 
   1.82773000E+00    2.21006000E-01 
SP   3    1.000000
   2.09642000E+01    1.14660000E-01   4.02487000E-02 
   4.80331000E+00    9.19999000E-01   2.37594000E-01 
   1.45933000E+00   -3.03068000E-03   8.15854000E-01 
SP   1    1.000000
   4.83456000E-01    1.00000000E+00   1.00000000E+00 
SP   1    1.000000
   1.45585000E-01    1.00000000E+00   1.00000000E+00 
SP   1    1.000000
   4.38000000E-02    1.00000000E+00   1.00000000E+00 
D    1    1.000000
   6.26000000E-01    1.00000000E+00 

12    0
S    3    1.000000
   3.38650000E+01    2.54938000E-02 
   5.09479000E+00    1.90373000E-01 
   1.15879000E+00    8.52161000E-01 
S    1    1.000000
   3.25840000E-01    1.00000000E+00 
S    1    1.000000
   1.02741000E-01    1.00000000E+00 
S    1    1.000000
   3.60000000E-02    1.00000000E+00 
P    1    1.000000
   7.50000000E-01    1.00000000E+00 

[MO]
Sym=X
Ene= 2.010014
Spin=Alpha
Occup=1
     1    1.024475441834e-14
     2    4.874692535800e-15
     3    2.872026536745e-14
     4   -1.377322544667e-14
     5    6.256631304384e-02
     6    5.833152872951e-14
     7    1.909511644468e-14
     8   -3.404552665637e-14
     9    1.084059299375e-01
    10   -6.250968444080e-13
    11    3.478192165143e-13
    12   -1.737636729090e-13
    13    1.029497536013e-01
    14    2.748545522092e-12
    15   -1.198463618345e-12
    16    2.620578126162e-12
    17    1.201699183164e-02
    18   -5.903078476697e-15
    19    8.552522097970e-03
    20    7.472403930427e-03
    21   -3.104985492421e-14
    22   -5.316552325075e-15
    23   -5.336577327771e-15
    24   -2.023620075453e-13
    25    1.748289787649e-12
    26   -5.902630058129e-13
    27   -2.670998325435e-14
    28    1.259942322404e-15
    29   -2.988789977068e-05
    30    1.354206849078e-14
    31   -5.429067762305e-14
    32    4.680010886777e-13
    33    1.322082509313e-12
    34    4.896187793600e-15
    35    1.045223829145e-14
    36    5.143885293263e-03
    37    4.711787844008e-14
    38    1.846598588605e-13
    39    4.403619470667e-13
    40    5.805556462225e-13
    41   -2.579736482827e-15
    42   -1.309241663687e-14
    43   -1.928403620663e-03
    44   -3.664586422172e-14
    45   -2.341416091227e-14
    46    2.931969421778e-14
    47   -2.170923991692e-14
    48    3.971959918445e-03
    49   -1.698461780193e-14
    50    1.640579397783e-14
    51    3.837593735700e-14
    52    4.850819183674e-03
    53   -7.274345837853e-13
    54   -2.774226735830e-13
    55    4.724713665950e-13
    56    8.914016522796e-03
    57   -2.632432794136e-12
    58   -1.582959059412e-12
    59   -7.551337673799e-13
    60    1.760169859511e-02
    61    7.540413673175e-15
    62   -5.096672158431e-03
    63    1.612293978860e-03
    64    1.738149112981e-14
    65   -3.138749137276e-14
    66   -1.311796370178e-14
    67   -1.142786497938e-14
    68   -9.943084515268e-16
    69    4.872310095081e-14
    70    2.140243622828e-02
    71   -1.425548470094e-15
    72    7.887217911507e-15
    73    6.723772852474e-14
    74    3.328482242336e-02
    75   -8.889763867537e-14
    76   -2.232212969455e-13
    77   -7.825158121596e-14
    78    3.360146205953e-02
    79   -1.001214521132e-13
    80   -2.958151974741e-14
    81   -7.644211981399e-14
    82   -2.889762201019e-03
    83    1.544135534904e-15
    84    1.693927639238e-03
    85   -8.269809030909e-04
    86    6.525371367614e-16
    87    7.703292538631e-15
    88    3.994686661634e-14
    89    4.870270784185e-14
    90    2.754951493672e-15
    91    2.686607751468e-14
    92   -6.247309100923e-02
    93   -5.695433257602e-14
    94    2.605856117844e-14
    95   -4.011210066581e-15
    96   -1.097034986297e-01
    97   -3.965770774018e-13
    98    8.300946681817e-13
    99    6.110561639041e-13
   100   -6.748220948548e-02
   101    1.590041273773e-11
   102   -1.339172369460e-12
   103   -2.984283133135e-12
   104   -4.196102413588e-02
   105   -1.150370899107e-14
   106   -3.398066340372e-02
   107   -3.529411361384e-02
   108    8.749375258460e-15
   109    3.142701170241e-15
   110    5.151803599250e-15
   111    1.054537116625e-14
   112    2.617503944899e-14
   113   -9.748932366437e-15
   114   -3.521472119027e-01
   115   -5.740725078037e-14
   116   -1.743803185346e-15
   117   -1.930013731560e-14
   118   -4.044822619915e-01
   119   -5.782331311408e-14
   120    1.972562252643e-13
   121    8.315937621006e-14
   122   -2.689440627888e-01
   123   -1.145618274835e-12
   124    4.414477077816e-15
   125    4.440564676317e-13
   126   -1.413940224484e-02
   127   -2.494843853207e-15
   128    1.979829364278e-02
   129    1.236295030690e-02
   130   -3.462599377385e-15
   131    2.242580856250e-16
   132   -9.213344519317e-15
   133   -3.591018438434e-14
   134    1.539741634433e-14
   135    2.252238145679e-14
   136   -1.804240074910e-02
   137    1.046368488929e-13
   138    3.556037133294e-14
   139    7.892692533888e-14
   140   -3.089304584006e-02
   141    5.492576490571e-13
   142    2.173823367416e-13
   143   -6.188729212026e-13
   144   -2.199769370210e-02
   145    5.326013031960e-14
   146   -1.559913815021e-12
   147   -1.528908266598e-13
   148    9.931985837343e-03
   149   -2.188743593785e-15
   150   -3.849885195384e-03
   151    1.535182261710e-03
   152   -1.041322870232e-14
   153    1.443194368766e-15
   154   -8.811539468053e-15
   155    5.283958809052e-15
   156    2.808865879989e-14
   157   -2.138639479673e-17
   158    9.350254893780e-03
   159   -1.947962649643e-13
   160    2.229009969419e-14
   161    2.810136299784e-14
   162    1.713260698226e-02
   163    8.377512548212e-13
   164    1.038650970515e-13
   165    1.263517671478e-13
   166   -9.771579329949e-03
   167   -2.153345784804e-12
   168    2.223175632888e-12
   169    1.897087560355e-13
   170   -2.879331101449e-02
   171   -4.828934733865e-15
   172    5.255626060380e-03
   173   -3.388461809534e-03
   174    5.796020969256e-15
   175    1.923850782620e-14
   176    8.012443940851e-14
   177    6.459017463279e-14
   178    5.316025428007e-14
   179   -4.663927539474e-14
   180    6.811426671108e-02
   181   -6.105809947324e-14
   182    4.143594618904e-14
   183   -7.615125544284e-14
   184    1.143001891001e-01
   185    1.147756795983e-12
   186    2.577643432911e-13
   187    2.604227560376e-13
   188    1.426525463575e-01
   189   -1.367922258516e-11
   190    2.980959091614e-12
   191   -5.549689164065e-12
   192    3.328884713246e-02
   193   -2.739678279815e-14
   194   -1.057799216786e-02
   195   -6.779977943880e-03
   196    2.612889123361e-14
   197   -2.275064322706e-14
   198    4.524251205695e-14
   199   -2.663224725272e-14
   200   -8.776644008026e-13
   201   -2.088127329902e-12
   202    1.066357993642e-15
   203   -1.106515379331e-14
   204    4.924757008589e-03
Sym=X
Ene= 2.004976
Spin=Alpha
Occup=1
     1    9.991425575904e-15
     2    1.925898999738e-14
     3    3.263653728434e-14
     4    2.830712885307e-14
     5   -4.778666515837e-03
     6   -5.526647300666e-14
     7    4.614090635955e-14
     8    2.520332902886e-14
     9   -8.981206726288e-03
    10   -1.185551836117e-13
    11    5.169109005517e-14
    12    1.359100430258e-13
    13    3.469531189030e-02
    14    4.728332534108e-12
    15    6.798077986874e-13
    16    1.621973669246e-12
    17    7.984576739141e-03
    18    1.129332571124e-15
    19    3.007935972071e-02
    20   -6.899116599483e-03
    21   -6.841023627909e-15
    22   -6.695772019146e-16
    23    2.395153059643e-14
    24    1.251131591514e-15
    25    2.427086418409e-13
    26   -1.187844195446e-13
    27   -3.321041467924e-16
    28    3.968414421937e-15
    29   -1.438737085788e-02
    30   -2.985694018229e-14
    31   -3.873662459660e-14
    32    2.404745630478e-13
    33    6.895099315722e-13
    34    4.207579298545e-15
    35   -5.433304622714e-15
    36   -1.112252621668e-04
    37    6.769995888105e-15
    38    1.648924525235e-14
    39    3.123371691506e-13
    40    5.683620008388e-14
    41   -2.536212168811e-15
    42   -4.387894263504e-15
    43    1.203703861950e-02
    44   -1.123829051624e-14
    45   -2.593670069271e-15
    46    7.159457943167e-14
    47   -5.998373228904e-14
    48   -1.566175516888e-02
    49   -4.456772722931e-14
    50    1.070311186628e-13
    51   -8.063787489030e-14
    52   -3.135898218682e-02
    53   -1.147450484725e-13
    54    3.667755328757e-14
    55   -1.367278432580e-14
    56   -1.399030244898e-02
    57   -1.413301362349e-12
    58   -4.490145295761e-13
    59    1.523840924428e-13
    60    7.284755280236e-03
    61    1.546464623761e-17
    62    2.813756716044e-02
    63    2.367038763701e-02
    64   -1.753327533164e-14
    65    7.430925222896e-15
    66   -5.487044421921e-14
    67   -1.941824174747e-14
    68   -4.971769083237e-14
    69    5.414768786277e-14
    70   -3.736234491464e-02
    71   -1.599876446014e-13
    72   -7.381982856727e-14
    73    7.774277253167e-14
    74   -5.808115407163e-02
    75   -1.032660316507e-13
    76   -6.526349147044e-14
    77    4.934483344498e-14
    78   -5.198503713537e-02
    79    1.668190375066e-13
    80    5.003635058223e-14
    81   -7.725685045664e-14
    82   -7.294313242418e-03
    83    6.698060249714e-15
    84   -3.143257634566e-03
    85    2.556444142109e-03
    86   -5.166227594959e-15
    87    9.380555214300e-15
    88    5.792148688253e-14
    89    3.335964123148e-14
    90   -3.249461209726e-15
    91   -1.985929642616e-14
    92    8.622010531190e-02
    93    7.851992588743e-14
    94   -1.665285382663e-14
    95   -3.814780812261e-14
    96    1.549320235036e-01
    97    1.455548834248e-13
    98    1.850878562441e-13
    99    3.266777586347e-14
   100    8.227698214592e-02
   101    3.279131591439e-12
   102   -8.858603504206e-13
   103   -1.959066901918e-13
   104    7.990085441620e-03
   105   -9.263221275584e-15
   106   -2.151712084544e-02
   107   -3.533336130433e-03
   108   -6.573720123066e-15
   109    7.056191494558e-15
   110   -1.132836913528e-14
   111   -1.710822093648e-14
   112   -3.251492121151e-14
   113    4.478117178028e-14
   114   -4.847910814780e-02
   115    5.495022755809e-14
   116   -4.206565331811e-14
   117    4.775714764829e-14
   118   -5.026972303296e-02
   119    4.077249934752e-15
   120    3.602534185981e-15
   121    6.466194239534e-14
   122   -4.909892874544e-02
   123   -2.289700234941e-13
   124    3.884901325270e-14
   125    1.329467390218e-13
   126   -3.167937649734e-02
   127   -1.489535177735e-15
   128   -5.057005980333e-03
   129   -3.048245943009e-03
   130    1.836868108297e-15
   131    3.952871566865e-16
   132   -1.616995440894e-14
   133   -2.683146546129e-14
   134   -2.168513350339e-15
   135   -1.177705828912e-14
   136    1.583176703514e-01
   137    5.738566723629e-14
   138   -6.540511508054e-15
   139   -1.591141416832e-14
   140    2.593749871620e-01
   141    3.832890132128e-14
   142    5.342456462515e-14
   143   -9.624147063080e-14
   144    2.602029002372e-01
   145   -1.329244714607e-13
   146   -4.830736271605e-13
   147   -4.391588694911e-13
   148    1.695764957382e-02
   149   -1.384433065939e-15
   150    5.648265264499e-03
   151   -7.433227282209e-03
   152   -4.655595387542e-15
   153    1.554796765734e-15
   154   -3.170981301310e-14
   155   -4.484456194806e-14
   156   -1.427522045856e-14
   157    4.095339046586e-14
   158   -1.616799190896e-01
   159    8.437411575958e-14
   160   -2.254995427690e-14
   161    7.224741992731e-14
   162   -2.640442472209e-01
   163    1.389782226509e-13
   164   -4.583936632571e-14
   165    3.797099836145e-14
   166   -2.824286542532e-01
   167   -8.905636618602e-13
   168    9.515088463779e-14
   169   -1.229336794443e-13
   170   -4.713847794203e-02
   171   -2.295736445701e-15
   172   -2.242785546947e-03
   173   -1.272444996278e-03
   174    2.875462599387e-15
   175    9.085509944037e-15
   176    2.372288708564e-14
   177    4.923220766880e-15
   178   -1.161347259412e-14
   179    2.385869019353e-14
   180    8.755676915485e-02
   181    5.073589913217e-14
   182   -1.952538924539e-14
   183    4.349136364189e-14
   184    1.494190678979e-01
   185    2.210975923825e-13
   186    5.301193759122e-14
   187   -6.085361749917e-14
   188    1.566682554157e-01
   189   -5.892311429600e-12
   190    2.253668516391e-12
   191   -7.051042838405e-13
   192    1.528911578930e-02
   193   -6.967312567255e-15
   194   -4.561005589409e-03
   195    1.119816321755e-02
   196    6.474871102813e-16
   197   -1.559002092768e-15
   198   -1.014373650049e-14
   199   -4.584184296271e-14
   200   -3.067940190256e-13
   201   -7.810491397536e-13
   202    7.921912146327e-15
   203   -1.787241372160e-15
   204    6.851973168623e-03
Sym=X
Ene= 2.002794
Spin=Alpha
Occup=1
     1   -8.968744916928e-03
     2   -1.503663984682e-02
     3    2.974899797211e-02
     4    1.893894843631e-02
     5    3.359964947789e-15
     6    4.132601787740e-02
     7    5.198885134098e-02
     8    3.228307295640e-02
     9   -1.673831296231e-14
    10    6.757138643261e-02
    11    3.924023273674e-02
    12    4.940268321766e-02
    13    3.063701721927e-14
    14    1.788057204319e-01
    15    5.413628090567e-02
    16    4.755991891563e-02
    17   -2.253812535471e-14
    18   -7.944085461280e-04
    19   -3.889325809800e-14
    20    1.310090609182e-14
    21    6.092879413324e-03
    22    8.926409304900e-04
    23    3.559097261798e-03
    24    6.609251467060e-03
    25    1.274798865066e-03
    26   -5.760201794508e-03
    27    2.345056344861e-04
    28   -8.861067263246e-05
    29   -1.073618596714e-15
    30   -1.410518326585e-02
    31   -1.928436242620e-02
    32   -6.073839720548e-03
    33    2.149526749119e-02
    34    1.533055872083e-03
    35   -1.258755600275e-04
    36   -2.181485365176e-15
    37   -5.469834038911e-03
    38   -1.635155086160e-02
    39   -9.319783750865e-03
    40    4.510927366541e-02
    41    1.393135799528e-03
    42    2.891779164685e-04
    43    1.545358615034e-14
    44    1.162224993923e-02
    45    1.938042026713e-02
    46   -2.971526806286e-02
    47   -1.155110779441e-02
    48    8.627496155983e-14
    49   -5.514961787046e-02
    50   -5.024523439343e-02
    51   -1.861060951370e-02
    52    1.446922218814e-13
    53   -6.226761824767e-02
    54   -4.336607758001e-02
    55   -5.732237505264e-04
    56    9.204666467614e-14
    57   -3.605841597628e-02
    58   -1.137360286825e-02
    59   -2.731691132701e-02
    60    1.413919432717e-13
    61    1.010787268018e-03
    62   -7.665231856960e-14
    63    4.168514887582e-14
    64    6.081543206510e-03
    65   -7.250898695150e-03
    66   -2.339899127808e-03
    67   -3.931935607110e-03
    68    2.407900771416e-03
    69   -1.627312723123e-02
    70    3.398180908318e-14
    71    1.131772832915e-02
    72    1.920983617380e-03
    73   -2.440706854540e-02
    74    8.678959291052e-14
    75    3.725037256220e-03
    76    4.548905305837e-03
    77   -1.663229114772e-02
    78   -3.562050080945e-14
    79   -2.120162445425e-02
    80   -8.279915111629e-03
    81    1.729955711940e-03
    82   -1.051086730608e-13
    83   -2.333058870995e-04
    84    2.028970939061e-14
    85   -6.808593268949e-15
    86   -1.560776465593e-03
    87   -1.395460670147e-03
    88    4.635325275873e-03
    89    8.704421308710e-03
    90   -2.356182168647e-02
    91    4.794297923957e-02
    92    3.596060265745e-14
    93   -2.803834711827e-02
    94   -4.159804755950e-02
    95    8.841246784153e-02
    96    3.503206430275e-14
    97   -3.986646454701e-02
    98    1.910519419050e-02
    99   -2.906704504351e-02
   100    2.077280005181e-14
   101    2.930253115892e-01
   102    2.740825634829e-02
   103   -1.488111839222e-01
   104   -2.385963696088e-13
   105   -6.332839484165e-04
   106   -6.001328715413e-14
   107    2.009918099947e-14
   108    5.379774756459e-02
   109   -3.184166218206e-02
   110   -1.781863880540e-03
   111   -2.698745522143e-03
   112    2.071698077747e-01
   113   -3.030857294915e-01
   114    1.777832322801e-14
   115    1.098590215775e-02
   116    2.365740826737e-01
   117   -3.473716270100e-01
   118    2.019699440680e-14
   119    9.444033759050e-03
   120    1.669875678027e-01
   121   -2.479606408308e-01
   122   -2.409358200517e-15
   123    1.567403875885e-02
   124   -7.282802578370e-03
   125   -2.214653805245e-03
   126    1.671713701789e-13
   127    1.755433870431e-04
   128    3.294666195129e-15
   129    1.418194515344e-15
   130   -1.252496979002e-02
   131    5.214058160840e-03
   132   -1.965201353261e-02
   133   -3.241459471171e-02
   134    7.446756895192e-02
   135   -2.930002162272e-02
   136    1.092473033434e-13
   137    8.748332432630e-02
   138    1.198934256412e-01
   139   -4.134913450675e-02
   140    1.854374485271e-13
   141    1.657587206341e-01
   142    9.680744546327e-02
   143   -6.118974922853e-02
   144    1.523575599855e-13
   145    1.265252226059e-01
   146   -5.184249022079e-02
   147   -2.712632030477e-02
   148    6.079964290267e-14
   149    7.559112078660e-04
   150    2.251358427035e-14
   151   -4.919077477918e-15
   152    1.714367401688e-04
   153   -4.218262479333e-03
   154    1.105247812806e-03
   155    1.878771398281e-03
   156   -3.235767204554e-03
   157   -2.074413696326e-03
   158    5.844827096420e-14
   159   -5.690957023119e-03
   160   -4.449311742982e-03
   161   -3.339267694845e-03
   162    9.399858826748e-14
   163   -6.990858776862e-03
   164   -9.591985665647e-03
   165    2.742706466184e-03
   166    6.098720626157e-14
   167   -4.404115649474e-02
   168   -9.894636371518e-03
   169   -2.833983425324e-02
   170   -3.125158368170e-14
   171   -2.430769006850e-04
   172   -1.261958958056e-16
   173   -1.435825473718e-14
   174    3.243587983680e-03
   175   -8.851902736433e-04
   176    1.881004195583e-02
   177    3.046477119949e-02
   178   -3.312174647476e-02
   179   -5.726932796968e-02
   180    3.569506904271e-15
   181   -7.635464807402e-02
   182   -5.706852874120e-02
   183   -7.916372527606e-02
   184   -4.647856717417e-14
   185   -1.505158977922e-01
   186   -8.108600733034e-03
   187   -7.856104237733e-02
   188    2.527306528903e-14
   189   -5.140149450092e-01
   190    6.045392113454e-02
   191   -6.063020621606e-02
   192    5.475075895197e-14
   193    3.825196115627e-04
   194   -8.716072940367e-16
   195    1.402435576502e-14
   196    2.692895849055e-03
   197   -2.793927344867e-04
   198   -1.183047255830e-02
   199   -1.276684226267e-02
   200   -1.055291197866e-03
   201   -2.639333378455e-02
   202    9.737825769995e-04
   203   -1.255839733983e-03
   204    1.302648119136e-14
Sym=X
Ene= 2.001726
Spin=Alpha
Occup=1
     1   -3.407192910888e-03
     2   -5.929481363070e-03
     3    8.928287417958e-03
     4    2.843547978950e-02
     5   -2.940951477292e-14
     6    1.563130103730e-02
     7    1.359806480196e-02
     8    4.594053081453e-02
     9   -6.587613373571e-14
    10    3.363641909576e-02
    11   -3.420611745161e-03
    12    3.702577547520e-02
    13   -9.593405644721e-14
    14    1.651979221017e-02
    15   -1.646528374250e-02
    16    5.521704801849e-03
    17   -2.689577206039e-14
    18   -1.225136595387e-03
    19   -3.227255101626e-14
    20   -3.994391493561e-15
    21    5.604094928603e-03
    22    5.587464022829e-03
    23    2.216819375607e-02
    24    4.395793795607e-02
    25    2.572569311526e-02
    26   -3.019746687864e-02
    27    3.334366987179e-03
    28    2.424432815865e-03
    29    2.532710682311e-15
    30   -2.157033467156e-02
    31   -3.604558603808e-02
    32   -2.683124977608e-03
    33   -5.453013340632e-03
    34    3.393112357889e-04
    35   -3.062892763462e-03
    36   -1.057779938265e-15
    37   -1.011001546243e-02
    38   -1.536214564442e-02
    39   -2.044708693600e-02
    40    2.002356809012e-02
    41    2.792092544835e-03
    42    3.294312955790e-03
    43   -2.319133104411e-15
    44    1.248038727013e-02
    45    2.074096373519e-02
    46    2.022834805840e-03
    47   -9.767331812245e-03
    48   -1.219330671292e-13
    49   -6.308774262159e-02
    50    6.496058081647e-03
    51   -1.144896797189e-02
    52   -1.862465682034e-13
    53   -6.162649672175e-02
    54   -6.079887564986e-02
    55   -9.268518561743e-02
    56   -1.431447832291e-13
    57   -5.660498070496e-03
    58   -5.203807660343e-02
    59   -8.149438241356e-02
    60   -8.296725782171e-14
    61    7.894198697187e-04
    62    5.477641527873e-14
    63   -3.322663512275e-14
    64    5.267639783298e-02
    65    3.004563266008e-02
    66   -8.416334812361e-03
    67   -1.420327823881e-02
    68   -1.170740422242e-01
    69   -1.673024741163e-01
    70   -3.007110219524e-13
    71    4.127524741998e-02
    72   -1.811270636878e-01
    73   -2.586216532187e-01
    74   -4.620405008451e-13
    75    5.609569385574e-02
    76   -1.513459426132e-01
    77   -2.434950843801e-01
    78   -4.517354698688e-13
    79    1.025802009836e-02
    80   -3.612564143895e-03
    81   -1.243720125628e-02
    82   -1.083344297292e-14
    83    1.065916178669e-03
    84   -3.328611306751e-14
    85    3.943341113768e-15
    86   -1.303305327953e-02
    87   -4.908357956507e-03
    88    1.850234700863e-02
    89    2.874172199595e-02
    90   -7.753986102718e-02
    91   -6.518039773583e-02
    92   -5.578293938915e-14
    93   -7.879399126964e-02
    94   -1.266403732374e-01
    95   -1.082915047449e-01
    96   -1.110966531779e-13
    97   -6.439369030362e-02
    98   -2.439373433997e-02
    99   -1.323989168419e-02
   100   -9.315108058124e-14
   101   -6.081699139151e-02
   102    1.309541073169e-02
   103    1.268638813666e-02
   104    7.455386427153e-14
   105    7.206114448759e-03
   106   -3.357455843448e-14
   107    1.048806538014e-14
   108   -1.194277376129e-02
   109   -1.371205069263e-02
   110    1.238474565157e-02
   111    1.755471972256e-02
   112    1.366500129014e-01
   113    1.309741563052e-01
   114   -1.157187028615e-13
   115   -5.314156696289e-02
   116    1.577067790048e-01
   117    1.502832500960e-01
   118   -1.517607921111e-13
   119    5.382212103436e-02
   120    5.725211940009e-02
   121    7.299828806362e-02
   122   -3.075933118366e-14
   123    3.015013583904e-02
   124   -1.708523930293e-03
   125   -1.794818478640e-03
   126   -5.476117182609e-14
   127    8.825919143997e-03
   128    1.261632298619e-14
   129    1.006688897316e-14
   130   -5.699477414405e-03
   131   -1.434328720738e-02
   132   -1.323784284485e-02
   133   -2.204910066892e-02
   134   -1.491495601025e-02
   135   -3.036287744881e-02
   136    6.360075373243e-14
   137    5.708335507404e-02
   138   -1.417740658605e-02
   139   -4.024756929713e-02
   140    1.011935961356e-13
   141    1.382971809706e-01
   142   -6.774844191750e-02
   143   -4.458889080161e-02
   144    1.606639882380e-13