[Molden Format]
[Atoms] (Angs)
  C      1    6     -0.13173890     -1.79208980      0.00000000
  H      2    1     -2.14962000     -1.30978739      0.00000000
  H      3    1     -0.31599560     -2.86503115      0.00000000
  H      4    1      0.14407746      2.04280963     -0.00000000
  C      5    6     -1.17258876      0.48030861      0.00000000
  O      6    8     -2.25008207      1.06833796      0.00000000
  C      7    6      1.31158357      0.28308717     -0.00000000
  O      8    8      2.36361668      0.96389345     -0.00000000
  N      9    7      0.07017030      1.03138997     -0.00000000
  N     10    7     -1.19586868     -0.94982644      0.00000000
  C     11    6      1.19165158     -1.13169473     -0.00000000
  H     12    1      2.09970506     -1.73445456     -0.00000000
[GTO]
1    0
S    6    1.000000
   4.56324000E+03    1.96665000E-03 
   6.82024000E+02    1.52306000E-02 
   1.54973000E+02    7.61269000E-02 
   4.44553000E+01    2.60801000E-01 
   1.30290000E+01    6.16462000E-01 
   1.82773000E+00    2.21006000E-01 
SP   3    1.000000
   2.09642000E+01    1.14660000E-01   4.02487000E-02 
   4.80331000E+00    9.19999000E-01   2.37594000E-01 
   1.45933000E+00   -3.03068000E-03   8.15854000E-01 
SP   1    1.000000
   4.83456000E-01    1.00000000E+00   1.00000000E+00 
SP   1    1.000000
   1.45585000E-01    1.00000000E+00   1.00000000E+00 
SP   1    1.000000
   4.38000000E-02    1.00000000E+00   1.00000000E+00 
D    1    1.000000
   6.26000000E-01    1.00000000E+00 

2    0
S    3    1.000000
   3.38650000E+01    2.54938000E-02 
   5.09479000E+00    1.90373000E-01 
   1.15879000E+00    8.52161000E-01 
S    1    1.000000
   3.25840000E-01    1.00000000E+00 
S    1    1.000000
   1.02741000E-01    1.00000000E+00 
S    1    1.000000
   3.60000000E-02    1.00000000E+00 
P    1    1.000000
   7.50000000E-01    1.00000000E+00 

3    0
S    3    1.000000
   3.38650000E+01    2.54938000E-02 
   5.09479000E+00    1.90373000E-01 
   1.15879000E+00    8.52161000E-01 
S    1    1.000000
   3.25840000E-01    1.00000000E+00 
S    1    1.000000
   1.02741000E-01    1.00000000E+00 
S    1    1.000000
   3.60000000E-02    1.00000000E+00 
P    1    1.000000
   7.50000000E-01    1.00000000E+00 

4    0
S    3    1.000000
   3.38650000E+01    2.54938000E-02 
   5.09479000E+00    1.90373000E-01 
   1.15879000E+00    8.52161000E-01 
S    1    1.000000
   3.25840000E-01    1.00000000E+00 
S    1    1.000000
   1.02741000E-01    1.00000000E+00 
S    1    1.000000
   3.60000000E-02    1.00000000E+00 
P    1    1.000000
   7.50000000E-01    1.00000000E+00 

5    0
S    6    1.000000
   4.56324000E+03    1.96665000E-03 
   6.82024000E+02    1.52306000E-02 
   1.54973000E+02    7.61269000E-02 
   4.44553000E+01    2.60801000E-01 
   1.30290000E+01    6.16462000E-01 
   1.82773000E+00    2.21006000E-01 
SP   3    1.000000
   2.09642000E+01    1.14660000E-01   4.02487000E-02 
   4.80331000E+00    9.19999000E-01   2.37594000E-01 
   1.45933000E+00   -3.03068000E-03   8.15854000E-01 
SP   1    1.000000
   4.83456000E-01    1.00000000E+00   1.00000000E+00 
SP   1    1.000000
   1.45585000E-01    1.00000000E+00   1.00000000E+00 
SP   1    1.000000
   4.38000000E-02    1.00000000E+00   1.00000000E+00 
D    1    1.000000
   6.26000000E-01    1.00000000E+00 

6    0
S    6    1.000000
   8.58850000E+03    1.89515000E-03 
   1.29723000E+03    1.43859000E-02 
   2.99296000E+02    7.07320000E-02 
   8.73771000E+01    2.40001000E-01 
   2.56789000E+01    5.94797000E-01 
   3.74004000E+00    2.80802000E-01 
SP   3    1.000000
   4.21175000E+01    1.13889000E-01   3.65114000E-02 
   9.62837000E+00    9.20811000E-01   2.37153000E-01 
   2.85332000E+00   -3.27447000E-03   8.19702000E-01 
SP   1    1.000000
   9.05661000E-01    1.00000000E+00   1.00000000E+00 
SP   1    1.000000
   2.55611000E-01    1.00000000E+00   1.00000000E+00 
SP   1    1.000000
   8.45000000E-02    1.00000000E+00   1.00000000E+00 
D    1    1.000000
   1.29200000E+00    1.00000000E+00 

7    0
S    6    1.000000
   4.56324000E+03    1.96665000E-03 
   6.82024000E+02    1.52306000E-02 
   1.54973000E+02    7.61269000E-02 
   4.44553000E+01    2.60801000E-01 
   1.30290000E+01    6.16462000E-01 
   1.82773000E+00    2.21006000E-01 
SP   3    1.000000
   2.09642000E+01    1.14660000E-01   4.02487000E-02 
   4.80331000E+00    9.19999000E-01   2.37594000E-01 
   1.45933000E+00   -3.03068000E-03   8.15854000E-01 
SP   1    1.000000
   4.83456000E-01    1.00000000E+00   1.00000000E+00 
SP   1    1.000000
   1.45585000E-01    1.00000000E+00   1.00000000E+00 
SP   1    1.000000
   4.38000000E-02    1.00000000E+00   1.00000000E+00 
D    1    1.000000
   6.26000000E-01    1.00000000E+00 

8    0
S    6    1.000000
   8.58850000E+03    1.89515000E-03 
   1.29723000E+03    1.43859000E-02 
   2.99296000E+02    7.07320000E-02 
   8.73771000E+01    2.40001000E-01 
   2.56789000E+01    5.94797000E-01 
   3.74004000E+00    2.80802000E-01 
SP   3    1.000000
   4.21175000E+01    1.13889000E-01   3.65114000E-02 
   9.62837000E+00    9.20811000E-01   2.37153000E-01 
   2.85332000E+00   -3.27447000E-03   8.19702000E-01 
SP   1    1.000000
   9.05661000E-01    1.00000000E+00   1.00000000E+00 
SP   1    1.000000
   2.55611000E-01    1.00000000E+00   1.00000000E+00 
SP   1    1.000000
   8.45000000E-02    1.00000000E+00   1.00000000E+00 
D    1    1.000000
   1.29200000E+00    1.00000000E+00 

9    0
S    6    1.000000
   6.29348000E+03    1.96979000E-03 
   9.49044000E+02    1.49613000E-02 
   2.18776000E+02    7.35006000E-02 
   6.36916000E+01    2.48937000E-01 
   1.88282000E+01    6.02460000E-01 
   2.72023000E+00    2.56202000E-01 
SP   3    1.000000
   3.06331000E+01    1.11906000E-01   3.83119000E-02 
   7.02614000E+00    9.21666000E-01   2.37403000E-01 
   2.11205000E+00   -2.56919000E-03   8.17592000E-01 
SP   1    1.000000
   6.84009000E-01    1.00000000E+00   1.00000000E+00 
SP   1    1.000000
   2.00878000E-01    1.00000000E+00   1.00000000E+00 
SP   1    1.000000
   6.39000000E-02    1.00000000E+00   1.00000000E+00 
D    1    1.000000
   9.13000000E-01    1.00000000E+00 

10    0
S    6    1.000000
   6.29348000E+03    1.96979000E-03 
   9.49044000E+02    1.49613000E-02 
   2.18776000E+02    7.35006000E-02 
   6.36916000E+01    2.48937000E-01 
   1.88282000E+01    6.02460000E-01 
   2.72023000E+00    2.56202000E-01 
SP   3    1.000000
   3.06331000E+01    1.11906000E-01   3.83119000E-02 
   7.02614000E+00    9.21666000E-01   2.37403000E-01 
   2.11205000E+00   -2.56919000E-03   8.17592000E-01 
SP   1    1.000000
   6.84009000E-01    1.00000000E+00   1.00000000E+00 
SP   1    1.000000
   2.00878000E-01    1.00000000E+00   1.00000000E+00 
SP   1    1.000000
   6.39000000E-02    1.00000000E+00   1.00000000E+00 
D    1    1.000000
   9.13000000E-01    1.00000000E+00 

11    0
S    6    1.000000
   4.56324000E+03    1.96665000E-03 
   6.82024000E+02    1.52306000E-02 
   1.54973000E+02    7.61269000E-02 
   4.44553000E+01    2.60801000E-01 
   1.30290000E+01    6.16462000E-01 
   1.82773000E+00    2.21006000E-01 
SP   3    1.000000
   2.09642000E+01    1.14660000E-01   4.02487000E-02 
   4.80331000E+00    9.19999000E-01   2.37594000E-01 
   1.45933000E+00   -3.03068000E-03   8.15854000E-01 
SP   1    1.000000
   4.83456000E-01    1.00000000E+00   1.00000000E+00 
SP   1    1.000000
   1.45585000E-01    1.00000000E+00   1.00000000E+00 
SP   1    1.000000
   4.38000000E-02    1.00000000E+00   1.00000000E+00 
D    1    1.000000
   6.26000000E-01    1.00000000E+00 

12    0
S    3    1.000000
   3.38650000E+01    2.54938000E-02 
   5.09479000E+00    1.90373000E-01 
   1.15879000E+00    8.52161000E-01 
S    1    1.000000
   3.25840000E-01    1.00000000E+00 
S    1    1.000000
   1.02741000E-01    1.00000000E+00 
S    1    1.000000
   3.60000000E-02    1.00000000E+00 
P    1    1.000000
   7.50000000E-01    1.00000000E+00 

[MO]
Sym=X
Ene= 2.007479
Spin=Alpha
Occup=1
     1   -4.085037584248e-14
     2   -4.621561769182e-14
     3   -1.564406414507e-14
     4    8.211506062744e-15
     5    8.881355133788e-02
     6    5.828900900820e-14
     7   -1.881717080942e-14
     8    4.040886471102e-14
     9    1.546804033334e-01
    10    4.424803395652e-13
    11   -2.014985508121e-13
    12    5.389064526200e-14
    13    1.398802976877e-01
    14   -4.058096897347e-12
    15   -4.080401171925e-13
    16   -1.927749852702e-12
    17    1.781698686468e-02
    18   -8.436543389107e-16
    19    1.077887393288e-02
    20    1.204010053995e-02
    21    9.709344696707e-15
    22   -1.869568876381e-15
    23   -1.093980735114e-14
    24   -5.438417594728e-14
    25   -6.539054530511e-13
    26    1.404587633182e-13
    27   -5.345724628701e-15
    28    1.514923485145e-15
    29    1.111421527888e-04
    30    3.420411989414e-15
    31    3.468174405765e-14
    32   -2.446768396265e-13
    33   -9.533186160317e-13
    34   -4.851734726749e-16
    35   -4.812595097751e-15
    36    6.831401368707e-03
    37    1.443628757378e-14
    38    1.332504335218e-13
    39   -2.864055733320e-13
    40   -4.025582192600e-13
    41   -2.151025314365e-15
    42   -1.687585690062e-14
    43   -4.706322209534e-03
    44   -6.703238793150e-14
    45   -4.534906426858e-14
    46    1.263047929565e-14
    47    5.194010119620e-14
    48   -9.826972407342e-02
    49   -6.687127453044e-14
    50    1.771330538411e-14
    51    6.127652083870e-14
    52   -1.741796832992e-01
    53    1.626930452058e-13
    54    2.338654765037e-13
    55    1.912030706803e-13
    56   -1.016719835579e-01
    57    1.304639930729e-12
    58    6.783304401229e-13
    59    3.997109619756e-13
    60   -1.939183971805e-02
    61    8.122811520361e-15
    62    2.112425632641e-02
    63   -1.949189349438e-02
    64    8.416196259003e-15
    65    1.396681715955e-14
    66   -9.796397859006e-16
    67    3.701436653901e-17
    68   -2.570656601338e-14
    69   -5.680944657097e-14
    70   -2.428508981407e-01
    71   -5.701956082147e-16
    72   -1.506410974549e-14
    73   -5.030720881854e-14
    74   -2.833307708223e-01
    75    7.474419091358e-14
    76   -1.117086880045e-15
    77   -7.184627054334e-14
    78   -1.767534860948e-01
    79   -2.460024539440e-13
    80   -6.371740323309e-14
    81    1.100348886027e-13
    82    5.611692061616e-03
    83   -2.634869982448e-15
    84   -1.891412655433e-02
    85    1.066975906367e-02
    86    1.602034282709e-15
    87   -1.257700738070e-15
    88    3.986242225768e-14
    89    2.325352323878e-14
    90    1.971236357855e-14
    91   -3.855419341167e-15
    92    5.302031773073e-02
    93    4.522821278400e-14
    94    4.120625941535e-14
    95    3.751284536016e-15
    96    9.319449374839e-02
    97   -1.377956476144e-13
    98   -1.264884617494e-13
    99   -1.184539983301e-14
   100    6.293545098515e-02
   101   -1.094945166547e-11
   102    1.092173118591e-12
   103    2.464641006662e-12
   104    1.057637159411e-02
   105    1.873886275571e-15
   106    4.601998423939e-03
   107   -1.389727609657e-02
   108   -8.119067282759e-16
   109    2.115822361247e-15
   110   -6.006294542786e-14
   111   -6.655023687728e-14
   112   -2.215219994997e-14
   113    5.481598540637e-15
   114    2.858507057430e-02
   115    8.237201761334e-14
   116   -1.150943884667e-14
   117   -1.061222781433e-14
   118    4.640340416820e-02
   119    5.745875392268e-15
   120   -5.917436836411e-14
   121    4.012870100400e-14
   122    3.141349957510e-02
   123    3.647853943441e-13
   124    2.898696630346e-14
   125   -3.145904359066e-13
   126   -1.779791921957e-02
   127    9.582780997061e-16
   128   -4.953236151920e-03
   129   -3.494212639034e-03
   130    2.693185948085e-15
   131    1.270934620070e-16
   132    2.951499832625e-14
   133    1.923142465552e-14
   134   -3.047840044449e-14
   135    3.535580626043e-14
   136   -5.089765158117e-02
   137    5.396403598693e-14
   138   -6.050236001837e-14
   139    6.350583382504e-14
   140   -8.628585115102e-02
   141   -2.936749305979e-13
   142   -4.014509529044e-14
   143   -2.808512170134e-14
   144   -7.533484927119e-02
   145    4.093083272841e-13
   146    7.614206891149e-13
   147    7.684387596231e-14
   148    1.955598283834e-03
   149    3.323710357015e-15
   150    1.209008549642e-02
   151    1.493875354058e-03
   152    6.942023677499e-15
   153    2.530915792276e-15
   154   -7.626371814990e-14
   155   -5.245105039917e-14
   156    1.185548775857e-14
   157   -4.498929151380e-14
   158    1.701820485498e-02
   159   -3.044507518704e-14
   160    5.470176689643e-14
   161   -8.456615986940e-14
   162    2.748483814198e-02
   163   -1.386347391816e-13
   164   -2.828684952499e-13
   165    1.145222529439e-14
   166    1.557117473720e-02
   167    9.647483143335e-13
   168   -9.794799733651e-13
   169    3.231157924967e-13
   170   -1.146927549563e-02
   171   -5.579944056730e-16
   172    7.668031161948e-03
   173   -1.160436543295e-02
   174    5.217976360691e-15
   175   -6.857429855610e-15
   176    1.028399977807e-14
   177    7.741676323489e-15
   178   -3.557677328022e-14
   179    2.312273975060e-14
   180    1.083818080178e-01
   181    1.519122009226e-14
   182   -3.603122630325e-14
   183    4.807057373155e-14
   184    1.878175582695e-01
   185   -2.403115816006e-13
   186   -1.771017238199e-13
   187    3.483670677973e-14
   188    1.765333007267e-01
   189    1.276755444274e-11
   190   -2.644450193689e-12
   191    3.151513753094e-12
   192    9.891763069991e-03
   193    1.593976548086e-14
   194   -1.480491280204e-02
   195    3.678274254597e-03
   196   -9.912614978056e-15
   197    1.535937728343e-14
   198   -3.206317446003e-14
   199    4.898570415863e-15
   200    3.260625219159e-13
   201    1.450001487452e-12
   202    5.572005040272e-18
   203    5.348570129506e-15
   204    8.776905037347e-03
Sym=X
Ene= 2.004144
Spin=Alpha
Occup=1
     1    8.493031539789e-03
     2    1.417793378751e-02
     3    8.421181385690e-03
     4   -2.651038544294e-02
     5   -1.744438554891e-14
     6   -3.866803734921e-02
     7    1.380995844412e-02
     8   -4.427107056637e-02
     9   -3.625786311352e-14
    10   -5.177672068047e-02
    11   -5.965311267805e-03
    12   -4.457732253789e-02
    13   -9.150630204775e-15
    14   -9.730233721468e-02
    15   -1.419550358615e-03
    16   -1.767964662609e-02
    17   -2.863723900021e-14
    18    1.864268099214e-03
    19    8.629458688853e-14
    20   -1.919218480002e-14
    21   -8.308543846588e-03
    22    4.813570270445e-03
    23    2.494883224347e-03
    24   -8.005360111158e-03
    25   -3.547589136133e-02
    26    2.315869803861e-02
    27    2.650157277268e-04
    28    4.704145473029e-04
    29   -3.114621475736e-15
    30    1.738944363127e-02
    31    2.838520292629e-02
    32    1.052057889796e-02
    33    2.931733307920e-03
    34    4.674919189536e-04
    35    4.198759351247e-04
    36   -4.278070268927e-15
    37   -5.435321988640e-04
    38    1.259339932543e-02
    39    3.397360616690e-02
    40   -5.049708541857e-02
    41    1.319151963678e-03
    42   -1.061255613304e-03
    43   -9.425121759287e-15
    44   -1.102385412605e-02
    45   -1.805286742028e-02
    46   -4.563428634014e-02
    47   -5.494527427871e-03
    48   -3.624019298700e-14
    49    5.291005104342e-02
    50   -7.753253248317e-02
    51   -1.391256226550e-02
    52   -5.794957599152e-14
    53    6.201586914932e-02
    54    3.576240828467e-02
    55    6.394216835057e-02
    56   -1.801569511414e-13
    57    3.305903096889e-02
    58    5.648933413459e-02
    59    8.311812210230e-02
    60    1.498873771879e-13
    61   -2.382202563350e-03
    62    1.243835211797e-13
    63   -4.108558477583e-14
    64   -4.798375584026e-02
    65   -3.403959314756e-02
    66   -5.796470480023e-03
    67   -8.244204161044e-03
    68    2.129599244108e-01
    69    2.501004594158e-01
    70    5.161652821201e-14
    71    2.539647838396e-02
    72    2.452978124109e-01
    73    2.868769728173e-01
    74    5.535527817768e-14
    75   -2.399057955646e-02
    76    1.446524893018e-01
    77    2.105616953422e-01
    78    2.413428763212e-13
    79   -2.296620450371e-02
    80   -4.167581405029e-03
    81    3.846046649204e-03
    82   -1.134227891913e-13
    83   -3.338189722339e-03
    84   -1.718591707348e-14
    85    1.356348855856e-14
    86    1.498837673250e-02
    87    1.575556918436e-03
    88   -1.400022214725e-02
    89   -2.348619575079e-02
    90   -2.799896059675e-02
    91    6.125509761251e-03
    92    8.705766845667e-14
    93    6.427569292856e-02
    94   -4.754432124519e-02
    95    8.097520929239e-03
    96    1.145872352008e-13
    97    5.501380649034e-02
    98   -4.624015680181e-02
    99    2.717650625861e-02
   100    1.542598274780e-13
   101   -2.393680859976e-01
   102   -1.411291485836e-02
   103    1.283968903603e-01
   104   -1.479360742962e-13
   105   -2.251058588437e-03
   106    1.762183566749e-13
   107    1.112997473606e-14
   108   -2.949240922054e-02
   109    8.639485248117e-03
   110    4.012061573939e-03
   111    6.811216814327e-03
   112   -6.560695819283e-02
   113    1.070638697412e-01
   114    1.666146279131e-13
   115   -2.067195259746e-02
   116   -1.016364939074e-01
   117    1.651828486317e-01
   118    2.759481512707e-13
   119   -1.802857732384e-02
   120   -9.213000965800e-02
   121    1.511243597463e-01
   122   -2.728362090255e-14
   123    2.105739773284e-02
   124   -1.058781892222e-02
   125    2.047524690138e-03
   126    1.938383414250e-13
   127   -6.214629775352e-05
   128   -2.167175765837e-14
   129   -2.130829302213e-14
   130    7.976212208440e-03
   131   -3.923947059861e-03
   132    2.375762918817e-02
   133    3.933514926639e-02
   134    4.690665876205e-02
   135    1.925851404631e-02
   136   -8.789598293158e-14
   137   -1.043232949999e-01
   138    6.565683859242e-02
   139    1.976461410475e-02
   140   -1.575879675826e-13
   141   -1.991614424020e-01
   142    6.710576233217e-02
   143    3.682136928816e-02
   144   -1.026560781228e-13
   145   -1.900201108636e-01
   146   -4.178377511671e-03
   147   -2.618129001330e-03
   148   -3.692761408040e-14
   149   -1.333423354498e-03
   150   -3.694002835842e-14
   151   -5.120993126982e-15
   152    1.243042492065e-03
   153   -3.199809594468e-03
   154   -1.260630861954e-02
   155   -2.085441741386e-02
   156   -1.734549508143e-02
   157    5.440066444223e-02
   158   -6.286162161039e-14
   159    5.589853286215e-02
   160   -3.127497465708e-02
   161    8.282916818355e-02
   162   -1.128916454795e-13
   163    1.171461217512e-01
   164   -1.866665372805e-02
   165    8.275467626704e-02
   166   -1.879737590017e-14
   167    1.322737163939e-01
   168   -1.031104378072e-02
   169    2.940092180462e-03
   170   -1.261551653593e-14
   171    4.299762763995e-04
   172    1.348527377763e-15
   173    2.440108792975e-14
   174   -2.584215760125e-03
   175    7.663621923982e-05
   176   -4.805659630639e-03
   177   -7.759235702194e-03
   178    2.544700183830e-03
   179    2.464108554807e-02
   180    2.493514873266e-14
   181    1.920005142650e-02
   182    7.279398392922e-03
   183    3.324767474713e-02
   184    1.176631629610e-14
   185    6.352083406849e-02
   186   -9.969747455355e-03
   187    3.670758403289e-02
   188   -1.129452600725e-15
   189    3.440743987179e-01
   190   -2.478568340538e-02
   191    6.796735669402e-02
   192    3.796102587887e-14
   193    6.457908142080e-04
   194    4.089096459994e-15
   195   -2.813142888228e-14
   196   -3.129652974864e-03
   197   -1.156196668555e-03
   198   -4.573777898569e-03
   199   -8.412124284267e-03
   200    9.204148397090e-04
   201    1.624614151356e-02
   202    1.182905626501e-03
   203   -7.106123322327e-04
   204   -8.942735317406e-15
Sym=X
Ene= 2.002073
Spin=Alpha
Occup=1
     1   -1.144878396954e-13
     2   -1.205544636450e-13
     3   -1.759398924595e-13
     4    9.827909770360e-14
     5   -7.667414441562e-02
     6    1.424843420990e-13
     7   -2.875779342407e-13
     8    1.773654175590e-13
     9   -1.315463645207e-01
    10   -9.736338910942e-14
    11   -2.051612794551e-13
    12   -2.851155247304e-13
    13   -1.051874378217e-01
    14   -7.970874296949e-12
    15   -5.119005964606e-13
    16   -3.628795670362e-12
    17   -1.837010413485e-02
    18   -8.800076187669e-15
    19    2.456632137892e-03
    20   -1.336346456360e-02
    21    1.364626878165e-14
    22   -2.198678994057e-14
    23   -8.007646894491e-15
    24    1.092476504135e-13
    25   -3.326239301018e-13
    26    2.466489364784e-13
    27    1.099984457406e-14
    28   -6.818486127352e-15
    29   -5.756051273610e-03
    30   -3.893440082529e-14
    31   -9.642700756822e-14
    32   -4.485886371475e-13
    33   -1.409035644384e-12
    34   -7.954732109093e-15
    35   -1.017007948794e-14
    36   -6.144808364207e-03
    37   -7.735854120913e-14
    38   -1.036588179003e-13
    39   -1.096311908256e-13
    40   -5.037648651474e-13
    41    1.022180969739e-14
    42    2.783266281604e-14
    43   -5.544745175511e-03
    44   -1.289006295933e-14
    45   -6.224251845191e-14
    46   -3.056712859464e-13
    47    2.530184482846e-13
    48   -5.398077905220e-02
    49    3.236743056183e-13
    50   -4.528335673341e-13
    51    4.184406132004e-13
    52   -9.367244390818e-02
    53    3.086489909048e-13
    54   -2.647894388021e-13
    55    7.135394966765e-14
    56   -4.743273645485e-02
    57    3.570479803631e-12
    58    1.145393079694e-12
    59   -4.503406816497e-13
    60   -2.318211901243e-02
    61   -1.379966480199e-14
    62   -1.534281184223e-02
    63    4.908178116245e-03
    64    1.922896561928e-13
    65   -1.060186286404e-15
    66    1.986423896488e-14
    67    3.131629593676e-14
    68    2.477118449497e-13
    69   -1.291598474737e-12
    70    2.246530292834e-02
    71   -1.522883622645e-13
    72    2.722614502985e-13
    73   -1.479028216736e-12
    74    2.289014900919e-02
    75   -3.574726821843e-13
    76   -1.094429382876e-14
    77   -9.314631964818e-13
    78    2.406967151698e-02
    79   -6.515361125943e-13
    80   -2.698541869779e-13
    81    1.690387170553e-13
    82    2.298528742431e-02
    83   -3.775822460865e-14
    84   -3.516003374190e-03
    85    1.668369490040e-03
    86   -8.191496202854e-16
    87   -7.767888038817e-14
    88   -1.607023749964e-13
    89   -2.036292539863e-13
    90    1.288086695986e-13
    91    1.879644938273e-14
    92    6.583303863199e-02
    93    4.095740170455e-13
    94    2.661928623981e-13
    95    1.126918836394e-14
    96    1.154191774743e-01
    97    9.246030231272e-14
    98   -1.204947925449e-13
    99    2.737105978827e-13
   100    9.795640067437e-02
   101   -1.623036952834e-11
   102    1.208641402710e-12
   103    4.102522951426e-12
   104    2.113100215798e-02
   105   -1.851550108903e-14
   106    4.464222987619e-02
   107    2.708163875846e-02
   108   -1.309608358916e-13
   109    1.433191980496e-13
   110   -9.929841911615e-15
   111   -2.637230330346e-15
   112   -5.476450111981e-13
   113    3.855293210562e-13
   114    1.962710986530e-01
   115   -4.093588125099e-14
   116   -8.210485249661e-13
   117    5.931142741014e-13
   118    3.073700535082e-01
   119   -3.207146096965e-13
   120   -6.909039843170e-13
   121    6.722683234468e-13
   122    2.882133335094e-01
   123    5.085965380242e-13
   124   -1.371471982178e-13
   125   -3.095122537060e-13
   126    3.885405397458e-02
   127   -1.089227300120e-14
   128   -1.616718583060e-02
   129   -9.967047393009e-03
   130    4.134884017079e-14
   131    2.253440706256e-15
   132   -1.718763555219e-13
   133   -4.873765952026e-14
   134   -1.560998545193e-13
   135    4.027987900044e-14
   136   -8.696460358516e-02
   137   -5.261946115982e-13
   138   -2.058855801220e-13
   139    6.991735629392e-14
   140   -1.401790983414e-01
   141   -4.923420155254e-13
   142   -4.111404131645e-13
   143    1.671796759957e-13
   144   -1.563707507854e-01
   145   -3.053701500317e-13
   146    3.296658614737e-13
   147    6.311218025576e-14
   148   -1.614644432508e-02
   149    7.792575261138e-15
   150    1.042068820885e-02
   151    2.986641469445e-03
   152    2.034908398426e-14
   153   -2.639515686107e-14
   154    4.371865186944e-14
   155    6.540172799490e-14
   156    8.360222576148e-14
   157   -3.053471061481e-13
   158   -8.993717354386e-02
   159   -1.489347706031e-13
   160    1.392312370510e-13
   161   -4.747468485496e-13
   162   -1.490333008624e-01
   163   -2.712481784872e-13
   164    2.075432286453e-13
   165   -3.489959298437e-13
   166   -1.181793864442e-01
   167    1.400854029605e-12
   168   -3.511808097640e-13
   169   -1.026293010310e-15
   170    2.483638145313e-02
   171   -1.664087319202e-15
   172   -7.725657066252e-03
   173   -4.531964178438e-04
   174    2.764017541811e-15
   175   -2.954397184777e-14
   176   -4.515491360538e-14
   177   -1.578316529133e-14
   178   -7.775533178889e-14
   179    2.105657062000e-13
   180   -5.071908659720e-02
   181   -9.906805515847e-14
   182   -8.470479123033e-14
   183    2.949723903497e-13
   184   -8.343701029141e-02
   185    1.364709150592e-13
   186   -3.898860095910e-13
   187    4.446948173146e-13
   188   -1.143068004459e-01
   189    1.978051464789e-11
   190   -3.206743849310e-12
   191    4.912086039011e-12
   192   -1.215032943038e-02
   193    1.623576274182e-14
   194    1.237118351555e-02
   195    8.280371237597e-03
   196   -7.079303580014e-16
   197    2.673423072443e-14
   198   -1.754012868625e-13
   199   -1.968046636862e-13
   200    3.391393049851e-13
   201    1.860389326247e-12
   202    1.039542970004e-14
   203   -7.435958723610e-15
   204   -3.125906086120e-03
Sym=X
Ene= 2.001667
Spin=Alpha
Occup=1
     1    7.025174425350e-03
     2    1.140380342853e-02
     3    2.361634867549e-02
     4   -1.558112759889e-02
     5   -3.550307338022e-13
     6   -3.186074212820e-02
     7    4.255923875709e-02
     8   -2.662512326328e-02
     9   -6.124488054630e-13
    10   -1.571275824709e-02
    11    2.202481180873e-02
    12   -8.732813068361e-03
    13   -4.175415684206e-13
    14    1.760309941156e-01
    15    5.703238602358e-02
    16    8.178626233367e-02
    17   -9.685255732128e-14
    18    1.477130560841e-03
    19    8.649647121873e-14
    20   -7.050729760587e-14
    21   -4.180723232075e-03
    22    1.932415057723e-03
    23   -5.496245346871e-03
    24   -8.376796327922e-03
    25   -1.959301283129e-02
    26   -2.864425858323e-03
    27   -9.691478109322e-04
    28    1.762365485925e-03
    29   -3.877336889510e-14
    30    5.703748027171e-03
    31    1.261121182751e-02
    32    9.437998279764e-03
    33    4.734086409513e-02
    34    1.035747612335e-03
    35    1.578866340072e-04
    36   -2.881257961031e-14
    37   -7.028598154790e-03
    38   -9.210583050422e-04
    39    7.091390022097e-03
    40    1.248464299603e-02
    41   -2.284660853997e-03
    42    4.615787525255e-04
    43   -5.202254198799e-15
    44    1.964254183181e-02
    45    3.063399057588e-02
    46    7.191658573843e-02
    47   -7.363077353582e-02
    48   -2.726503523890e-13
    49   -8.699379675213e-02
    50    1.101441487810e-01
    51   -1.254815194906e-01
    52   -4.946606378147e-13
    53   -8.171341534189e-02
    54    1.505652569952e-02
    55    1.047368569833e-02
    56   -2.773692936146e-13
    57   -1.765368959942e-02
    58    8.268974969372e-03
    59    3.167544226647e-02
    60    8.294172559523e-14
    61    6.293464286063e-03
    62    4.570107455781e-14
    63    2.348635591416e-14
    64   -4.035520123084e-02
    65    3.610437039962e-03
    66    1.560334548553e-03
    67    1.731901221017e-03
    68   -9.561181363024e-02
    69    2.526646259059e-01
    70   -3.235460127778e-15
    71    3.485101436650e-03
    72   -1.078939504236e-01
    73    2.884365860462e-01
    74   -2.033844913890e-14
    75    7.931687336777e-02
    76   -2.103619486317e-02
    77    1.748946392972e-01
    78    1.498886935269e-13
    79    1.685207169885e-02
    80   -2.466122245197e-03
    81   -4.496371728260e-04
    82   -6.483812691669e-14
    83    9.125319216789e-03
    84   -2.297153117784e-14
    85    2.501718828496e-14
    86   -3.358081364506e-03
    87    1.668006764687e-02
    88    1.492014244457e-02
    89    2.505136878861e-02
    90   -1.017198114168e-02
    91   -1.140834618078e-02
    92    3.173413836753e-13
    93   -7.266641301511e-02
    94   -1.725708406141e-02
    95   -1.221774822299e-02
    96    5.377642425185e-13
    97   -8.155422766315e-02
    98    2.966099885688e-02
    99   -7.004143329864e-02
   100    4.565835305829e-13
   101    2.120854376193e-01
   102    4.693250420308e-02
   103   -1.070465208216e-01
   104   -1.168042960584e-13
   105    3.268412901530e-03
   106    2.530576980073e-13
   107    1.048151076643e-13
   108    3.624031715494e-02
   109   -2.478394705796e-02
   110   -1.172082873129e-02
   111   -1.986132235669e-02
   112    1.262341316569e-01
   113   -1.128443734197e-01
   114    7.857782339133e-13
   115    5.999430698679e-02
   116    1.929900473944e-01
   117   -1.753385156273e-01
   118    1.231882611445e-12
   119    8.217350525295e-02
   120    1.627571018790e-01
   121   -1.730305140105e-01
   122    1.012286587685e-12
   123    2.438788908808e-02
   124   -6.580681267437e-03
   125   -9.604172193135e-03
   126    3.328318863169e-13
   127    2.173104321057e-03
   128   -7.304288118249e-14
   129   -5.060394035013e-14
   130   -1.088532057341e-02
   131    9.077727641907e-04
   132   -6.408693913416e-03
   133   -1.149421532048e-02
   134    2.443470857330e-02
   135   -2.271053742818e-02
   136   -2.885492595569e-13
   137    3.295047774110e-02
   138    3.372738289354e-02
   139   -3.669564735625e-02
   140   -4.734390802491e-13
   141    8.517259950190e-02
   142    6.987505881782e-02
   143   -5.366978628454e-02
   144   -5.021460642053e-13