[Molden Format]
[Atoms] (Angs)
  C      1    6     -0.13173890     -1.79208980      0.00000000
  H      2    1     -2.14962000     -1.30978739      0.00000000
  H      3    1     -0.31599560     -2.86503115      0.00000000
  H      4    1      0.14407746      2.04280963     -0.00000000
  C      5    6     -1.17258876      0.48030861      0.00000000
  O      6    8     -2.25008207      1.06833796      0.00000000
  C      7    6      1.31158357      0.28308717     -0.00000000
  O      8    8      2.36361668      0.96389345     -0.00000000
  N      9    7      0.07017030      1.03138997     -0.00000000
  N     10    7     -1.19586868     -0.94982644      0.00000000
  C     11    6      1.19165158     -1.13169473     -0.00000000
  H     12    1      2.09970506     -1.73445456     -0.00000000
[GTO]
1    0
S    6    1.000000
   4.56324000E+03    1.96665000E-03 
   6.82024000E+02    1.52306000E-02 
   1.54973000E+02    7.61269000E-02 
   4.44553000E+01    2.60801000E-01 
   1.30290000E+01    6.16462000E-01 
   1.82773000E+00    2.21006000E-01 
SP   3    1.000000
   2.09642000E+01    1.14660000E-01   4.02487000E-02 
   4.80331000E+00    9.19999000E-01   2.37594000E-01 
   1.45933000E+00   -3.03068000E-03   8.15854000E-01 
SP   1    1.000000
   4.83456000E-01    1.00000000E+00   1.00000000E+00 
SP   1    1.000000
   1.45585000E-01    1.00000000E+00   1.00000000E+00 
SP   1    1.000000
   4.38000000E-02    1.00000000E+00   1.00000000E+00 
D    1    1.000000
   6.26000000E-01    1.00000000E+00 

2    0
S    3    1.000000
   3.38650000E+01    2.54938000E-02 
   5.09479000E+00    1.90373000E-01 
   1.15879000E+00    8.52161000E-01 
S    1    1.000000
   3.25840000E-01    1.00000000E+00 
S    1    1.000000
   1.02741000E-01    1.00000000E+00 
S    1    1.000000
   3.60000000E-02    1.00000000E+00 
P    1    1.000000
   7.50000000E-01    1.00000000E+00 

3    0
S    3    1.000000
   3.38650000E+01    2.54938000E-02 
   5.09479000E+00    1.90373000E-01 
   1.15879000E+00    8.52161000E-01 
S    1    1.000000
   3.25840000E-01    1.00000000E+00 
S    1    1.000000
   1.02741000E-01    1.00000000E+00 
S    1    1.000000
   3.60000000E-02    1.00000000E+00 
P    1    1.000000
   7.50000000E-01    1.00000000E+00 

4    0
S    3    1.000000
   3.38650000E+01    2.54938000E-02 
   5.09479000E+00    1.90373000E-01 
   1.15879000E+00    8.52161000E-01 
S    1    1.000000
   3.25840000E-01    1.00000000E+00 
S    1    1.000000
   1.02741000E-01    1.00000000E+00 
S    1    1.000000
   3.60000000E-02    1.00000000E+00 
P    1    1.000000
   7.50000000E-01    1.00000000E+00 

5    0
S    6    1.000000
   4.56324000E+03    1.96665000E-03 
   6.82024000E+02    1.52306000E-02 
   1.54973000E+02    7.61269000E-02 
   4.44553000E+01    2.60801000E-01 
   1.30290000E+01    6.16462000E-01 
   1.82773000E+00    2.21006000E-01 
SP   3    1.000000
   2.09642000E+01    1.14660000E-01   4.02487000E-02 
   4.80331000E+00    9.19999000E-01   2.37594000E-01 
   1.45933000E+00   -3.03068000E-03   8.15854000E-01 
SP   1    1.000000
   4.83456000E-01    1.00000000E+00   1.00000000E+00 
SP   1    1.000000
   1.45585000E-01    1.00000000E+00   1.00000000E+00 
SP   1    1.000000
   4.38000000E-02    1.00000000E+00   1.00000000E+00 
D    1    1.000000
   6.26000000E-01    1.00000000E+00 

6    0
S    6    1.000000
   8.58850000E+03    1.89515000E-03 
   1.29723000E+03    1.43859000E-02 
   2.99296000E+02    7.07320000E-02 
   8.73771000E+01    2.40001000E-01 
   2.56789000E+01    5.94797000E-01 
   3.74004000E+00    2.80802000E-01 
SP   3    1.000000
   4.21175000E+01    1.13889000E-01   3.65114000E-02 
   9.62837000E+00    9.20811000E-01   2.37153000E-01 
   2.85332000E+00   -3.27447000E-03   8.19702000E-01 
SP   1    1.000000
   9.05661000E-01    1.00000000E+00   1.00000000E+00 
SP   1    1.000000
   2.55611000E-01    1.00000000E+00   1.00000000E+00 
SP   1    1.000000
   8.45000000E-02    1.00000000E+00   1.00000000E+00 
D    1    1.000000
   1.29200000E+00    1.00000000E+00 

7    0
S    6    1.000000
   4.56324000E+03    1.96665000E-03 
   6.82024000E+02    1.52306000E-02 
   1.54973000E+02    7.61269000E-02 
   4.44553000E+01    2.60801000E-01 
   1.30290000E+01    6.16462000E-01 
   1.82773000E+00    2.21006000E-01 
SP   3    1.000000
   2.09642000E+01    1.14660000E-01   4.02487000E-02 
   4.80331000E+00    9.19999000E-01   2.37594000E-01 
   1.45933000E+00   -3.03068000E-03   8.15854000E-01 
SP   1    1.000000
   4.83456000E-01    1.00000000E+00   1.00000000E+00 
SP   1    1.000000
   1.45585000E-01    1.00000000E+00   1.00000000E+00 
SP   1    1.000000
   4.38000000E-02    1.00000000E+00   1.00000000E+00 
D    1    1.000000
   6.26000000E-01    1.00000000E+00 

8    0
S    6    1.000000
   8.58850000E+03    1.89515000E-03 
   1.29723000E+03    1.43859000E-02 
   2.99296000E+02    7.07320000E-02 
   8.73771000E+01    2.40001000E-01 
   2.56789000E+01    5.94797000E-01 
   3.74004000E+00    2.80802000E-01 
SP   3    1.000000
   4.21175000E+01    1.13889000E-01   3.65114000E-02 
   9.62837000E+00    9.20811000E-01   2.37153000E-01 
   2.85332000E+00   -3.27447000E-03   8.19702000E-01 
SP   1    1.000000
   9.05661000E-01    1.00000000E+00   1.00000000E+00 
SP   1    1.000000
   2.55611000E-01    1.00000000E+00   1.00000000E+00 
SP   1    1.000000
   8.45000000E-02    1.00000000E+00   1.00000000E+00 
D    1    1.000000
   1.29200000E+00    1.00000000E+00 

9    0
S    6    1.000000
   6.29348000E+03    1.96979000E-03 
   9.49044000E+02    1.49613000E-02 
   2.18776000E+02    7.35006000E-02 
   6.36916000E+01    2.48937000E-01 
   1.88282000E+01    6.02460000E-01 
   2.72023000E+00    2.56202000E-01 
SP   3    1.000000
   3.06331000E+01    1.11906000E-01   3.83119000E-02 
   7.02614000E+00    9.21666000E-01   2.37403000E-01 
   2.11205000E+00   -2.56919000E-03   8.17592000E-01 
SP   1    1.000000
   6.84009000E-01    1.00000000E+00   1.00000000E+00 
SP   1    1.000000
   2.00878000E-01    1.00000000E+00   1.00000000E+00 
SP   1    1.000000
   6.39000000E-02    1.00000000E+00   1.00000000E+00 
D    1    1.000000
   9.13000000E-01    1.00000000E+00 

10    0
S    6    1.000000
   6.29348000E+03    1.96979000E-03 
   9.49044000E+02    1.49613000E-02 
   2.18776000E+02    7.35006000E-02 
   6.36916000E+01    2.48937000E-01 
   1.88282000E+01    6.02460000E-01 
   2.72023000E+00    2.56202000E-01 
SP   3    1.000000
   3.06331000E+01    1.11906000E-01   3.83119000E-02 
   7.02614000E+00    9.21666000E-01   2.37403000E-01 
   2.11205000E+00   -2.56919000E-03   8.17592000E-01 
SP   1    1.000000
   6.84009000E-01    1.00000000E+00   1.00000000E+00 
SP   1    1.000000
   2.00878000E-01    1.00000000E+00   1.00000000E+00 
SP   1    1.000000
   6.39000000E-02    1.00000000E+00   1.00000000E+00 
D    1    1.000000
   9.13000000E-01    1.00000000E+00 

11    0
S    6    1.000000
   4.56324000E+03    1.96665000E-03 
   6.82024000E+02    1.52306000E-02 
   1.54973000E+02    7.61269000E-02 
   4.44553000E+01    2.60801000E-01 
   1.30290000E+01    6.16462000E-01 
   1.82773000E+00    2.21006000E-01 
SP   3    1.000000
   2.09642000E+01    1.14660000E-01   4.02487000E-02 
   4.80331000E+00    9.19999000E-01   2.37594000E-01 
   1.45933000E+00   -3.03068000E-03   8.15854000E-01 
SP   1    1.000000
   4.83456000E-01    1.00000000E+00   1.00000000E+00 
SP   1    1.000000
   1.45585000E-01    1.00000000E+00   1.00000000E+00 
SP   1    1.000000
   4.38000000E-02    1.00000000E+00   1.00000000E+00 
D    1    1.000000
   6.26000000E-01    1.00000000E+00 

12    0
S    3    1.000000
   3.38650000E+01    2.54938000E-02 
   5.09479000E+00    1.90373000E-01 
   1.15879000E+00    8.52161000E-01 
S    1    1.000000
   3.25840000E-01    1.00000000E+00 
S    1    1.000000
   1.02741000E-01    1.00000000E+00 
S    1    1.000000
   3.60000000E-02    1.00000000E+00 
P    1    1.000000
   7.50000000E-01    1.00000000E+00 

[MO]
Sym=X
Ene= 2.006628
Spin=Alpha
Occup=1
     1   -3.945851477508e-14
     2   -4.554809500164e-14
     3   -1.227379470812e-14
     4    6.279852832261e-15
     5    9.633572935896e-02
     6    6.132723966393e-14
     7   -1.257567003177e-14
     8    3.313187078188e-14
     9    1.648576248985e-01
    10    4.020789250958e-13
    11   -1.910223276210e-13
    12    5.166292939075e-14
    13    1.545542073025e-01
    14   -3.523726457348e-12
    15   -4.142126999525e-13
    16   -1.624760096913e-12
    17    2.120343630236e-02
    18   -1.448760124826e-15
    19    9.362775047482e-03
    20    1.264556424503e-02
    21    7.996915105893e-15
    22    1.877972602083e-16
    23   -1.271304533873e-14
    24   -5.621129666732e-14
    25   -5.473181898065e-13
    26    7.699574188985e-14
    27   -5.540597219347e-15
    28    9.662682661413e-16
    29    8.337121956164e-04
    30    6.008129794798e-15
    31    2.950908602170e-14
    32   -1.968000641247e-13
    33   -7.993988213251e-13
    34   -2.363320045966e-16
    35   -3.691074186864e-15
    36    8.088109742217e-03
    37    2.315573874342e-14
    38    1.365516161218e-13
    39   -2.666424432547e-13
    40   -3.437665071708e-13
    41   -2.289802945022e-15
    42   -1.833559882022e-14
    43   -4.422754997421e-03
    44   -7.473055409738e-14
    45   -5.016594113681e-14
    46    2.095501919524e-14
    47    5.673314759721e-14
    48   -9.192694756667e-02
    49   -7.431087239473e-14
    50    2.976054063263e-14
    51    7.535995681391e-14
    52   -1.630023621134e-01
    53    1.286068186997e-13
    54    2.172889279824e-13
    55    1.936238856623e-13
    56   -9.805508841028e-02
    57    1.058309516678e-12
    58    5.299305380134e-13
    59    3.442568882468e-13
    60   -1.633650882157e-02
    61    7.514041445821e-15
    62    2.252660104038e-02
    63   -2.137734909590e-02
    64    1.291803574173e-14
    65    1.569142326552e-14
    66   -1.828431011527e-16
    67    1.181492821825e-15
    68   -4.205990008289e-14
    69   -6.771348013693e-14
    70   -2.371992712673e-01
    71   -3.836024790621e-15
    72   -3.414747514880e-14
    73   -6.164227166948e-14
    74   -2.775544523131e-01
    75    6.787531021060e-14
    76   -2.007566698477e-14
    77   -8.750322819224e-14
    78   -1.784947946351e-01
    79   -2.160003551385e-13
    80   -4.367558044955e-14
    81    9.858429559055e-14
    82    1.204129089526e-03
    83   -1.320481441952e-15
    84   -1.819971374315e-02
    85    9.935094746033e-03
    86    1.157016336020e-15
    87   -5.555041957866e-16
    88    4.790520625714e-14
    89    3.080059857735e-14
    90    1.841054813459e-14
    91   -5.518157859725e-15
    92    4.665474330091e-02
    93    4.184706584312e-14
    94    3.511131920935e-14
    95   -7.349061201860e-16
    96    8.115362106710e-02
    97   -1.306235839517e-13
    98   -8.853594267966e-14
    99   -2.030117141566e-14
   100    5.881576014368e-02
   101   -9.259391990547e-12
   102    9.237523092360e-13
   103    2.081546418608e-12
   104    7.736986331930e-03
   105    8.133394893504e-16
   106   -1.949929875484e-03
   107   -1.710413224317e-02
   108    2.432487434936e-15
   109   -9.232628448924e-16
   110   -6.439050568487e-14
   111   -7.075362513285e-14
   112   -1.006189421387e-14
   113   -4.673850711384e-15
   114    2.769657633256e-03
   115    8.330247539027e-14
   116    4.246235410634e-15
   117   -2.545438726909e-14
   118    6.153701768459e-03
   119    2.397193011986e-14
   120   -3.848745572955e-14
   121    2.497179132122e-14
   122   -8.067273546916e-03
   123    2.863521254730e-13
   124    4.141870155851e-14
   125   -2.763139840541e-13
   126   -2.482415244688e-02
   127    3.348038408838e-16
   128   -2.849539782994e-03
   129   -2.186847724540e-03
   130    1.401904759647e-15
   131    3.622565761532e-16
   132    3.276287058575e-14
   133    1.400973116015e-14
   134   -3.176399692274e-14
   135    3.508328749911e-14
   136   -4.058242060448e-02
   137    9.338212466091e-14
   138   -6.362675804729e-14
   139    6.388469703312e-14
   140   -6.927301307795e-02
   141   -2.149229708889e-13
   142   -2.708788677651e-14
   143   -3.896044313977e-14
   144   -5.753838376937e-02
   145    3.933724217222e-13
   146    6.932444905302e-13
   147    8.691534917325e-14
   148    1.709253084828e-03
   149    2.573513435138e-15
   150    1.136814436870e-02
   151    4.540945731685e-04
   152    5.528093726638e-15
   153    2.232204476416e-15
   154   -8.135930854757e-14
   155   -5.183034977693e-14
   156    1.293910066868e-14
   157   -4.860524482137e-14
   158    2.880952192927e-02
   159   -6.361253072681e-14
   160    5.361955826433e-14
   161   -8.993525247153e-14
   162    4.656068550336e-02
   163   -1.343521003403e-13
   164   -2.532824409673e-13
   165    8.040881491385e-15
   166    3.349497769789e-02
   167    7.907088141666e-13
   168   -8.456502962788e-13
   169    3.178869247544e-13
   170   -1.419242312140e-02
   171    4.248192528851e-16
   172    8.346174009363e-03
   173   -1.081679604211e-02
   174    6.089076004097e-15
   175   -6.125992586605e-15
   176    1.269430238529e-14
   177    8.150461621027e-15
   178   -3.085821084224e-14
   179    1.687660673627e-14
   180    1.137334098511e-01
   181    2.091793567559e-14
   182   -3.330456689893e-14
   183    3.906319805030e-14
   184    1.941413468203e-01
   185   -1.929070103933e-13
   186   -1.564760809895e-13
   187    1.380490681434e-14
   188    1.923532241937e-01
   189    1.092219685592e-11
   190   -2.312706735409e-12
   191    2.644276375397e-12
   192    1.545978116380e-02
   193    1.253284318588e-14
   194   -1.465899137582e-02
   195    2.903708005184e-03
   196   -8.317536880979e-15
   197    1.208252294279e-14
   198   -2.571467511776e-14
   199    5.212999678762e-15
   200    2.735272214338e-13
   201    1.279983912926e-12
   202    1.799390983274e-16
   203    4.508971016422e-15
   204    9.570325673094e-03
Sym=X
Ene= 2.003490
Spin=Alpha
Occup=1
     1    1.148546842507e-02
     2    1.828224149210e-02
     3    1.329113895316e-02
     4   -2.368267543032e-02
     5   -3.370447325645e-15
     6   -4.586937041235e-02
     7    2.114185571888e-02
     8   -3.979589076909e-02
     9   -1.319008871155e-14
    10   -5.266120103187e-02
    11   -4.674603253319e-03
    12   -3.991221375558e-02
    13    1.503248889205e-14
    14   -1.075873186828e-01
    15    6.510514243530e-04
    16   -2.376899672789e-02
    17   -1.476318575199e-14
    18    2.346068467344e-03
    19    7.709987145572e-14
    20   -1.507167778478e-14
    21   -6.837450895090e-03
    22    5.080152451731e-03
    23    9.136412084608e-03
    24    3.240242878281e-04
    25   -3.338764262736e-02
    26    2.264734510449e-02
    27    1.203512224395e-03
    28    1.347391711483e-03
    29   -3.201237549838e-15
    30    1.282038426348e-02
    31    2.142402687266e-02
    32    1.111834149282e-02
    33    1.368681439358e-03
    34    5.915797297037e-04
    35   -3.440444562136e-04
    36   -3.193933596746e-15
    37   -3.578973019278e-03
    38    8.441407491652e-03
    39    3.636246569682e-02
    40   -5.172326751836e-02
    41    2.712222553702e-03
    42   -6.627132462673e-04
    43   -1.076563196299e-14
    44   -9.410812674179e-03
    45   -1.513810061819e-02
    46   -5.401495607678e-02
    47   -1.460980442570e-02
    48   -5.840853289509e-14
    49    4.289057915033e-02
    50   -9.012835993691e-02
    51   -2.930809034669e-02
    52   -9.811720995087e-14
    53    5.881299992243e-02
    54    3.214809192915e-02
    55    6.097814868457e-02
    56   -1.848888737965e-13
    57    3.828764885785e-02
    58    5.389746175478e-02
    59    7.522965608057e-02
    60    1.267625515183e-13
    61   -2.393793991751e-03
    62    1.115984650002e-13
    63   -4.136789261764e-14
    64   -4.459295171268e-02
    65   -3.310061846249e-02
    66   -7.660140217060e-03
    67   -1.097441901361e-02
    68    1.989554427147e-01
    69    2.261558911726e-01
    70    1.612722861693e-15
    71    3.408173521858e-02
    72    2.303486171771e-01
    73    2.607628865350e-01
    74   -2.682603358801e-15
    75   -1.817860759307e-02
    76    1.390462448518e-01
    77    1.970282777475e-01
    78    1.787594190324e-13
    79   -2.073366572890e-02
    80   -1.736436750316e-03
    81    6.901162646632e-03
    82   -9.358777565207e-14
    83   -3.645036270590e-03
    84   -1.960675791961e-14
    85    1.439330891994e-14
    86    1.283095273309e-02
    87    6.674352221593e-04
    88   -1.558732352707e-02
    89   -2.494108787381e-02
    90   -3.969648127844e-02
    91    1.877251683791e-02
    92    8.751052035415e-14
    93    6.311587409628e-02
    94   -6.725064925252e-02
    95    2.777753328909e-02
    96    1.168648363481e-13
    97    4.921361063150e-02
    98   -5.119121972864e-02
    99    3.033660068767e-02
   100    1.572199713430e-13
   101   -2.839951681459e-01
   102   -1.950237176348e-02
   103    1.455168008959e-01
   104   -1.136812311855e-13
   105   -2.955600993780e-03
   106    1.575653041846e-13
   107    9.042813406735e-15
   108   -2.941300025974e-02
   109    5.889150618038e-03
   110    5.573194933657e-03
   111    9.392654038060e-03
   112   -7.096288981168e-02
   113    1.199038575167e-01
   114    1.628749640635e-13
   115   -2.821003462379e-02
   116   -1.101004043993e-01
   117    1.850247369764e-01
   118    2.682856920687e-13
   119   -2.068262038765e-02
   120   -1.040319789339e-01
   121    1.708078368382e-01
   122   -2.245791955648e-15
   123    2.742467114321e-02
   124   -1.269723214299e-02
   125    4.159811323400e-03
   126    1.699246176632e-13
   127   -1.721906051676e-04
   128   -2.019868483461e-14
   129   -1.910846052687e-14
   130    9.026128069294e-03
   131   -4.942653427715e-03
   132    2.195425080788e-02
   133    3.644515027201e-02
   134    6.370058743105e-02
   135    1.223057869892e-02
   136   -1.016624426196e-13
   137   -9.653413780801e-02
   138    9.306051917708e-02
   139    8.485498130780e-03
   140   -1.794099981546e-13
   141   -1.889482285725e-01
   142    8.671247031552e-02
   143    2.543085108350e-02
   144   -1.269986851784e-13
   145   -1.949633050071e-01
   146   -3.551079169976e-03
   147   -2.975142908927e-03
   148   -4.126687999027e-14
   149   -1.262465103215e-03
   150   -2.822111298240e-14
   151   -4.519158425406e-15
   152    6.508107693002e-04
   153   -4.878478244520e-03
   154   -1.436412646271e-02
   155   -2.320663689352e-02
   156   -2.563818400602e-02
   157    5.610497085510e-02
   158   -5.496863521010e-14
   159    5.964203385506e-02
   160   -4.426112978545e-02
   161    8.569578686861e-02
   162   -9.902293179221e-14
   163    1.178215858822e-01
   164   -3.078492447736e-02
   165    8.733441882631e-02
   166   -1.509406395260e-14
   167    1.265375666679e-01
   168   -1.106614748418e-02
   169    1.676251909577e-03
   170   -1.818747154363e-14
   171   -1.345559579259e-05
   172    2.886343787387e-15
   173    1.857992499394e-14
   174   -2.465226401835e-03
   175    4.549434705287e-04
   176   -2.769031318026e-03
   177   -4.335382001829e-03
   178   -8.456040980730e-04
   179    1.760940437428e-02
   180    3.815701043783e-14
   181    9.911850777328e-03
   182    2.554407189182e-03
   183    2.115920745876e-02
   184    3.654750924889e-14
   185    6.047180955694e-02
   186   -1.171009795839e-02
   187    3.099465281577e-02
   188    2.404164483999e-14
   189    3.942117728607e-01
   190   -2.604545416593e-02
   191    8.514651251639e-02
   192    2.087151298054e-14
   193    1.131631552370e-03
   194    1.793105946338e-15
   195   -2.411852782566e-14
   196   -1.590358423852e-03
   197   -2.041892359951e-03
   198   -4.869650342287e-03
   199   -9.531712853786e-03
   200    2.827459255106e-03
   201    2.055465515258e-02
   202    1.437287196052e-03
   203   -1.491637316024e-03
   204   -6.208111501071e-15
Sym=X
Ene= 2.001375
Spin=Alpha
Occup=1
     1    1.672982828491e-13
     2    1.733159657432e-13
     3    2.135937269057e-13
     4   -8.059269749030e-14
     5    5.163817394809e-02
     6   -1.967458481514e-13
     7    3.442444915107e-13
     8   -1.507690816537e-13
     9    8.679982501842e-02
    10    1.490781230140e-13
    11    2.012505321797e-13
    12    3.777495367181e-13
    13    7.580890078106e-02
    14    9.491245741209e-12
    15    8.100405851684e-13
    16    4.123246721046e-12
    17    1.480031775349e-02
    18    1.135581903547e-14
    19   -1.261611647944e-03
    20    8.261473990793e-03
    21   -1.349229525898e-14
    22    2.206144010429e-14
    23    1.429833111885e-14
    24   -1.135075566932e-13
    25    2.526611228319e-13
    26   -2.256994505641e-13
    27   -5.841352691837e-15
    28    1.547342479360e-14
    29    3.694803397069e-03
    30    2.054097433005e-14
    31    9.159231967997e-14
    32    5.004596287829e-13
    33    1.580745072536e-12
    34    7.923857827584e-15
    35    4.140428082557e-15
    36    4.598230785970e-03
    37    9.790656723451e-14
    38    1.379113569928e-13
    39    1.011778253365e-13
    40    5.448596674323e-13
    41   -1.299884716377e-14
    42   -3.519347926243e-14
    43    8.413574061242e-03
    44   -9.896447402624e-14
    45   -8.288259483683e-14
    46    3.829430177566e-13
    47   -3.690212529954e-13
    48    5.903285782866e-02
    49   -4.765891204342e-14
    50    5.701563904807e-13
    51   -6.280551342136e-13
    52    1.027474348990e-01
    53   -1.452256852254e-13
    54    3.364878124665e-13
    55   -2.199591101557e-13
    56    5.751270275891e-02
    57   -4.010602570716e-12
    58   -1.217616708013e-12
    59    5.935034721339e-13
    60    2.061707129615e-02
    61   -3.328768677233e-15
    62    1.846885017615e-02
    63    1.808830946407e-03
    64   -2.341528506737e-13
    65    1.906902205886e-14
    66   -4.853903229735e-14
    67   -7.428750253610e-14
    68   -3.072677109041e-13
    69    1.462269891849e-12
    70   -2.318381877986e-02
    71    2.987015075270e-13
    72   -3.367515986052e-13
    73    1.671366946694e-12
    74   -2.291272126509e-02
    75    4.764342155175e-13
    76    1.367974327755e-14
    77    1.118123186470e-12
    78   -2.594845418918e-02
    79    7.835600588524e-13
    80    3.093484788834e-13
    81   -1.863504214912e-13
    82   -2.379245242489e-02
    83    4.016814146873e-14
    84    4.105843720439e-03
    85   -1.801094295305e-03
    86   -4.030737311182e-15
    87    8.233435512954e-14
    88    2.220154455820e-13
    89    2.373856291498e-13
    90   -1.574627623296e-13
    91   -8.590262821378e-14
    92   -7.240734488034e-02
    93   -3.220691402387e-13
    94   -3.227068331529e-13
    95   -1.143347929130e-13
    96   -1.256990470474e-01
    97    8.966913000151e-15
    98    5.112220173826e-14
    99   -3.575730126130e-13
   100   -1.104098507572e-01
   101    1.756923737761e-11
   102   -1.386760759845e-12
   103   -4.460890967378e-12
   104   -2.513547875783e-02
   105    1.804922378809e-14
   106   -4.493410330369e-02
   107   -2.524930734697e-02
   108    1.216951003989e-13
   109   -1.514863761657e-13
   110    5.480735931329e-14
   111    3.152473279687e-14
   112    5.932368725357e-13
   113   -3.707561790027e-13
   114   -2.093684759030e-01
   115    1.025785307597e-13
   116    8.906725642448e-13
   117   -5.705447076738e-13
   118   -3.273808425231e-01
   119    4.010293317516e-13
   120    7.387998221482e-13
   121   -6.821882516576e-13
   122   -3.109739673101e-01
   123   -4.946130326926e-13
   124    1.741312762764e-13
   125    3.348431143721e-13
   126   -4.570348747908e-02
   127    1.386935998906e-14
   128    1.686332672442e-02
   129    9.750455279616e-03
   130   -4.358381521937e-14
   131   -2.624189064933e-15
   132    2.564878855390e-13
   133    8.709437223610e-14
   134    1.364485854703e-13
   135   -6.479172395125e-14
   136    1.105735300809e-01
   137    7.124536080920e-13
   138    1.733998096961e-13
   139   -1.156003567395e-13
   140    1.785879319437e-01
   141    5.304059474517e-13
   142    3.838329855146e-13
   143   -1.458383242383e-13
   144    1.972909999069e-01
   145    3.319975238186e-13
   146   -2.998522966620e-13
   147   -7.974520269698e-14
   148    2.478034230973e-02
   149   -1.355893875577e-14
   150   -1.295437372107e-02
   151   -2.301414137196e-03
   152   -2.142089123466e-14
   153    3.617829932281e-14
   154   -7.316498353493e-14
   155   -1.368647150046e-13
   156   -9.202617831700e-14
   157    4.504451640680e-13
   158    5.785750560665e-02
   159    4.226881696606e-13
   160   -1.498002487230e-13
   161    7.123107856123e-13
   162    9.617071015578e-02
   163    2.959463366025e-13
   164   -2.717694250991e-13
   165    4.809041634369e-13
   166    7.037338794148e-02
   167   -1.565513142835e-12
   168    2.134740939958e-13
   169   -5.698629114843e-14
   170   -2.466156296924e-02
   171   -5.421470087920e-15
   172    5.004357325462e-03
   173    2.095997909980e-03
   174   -1.747217393442e-14
   175    3.373943858326e-14
   176    1.090017111342e-13
   177    2.310638159460e-14
   178    9.575201776901e-14
   179   -1.863639166589e-13
   180    3.194051445703e-02
   181    3.359044825477e-13
   182    1.084860035451e-13
   183   -2.478143574007e-13
   184    4.955828918654e-02
   185   -6.717741103307e-14
   186    4.326196617441e-13
   187   -4.978312649933e-13
   188    8.871629964173e-02
   189   -2.219894913352e-11
   190    3.721296020134e-12
   191   -5.227620031784e-12
   192    1.584584721390e-02
   193   -2.090636810624e-14
   194   -8.426385898439e-03
   195   -8.371436666470e-03
   196   -1.115588220087e-14
   197   -2.442823247263e-14
   198    2.295451432114e-13
   199    2.886069405256e-13
   200   -3.568049296550e-13
   201   -2.067483213662e-12
   202   -1.779866060964e-14
   203    1.621715205849e-14
   204    1.754937430056e-03
Sym=X
Ene= 2.001020
Spin=Alpha
Occup=1
     1   -7.896147187487e-03
     2   -1.154257545551e-02
     3   -2.638376897370e-02
     4    1.457365674032e-02
     5    2.779455066915e-13
     6    2.831002001130e-02
     7   -4.635719055263e-02
     8    2.541182627635e-02
     9    4.723836469321e-13
    10    1.944586424380e-02
    11   -1.966488265008e-02
    12    1.713060123678e-02
    13    3.398894069761e-13
    14   -1.724144950154e-01
    15   -5.633324967868e-02
    16   -8.103021075636e-02
    17    9.148075336118e-14
    18   -1.275184706091e-03
    19   -7.754328545881e-14
    20    5.197057439939e-14
    21    5.829110150018e-03
    22   -2.979993640366e-03
    23    9.236794914254e-03
    24    1.417497930141e-02
    25    2.049353073442e-02
    26   -9.773667088167e-04
    27    1.353647435988e-03
    28   -2.285148041246e-03
    29    3.197117905804e-14
    30   -6.791713323930e-03
    31   -1.307338748666e-02
    32   -9.897887650380e-03
    33   -4.528769349733e-02
    34   -1.103442384650e-03
    35    2.672425541000e-04
    36    2.531133128978e-14
    37    1.865120290098e-02
    38    1.302515170081e-02
    39   -1.100123087943e-02
    40   -1.682473593943e-02
    41    2.441561123504e-03
    42   -2.760865995345e-03
    43    2.072198088865e-14
    44   -7.767160776551e-03
    45   -9.089669563487e-03
    46   -7.583848943242e-02
    47    7.947266755979e-02
    48    3.189652546118e-13
    49    2.049684448005e-02
    50   -1.161491475629e-01
    51    1.368453299259e-01
    52    5.751534189319e-13
    53    5.418372414569e-02
    54   -1.800988546204e-02
    55   -4.007577194280e-03
    56    3.499616422034e-13
    57    2.848939523453e-02
    58   -5.872345073371e-03
    59   -3.549534450370e-02
    60   -9.859997742649e-14
    61   -3.164951387947e-03
    62   -2.699124251845e-14
    63    7.240290001881e-15
    64    4.180483204886e-02
    65   -3.595266060279e-03
    66    3.881812230725e-03
    67    6.155462098853e-03
    68    8.376334779160e-02
    69   -2.532748413975e-01
    70   -1.414738296901e-14
    71   -2.823048399354e-02
    72    9.366932588833e-02
    73   -2.898819229631e-01
    74    6.947225925839e-15
    75   -8.744343536268e-02
    76    1.620195104770e-02
    77   -1.830463472428e-01
    78   -1.718180996959e-13
    79   -1.556929520251e-02
    80    2.846926491404e-03
    81   -2.625296789668e-03
    82    5.474617224495e-14
    83   -8.048384443597e-03
    84    2.851718081299e-14
    85   -2.573209947297e-14
    86    2.857077303700e-03
    87   -1.517901253821e-02
    88   -1.695702806516e-02
    89   -2.610473735645e-02
    90    5.900780419185e-03
    91    2.348115798313e-02
    92   -4.284458329784e-13
    93    6.761609661706e-02
    94    9.402351447728e-03
    95    3.268286159472e-02
    96   -7.240713096436e-13
    97    8.423033709546e-02
    98   -3.045816067912e-02
    99    6.153471528814e-02
   100   -6.204794764696e-13
   101   -2.165115392089e-01
   102   -4.789299681758e-02
   103    1.072562505936e-01
   104    7.807283599904e-14
   105   -3.646842476755e-03
   106   -2.925773370393e-13
   107   -1.214390751410e-13
   108   -3.116641666825e-02
   109    1.845084571910e-02
   110    1.495046547282e-02
   111    2.513454635326e-02
   112   -1.199016746738e-01
   113    9.852891793973e-02
   114   -1.034173226170e-12
   115   -7.472544218087e-02
   116   -1.835172834263e-01
   117    1.530887056681e-01
   118   -1.619397376460e-12
   119   -9.416401099627e-02
   120   -1.574885960322e-01
   121    1.545468502270e-01
   122   -1.387129325951e-12
   123   -2.140714452417e-02
   124    4.008680322465e-03
   125    9.995277525195e-03
   126   -4.029116934052e-13
   127   -2.556259482645e-03
   128    9.238705069976e-14
   129    5.933338972849e-14
   130    1.030914302604e-02
   131   -7.134000152200e-04
   132   -7.579601858191e-04
   133    4.089843306215e-04
   134   -6.326387772181e-03
   135    3.137690086236e-02
   136    4.281883332958e-13
   137   -5.117814705250e-03
   138   -4.916964239496e-03
   139    5.065989534278e-02
   140    7.003443256689e-13
   141   -4.995380013130e-02
   142   -4.923879336578e-02
   143    5.989858544301e-02
   144    7.527245154857e-13