[Molden Format]
[Atoms] (Angs)
  C      1    6     -0.13173890     -1.79208980      0.00000000
  H      2    1     -2.14962000     -1.30978739      0.00000000
  H      3    1     -0.31599560     -2.86503115      0.00000000
  H      4    1      0.14407746      2.04280963     -0.00000000
  C      5    6     -1.17258876      0.48030861      0.00000000
  O      6    8     -2.25008207      1.06833796      0.00000000
  C      7    6      1.31158357      0.28308717     -0.00000000
  O      8    8      2.36361668      0.96389345     -0.00000000
  N      9    7      0.07017030      1.03138997     -0.00000000
  N     10    7     -1.19586868     -0.94982644      0.00000000
  C     11    6      1.19165158     -1.13169473     -0.00000000
  H     12    1      2.09970506     -1.73445456     -0.00000000
[GTO]
1    0
S    6    1.000000
   4.56324000E+03    1.96665000E-03 
   6.82024000E+02    1.52306000E-02 
   1.54973000E+02    7.61269000E-02 
   4.44553000E+01    2.60801000E-01 
   1.30290000E+01    6.16462000E-01 
   1.82773000E+00    2.21006000E-01 
SP   3    1.000000
   2.09642000E+01    1.14660000E-01   4.02487000E-02 
   4.80331000E+00    9.19999000E-01   2.37594000E-01 
   1.45933000E+00   -3.03068000E-03   8.15854000E-01 
SP   1    1.000000
   4.83456000E-01    1.00000000E+00   1.00000000E+00 
SP   1    1.000000
   1.45585000E-01    1.00000000E+00   1.00000000E+00 
SP   1    1.000000
   4.38000000E-02    1.00000000E+00   1.00000000E+00 
D    1    1.000000
   6.26000000E-01    1.00000000E+00 

2    0
S    3    1.000000
   3.38650000E+01    2.54938000E-02 
   5.09479000E+00    1.90373000E-01 
   1.15879000E+00    8.52161000E-01 
S    1    1.000000
   3.25840000E-01    1.00000000E+00 
S    1    1.000000
   1.02741000E-01    1.00000000E+00 
S    1    1.000000
   3.60000000E-02    1.00000000E+00 
P    1    1.000000
   7.50000000E-01    1.00000000E+00 

3    0
S    3    1.000000
   3.38650000E+01    2.54938000E-02 
   5.09479000E+00    1.90373000E-01 
   1.15879000E+00    8.52161000E-01 
S    1    1.000000
   3.25840000E-01    1.00000000E+00 
S    1    1.000000
   1.02741000E-01    1.00000000E+00 
S    1    1.000000
   3.60000000E-02    1.00000000E+00 
P    1    1.000000
   7.50000000E-01    1.00000000E+00 

4    0
S    3    1.000000
   3.38650000E+01    2.54938000E-02 
   5.09479000E+00    1.90373000E-01 
   1.15879000E+00    8.52161000E-01 
S    1    1.000000
   3.25840000E-01    1.00000000E+00 
S    1    1.000000
   1.02741000E-01    1.00000000E+00 
S    1    1.000000
   3.60000000E-02    1.00000000E+00 
P    1    1.000000
   7.50000000E-01    1.00000000E+00 

5    0
S    6    1.000000
   4.56324000E+03    1.96665000E-03 
   6.82024000E+02    1.52306000E-02 
   1.54973000E+02    7.61269000E-02 
   4.44553000E+01    2.60801000E-01 
   1.30290000E+01    6.16462000E-01 
   1.82773000E+00    2.21006000E-01 
SP   3    1.000000
   2.09642000E+01    1.14660000E-01   4.02487000E-02 
   4.80331000E+00    9.19999000E-01   2.37594000E-01 
   1.45933000E+00   -3.03068000E-03   8.15854000E-01 
SP   1    1.000000
   4.83456000E-01    1.00000000E+00   1.00000000E+00 
SP   1    1.000000
   1.45585000E-01    1.00000000E+00   1.00000000E+00 
SP   1    1.000000
   4.38000000E-02    1.00000000E+00   1.00000000E+00 
D    1    1.000000
   6.26000000E-01    1.00000000E+00 

6    0
S    6    1.000000
   8.58850000E+03    1.89515000E-03 
   1.29723000E+03    1.43859000E-02 
   2.99296000E+02    7.07320000E-02 
   8.73771000E+01    2.40001000E-01 
   2.56789000E+01    5.94797000E-01 
   3.74004000E+00    2.80802000E-01 
SP   3    1.000000
   4.21175000E+01    1.13889000E-01   3.65114000E-02 
   9.62837000E+00    9.20811000E-01   2.37153000E-01 
   2.85332000E+00   -3.27447000E-03   8.19702000E-01 
SP   1    1.000000
   9.05661000E-01    1.00000000E+00   1.00000000E+00 
SP   1    1.000000
   2.55611000E-01    1.00000000E+00   1.00000000E+00 
SP   1    1.000000
   8.45000000E-02    1.00000000E+00   1.00000000E+00 
D    1    1.000000
   1.29200000E+00    1.00000000E+00 

7    0
S    6    1.000000
   4.56324000E+03    1.96665000E-03 
   6.82024000E+02    1.52306000E-02 
   1.54973000E+02    7.61269000E-02 
   4.44553000E+01    2.60801000E-01 
   1.30290000E+01    6.16462000E-01 
   1.82773000E+00    2.21006000E-01 
SP   3    1.000000
   2.09642000E+01    1.14660000E-01   4.02487000E-02 
   4.80331000E+00    9.19999000E-01   2.37594000E-01 
   1.45933000E+00   -3.03068000E-03   8.15854000E-01 
SP   1    1.000000
   4.83456000E-01    1.00000000E+00   1.00000000E+00 
SP   1    1.000000
   1.45585000E-01    1.00000000E+00   1.00000000E+00 
SP   1    1.000000
   4.38000000E-02    1.00000000E+00   1.00000000E+00 
D    1    1.000000
   6.26000000E-01    1.00000000E+00 

8    0
S    6    1.000000
   8.58850000E+03    1.89515000E-03 
   1.29723000E+03    1.43859000E-02 
   2.99296000E+02    7.07320000E-02 
   8.73771000E+01    2.40001000E-01 
   2.56789000E+01    5.94797000E-01 
   3.74004000E+00    2.80802000E-01 
SP   3    1.000000
   4.21175000E+01    1.13889000E-01   3.65114000E-02 
   9.62837000E+00    9.20811000E-01   2.37153000E-01 
   2.85332000E+00   -3.27447000E-03   8.19702000E-01 
SP   1    1.000000
   9.05661000E-01    1.00000000E+00   1.00000000E+00 
SP   1    1.000000
   2.55611000E-01    1.00000000E+00   1.00000000E+00 
SP   1    1.000000
   8.45000000E-02    1.00000000E+00   1.00000000E+00 
D    1    1.000000
   1.29200000E+00    1.00000000E+00 

9    0
S    6    1.000000
   6.29348000E+03    1.96979000E-03 
   9.49044000E+02    1.49613000E-02 
   2.18776000E+02    7.35006000E-02 
   6.36916000E+01    2.48937000E-01 
   1.88282000E+01    6.02460000E-01 
   2.72023000E+00    2.56202000E-01 
SP   3    1.000000
   3.06331000E+01    1.11906000E-01   3.83119000E-02 
   7.02614000E+00    9.21666000E-01   2.37403000E-01 
   2.11205000E+00   -2.56919000E-03   8.17592000E-01 
SP   1    1.000000
   6.84009000E-01    1.00000000E+00   1.00000000E+00 
SP   1    1.000000
   2.00878000E-01    1.00000000E+00   1.00000000E+00 
SP   1    1.000000
   6.39000000E-02    1.00000000E+00   1.00000000E+00 
D    1    1.000000
   9.13000000E-01    1.00000000E+00 

10    0
S    6    1.000000
   6.29348000E+03    1.96979000E-03 
   9.49044000E+02    1.49613000E-02 
   2.18776000E+02    7.35006000E-02 
   6.36916000E+01    2.48937000E-01 
   1.88282000E+01    6.02460000E-01 
   2.72023000E+00    2.56202000E-01 
SP   3    1.000000
   3.06331000E+01    1.11906000E-01   3.83119000E-02 
   7.02614000E+00    9.21666000E-01   2.37403000E-01 
   2.11205000E+00   -2.56919000E-03   8.17592000E-01 
SP   1    1.000000
   6.84009000E-01    1.00000000E+00   1.00000000E+00 
SP   1    1.000000
   2.00878000E-01    1.00000000E+00   1.00000000E+00 
SP   1    1.000000
   6.39000000E-02    1.00000000E+00   1.00000000E+00 
D    1    1.000000
   9.13000000E-01    1.00000000E+00 

11    0
S    6    1.000000
   4.56324000E+03    1.96665000E-03 
   6.82024000E+02    1.52306000E-02 
   1.54973000E+02    7.61269000E-02 
   4.44553000E+01    2.60801000E-01 
   1.30290000E+01    6.16462000E-01 
   1.82773000E+00    2.21006000E-01 
SP   3    1.000000
   2.09642000E+01    1.14660000E-01   4.02487000E-02 
   4.80331000E+00    9.19999000E-01   2.37594000E-01 
   1.45933000E+00   -3.03068000E-03   8.15854000E-01 
SP   1    1.000000
   4.83456000E-01    1.00000000E+00   1.00000000E+00 
SP   1    1.000000
   1.45585000E-01    1.00000000E+00   1.00000000E+00 
SP   1    1.000000
   4.38000000E-02    1.00000000E+00   1.00000000E+00 
D    1    1.000000
   6.26000000E-01    1.00000000E+00 

12    0
S    3    1.000000
   3.38650000E+01    2.54938000E-02 
   5.09479000E+00    1.90373000E-01 
   1.15879000E+00    8.52161000E-01 
S    1    1.000000
   3.25840000E-01    1.00000000E+00 
S    1    1.000000
   1.02741000E-01    1.00000000E+00 
S    1    1.000000
   3.60000000E-02    1.00000000E+00 
P    1    1.000000
   7.50000000E-01    1.00000000E+00 

[MO]
Sym=X
Ene= 2.007496
Spin=Alpha
Occup=1
     1    1.450835910358e-14
     2    9.024863814404e-15
     3    3.384514458915e-14
     4   -1.940889407833e-14
     5    5.958603584770e-02
     6    4.829657783917e-14
     7    2.640494879897e-14
     8   -3.801192794702e-14
     9    1.020747776420e-01
    10   -5.065069912111e-13
    11    3.543446111003e-13
    12   -1.035108695065e-13
    13    9.686349928185e-02
    14    2.591739405144e-12
    15   -1.148282258979e-12
    16    2.542121000388e-12
    17    1.562141700884e-02
    18   -4.697658289321e-15
    19    4.277798572686e-03
    20    7.128775982133e-03
    21   -2.733601658840e-14
    22   -5.313187115009e-15
    23   -5.040459556305e-15
    24   -1.981397196500e-13
    25    1.696249137298e-12
    26   -5.869797225050e-13
    27   -2.579458809747e-14
    28    1.550915077699e-15
    29    1.289480907496e-03
    30    1.701403960606e-14
    31   -3.208970613937e-14
    32    4.813964164242e-13
    33    1.309246520889e-12
    34    3.844172478012e-15
    35    1.079274449494e-14
    36    5.262274360276e-03
    37    4.726782134338e-14
    38    1.748116425103e-13
    39    4.234108708496e-13
    40    5.469127090905e-13
    41   -3.146483091071e-15
    42   -1.243583275633e-14
    43   -2.317806547491e-03
    44   -4.838308517383e-14
    45   -3.017127996031e-14
    46    3.542091269608e-14
    47   -1.942725959582e-14
    48    2.637047743970e-03
    49   -3.631086971131e-14
    50    3.076482798075e-14
    51    3.530236537553e-14
    52    3.082592076228e-03
    53   -6.434011613124e-13
    54   -2.309002025415e-13
    55    4.055506780999e-13
    56    5.099030965632e-03
    57   -2.407591875990e-12
    58   -1.489345365621e-12
    59   -7.430980106749e-13
    60    1.372129419377e-02
    61    8.250706226450e-15
    62   -3.787957334675e-03
    63   -9.893175865869e-04
    64    1.654029908259e-14
    65   -2.753988714232e-14
    66   -1.496760757102e-14
    67   -1.314062501948e-14
    68   -8.204293590885e-15
    69    5.457430731817e-14
    70    1.437113419317e-02
    71    2.072202917716e-15
    72   -4.881833949539e-15
    73    7.327284607862e-14
    74    2.230964894482e-02
    75   -7.413451218690e-14
    76   -2.107270052401e-13
    77   -5.428942144169e-14
    78    2.305295659117e-02
    79   -5.783669985211e-14
    80   -2.755666671195e-14
    81   -8.827810842285e-14
    82   -2.648108025139e-03
    83    2.021540678703e-15
    84    1.083140977475e-03
    85   -5.068711493499e-04
    86    8.447401309717e-17
    87    8.504641515444e-15
    88    3.855895896768e-14
    89    4.840766777684e-14
    90    3.110508103136e-15
    91    2.102346641628e-14
    92   -6.817207856812e-02
    93   -6.570303053192e-14
    94    2.575029746442e-14
    95   -1.176645552008e-14
    96   -1.190456168291e-01
    97   -3.436139133120e-13
    98    7.271913983478e-13
    99    5.465433879862e-13
   100   -6.953419551397e-02
   101    1.512434041393e-11
   102   -1.310565712526e-12
   103   -2.818778323972e-12
   104   -4.017580208679e-02
   105   -9.494456295279e-15
   106   -3.207868951735e-02
   107   -3.364669797097e-02
   108    8.838997824248e-15
   109   -1.658879907656e-16
   110    6.230132198031e-15
   111    1.197704539881e-14
   112    3.987879268674e-14
   113   -2.339892609458e-14
   114   -3.514428260683e-01
   115   -6.075613711590e-14
   116    1.694464134428e-14
   117   -3.491318990900e-14
   118   -4.054343010597e-01
   119   -3.649122342239e-14
   120    1.864447231308e-13
   121    5.994110094380e-14
   122   -2.757848376912e-01
   123   -1.033700792467e-12
   124   -6.462964399304e-15
   125    4.191895403370e-13
   126   -1.501656163194e-02
   127   -2.153082706941e-15
   128    1.928570968520e-02
   129    1.115187419108e-02
   130   -4.445193230709e-15
   131    6.907008290517e-16
   132    4.850848285677e-15
   133   -2.421298175612e-14
   134    1.334068707324e-14
   135    2.089948340528e-14
   136   -2.218427415490e-02
   137    1.135569821747e-13
   138    3.323100297823e-14
   139    7.422989653201e-14
   140   -3.751992140009e-02
   141    4.862859464733e-13
   142    2.042810225307e-13
   143   -5.608943019471e-13
   144   -2.835654377705e-02
   145   -2.429784870185e-14
   146   -1.508322003348e-12
   147   -1.435672827134e-13
   148    1.049663569651e-02
   149   -1.668006203998e-15
   150   -4.285437645721e-03
   151    1.599255415724e-03
   152   -1.004435947294e-14
   153    1.373424722413e-15
   154   -1.114669669596e-14
   155    6.117025380265e-15
   156    2.218008363753e-14
   157    1.205218572620e-15
   158    2.382789153746e-02
   159   -1.929447739685e-13
   160    1.558689478321e-14
   161    3.119879242279e-14
   162    4.038287098611e-02
   163    6.922461180060e-13
   164    5.954995639749e-14
   165    9.997388330399e-14
   166    1.793317346278e-02
   167   -2.155589499704e-12
   168    2.141781468884e-12
   169    1.385932346321e-13
   170   -2.346785502415e-02
   171   -4.006421574618e-15
   172    5.181051985153e-03
   173   -3.401732258786e-03
   174    5.272810691289e-15
   175    1.975859984934e-14
   176    1.047382296966e-13
   177    8.221431133224e-14
   178    5.345384381257e-14
   179   -4.619543315267e-14
   180    5.452623352121e-02
   181   -3.866241049885e-14
   182    4.330696351151e-14
   183   -7.568936218449e-14
   184    8.989264830288e-02
   185    1.016601756447e-12
   186    3.126410060551e-13
   187    2.194323914764e-13
   188    1.192667951621e-01
   189   -1.301848721073e-11
   190    2.908437348795e-12
   191   -5.306426995890e-12
   192    2.789139875556e-02
   193   -2.409589863179e-14
   194   -8.756610236088e-03
   195   -6.998108439414e-03
   196    2.314310469221e-14
   197   -1.862604457211e-14
   198    4.965139506398e-14
   199   -1.692456316643e-14
   200   -8.746021844579e-13
   201   -2.009637365756e-12
   202    7.101927513550e-16
   203   -9.768220492543e-15
   204    4.111871208316e-03
Sym=X
Ene= 2.003484
Spin=Alpha
Occup=1
     1   -1.072886521642e-14
     2   -2.436912496935e-14
     3   -4.723326534341e-14
     4   -4.798231281030e-14
     5    1.515298400917e-02
     6    7.145365293508e-14
     7   -6.589216656532e-14
     8   -5.070837262605e-14
     9    2.625770947485e-02
    10    2.929815522727e-13
    11   -9.204351492055e-14
    12   -9.901477711847e-14
    13   -1.910894640627e-02
    14   -5.182379185127e-12
    15   -6.192836650379e-13
    16   -1.965028474113e-12
    17   -6.690602080925e-03
    18   -3.719004379963e-16
    19   -2.760171605667e-02
    20    8.039837129740e-03
    21    1.189263006544e-14
    22   -2.595695767593e-16
    23   -2.778633148617e-14
    24    1.349664338177e-14
    25   -4.522817795217e-13
    26    2.119641341958e-13
    27    4.149141477336e-15
    28   -5.490196195410e-15
    29    1.530691116811e-02
    30    5.054673406805e-14
    31    8.480269740875e-14
    32   -3.020577920266e-13
    33   -9.017206882358e-13
    34   -4.845269571902e-15
    35    7.709984124209e-15
    36    8.848819063916e-04
    37   -1.941611926212e-15
    38   -3.231955762837e-14
    39   -3.996853974168e-13
    40   -1.567843474415e-13
    41    1.929691869515e-15
    42    4.509237090440e-15
    43   -1.385766022102e-02
    44    2.168632702626e-14
    45    1.229566387228e-14
    46   -8.949811698857e-14
    47    9.096140189571e-14
    48    1.238282431674e-02
    49    3.696912158827e-14
    50   -1.290125931912e-13
    51    1.213461758432e-13
    52    2.487294878080e-02
    53    2.349455875803e-13
    54    2.474178600010e-14
    55   -6.531804281508e-14
    56    1.743864928015e-02
    57    1.585042869132e-12
    58    6.346994061404e-13
    59    1.768354772125e-14
    60   -5.605397493194e-03
    61   -5.138070296193e-16
    62   -2.605644542929e-02
    63   -2.493221222651e-02
    64    1.749159611972e-14
    65   -5.421311071607e-15
    66    8.932683540965e-14
    67    4.619890063073e-14
    68    7.508662992684e-14
    69   -5.931356724377e-14
    70    3.084414417819e-02
    71    1.745521164468e-13
    72    1.111238946480e-13
    73   -8.548288579109e-14
    74    4.812398420643e-02
    75    1.304602898613e-13
    76    1.275612163447e-13
    77   -3.455297382546e-14
    78    4.204527410394e-02
    79   -1.599222155343e-13
    80   -5.002278320754e-14
    81    8.270298438800e-14
    82    6.243694877240e-03
    83   -8.522027887572e-15
    84    2.399162705605e-03
    85   -2.087913838364e-03
    86    8.106184587844e-15
    87   -1.145690056651e-14
    88   -7.332309636623e-14
    89   -3.912314888235e-14
    90    1.597739650981e-14
    91    3.322673462698e-14
    92   -7.420193251907e-02
    93   -1.208771729010e-13
    94    3.452834250255e-14
    95    6.525066098592e-14
    96   -1.336495855552e-01
    97   -8.354149883745e-14
    98   -3.257518420231e-13
    99   -1.179548454708e-13
   100   -7.185092383995e-02
   101   -5.321620151879e-12
   102    1.123283902315e-12
   103    5.767118230265e-13
   104    3.582838565659e-03
   105    1.303261763426e-14
   106    2.374919633296e-02
   107    1.212562096936e-03
   108    1.065572189857e-14
   109   -7.834674875424e-15
   110    1.244485524832e-14
   111    1.817338587084e-14
   112    3.029697299759e-14
   113   -7.203966405732e-14
   114    8.529561082010e-02
   115   -5.495927084889e-14
   116    4.545704799458e-14
   117   -7.969789088993e-14
   118    9.304918913049e-02
   119    1.780724018383e-15
   120   -2.772038623039e-14
   121   -9.598352652463e-14
   122    7.687859818958e-02
   123    3.866672788946e-13
   124   -4.654144250609e-14
   125   -2.033452107352e-13
   126    3.041025833778e-02
   127    1.377866274246e-15
   128    3.032643365533e-03
   129    1.825612811465e-03
   130   -1.491846720735e-15
   131    5.397516134803e-16
   132    1.209351518844e-14
   133    2.713110620675e-14
   134   -5.028425289576e-15
   135    2.677964322218e-14
   136   -1.657270966762e-01
   137   -6.757494567073e-14
   138   -4.863537030087e-15
   139    3.343290415126e-14
   140   -2.702840611577e-01
   141   -1.438927205880e-13
   142   -8.982122243327e-14
   143    2.173422241748e-13
   144   -2.772228515158e-01
   145    1.664085231254e-13
   146    6.743298721283e-13
   147    5.048401624154e-13
   148   -2.833768466933e-02
   149    2.101914554446e-15
   150   -5.731520066465e-03
   151    5.325246134018e-03
   152    6.395957010478e-15
   153   -9.212306686364e-16
   154    3.157246605621e-14
   155    5.142377011153e-14
   156    1.076193121945e-14
   157   -6.422839508227e-14
   158    1.661682708057e-01
   159   -9.875803091515e-14
   160    2.012716207164e-14
   161   -1.116714293427e-13
   162    2.703186962996e-01
   163   -3.297578321731e-13
   164    8.124334228236e-15
   165   -9.252656969956e-14
   166    2.883587291542e-01
   167    1.170125132728e-12
   168   -3.833079152389e-13
   169    1.708283349327e-13
   170    4.880634378642e-02
   171    4.895594028252e-15
   172    2.203395675696e-03
   173    5.840439141828e-04
   174   -3.673369052188e-15
   175   -1.344282678928e-14
   176   -6.684711009390e-14
   177   -2.763328299869e-14
   178    5.555666127431e-15
   179   -2.727435707596e-14
   180   -7.234631264399e-02
   181   -1.029731799254e-13
   182    1.415648973156e-14
   183   -5.123412838175e-14
   184   -1.218647607457e-01
   185   -4.902230213281e-13
   186   -4.258046762559e-14
   187    2.339709174380e-14
   188   -1.356040092548e-01
   189    7.914792202445e-12
   190   -2.793440173569e-12
   191    1.366518378004e-12
   192   -2.162065440220e-02
   193    1.560015851349e-14
   194    2.053114870009e-03
   195   -9.507186373646e-03
   196   -3.362328258072e-15
   197    6.966137259759e-15
   198   -5.374258478712e-15
   199    3.731787194735e-14
   200    4.105010228702e-13
   201    1.086626830656e-12
   202   -7.238460191322e-15
   203    2.575571016034e-15
   204   -6.100298153152e-03
Sym=X
Ene= 2.001877
Spin=Alpha
Occup=1
     1    1.112449045997e-02
     2    1.780005235280e-02
     3   -2.671454909126e-02
     4   -1.322838650128e-02
     5   -2.223371601204e-15
     6   -4.574032685321e-02
     7   -4.691143199165e-02
     8   -2.356551201622e-02
     9    1.978434400692e-14
    10   -7.382675474974e-02
    11   -3.533701904573e-02
    12   -4.085330613960e-02
    13   -3.076096073824e-14
    14   -1.541570518363e-01
    15   -4.319006993223e-02
    16   -3.682657854562e-02
    17    1.940730681126e-14
    18    9.425224990914e-04
    19    3.467909491883e-14
    20   -1.171757293377e-14
    21   -3.945579546162e-03
    22   -1.703314936728e-03
    23   -2.271141191873e-03
    24   -5.458309889950e-03
    25   -4.457313388973e-03
    26    8.860702836770e-03
    27   -1.697199513689e-04
    28   -5.527112193007e-04
    29    1.527199005475e-15
    30    7.609471078041e-03
    31    9.950969268691e-03
    32    6.603263699591e-03
    33   -1.496605561839e-02
    34   -1.617428555314e-03
    35   -6.092844660635e-04
    36    2.207774001965e-15
    37   -8.056203742906e-03
    38   -4.161088489915e-04
    39    1.681120704601e-02
    40   -4.621051419872e-02
    41   -1.635565889096e-03
    42    1.749620437617e-03
    43   -1.757829359093e-14
    44   -1.288489803227e-02
    45   -2.034351457935e-02
    46    3.337484557700e-02
    47    1.710887495741e-02
    48   -9.202886403433e-14
    49    5.432471912559e-02
    50    5.471697320354e-02
    51    2.768389718081e-02
    52   -1.491387683429e-13
    53    6.239709624406e-02
    54    4.627780695484e-02
    55    1.174831954604e-02
    56   -1.143162004488e-13
    57    3.973842141139e-02
    58    1.882711624887e-02
    59    3.681808539477e-02
    60   -1.540087936823e-13
    61   -8.720545374633e-04
    62    6.639198374454e-14
    63   -4.037347972488e-14
    64   -7.184638645706e-03
    65    4.663116064987e-03
    66    3.918637978180e-03
    67    6.509566965255e-03
    68    6.673466220015e-03
    69    2.917934761660e-02
    70   -3.638337757741e-14
    71   -1.837854576801e-02
    72    1.168712255628e-02
    73    4.469499617299e-02
    74   -8.926349201422e-14
    75   -1.200594492866e-02
    76    7.657959178197e-03
    77    3.541052858888e-02
    78    2.522512827746e-14
    79    2.201394967540e-02
    80    8.732216835573e-03
    81   -1.354638580641e-03
    82    1.165878255864e-13
    83    2.700731003786e-04
    84   -1.911384668914e-14
    85    8.190878495389e-15
    86    2.637050793459e-03
    87    2.155801581307e-03
    88   -5.298279632739e-03
    89   -9.392156634013e-03
    90    2.277484226198e-02
    91   -3.796620971645e-02
    92   -4.376726559428e-14
    93    2.831576074686e-02
    94    3.882572905106e-02
    95   -7.420643266411e-02
    96   -4.725306642023e-14
    97    3.515722776358e-02
    98   -1.484917309230e-02
    99    2.551931215655e-02
   100   -2.545023840222e-14
   101   -3.090401458543e-01
   102   -2.409426253391e-02
   103    1.534725984921e-01
   104    2.357600660067e-13
   105    1.252280134486e-04
   106    5.587204681320e-14
   107   -2.166923349307e-14
   108   -4.985095003327e-02
   109    3.057748484145e-02
   110   -4.536037912210e-03
   111   -6.510821512167e-03
   112   -2.060418926076e-01
   113    2.990788130823e-01
   114   -2.043592519994e-14
   115    1.989327467477e-02
   116   -2.378471021852e-01
   117    3.450553484454e-01
   118   -2.393672782376e-14
   119    6.033184859641e-03
   120   -1.721761702898e-01
   121    2.540761835801e-01
   122    5.981346750351e-15
   123   -1.325828927698e-02
   124    4.122479672317e-03
   125    4.818503470242e-03
   126   -1.713443416163e-13
   127   -9.691058973173e-04
   128   -2.479945730489e-15
   129   -8.312280152808e-16
   130    1.152504160054e-02
   131   -4.871500056865e-03
   132    2.186549319667e-02
   133    3.604794136185e-02
   134   -7.402383382336e-02
   135    1.458367758558e-02
   136   -1.317642279977e-13
   137   -9.681122381075e-02
   138   -1.198449678325e-01
   139    1.725217069084e-02
   140   -2.213285167123e-13
   141   -1.729008256408e-01
   142   -9.362304002750e-02
   143    4.018572282988e-02
   144   -1.891920992761e-13
   145   -1.342420457526e-01
   146    5.334870078272e-02
   147    1.494700697660e-02
   148   -5.203953422340e-14
   149   -6.575340793713e-04
   150   -2.127189262883e-14
   151    5.053533549223e-15
   152    1.625430132653e-03
   153    3.853939067525e-03
   154   -8.942219573958e-04
   155   -1.527079037382e-03
   156    3.225870659708e-03
   157   -1.435620411850e-03
   158   -5.839853002514e-14
   159    4.567441046458e-03
   160    3.991006377632e-03
   161   -2.495611500218e-03
   162   -9.401756140848e-14
   163    1.414699029105e-02
   164    7.664508943975e-03
   165   -5.528408945037e-03
   166   -5.992532267494e-14
   167    5.191235644169e-02
   168    5.838268552865e-03
   169    2.272692383382e-02
   170    4.072230034295e-14
   171    4.349994125939e-04
   172    4.150888166236e-16
   173    1.146111220036e-14
   174   -2.280038253294e-03
   175    1.247174012857e-03
   176   -2.251349868446e-02
   177   -3.508396074344e-02
   178    3.746970148585e-02
   179    4.463260369702e-02
   180   -1.747045604735e-15
   181    8.238630035645e-02
   182    6.358159693627e-02
   183    5.926578358378e-02
   184    4.456596325634e-14
   185    1.503432564593e-01
   186    1.747705025376e-02
   187    6.567182710935e-02
   188   -2.037969688656e-14
   189    4.939293066090e-01
   190   -4.937933563731e-02
   191    6.535126881820e-02
   192   -4.986805415145e-14
   193   -6.856305575517e-04
   194    9.888551915220e-16
   195   -1.326792658084e-14
   196   -6.478043349520e-04
   197   -8.346187308940e-04
   198    2.339962130402e-02
   199    3.014213808976e-02
   200    4.502545200362e-03
   201    2.548931615161e-02
   202   -2.285830361752e-03
   203    1.802493518605e-03
   204   -1.195512276613e-14
Sym=X
Ene= 2.001001
Spin=Alpha
Occup=1
     1   -3.642361555118e-03
     2   -6.448268501827e-03
     3    5.837768437950e-04
     4    1.768748964160e-02
     5   -1.316898726068e-14
     6    1.671272977875e-02
     7   -1.374064994871e-04
     8    2.892215941547e-02
     9   -3.180362485372e-14
    10    3.238950130449e-02
    11   -1.310829668195e-02
    12    2.179613570982e-02
    13   -7.272439739889e-14
    14    4.211700685189e-03
    15   -2.150823785262e-02
    16   -5.218245429270e-03
    17   -2.608339508364e-14
    18   -1.298726336902e-03
    19   -2.384952756095e-14
    20   -2.065397490226e-15
    21    2.507825269498e-03
    22    4.448945260540e-03
    23    1.420711770176e-02
    24    3.324408823156e-02
    25    2.677439545799e-02
    26   -3.236712897678e-02
    27    2.419955652726e-03
    28    2.881862549898e-03
    29    4.823103762920e-15
    30   -1.121162503487e-02
    31   -2.054608096979e-02
    32   -4.091322030176e-03
    33   -1.097067470636e-02
    34    2.573103189801e-05
    35   -1.677745501850e-03
    36   -1.648232153828e-16
    37   -2.701750738313e-02
    38   -3.753181252387e-02
    39   -1.935023723229e-02
    40    1.848430085332e-02
    41    3.599246697978e-03
    42    6.502715186980e-03
    43   -5.608528175548e-15
    44    8.963192714744e-03
    45    1.320225160628e-02
    46   -5.085563345887e-03
    47   -2.221527985848e-02
    48   -1.567969325342e-13
    49   -3.629311652922e-02
    50   -5.219808032655e-03
    51   -3.189448129665e-02
    52   -2.480118542340e-13
    53   -4.387401955026e-02
    54   -6.658158770805e-02
    55   -9.677850172328e-02
    56   -1.856480590329e-13
    57    7.328546533251e-03
    58   -5.551399519738e-02
    59   -8.746590475038e-02
    60   -1.010844097628e-13
    61   -3.185020432192e-04
    62    6.517972496240e-14
    63   -4.637033040190e-14
    64    5.346579481649e-02
    65    2.694471257394e-02
    66   -1.029181106162e-02
    67   -1.725486610382e-02
    68   -1.185624395270e-01
    69   -1.825524653740e-01
    70   -3.382691421585e-13
    71    4.976862899289e-02
    72   -1.838185940026e-01
    73   -2.820727118808e-01
    74   -5.252326889247e-13
    75    5.523341946880e-02
    76   -1.611082523435e-01
    77   -2.660784171591e-01
    78   -4.926334039390e-13
    79    3.634240962043e-03
    80   -6.921877540613e-03
    81   -1.627917416553e-02
    82   -1.625126138843e-14
    83    1.031617325310e-03
    84   -3.770749289989e-14
    85    8.453570865209e-15
    86   -1.347569074544e-02
    87   -6.517598023769e-03
    88    1.188079788593e-02
    89    1.508715746550e-02
    90   -7.382867401852e-02
    91   -5.543776252237e-02
    92   -5.911527219251e-14
    93   -3.136394770996e-02
    94   -1.200983485141e-01
    95   -9.213844492061e-02
    96   -1.118201765611e-13
    97   -3.551333984879e-02
    98   -2.279228104865e-02
    99   -1.412191646601e-02
   100   -8.695736609995e-14
   101   -9.163193895284e-02
   102    8.807012989418e-03
   103    2.517188623278e-02
   104    9.407601308149e-14
   105    4.903071326759e-03
   106   -1.369344303473e-14
   107    6.056164397310e-15
   108   -1.176881416482e-02
   109   -1.047592436891e-02
   110    9.851296482149e-03
   111    1.396746369611e-02
   112    9.798887187934e-02
   113    1.366911966468e-01
   114   -8.079845403468e-14
   115   -4.280697306294e-02
   116    1.135405963412e-01
   117    1.575884103664e-01
   118   -1.085021154179e-13
   119    4.585964444125e-02
   120    3.697495048476e-02
   121    8.682375868590e-02
   122   -2.257633616360e-14
   123    2.142283640012e-02
   124    1.194328064898e-03
   125    7.758691992386e-05
   126   -5.990856284749e-14
   127    7.122550886432e-03
   128    9.801964530205e-15
   129    7.644073852934e-15
   130   -3.537039977983e-03
   131   -1.193641370961e-02
   132   -6.962190858952e-03
   133   -1.232007947478e-02
   134   -7.375596916046e-03
   135   -4.704076243511e-02
   136    7.087446547493e-15
   137    3.287609364359e-02
   138   -2.057901105294e-03
   139   -6.655990951769e-02
   140    5.997379992120e-15
   141    1.199723681033e-01
   142   -6.185275864580e-02
   143   -6.118383980536e-02
   144    7.428626252065e-14