[Molden Format]
[Atoms] (Angs)
  C      1    6     -0.13173890     -1.79208980      0.00000000
  H      2    1     -2.14962000     -1.30978739      0.00000000
  H      3    1     -0.31599560     -2.86503115      0.00000000
  H      4    1      0.14407746      2.04280963     -0.00000000
  C      5    6     -1.17258876      0.48030861      0.00000000
  O      6    8     -2.25008207      1.06833796      0.00000000
  C      7    6      1.31158357      0.28308717     -0.00000000
  O      8    8      2.36361668      0.96389345     -0.00000000
  N      9    7      0.07017030      1.03138997     -0.00000000
  N     10    7     -1.19586868     -0.94982644      0.00000000
  C     11    6      1.19165158     -1.13169473     -0.00000000
  H     12    1      2.09970506     -1.73445456     -0.00000000
[GTO]
1    0
S    6    1.000000
   4.56324000E+03    1.96665000E-03 
   6.82024000E+02    1.52306000E-02 
   1.54973000E+02    7.61269000E-02 
   4.44553000E+01    2.60801000E-01 
   1.30290000E+01    6.16462000E-01 
   1.82773000E+00    2.21006000E-01 
SP   3    1.000000
   2.09642000E+01    1.14660000E-01   4.02487000E-02 
   4.80331000E+00    9.19999000E-01   2.37594000E-01 
   1.45933000E+00   -3.03068000E-03   8.15854000E-01 
SP   1    1.000000
   4.83456000E-01    1.00000000E+00   1.00000000E+00 
SP   1    1.000000
   1.45585000E-01    1.00000000E+00   1.00000000E+00 
SP   1    1.000000
   4.38000000E-02    1.00000000E+00   1.00000000E+00 
D    1    1.000000
   6.26000000E-01    1.00000000E+00 

2    0
S    3    1.000000
   3.38650000E+01    2.54938000E-02 
   5.09479000E+00    1.90373000E-01 
   1.15879000E+00    8.52161000E-01 
S    1    1.000000
   3.25840000E-01    1.00000000E+00 
S    1    1.000000
   1.02741000E-01    1.00000000E+00 
S    1    1.000000
   3.60000000E-02    1.00000000E+00 
P    1    1.000000
   7.50000000E-01    1.00000000E+00 

3    0
S    3    1.000000
   3.38650000E+01    2.54938000E-02 
   5.09479000E+00    1.90373000E-01 
   1.15879000E+00    8.52161000E-01 
S    1    1.000000
   3.25840000E-01    1.00000000E+00 
S    1    1.000000
   1.02741000E-01    1.00000000E+00 
S    1    1.000000
   3.60000000E-02    1.00000000E+00 
P    1    1.000000
   7.50000000E-01    1.00000000E+00 

4    0
S    3    1.000000
   3.38650000E+01    2.54938000E-02 
   5.09479000E+00    1.90373000E-01 
   1.15879000E+00    8.52161000E-01 
S    1    1.000000
   3.25840000E-01    1.00000000E+00 
S    1    1.000000
   1.02741000E-01    1.00000000E+00 
S    1    1.000000
   3.60000000E-02    1.00000000E+00 
P    1    1.000000
   7.50000000E-01    1.00000000E+00 

5    0
S    6    1.000000
   4.56324000E+03    1.96665000E-03 
   6.82024000E+02    1.52306000E-02 
   1.54973000E+02    7.61269000E-02 
   4.44553000E+01    2.60801000E-01 
   1.30290000E+01    6.16462000E-01 
   1.82773000E+00    2.21006000E-01 
SP   3    1.000000
   2.09642000E+01    1.14660000E-01   4.02487000E-02 
   4.80331000E+00    9.19999000E-01   2.37594000E-01 
   1.45933000E+00   -3.03068000E-03   8.15854000E-01 
SP   1    1.000000
   4.83456000E-01    1.00000000E+00   1.00000000E+00 
SP   1    1.000000
   1.45585000E-01    1.00000000E+00   1.00000000E+00 
SP   1    1.000000
   4.38000000E-02    1.00000000E+00   1.00000000E+00 
D    1    1.000000
   6.26000000E-01    1.00000000E+00 

6    0
S    6    1.000000
   8.58850000E+03    1.89515000E-03 
   1.29723000E+03    1.43859000E-02 
   2.99296000E+02    7.07320000E-02 
   8.73771000E+01    2.40001000E-01 
   2.56789000E+01    5.94797000E-01 
   3.74004000E+00    2.80802000E-01 
SP   3    1.000000
   4.21175000E+01    1.13889000E-01   3.65114000E-02 
   9.62837000E+00    9.20811000E-01   2.37153000E-01 
   2.85332000E+00   -3.27447000E-03   8.19702000E-01 
SP   1    1.000000
   9.05661000E-01    1.00000000E+00   1.00000000E+00 
SP   1    1.000000
   2.55611000E-01    1.00000000E+00   1.00000000E+00 
SP   1    1.000000
   8.45000000E-02    1.00000000E+00   1.00000000E+00 
D    1    1.000000
   1.29200000E+00    1.00000000E+00 

7    0
S    6    1.000000
   4.56324000E+03    1.96665000E-03 
   6.82024000E+02    1.52306000E-02 
   1.54973000E+02    7.61269000E-02 
   4.44553000E+01    2.60801000E-01 
   1.30290000E+01    6.16462000E-01 
   1.82773000E+00    2.21006000E-01 
SP   3    1.000000
   2.09642000E+01    1.14660000E-01   4.02487000E-02 
   4.80331000E+00    9.19999000E-01   2.37594000E-01 
   1.45933000E+00   -3.03068000E-03   8.15854000E-01 
SP   1    1.000000
   4.83456000E-01    1.00000000E+00   1.00000000E+00 
SP   1    1.000000
   1.45585000E-01    1.00000000E+00   1.00000000E+00 
SP   1    1.000000
   4.38000000E-02    1.00000000E+00   1.00000000E+00 
D    1    1.000000
   6.26000000E-01    1.00000000E+00 

8    0
S    6    1.000000
   8.58850000E+03    1.89515000E-03 
   1.29723000E+03    1.43859000E-02 
   2.99296000E+02    7.07320000E-02 
   8.73771000E+01    2.40001000E-01 
   2.56789000E+01    5.94797000E-01 
   3.74004000E+00    2.80802000E-01 
SP   3    1.000000
   4.21175000E+01    1.13889000E-01   3.65114000E-02 
   9.62837000E+00    9.20811000E-01   2.37153000E-01 
   2.85332000E+00   -3.27447000E-03   8.19702000E-01 
SP   1    1.000000
   9.05661000E-01    1.00000000E+00   1.00000000E+00 
SP   1    1.000000
   2.55611000E-01    1.00000000E+00   1.00000000E+00 
SP   1    1.000000
   8.45000000E-02    1.00000000E+00   1.00000000E+00 
D    1    1.000000
   1.29200000E+00    1.00000000E+00 

9    0
S    6    1.000000
   6.29348000E+03    1.96979000E-03 
   9.49044000E+02    1.49613000E-02 
   2.18776000E+02    7.35006000E-02 
   6.36916000E+01    2.48937000E-01 
   1.88282000E+01    6.02460000E-01 
   2.72023000E+00    2.56202000E-01 
SP   3    1.000000
   3.06331000E+01    1.11906000E-01   3.83119000E-02 
   7.02614000E+00    9.21666000E-01   2.37403000E-01 
   2.11205000E+00   -2.56919000E-03   8.17592000E-01 
SP   1    1.000000
   6.84009000E-01    1.00000000E+00   1.00000000E+00 
SP   1    1.000000
   2.00878000E-01    1.00000000E+00   1.00000000E+00 
SP   1    1.000000
   6.39000000E-02    1.00000000E+00   1.00000000E+00 
D    1    1.000000
   9.13000000E-01    1.00000000E+00 

10    0
S    6    1.000000
   6.29348000E+03    1.96979000E-03 
   9.49044000E+02    1.49613000E-02 
   2.18776000E+02    7.35006000E-02 
   6.36916000E+01    2.48937000E-01 
   1.88282000E+01    6.02460000E-01 
   2.72023000E+00    2.56202000E-01 
SP   3    1.000000
   3.06331000E+01    1.11906000E-01   3.83119000E-02 
   7.02614000E+00    9.21666000E-01   2.37403000E-01 
   2.11205000E+00   -2.56919000E-03   8.17592000E-01 
SP   1    1.000000
   6.84009000E-01    1.00000000E+00   1.00000000E+00 
SP   1    1.000000
   2.00878000E-01    1.00000000E+00   1.00000000E+00 
SP   1    1.000000
   6.39000000E-02    1.00000000E+00   1.00000000E+00 
D    1    1.000000
   9.13000000E-01    1.00000000E+00 

11    0
S    6    1.000000
   4.56324000E+03    1.96665000E-03 
   6.82024000E+02    1.52306000E-02 
   1.54973000E+02    7.61269000E-02 
   4.44553000E+01    2.60801000E-01 
   1.30290000E+01    6.16462000E-01 
   1.82773000E+00    2.21006000E-01 
SP   3    1.000000
   2.09642000E+01    1.14660000E-01   4.02487000E-02 
   4.80331000E+00    9.19999000E-01   2.37594000E-01 
   1.45933000E+00   -3.03068000E-03   8.15854000E-01 
SP   1    1.000000
   4.83456000E-01    1.00000000E+00   1.00000000E+00 
SP   1    1.000000
   1.45585000E-01    1.00000000E+00   1.00000000E+00 
SP   1    1.000000
   4.38000000E-02    1.00000000E+00   1.00000000E+00 
D    1    1.000000
   6.26000000E-01    1.00000000E+00 

12    0
S    3    1.000000
   3.38650000E+01    2.54938000E-02 
   5.09479000E+00    1.90373000E-01 
   1.15879000E+00    8.52161000E-01 
S    1    1.000000
   3.25840000E-01    1.00000000E+00 
S    1    1.000000
   1.02741000E-01    1.00000000E+00 
S    1    1.000000
   3.60000000E-02    1.00000000E+00 
P    1    1.000000
   7.50000000E-01    1.00000000E+00 

[MO]
Sym=X
Ene= 2.007931
Spin=Alpha
Occup=1
     1   -3.134298785460e-14
     2   -3.590192449885e-14
     3   -1.311489615985e-14
     4    7.988462265159e-15
     5    1.007602469200e-01
     6    4.587908603667e-14
     7   -1.535566496515e-14
     8    3.762061758577e-14
     9    1.758443502583e-01
    10    4.328995248276e-13
    11   -1.663960647540e-13
    12    7.296702838924e-14
    13    1.522165620726e-01
    14   -3.932322463273e-12
    15   -5.369177561131e-13
    16   -1.697386097379e-12
    17    1.603316169192e-02
    18   -6.502421900828e-16
    19    9.723424438548e-03
    20    1.527249563937e-02
    21    9.894279775600e-15
    22   -2.039644261355e-15
    23   -1.278272686917e-14
    24   -6.697663361141e-14
    25   -5.421169136380e-13
    26    6.581802663349e-14
    27   -5.402095614896e-15
    28    1.361378737046e-15
    29    1.156605874315e-03
    30    1.524087457683e-15
    31    2.890500865947e-14
    32   -1.986456600305e-13
    33   -8.391743486344e-13
    34   -1.129546108591e-15
    35   -4.592992396096e-15
    36    7.708042891675e-03
    37    2.285425276489e-14
    38    1.409353168685e-13
    39   -3.109329868057e-13
    40   -3.214296867844e-13
    41   -2.093315652074e-15
    42   -1.873932581455e-14
    43   -5.253006335649e-03
    44   -6.660442361429e-14
    45   -4.499618604069e-14
    46    1.797700872732e-14
    47    4.927468088786e-14
    48   -9.275291713799e-02
    49   -6.686313672448e-14
    50    2.347704396059e-14
    51    5.978445947012e-14
    52   -1.655763587072e-01
    53    1.467655849732e-13
    54    2.357581193956e-13
    55    1.652786787026e-13
    56   -9.615606696545e-02
    57    1.075607749667e-12
    58    5.311302016993e-13
    59    3.239038495712e-13
    60   -1.360665794010e-02
    61    7.106785054352e-15
    62    1.993354791367e-02
    63   -2.166830229550e-02
    64    9.430844954091e-15
    65    1.541518646176e-14
    66   -2.314000012076e-15
    67   -1.804516899838e-15
    68   -3.528749392035e-14
    69   -5.423543379107e-14
    70   -2.328827895149e-01
    71    6.831207041442e-15
    72   -2.645504401533e-14
    73   -4.736797344717e-14
    74   -2.718070428477e-01
    75    7.905630239771e-14
    76   -6.888632015846e-15
    77   -6.977232602591e-14
    78   -1.692755376946e-01
    79   -1.882923900353e-13
    80   -3.674071186322e-14
    81    9.355932431646e-14
    82    2.585202631342e-03
    83   -1.653734760746e-15
    84   -1.840436522812e-02
    85    1.013410727945e-02
    86    1.251002977696e-15
    87   -8.349626879900e-16
    88    3.901474118060e-14
    89    2.408890700364e-14
    90    1.425815259090e-14
    91   -6.143901849012e-16
    92    3.707211719164e-02
    93    3.680228076946e-14
    94    2.706835181126e-14
    95    8.437495366651e-15
    96    6.461322310825e-02
    97   -1.239474097431e-13
    98   -1.261017580446e-13
    99   -3.255139858070e-15
   100    4.606995308122e-02
   101   -9.034912275221e-12
   102    9.811500776860e-13
   103    1.958595890865e-12
   104    5.850289051697e-03
   105    2.351739820078e-15
   106   -1.687025130436e-03
   107   -1.935129521524e-02
   108    1.458801083485e-15
   109   -3.055149403980e-15
   110   -5.458949235270e-14
   111   -5.875442903524e-14
   112   -1.288512774262e-14
   113   -2.329560272560e-15
   114   -6.103194421371e-03
   115    6.443357446754e-14
   116    2.280328527055e-16
   117   -2.146155593584e-14
   118   -7.909163473928e-03
   119    9.670221469850e-15
   120   -4.574011918243e-14
   121    2.127851697806e-14
   122   -1.931826226752e-02
   123    2.934517875783e-13
   124    4.127095944335e-14
   125   -2.738544491169e-13
   126   -2.380379002624e-02
   127    6.306599193101e-16
   128   -1.800822891567e-03
   129   -1.603220289229e-03
   130    1.922467226842e-15
   131    1.720920784386e-16
   132    2.397249457799e-14
   133    6.833209510790e-15
   134   -2.631709196173e-14
   135    3.582097677060e-14
   136   -5.431389981121e-02
   137    9.642157085075e-14
   138   -5.391041474199e-14
   139    6.398089458139e-14
   140   -9.222260702357e-02
   141   -2.466560014165e-13
   142   -3.570061337474e-14
   143   -2.562692061513e-14
   144   -7.867165356673e-02
   145    4.120520185251e-13
   146    7.154877734370e-13
   147    1.539996038428e-13
   148    2.704963484445e-03
   149    2.712966808659e-15
   150    1.094827611556e-02
   151    1.605192757241e-03
   152    5.949841273260e-15
   153    2.309236871790e-15
   154   -7.034668907723e-14
   155   -4.609837334875e-14
   156    1.278618909109e-14
   157   -4.197676192657e-14
   158    3.478905107915e-02
   159   -3.940746981154e-14
   160    5.386356636902e-14
   161   -7.836450645401e-14
   162    5.654582286578e-02
   163   -1.490981001374e-13
   164   -2.723848605598e-13
   165    9.560316495563e-17
   166    4.240804148217e-02
   167    7.950982997947e-13
   168   -8.234709978485e-13
   169    3.302221502172e-13
   170   -1.346230677794e-02
   171    1.338418082735e-16
   172    9.070061659912e-03
   173   -1.146796813602e-02
   174    4.979091938683e-15
   175   -5.946610604848e-15
   176    1.483014818498e-14
   177    1.138492200503e-14
   178   -2.854076456635e-14
   179    1.589394151079e-14
   180    1.148903733727e-01
   181    1.576737807570e-14
   182   -2.977471776084e-14
   183    3.539131578031e-14
   184    1.985435524486e-01
   185   -2.334496411126e-13
   186   -1.234152877133e-13
   187    3.636045178961e-14
   188    1.933398099505e-01
   189    1.105714781617e-11
   190   -2.507633873713e-12
   191    2.513123637962e-12
   192    1.280528810367e-02
   193    1.470993205399e-14
   194   -1.697818657641e-02
   195    2.437003546209e-03
   196   -8.937351922016e-15
   197    1.228532129562e-14
   198   -2.356288644580e-14
   199    1.006416486660e-14
   200    2.887768951024e-13
   201    1.316223249729e-12
   202    8.135424919684e-17
   203    4.505182985683e-15
   204    9.141318928512e-03
Sym=X
Ene= 2.004147
Spin=Alpha
Occup=1
     1    9.554360197732e-03
     2    1.576481595790e-02
     3    1.073274785241e-02
     4   -3.133831157005e-02
     5   -1.480970556092e-14
     6   -4.231678849073e-02
     7    1.744866982713e-02
     8   -5.219737004968e-02
     9   -3.170260970286e-14
    10   -4.923119857124e-02
    11   -7.603379300340e-03
    12   -4.859669074105e-02
    13    3.055577053594e-15
    14   -9.786704713510e-02
    15    1.473345940453e-04
    16   -2.060744774021e-02
    17   -2.774065355205e-14
    18    2.193559924669e-03
    19    8.843966258117e-14
    20   -1.944822560972e-14
    21   -8.695553822638e-03
    22    5.567679117297e-03
    23    1.744358665518e-03
    24   -1.017753986494e-02
    25   -3.307581407329e-02
    26    2.348508254360e-02
    27    4.469209140599e-05
    28    9.163578565661e-04
    29   -4.754065317219e-15
    30    2.019331176400e-02
    31    3.211563888978e-02
    32    1.005558781320e-02
    33    1.928924613807e-03
    34    6.059569512751e-04
    35    7.280654334547e-04
    36   -4.119199689043e-15
    37    2.795503215033e-03
    38    1.693302410485e-02
    39    3.450235035493e-02
    40   -5.066693667721e-02
    41    1.679103529483e-03
    42   -1.586825722115e-03
    43   -1.071608370056e-14
    44   -1.081371382689e-02
    45   -1.770493910568e-02
    46   -4.786934573095e-02
    47   -1.538370579903e-02
    48   -6.370367234895e-14
    49    5.136116216920e-02
    50   -8.063535391359e-02
    51   -3.083596910108e-02
    52   -1.077211363492e-13
    53    6.271900698162e-02
    54    3.759578865766e-02
    55    6.120974717877e-02
    56   -2.026492988341e-13
    57    3.891628059267e-02
    58    5.622165844074e-02
    59    7.882457196217e-02
    60    1.520955514948e-13
    61   -2.398002577491e-03
    62    1.254068943662e-13
    63   -4.177425106487e-14
    64   -4.942841046152e-02
    65   -3.333347996089e-02
    66   -6.831592415123e-03
    67   -9.774653323075e-03
    68    2.028144999989e-01
    69    2.484348857219e-01
    70    1.045546850842e-14
    71    3.030631351805e-02
    72    2.339559281189e-01
    73    2.847133934966e-01
    74    6.269632479230e-15
    75   -1.716659796374e-02
    76    1.393961383244e-01
    77    2.082934445502e-01
    78    2.109089015859e-13
    79   -1.936695367124e-02
    80   -3.265216136949e-03
    81    4.618499839558e-03
    82   -1.140038068458e-13
    83   -3.340783355728e-03
    84   -2.076953316565e-14
    85    1.582035669083e-14
    86    1.411186198881e-02
    87    1.764971922395e-03
    88   -1.401836593576e-02
    89   -2.323776255303e-02
    90   -3.210501261539e-02
    91    8.012759656265e-03
    92    9.255759940757e-14
    93    6.214526336461e-02
    94   -5.493535628177e-02
    95    1.097859835835e-02
    96    1.245108249081e-13
    97    5.201217304462e-02
    98   -4.818304199220e-02
    99    2.433367036194e-02
   100    1.646773835988e-13
   101   -2.477662924383e-01
   102   -1.515875812608e-02
   103    1.300790936655e-01
   104   -1.513484838480e-13
   105   -2.388570369540e-03
   106    1.770022051649e-13
   107    1.002478081713e-14
   108   -2.947080541195e-02
   109    6.598702830022e-03
   110    4.176118771902e-03
   111    7.078505189606e-03
   112   -6.319973562891e-02
   113    1.097192435991e-01
   114    1.728324409063e-13
   115   -2.163665845026e-02
   116   -9.810873776223e-02
   117    1.691444038473e-01
   118    2.857088561704e-13
   119   -1.499873267574e-02
   120   -9.076292393331e-02
   121    1.534919649389e-01
   122   -1.621073611402e-14
   123    2.507856781813e-02
   124   -1.076207039801e-02
   125    1.634038583268e-03
   126    1.959675268065e-13
   127   -8.151881998342e-05
   128   -2.255729937524e-14
   129   -2.150715660196e-14
   130    8.001421593570e-03
   131   -4.452522561569e-03
   132    2.232270952766e-02
   133    3.706070883147e-02
   134    5.427824670449e-02
   135    2.117000626938e-02
   136   -1.084701348184e-13
   137   -9.859212929308e-02
   138    7.737557743864e-02
   139    2.271661917104e-02
   140   -1.916348661591e-13
   141   -1.936786403355e-01
   142    7.667889981629e-02
   143    3.844420489918e-02
   144   -1.339015410478e-13
   145   -1.916125329507e-01
   146   -2.969212419004e-03
   147   -2.663392188759e-04
   148   -3.827554671887e-14
   149   -1.404423967532e-03
   150   -3.334058673355e-14
   151   -3.785468426089e-15
   152    1.626787060423e-04
   153   -3.588867916989e-03
   154   -1.286188573508e-02
   155   -2.116668895735e-02
   156   -2.013234917150e-02
   157    6.280814051137e-02
   158   -8.294690991491e-14
   159    5.621034745134e-02
   160   -3.557285846056e-02
   161    9.614520652964e-02
   162   -1.456644747521e-13
   163    1.174125708539e-01
   164   -2.209267245663e-02
   165    9.266946719117e-02
   166   -5.006507852336e-14
   167    1.277753571128e-01
   168   -7.309540697211e-03
   169    2.303069011899e-03
   170   -1.817008481463e-14
   171    2.243978653168e-04
   172    1.384139328971e-15
   173    2.139896468707e-14
   174   -3.800912095201e-03
   175    3.451934545142e-04
   176   -4.907259215695e-03
   177   -7.898432343390e-03
   178    4.914854145846e-03
   179    2.197236489453e-02
   180    3.509238999210e-14
   181    1.928509390437e-02
   182    1.115889113734e-02
   183    2.890339877286e-02
   184    2.995003354552e-14
   185    6.294710155403e-02
   186   -7.520777212333e-03
   187    3.282404614751e-02
   188    1.416861179573e-14
   189    3.483675998172e-01
   190   -2.376703795266e-02
   191    7.204338700408e-02
   192    4.202775655753e-14
   193    5.706112850640e-04
   194    3.173732644984e-15
   195   -2.717037061052e-14
   196   -3.254363311018e-03
   197   -1.573065333104e-03
   198   -1.616516588822e-03
   199   -4.394386710573e-03
   200    2.012033027162e-03
   201    1.729937031020e-02
   202    9.057172899527e-04
   203   -5.237564543860e-04
   204   -7.691061398972e-15
Sym=X
Ene= 2.002571
Spin=Alpha
Occup=1
     1    1.175991780978e-13
     2    1.243458137092e-13
     3    1.116356591168e-13
     4   -6.816075253675e-14
     5    6.676483899519e-02
     6   -1.430188523268e-13
     7    1.709312276195e-13
     8   -1.292961040900e-13
     9    1.147934422877e-01
    10    4.510030991376e-14
    11    1.832452364511e-13
    12    2.819163293005e-13
    13    8.042305241112e-02
    14    7.638591808255e-12
    15    4.492719371279e-13
    16    3.539202030060e-12
    17    1.674887105823e-02
    18    8.072036352801e-15
    19   -6.566015008868e-03
    20    1.346065622020e-02
    21   -9.351111281963e-15
    22    1.636540140582e-14
    23    1.429192037483e-14
    24   -8.344049859459e-14
    25    4.447594915610e-13
    26   -2.463274837492e-13
    27   -7.538382092122e-15
    28    3.878394133653e-15
    29    7.598789413757e-03
    30    2.002423245627e-14
    31    5.619600982994e-14
    32    4.490373810463e-13
    33    1.399483930787e-12
    34    4.158540471713e-15
    35    7.724450391194e-15
    36    5.401425055082e-03
    37    7.677457157545e-14
    38    6.573046588610e-14
    39    1.384127171327e-13
    40    5.240140099046e-13
    41   -4.534840636455e-15
    42   -2.153589843841e-14
    43    5.598048549790e-03
    44    2.012084746934e-14
    45    2.296534824445e-14
    46    1.251510806194e-13
    47   -1.175636934846e-13
    48    7.363212693151e-02
    49   -5.073435313847e-14
    50    1.795700942536e-13
    51   -1.864020202455e-13
    52    1.290576652206e-01
    53   -1.046279199718e-13
    54    1.800750909355e-13
    55   -1.459825548817e-13
    56    6.639304052219e-02
    57   -3.503159946908e-12
    58   -1.194122653159e-12
    59    2.879378236367e-13
    60    2.615191205993e-02
    61   -4.616499917451e-15
    62    8.892635205317e-03
    63   -5.317430989097e-03
    64   -1.065008429897e-13
    65   -1.186463543586e-14
    66   -2.336928255739e-14
    67   -3.529605735042e-14
    68   -6.342738784066e-15
    69    7.066560387749e-13
    70    2.517007550442e-02
    71    1.415797227551e-13
    72   -1.972321345387e-15
    73    8.067551429782e-13
    74    3.284331926795e-02
    75    1.576545156676e-13
    76    7.253853460729e-14
    77    5.380633555518e-13
    78    1.057797182597e-02
    79    6.169650297632e-13
    80    2.639004190638e-13
    81   -1.771882479591e-13
    82   -2.262539389060e-02
    83    1.590965220855e-14
    84    7.227306096016e-03
    85   -3.943339763126e-03
    86    7.842444761308e-15
    87    3.691496288244e-14
    88    7.179723626466e-14
    89    9.382099906110e-14
    90   -8.324688004774e-14
    91    2.881353301524e-15
    92   -7.082468694632e-02
    93   -2.017353219764e-13
    94   -1.854536577001e-13
    95    9.457557082877e-15
    96   -1.246496664751e-01
    97    1.548966803741e-13
    98    5.292727593002e-14
    99   -1.272150818653e-13
   100   -1.017616503700e-01
   101    1.644730783474e-11
   102   -1.381213809539e-12
   103   -4.016297807776e-12
   104   -1.850814186075e-02
   105    9.589974047270e-15
   106   -4.089461291885e-02
   107   -2.398414792943e-02
   108    5.030126976430e-14
   109   -7.916694661847e-14
   110    5.382359257659e-14
   111    6.346363690950e-14
   112    2.427098768149e-13
   113   -1.547513133729e-13
   114   -1.857234781014e-01
   115   -1.001262925391e-13
   116    3.528461747382e-13
   117   -2.307887778911e-13
   118   -2.910612147253e-01
   119    1.150030575932e-13
   120    3.111429554452e-13
   121   -3.093570901402e-13
   122   -2.707911125971e-01
   123   -5.727478061108e-13
   124    1.268112654290e-13
   125    3.636178448394e-13
   126   -3.253644952693e-02
   127    4.407044447505e-15
   128    1.600373575599e-02
   129    9.513517051840e-03
   130   -1.718084361470e-14
   131   -4.434337133535e-16
   132    1.306624818952e-13
   133    4.244988690814e-14
   134    1.010294284710e-13
   135    1.083154286554e-15
   136    8.275194262863e-02
   137    3.695334178240e-13
   138    1.342299379288e-13
   139   -4.851024186065e-15
   140    1.340140966527e-01
   141    2.767023220049e-13
   142    2.428994617375e-13
   143   -2.335586060101e-14
   144    1.448240276091e-01
   145    2.898767375100e-14
   146   -4.170421255806e-13
   147    2.657379330912e-15
   148    9.701953775556e-03
   149   -7.718805324031e-15
   150   -1.230995800844e-02
   151   -3.068291647638e-03
   152   -1.176574235480e-14
   153    1.122357641452e-14
   154    2.547037301807e-14
   155    1.232061580398e-14
   156   -7.351340056586e-14
   157    1.871589418785e-13
   158    1.091967638372e-01
   159    4.236164001281e-14
   160   -1.269106656691e-13
   161    2.969514227188e-13
   162    1.804381365005e-01
   163    4.557427853795e-14
   164   -1.583264330422e-13
   165    1.615196574898e-13
   166    1.533398717668e-01
   167   -1.481405667247e-12
   168    5.097019125942e-13
   169   -2.271617453827e-14
   170   -2.062438736059e-02
   171    1.710020404502e-15
   172    7.002281302335e-03
   173    3.257296170718e-03
   174   -2.900724395545e-15
   175    1.951770601004e-14
   176   -2.276805978280e-15
   177   -2.227311029567e-14
   178    6.822736717508e-14
   179   -1.197177931427e-13
   180    3.169511570669e-02
   181    9.518246720250e-14
   182    7.533890883424e-14
   183   -1.718442730239e-13
   184    5.082567121008e-02
   185    2.242977108937e-14
   186    4.029943440041e-13
   187   -2.980732749722e-13
   188    8.078227690172e-02
   189   -1.955130232196e-11
   190    3.289726565626e-12
   191   -4.951589433909e-12
   192    5.555106547672e-03
   193   -1.207711092022e-14
   194   -1.023160205873e-02
   195   -8.448390926464e-03
   196    4.410961887542e-15
   197   -2.294942078723e-14
   198    1.260499216594e-13
   199    1.083248238341e-13
   200   -3.899734343064e-13
   201   -1.909037405700e-12
   202   -3.650237679914e-15
   203    1.408904983891e-16
   204    1.488146131597e-03
Sym=X
Ene= 2.001727
Spin=Alpha
Occup=1
     1   -5.732455743542e-03
     2   -9.042685107611e-03
     3   -3.473913783882e-02
     4    1.616356152185e-02
     5    1.661110919335e-13
     6    2.472205283011e-02
     7   -6.034256778379e-02
     8    2.762747811024e-02
     9    2.896784638201e-13
    10    4.766711740461e-03
    11   -2.598250114531e-02
    12    9.051897504790e-03
    13    1.246315689829e-13
    14   -1.766528266628e-01
    15   -5.816070194801e-02
    16   -7.973548669108e-02
    17    5.515395522513e-14
    18   -1.676281225477e-03
    19   -8.854384562228e-14
    20    4.179854527205e-14
    21    5.075021847901e-03
    22   -4.253027670184e-03
    23    8.337809516428e-03
    24    1.102726079969e-02
    25    1.661051505569e-02
    26    3.273888046898e-04
    27    1.641576434656e-03
    28   -2.310793962277e-03
    29    3.269315971923e-14
    30   -6.674050899858e-03
    31   -1.324720909116e-02
    32   -8.817794907603e-03
    33   -4.519300458921e-02
    34   -1.511825390637e-03
    35   -5.805164362897e-05
    36    1.394666331174e-14
    37    6.717354307251e-03
    38    1.465051684588e-04
    39   -6.755905350670e-03
    40   -2.285163829186e-02
    41    2.322222905401e-03
    42   -6.770145891659e-04
    43   -1.115914538461e-14
    44   -1.348389352271e-02
    45   -2.061814627417e-02
    46   -7.100721836561e-02
    47    8.153581963056e-02
    48    1.922866517151e-13
    49    5.941212032370e-02
    50   -1.092112564148e-01
    51    1.396987912439e-01
    52    3.587184137869e-13
    53    7.400098980412e-02
    54   -1.319196540690e-02
    55   -1.810995755335e-03
    56    2.061027531764e-13
    57    4.033503803301e-02
    58    1.022858647949e-03
    59   -2.840501922048e-02
    60   -1.239636739162e-13
    61   -4.886899626251e-03
    62   -9.952272114694e-14
    63   -2.266129661326e-14
    64    4.019652549468e-02
    65   -5.174915367956e-03
    66    5.097595802155e-04
    67    1.249310316428e-03
    68    9.890985487577e-02
    69   -2.398174491707e-01
    70    1.921912648672e-13
    71   -1.287872112871e-02
    72    1.112817821905e-01
    73   -2.732227087486e-01
    74    2.326012151010e-13
    75   -8.330052031487e-02
    76    2.382935184889e-02
    77   -1.661102431103e-01
    78    1.772440180417e-14
    79   -1.700472239315e-02
    80    2.389998374964e-03
    81   -9.851969700956e-04
    82    1.157877305495e-13
    83   -8.708026611262e-03
    84    2.458477997939e-14
    85   -2.613609240475e-14
    86    4.121143963348e-03
    87   -1.581788816412e-02
    88   -1.691863830160e-02
    89   -2.794396279763e-02
    90    4.149343582362e-03
    91    8.489849951143e-03
    92   -1.593072600304e-13
    93    7.863391075226e-02
    94    6.594099422703e-03
    95    7.146671212167e-03
    96   -2.624197768057e-13
    97    8.444250638943e-02
    98   -3.683757282269e-02
    99    6.441612427578e-02
   100   -2.111458609704e-13
   101   -2.426234267418e-01
   102   -4.444803411875e-02
   103    1.203319429343e-01
   104    1.702247163960e-13
   105   -3.478056544543e-03
   106   -1.217484383914e-13
   107   -3.081293298531e-14
   108   -3.727757029332e-02
   109    2.243027478511e-02
   110    1.202653465174e-02
   111    2.038189177072e-02
   112   -1.227025776872e-01
   113    1.178639181508e-01
   114   -2.550977664490e-13
   115   -6.189890175479e-02
   116   -1.879141504135e-01
   117    1.828193641309e-01
   118   -4.007416187331e-13
   119   -7.718901876539e-02
   120   -1.611808244716e-01
   121    1.785949358238e-01
   122   -2.400402178134e-13
   123   -1.851767634926e-02
   124    5.491103731537e-03
   125    8.460231488437e-03
   126   -2.088017128701e-13
   127   -2.141070973089e-03
   128    3.040605690928e-14
   129    2.339030544580e-14
   130    1.084671814849e-02
   131   -1.619316064930e-03
   132    5.447925619725e-03
   133    1.005393566628e-02
   134   -1.966027370242e-02
   135    2.170076945773e-02
   136    3.241306619939e-14
   137   -2.945265258616e-02
   138   -2.678817223754e-02
   139    3.451371876956e-02
   140    6.104957317517e-14
   141   -8.409127738300e-02
   142   -6.231205455377e-02
   143    5.245875857189e-02
   144    3.369365483572e-14