[Molden Format]
[Atoms] (Angs)
  C      1    6     -0.13173890     -1.79208980      0.00000000
  H      2    1     -2.14962000     -1.30978739      0.00000000
  H      3    1     -0.31599560     -2.86503115      0.00000000
  H      4    1      0.14407746      2.04280963     -0.00000000
  C      5    6     -1.17258876      0.48030861      0.00000000
  O      6    8     -2.25008207      1.06833796      0.00000000
  C      7    6      1.31158357      0.28308717     -0.00000000
  O      8    8      2.36361668      0.96389345     -0.00000000
  N      9    7      0.07017030      1.03138997     -0.00000000
  N     10    7     -1.19586868     -0.94982644      0.00000000
  C     11    6      1.19165158     -1.13169473     -0.00000000
  H     12    1      2.09970506     -1.73445456     -0.00000000
[GTO]
1    0
S    6    1.000000
   4.56324000E+03    1.96665000E-03 
   6.82024000E+02    1.52306000E-02 
   1.54973000E+02    7.61269000E-02 
   4.44553000E+01    2.60801000E-01 
   1.30290000E+01    6.16462000E-01 
   1.82773000E+00    2.21006000E-01 
SP   3    1.000000
   2.09642000E+01    1.14660000E-01   4.02487000E-02 
   4.80331000E+00    9.19999000E-01   2.37594000E-01 
   1.45933000E+00   -3.03068000E-03   8.15854000E-01 
SP   1    1.000000
   4.83456000E-01    1.00000000E+00   1.00000000E+00 
SP   1    1.000000
   1.45585000E-01    1.00000000E+00   1.00000000E+00 
SP   1    1.000000
   4.38000000E-02    1.00000000E+00   1.00000000E+00 
D    1    1.000000
   6.26000000E-01    1.00000000E+00 

2    0
S    3    1.000000
   3.38650000E+01    2.54938000E-02 
   5.09479000E+00    1.90373000E-01 
   1.15879000E+00    8.52161000E-01 
S    1    1.000000
   3.25840000E-01    1.00000000E+00 
S    1    1.000000
   1.02741000E-01    1.00000000E+00 
S    1    1.000000
   3.60000000E-02    1.00000000E+00 
P    1    1.000000
   7.50000000E-01    1.00000000E+00 

3    0
S    3    1.000000
   3.38650000E+01    2.54938000E-02 
   5.09479000E+00    1.90373000E-01 
   1.15879000E+00    8.52161000E-01 
S    1    1.000000
   3.25840000E-01    1.00000000E+00 
S    1    1.000000
   1.02741000E-01    1.00000000E+00 
S    1    1.000000
   3.60000000E-02    1.00000000E+00 
P    1    1.000000
   7.50000000E-01    1.00000000E+00 

4    0
S    3    1.000000
   3.38650000E+01    2.54938000E-02 
   5.09479000E+00    1.90373000E-01 
   1.15879000E+00    8.52161000E-01 
S    1    1.000000
   3.25840000E-01    1.00000000E+00 
S    1    1.000000
   1.02741000E-01    1.00000000E+00 
S    1    1.000000
   3.60000000E-02    1.00000000E+00 
P    1    1.000000
   7.50000000E-01    1.00000000E+00 

5    0
S    6    1.000000
   4.56324000E+03    1.96665000E-03 
   6.82024000E+02    1.52306000E-02 
   1.54973000E+02    7.61269000E-02 
   4.44553000E+01    2.60801000E-01 
   1.30290000E+01    6.16462000E-01 
   1.82773000E+00    2.21006000E-01 
SP   3    1.000000
   2.09642000E+01    1.14660000E-01   4.02487000E-02 
   4.80331000E+00    9.19999000E-01   2.37594000E-01 
   1.45933000E+00   -3.03068000E-03   8.15854000E-01 
SP   1    1.000000
   4.83456000E-01    1.00000000E+00   1.00000000E+00 
SP   1    1.000000
   1.45585000E-01    1.00000000E+00   1.00000000E+00 
SP   1    1.000000
   4.38000000E-02    1.00000000E+00   1.00000000E+00 
D    1    1.000000
   6.26000000E-01    1.00000000E+00 

6    0
S    6    1.000000
   8.58850000E+03    1.89515000E-03 
   1.29723000E+03    1.43859000E-02 
   2.99296000E+02    7.07320000E-02 
   8.73771000E+01    2.40001000E-01 
   2.56789000E+01    5.94797000E-01 
   3.74004000E+00    2.80802000E-01 
SP   3    1.000000
   4.21175000E+01    1.13889000E-01   3.65114000E-02 
   9.62837000E+00    9.20811000E-01   2.37153000E-01 
   2.85332000E+00   -3.27447000E-03   8.19702000E-01 
SP   1    1.000000
   9.05661000E-01    1.00000000E+00   1.00000000E+00 
SP   1    1.000000
   2.55611000E-01    1.00000000E+00   1.00000000E+00 
SP   1    1.000000
   8.45000000E-02    1.00000000E+00   1.00000000E+00 
D    1    1.000000
   1.29200000E+00    1.00000000E+00 

7    0
S    6    1.000000
   4.56324000E+03    1.96665000E-03 
   6.82024000E+02    1.52306000E-02 
   1.54973000E+02    7.61269000E-02 
   4.44553000E+01    2.60801000E-01 
   1.30290000E+01    6.16462000E-01 
   1.82773000E+00    2.21006000E-01 
SP   3    1.000000
   2.09642000E+01    1.14660000E-01   4.02487000E-02 
   4.80331000E+00    9.19999000E-01   2.37594000E-01 
   1.45933000E+00   -3.03068000E-03   8.15854000E-01 
SP   1    1.000000
   4.83456000E-01    1.00000000E+00   1.00000000E+00 
SP   1    1.000000
   1.45585000E-01    1.00000000E+00   1.00000000E+00 
SP   1    1.000000
   4.38000000E-02    1.00000000E+00   1.00000000E+00 
D    1    1.000000
   6.26000000E-01    1.00000000E+00 

8    0
S    6    1.000000
   8.58850000E+03    1.89515000E-03 
   1.29723000E+03    1.43859000E-02 
   2.99296000E+02    7.07320000E-02 
   8.73771000E+01    2.40001000E-01 
   2.56789000E+01    5.94797000E-01 
   3.74004000E+00    2.80802000E-01 
SP   3    1.000000
   4.21175000E+01    1.13889000E-01   3.65114000E-02 
   9.62837000E+00    9.20811000E-01   2.37153000E-01 
   2.85332000E+00   -3.27447000E-03   8.19702000E-01 
SP   1    1.000000
   9.05661000E-01    1.00000000E+00   1.00000000E+00 
SP   1    1.000000
   2.55611000E-01    1.00000000E+00   1.00000000E+00 
SP   1    1.000000
   8.45000000E-02    1.00000000E+00   1.00000000E+00 
D    1    1.000000
   1.29200000E+00    1.00000000E+00 

9    0
S    6    1.000000
   6.29348000E+03    1.96979000E-03 
   9.49044000E+02    1.49613000E-02 
   2.18776000E+02    7.35006000E-02 
   6.36916000E+01    2.48937000E-01 
   1.88282000E+01    6.02460000E-01 
   2.72023000E+00    2.56202000E-01 
SP   3    1.000000
   3.06331000E+01    1.11906000E-01   3.83119000E-02 
   7.02614000E+00    9.21666000E-01   2.37403000E-01 
   2.11205000E+00   -2.56919000E-03   8.17592000E-01 
SP   1    1.000000
   6.84009000E-01    1.00000000E+00   1.00000000E+00 
SP   1    1.000000
   2.00878000E-01    1.00000000E+00   1.00000000E+00 
SP   1    1.000000
   6.39000000E-02    1.00000000E+00   1.00000000E+00 
D    1    1.000000
   9.13000000E-01    1.00000000E+00 

10    0
S    6    1.000000
   6.29348000E+03    1.96979000E-03 
   9.49044000E+02    1.49613000E-02 
   2.18776000E+02    7.35006000E-02 
   6.36916000E+01    2.48937000E-01 
   1.88282000E+01    6.02460000E-01 
   2.72023000E+00    2.56202000E-01 
SP   3    1.000000
   3.06331000E+01    1.11906000E-01   3.83119000E-02 
   7.02614000E+00    9.21666000E-01   2.37403000E-01 
   2.11205000E+00   -2.56919000E-03   8.17592000E-01 
SP   1    1.000000
   6.84009000E-01    1.00000000E+00   1.00000000E+00 
SP   1    1.000000
   2.00878000E-01    1.00000000E+00   1.00000000E+00 
SP   1    1.000000
   6.39000000E-02    1.00000000E+00   1.00000000E+00 
D    1    1.000000
   9.13000000E-01    1.00000000E+00 

11    0
S    6    1.000000
   4.56324000E+03    1.96665000E-03 
   6.82024000E+02    1.52306000E-02 
   1.54973000E+02    7.61269000E-02 
   4.44553000E+01    2.60801000E-01 
   1.30290000E+01    6.16462000E-01 
   1.82773000E+00    2.21006000E-01 
SP   3    1.000000
   2.09642000E+01    1.14660000E-01   4.02487000E-02 
   4.80331000E+00    9.19999000E-01   2.37594000E-01 
   1.45933000E+00   -3.03068000E-03   8.15854000E-01 
SP   1    1.000000
   4.83456000E-01    1.00000000E+00   1.00000000E+00 
SP   1    1.000000
   1.45585000E-01    1.00000000E+00   1.00000000E+00 
SP   1    1.000000
   4.38000000E-02    1.00000000E+00   1.00000000E+00 
D    1    1.000000
   6.26000000E-01    1.00000000E+00 

12    0
S    3    1.000000
   3.38650000E+01    2.54938000E-02 
   5.09479000E+00    1.90373000E-01 
   1.15879000E+00    8.52161000E-01 
S    1    1.000000
   3.25840000E-01    1.00000000E+00 
S    1    1.000000
   1.02741000E-01    1.00000000E+00 
S    1    1.000000
   3.60000000E-02    1.00000000E+00 
P    1    1.000000
   7.50000000E-01    1.00000000E+00 

[MO]
Sym=X
Ene= 2.009869
Spin=Alpha
Occup=1
     1   -1.292795204125e-14
     2   -8.449996236638e-15
     3   -3.026973651686e-14
     4    2.018620220270e-14
     5   -6.519738089908e-02
     6   -4.724480011689e-14
     7   -2.110741620804e-14
     8    4.095267571393e-14
     9   -1.131209166891e-01
    10    5.614000824258e-13
    11   -3.541342755005e-13
    12    1.448268366343e-13
    13   -1.062020351637e-01
    14   -2.437815364814e-12
    15    1.196678335357e-12
    16   -2.493352295726e-12
    17   -1.235296324852e-02
    18    4.786774697585e-15
    19   -8.810769585595e-03
    20   -7.936618408490e-03
    21    2.971897320115e-14
    22    4.652602037658e-15
    23    4.499739846016e-15
    24    1.962029713298e-13
    25   -1.707251856355e-12
    26    5.856294826911e-13
    27    2.616732256163e-14
    28   -1.381995225515e-15
    29   -2.433091652092e-05
    30   -1.701790456886e-14
    31    3.997778981020e-14
    32   -4.636909791001e-13
    33   -1.281568099505e-12
    34   -4.397512189366e-15
    35   -1.048081793487e-14
    36   -5.319131064663e-03
    37   -3.471020387305e-14
    38   -1.662362129282e-13
    39   -4.310026424500e-13
    40   -5.444910176443e-13
    41    2.980954786436e-15
    42    1.010212217021e-14
    43    2.198131320530e-03
    44    3.686376381889e-14
    45    2.200894153043e-14
    46   -2.892657505256e-14
    47    1.959373972207e-14
    48   -1.292559875836e-03
    49    2.612088145276e-14
    50   -1.932880037957e-14
    51   -3.877666927855e-14
    52   -1.309013785849e-04
    53    6.772340874116e-13
    54    2.584328353455e-13
    55   -4.418458270824e-13
    56   -6.459204431066e-03
    57    2.455819927816e-12
    58    1.510216600082e-12
    59    7.489650435406e-13
    60   -1.729992214736e-02
    61   -8.438229898112e-15
    62    5.168910879388e-03
    63   -1.170463417121e-03
    64   -1.634707765115e-14
    65    3.066180094256e-14
    66    1.122030367955e-14
    67    7.955478690838e-15
    68   -1.587138980507e-15
    69   -5.150519168121e-14
    70   -1.922240225270e-02
    71    1.034525556322e-14
    72   -1.120175536211e-14
    73   -7.033284773362e-14
    74   -2.983408771429e-02
    75    9.246962968960e-14
    76    2.095870313328e-13
    77    6.518535203736e-14
    78   -3.081691295867e-02
    79    1.051297593825e-13
    80    4.096879609918e-14
    81    7.812367525856e-14
    82    2.541162447002e-03
    83   -1.565968634999e-15
    84   -1.380534499315e-03
    85    6.354779296547e-04
    86   -6.765071914052e-16
    87   -7.825940735287e-15
    88   -3.778098204972e-14
    89   -4.577658841954e-14
    90   -5.194505761095e-15
    91   -1.710928235955e-14
    92    5.922326851819e-02
    93    5.294946777695e-14
    94   -3.180044421479e-14
    95    1.917228835616e-14
    96    1.036736394882e-01
    97    3.615686725812e-13
    98   -7.700008879095e-13
    99   -5.795820976323e-13
   100    6.200919656745e-02
   101   -1.509237095403e-11
   102    1.283419798359e-12
   103    2.787860058227e-12
   104    3.991774316173e-02
   105    1.038531235380e-14
   106    3.260199081772e-02
   107    3.586221420394e-02
   108   -7.720406267802e-15
   109   -3.667364842189e-15
   110   -4.517812291555e-15
   111   -9.618995630027e-15
   112   -3.063282582137e-14
   113    1.377198337232e-14
   114    3.491586742629e-01
   115    5.306350330202e-14
   116   -5.531258937466e-15
   117    2.406354718509e-14
   118    4.014066289983e-01
   119    4.785820748677e-14
   120   -1.896653865885e-13
   121   -7.582558903261e-14
   122    2.695456644543e-01
   123    1.067374146736e-12
   124    9.924032388957e-15
   125   -4.227768821634e-13
   126    1.510302960718e-02
   127    2.137896908169e-15
   128   -1.900531855794e-02
   129   -1.121475478807e-02
   130    4.374648791852e-15
   131   -6.876632800186e-16
   132    3.428569526719e-16
   133    2.145872262828e-14
   134   -1.185703268678e-14
   135   -1.535008402988e-14
   136    2.195532431898e-02
   137   -7.075107253379e-14
   138   -3.051606406967e-14
   139   -6.629881622440e-14
   140    3.718739073613e-02
   141   -4.789353906265e-13
   142   -2.043187760799e-13
   143    5.932635669210e-13
   144    2.937081698126e-02
   145   -1.669045901710e-14
   146    1.552460586712e-12
   147    1.518534612621e-13
   148   -8.465192698461e-03
   149    9.303759920526e-16
   150    3.537710839488e-03
   151   -1.501310492323e-03
   152    9.797136250973e-15
   153   -1.173775058806e-15
   154    8.503428732097e-15
   155   -7.876747396698e-15
   156   -2.236531915898e-14
   157   -8.227488347331e-16
   158   -1.034487426658e-02
   159    1.977893133666e-13
   160   -1.497812753766e-14
   161   -2.925986462977e-14
   162   -1.875045168696e-02
   163   -7.603449262401e-13
   164   -7.794477383036e-14
   165   -1.128448075631e-13
   166    8.386322164632e-03
   167    2.111117934492e-12
   168   -2.168919963775e-12
   169   -1.596344831711e-13
   170    2.878373501157e-02
   171    4.346976409295e-15
   172   -5.489456789083e-03
   173    3.716083056908e-03
   174   -5.387808010280e-15
   175   -1.966322798323e-14
   176   -7.897006750974e-14
   177   -6.269041949499e-14
   178   -5.191178755605e-14
   179    3.815823672528e-14
   180   -7.209949612191e-02
   181    5.212032295314e-14
   182   -4.137487957899e-14
   183    6.375046390517e-14
   184   -1.210484938733e-01
   185   -1.066413563620e-12
   186   -2.829680743285e-13
   187   -2.520990521034e-13
   188   -1.490328773162e-01
   189    1.278018115606e-11
   190   -2.842060815147e-12
   191    5.306664630954e-12
   192   -3.292300076197e-02
   193    2.495824839315e-14
   194    1.075439815918e-02
   195    6.331403029522e-03
   196   -2.311853592891e-14
   197    1.965462587319e-14
   198   -4.044276633098e-14
   199    3.135381564018e-14
   200    8.779130335373e-13
   201    1.995122050261e-12
   202   -1.238791632447e-15
   203    1.021604569149e-14
   204   -5.159220568370e-03
Sym=X
Ene= 2.004828
Spin=Alpha
Occup=1
     1   -1.423545850777e-14
     2   -2.584676454109e-14
     3   -3.379415950109e-14
     4   -3.817171934300e-14
     5    4.473277070410e-03
     6    7.132445881488e-14
     7   -4.657017520156e-14
     8   -4.085394935467e-14
     9    8.162936126519e-03
    10    1.297779483921e-13
    11   -6.019129461826e-14
    12   -1.476660279563e-13
    13   -3.398789333434e-02
    14   -4.689863201873e-12
    15   -6.895392700602e-13
    16   -1.622642482634e-12
    17   -7.757892227184e-03
    18   -1.465046276647e-15
    19   -2.989487392955e-02
    20    6.858776448289e-03
    21    7.148155184558e-15
    22    1.925802669652e-15
    23   -1.534371790284e-14
    24    1.091008787901e-14
    25   -2.464969170973e-13
    26    1.315768367096e-13
    27    2.122557486029e-15
    28   -3.904750962782e-15
    29    1.421562671347e-02
    30    3.990814089001e-14
    31    5.192451251075e-14
    32   -2.455351526379e-13
    33   -7.072246146072e-13
    34   -3.588118683848e-15
    35    7.124636357502e-15
    36    5.821382758967e-05
    37   -1.815049797090e-15
    38   -1.295816275982e-14
    39   -3.190279532750e-13
    40   -5.401066137488e-14
    41    2.340546390740e-15
    42    3.562498401608e-15
    43   -1.221825517980e-02
    44    1.428921552063e-14
    45    7.578033781043e-15
    46   -6.824095690253e-14
    47    6.576709427714e-14
    48    1.357068571970e-02
    49    3.177794943973e-14
    50   -1.019155566160e-13
    51    9.048037587715e-14
    52    2.757368652599e-02
    53    1.023997361804e-13
    54   -3.692054071738e-14
    55    1.488979805609e-14
    56    1.407958072862e-02
    57    1.343646512698e-12
    58    4.421004524015e-13
    59   -1.248581740553e-13
    60   -7.494761220750e-03
    61    7.606562944542e-16
    62   -2.695174996246e-02
    63   -2.407695640901e-02
    64    1.955046202946e-14
    65   -3.790830272764e-15
    66    6.409008139431e-14
    67    2.974227579704e-14
    68    4.642407242813e-14
    69   -5.692206259351e-14
    70    3.288266843639e-02
    71    1.453087717937e-13
    72    6.887414018862e-14
    73   -8.167113340297e-14
    74    5.117235914725e-02
    75    9.504822187587e-14
    76    6.259643282923e-14
    77   -5.502486117618e-14
    78    4.514833461799e-02
    79   -1.651444647512e-13
    80   -4.731761906024e-14
    81    7.812900749717e-14
    82    6.134780823146e-03
    83   -6.619042723966e-15
    84    2.736662933517e-03
    85   -2.285820567220e-03
    86    5.243603380367e-15
    87   -8.952261187760e-15
    88   -7.191722950525e-14
    89   -4.153850466005e-14
    90    2.506478034180e-15
    91    2.330368343453e-14
    92   -8.811614774738e-02
    93   -9.654873215367e-14
    94    1.487444252770e-14
    95    4.382858894634e-14
    96   -1.582152269520e-01
    97   -1.605493710897e-13
    98   -1.818447729218e-13
    99   -3.288468993066e-14
   100   -8.716186112064e-02
   101   -3.287818032411e-12
   102    8.993957748832e-13
   103    1.882662884977e-13
   104   -7.492652036448e-03
   105    1.019274891057e-14
   106    2.056869839331e-02
   107    2.881144562706e-03
   108    8.904553558136e-15
   109   -7.662603692449e-15
   110    1.259387756707e-14
   111    1.883023650140e-14
   112    4.028883819110e-14
   113   -5.022505864750e-14
   114    4.848384781671e-02
   115   -6.025172170600e-14
   116    5.191274505784e-14
   117   -5.432159957634e-14
   118    5.001383306732e-02
   119   -5.367924580246e-15
   120    9.419828229861e-16
   121   -6.986424418977e-14
   122    4.890851093032e-02
   123    2.262060770174e-13
   124   -3.532990832471e-14
   125   -1.365419576370e-13
   126    3.194017594964e-02
   127    1.795612042137e-15
   128    5.345768753172e-03
   129    3.283292146718e-03
   130   -2.023262064068e-15
   131   -7.361371205018e-16
   132    1.198728896168e-14
   133    2.025905633890e-14
   134   -1.367438986391e-15
   135    1.509303718381e-14
   136   -1.591910380365e-01
   137   -4.102779442731e-14
   138    1.124128249040e-15
   139    2.119265945004e-14
   140   -2.608415996940e-01
   141   -1.798441168072e-14
   142   -5.838644429131e-14
   143    1.001053994467e-13
   144   -2.608756948218e-01
   145    1.626296369141e-13
   146    5.013707352522e-13
   147    4.395195174935e-13
   148   -1.636069611845e-02
   149    1.036924484320e-15
   150   -5.995099656724e-03
   151    6.931574299817e-03
   152    4.485367629433e-15
   153   -1.095779319985e-15
   154    3.103202673723e-14
   155    4.494216688359e-14
   156    4.516706961020e-15
   157   -5.115473572067e-14
   158    1.602035542293e-01
   159   -8.907939777702e-14
   160    6.846078067027e-15
   161   -8.887749353292e-14
   162    2.615790143574e-01
   163   -1.435492048518e-13
   164    3.705288136874e-14
   165   -4.818769270752e-14
   166    2.796730494207e-01
   167    9.088807996918e-13
   168   -1.100057018650e-13
   169    1.526092959838e-13
   170    4.690308428884e-02
   171    2.391368238527e-15
   172    2.303513529552e-03
   173    1.321422703299e-03
   174   -2.013694028892e-15
   175   -9.041252327162e-15
   176   -2.370722887457e-14
   177   -5.395811664881e-16
   178    6.968603817941e-15
   179   -2.633177596612e-14
   180   -8.810322602296e-02
   181   -7.262006092082e-14
   182    1.191584567924e-14
   183   -4.728026663614e-14
   184   -1.505297604726e-01
   185   -2.327260960495e-13
   186   -6.402776494007e-14
   187    6.266462868815e-14
   188   -1.566243235098e-01
   189    5.907634427218e-12
   190   -2.278887594450e-12
   191    6.983885862044e-13
   192   -1.580512775656e-02
   193    7.736661998202e-15
   194    4.111723469052e-03
   195   -1.145119404939e-02
   196   -6.090260323892e-16
   197    2.033232500073e-15
   198    3.542289647088e-15
   199    3.738803713546e-14
   200    3.135135993825e-13
   201    7.809681577741e-13
   202   -7.071860329173e-15
   203    1.268037287778e-15
   204   -6.834665292344e-03
Sym=X
Ene= 2.002795
Spin=Alpha
Occup=1
     1   -9.579589345131e-03
     2   -1.607481535059e-02
     3    3.095031505336e-02
     4    1.959842623284e-02
     5    2.099137967663e-15
     6    4.426222551900e-02
     7    5.390265007284e-02
     8    3.338359712171e-02
     9   -1.991243924795e-14
    10    6.881647559221e-02
    11    3.952539736898e-02
    12    4.866447119668e-02
    13    3.045677319582e-14
    14    1.626159236789e-01
    15    5.070693566792e-02
    16    4.136495879715e-02
    17   -2.392213915669e-14
    18   -8.804523980013e-04
    19   -3.619188100765e-14
    20    1.186341808673e-14
    21    5.861780198262e-03
    22    1.256079829087e-03
    23    3.063062766816e-03
    24    6.436203663942e-03
    25    1.371880181785e-03
    26   -7.807743358131e-03
    27    1.857320732964e-04
    28    4.574010792507e-05
    29   -1.819528065023e-15
    30   -1.394862471589e-02
    31   -1.916287693592e-02
    32   -6.410111269142e-03
    33    1.936331512289e-02
    34    1.611198445172e-03
    35   -1.578477096722e-04
    36   -2.280809504403e-15
    37   -1.740475675642e-03
    38   -1.194763503603e-02
    39   -1.088587107400e-02
    40    4.508648871205e-02
    41    1.538359004358e-03
    42   -3.467281124902e-04
    43    1.584725622461e-14
    44    1.231426352151e-02
    45    2.048839373861e-02
    46   -3.177028891554e-02
    47   -1.315322580982e-02
    48    8.482091400037e-14
    49   -5.815484588505e-02
    50   -5.314338455002e-02
    51   -2.112502023699e-02
    52    1.414233622988e-13
    53   -6.293125902925e-02
    54   -4.469340622701e-02
    55   -2.322775950836e-03
    56    9.497891399847e-14
    57   -3.971454073081e-02
    58   -1.449418139782e-02
    59   -2.986374346790e-02
    60    1.525970379334e-13
    61    1.073330766588e-03
    62   -7.135541999885e-14
    63    4.139574798260e-14
    64    6.364266383574e-03
    65   -6.858104520602e-03
    66   -2.628212952698e-03
    67   -4.408577780485e-03
    68    4.043598164462e-04
    69   -1.950438967200e-02
    70    3.346856428329e-14
    71    1.268934004345e-02
    72   -1.102497389580e-03
    73   -2.944980485292e-02
    74    8.472967648044e-14
    75    5.011808336536e-03
    76    1.748296873817e-03
    77   -2.107263075208e-02
    78   -3.056714487382e-14
    79   -2.235997992893e-02
    80   -8.412789971031e-03
    81    2.031080088812e-03
    82   -1.156998916620e-13
    83   -2.464138649593e-04
    84    1.889221033439e-14
    85   -7.660564180388e-15
    86   -1.861949792405e-03
    87   -1.600105646751e-03
    88    6.191620893547e-03
    89    1.096815095255e-02
    90   -2.723792017551e-02
    91    4.779279147692e-02
    92    3.639846625670e-14
    93   -3.318326798010e-02
    94   -4.698309694545e-02
    95    8.901565828767e-02
    96    3.434710852093e-14
    97   -4.256763948370e-02
    98    1.371921812903e-02
    99   -2.302904353803e-02
   100    2.055125601332e-14
   101    2.807743792518e-01
   102    2.322389115205e-02
   103   -1.429800339200e-01
   104   -2.528708647378e-13
   105   -4.477946602152e-04
   106   -5.743709784285e-14
   107    1.981237709433e-14
   108    5.203442354227e-02
   109   -3.200020499956e-02
   110    3.248056574814e-03
   111    4.608972185059e-03
   112    2.066914218103e-01
   113   -2.979333539283e-01
   114    1.012154678353e-14
   115   -1.389274536003e-02
   116    2.370968452853e-01
   117   -3.419036112619e-01
   118    1.214341540198e-14
   119   -4.354196114321e-04
   120    1.677259649905e-01
   121   -2.481936178827e-01
   122   -1.367794080792e-14
   123    1.798216099852e-02
   124   -6.407051591532e-03
   125   -3.970139579749e-03
   126    1.770853266518e-13
   127    7.290566648803e-04
   128    3.602270928286e-15
   129    1.562697644864e-15
   130   -1.158501340437e-02
   131    4.645336780592e-03
   132   -2.065952149616e-02
   133   -3.412057975964e-02
   134    7.703556306488e-02
   135   -2.572930709481e-02
   136    1.132979405569e-13
   137    9.214044679124e-02
   138    1.242319729908e-01
   139   -3.552881003357e-02
   140    1.919690576528e-13
   141    1.676460318083e-01
   142    9.816313276346e-02
   143   -5.574626050255e-02
   144    1.585223843975e-13
   145    1.245508061248e-01
   146   -5.400347248492e-02
   147   -2.337985040136e-02
   148    6.136666658016e-14
   149    6.298289928252e-04
   150    2.196711948725e-14
   151   -4.818195993832e-15
   152   -1.825953384038e-04
   153   -4.393526030689e-03
   154    1.202551672636e-03
   155    2.042419262102e-03
   156   -3.009662515890e-03
   157   -1.253600935100e-03
   158    5.286883355162e-14
   159   -6.109762132724e-03
   160   -3.959948717240e-03
   161   -2.034822993355e-03
   162    8.513963034753e-14
   163   -8.567543213906e-03
   164   -8.759738580197e-03
   165    3.726191338271e-03
   166    5.093584525509e-14
   167   -4.045525478088e-02
   168   -9.249110798318e-03
   169   -2.678857145808e-02
   170   -3.496041759279e-14
   171   -2.840147755161e-04
   172   -1.761801364187e-16
   173   -1.300919114731e-14
   174    3.243979836947e-03
   175   -1.019428560659e-03
   176    1.939104184648e-02
   177    3.145026628440e-02
   178   -3.675641185239e-02
   179   -5.620667225633e-02
   180    2.435195020361e-15
   181   -7.866916963670e-02
   182   -6.270661118701e-02
   183   -7.752501697277e-02
   184   -4.548137451629e-14
   185   -1.457427654712e-01
   186   -1.170399731588e-02
   187   -7.451430803733e-02
   188    2.461368260634e-14
   189   -4.855853318762e-01
   190    5.580522290479e-02
   191   -5.666697075197e-02
   192    6.100216965489e-14
   193    5.345022978038e-04
   194   -7.752186192220e-16
   195    1.319297928732e-14
   196    2.768797656709e-03
   197   -1.764436404940e-04
   198   -1.521748869552e-02
   199   -1.780765650442e-02
   200   -1.240672826210e-03
   201   -2.381134537171e-02
   202    1.397441501137e-03
   203   -1.667183887371e-03
   204    1.254911470361e-14
Sym=X
Ene= 2.001719
Spin=Alpha
Occup=1
     1    2.877276578395e-03
     2    5.031683223937e-03
     3    2.128179918557e-03
     4   -2.318510226672e-02
     5    2.202516578597e-14
     6   -1.317735281983e-02
     7    4.614328988971e-03
     8   -3.804440638735e-02
     9    5.115696415026e-14
    10   -3.242018612235e-02
    11    1.259603399195e-02
    12   -3.301683819936e-02
    13    8.275417409775e-14
    14   -2.446306190097e-02
    15    2.410422308983e-02
    16   -5.667867611040e-03
    17    2.779895008156e-14
    18    1.261038105168e-03
    19    2.907000152082e-14
    20    2.923866416842e-15
    21   -5.221041116942e-03
    22   -3.927496133765e-03
    23   -1.913200837880e-02
    24   -3.845476406652e-02
    25   -2.976920930683e-02
    26    2.815630852715e-02
    27   -3.029542506231e-03
    28   -2.205357121881e-03
    29   -2.300003467659e-15
    30    1.694898134962e-02
    31    2.857281128794e-02
    32    2.486880986673e-03
    33    1.032279878294e-02
    34    3.325307540441e-05
    35    2.200536094416e-03
    36    4.209653620289e-16
    37    9.517984501781e-03
    38    1.611807040204e-02
    39    2.462025092532e-02
    40   -1.594603249320e-02
    41   -3.080898488622e-03
    42   -3.415194747125e-03
    43    1.497747997777e-15
    44   -1.228023246212e-02
    45   -2.001555340849e-02
    46    6.365958616472e-03
    47    7.254204888195e-03
    48    1.285191630215e-13
    49    5.884635989360e-02
    50    7.036597547531e-03
    51    6.917223924623e-03
    52    1.987219107734e-13
    53    5.253029591782e-02
    54    6.742484879689e-02
    55    9.829400835437e-02
    56    1.527451760517e-13
    57    3.042501547010e-03
    58    5.448638542073e-02
    59    8.562307776723e-02
    60    8.932896352077e-14
    61   -8.085834171125e-04
    62   -6.006380872932e-14
    63    3.518844016947e-14
    64   -5.626967188589e-02
    65   -2.991520525182e-02
    66    7.575811721530e-03
    67    1.268980188634e-02
    68    1.140936020822e-01
    69    1.831942122754e-01
    70    3.138234597901e-13
    71   -3.644419529438e-02
    72    1.769944185867e-01
    73    2.830260356329e-01
    74    4.832840440936e-13
    75   -4.400583617093e-02
    76    1.521008870308e-01
    77    2.630683219623e-01
    78    4.686712195156e-13
    79   -5.648580731993e-03
    80    3.933840387485e-03
    81    1.306483795349e-02
    82    8.186992721641e-15
    83   -6.510766996594e-04
    84    3.443752602785e-14
    85   -5.387322877541e-15
    86    1.318470923606e-02
    87    6.386361899631e-03
    88   -1.500466149554e-02
    89   -2.303889885367e-02
    90    7.249078821914e-02
    91    6.330055745095e-02
    92    4.834863249969e-14
    93    6.247585037211e-02
    94    1.183344164097e-01
    95    1.054197872790e-01
    96    9.484380879806e-14
    97    4.846244563798e-02
    98    2.253660282931e-02
    99    1.587193718514e-02
   100    8.561515183224e-14
   101    2.027132992169e-02
   102   -8.962564205493e-03
   103   -4.407235573359e-03
   104   -8.267216893389e-14
   105   -6.454601963407e-03
   106    3.413581418261e-14
   107   -9.181921581035e-15
   108    1.232938183370e-02
   109    1.328267725196e-02
   110   -9.509009806324e-03
   111   -1.340362008488e-02
   112   -1.245420721028e-01
   113   -1.317199826215e-01
   114    1.190707676063e-13
   115    3.968358113585e-02
   116   -1.435533520559e-01
   117   -1.509346078386e-01
   118    1.548657726143e-13
   119   -5.459590179601e-02
   120   -5.204660922808e-02
   121   -7.756669270307e-02
   122    3.640542557964e-14
   123   -2.212527365654e-02
   124   -3.236715884476e-04
   125   -1.735241990474e-04
   126    6.390090435216e-14
   127   -7.946718219419e-03
   128   -1.164823564149e-14
   129   -9.262754511375e-15
   130    5.180984909667e-03
   131    1.299983534364e-02
   132    1.238397108052e-02
   133    2.075996953945e-02
   134    1.308390497447e-02
   135    2.848268350416e-02
   136   -7.334658563726e-14
   137   -5.404058721620e-02
   138    1.082967216250e-02
   139    3.686233791660e-02
   140   -1.162038549119e-13
   141   -1.402349052514e-01
   142    6.838219391745e-02
   143    4.056339855004e-02
   144   -1.789905188625e-13