[Molden Format]
[Atoms] (Angs)
  C      1    6     -0.13173890     -1.79208980      0.00000000
  H      2    1     -2.14962000     -1.30978739      0.00000000
  H      3    1     -0.31599560     -2.86503115      0.00000000
  H      4    1      0.14407746      2.04280963     -0.00000000
  C      5    6     -1.17258876      0.48030861      0.00000000
  O      6    8     -2.25008207      1.06833796      0.00000000
  C      7    6      1.31158357      0.28308717     -0.00000000
  O      8    8      2.36361668      0.96389345     -0.00000000
  N      9    7      0.07017030      1.03138997     -0.00000000
  N     10    7     -1.19586868     -0.94982644      0.00000000
  C     11    6      1.19165158     -1.13169473     -0.00000000
  H     12    1      2.09970506     -1.73445456     -0.00000000
[GTO]
1    0
S    6    1.000000
   4.56324000E+03    1.96665000E-03 
   6.82024000E+02    1.52306000E-02 
   1.54973000E+02    7.61269000E-02 
   4.44553000E+01    2.60801000E-01 
   1.30290000E+01    6.16462000E-01 
   1.82773000E+00    2.21006000E-01 
SP   3    1.000000
   2.09642000E+01    1.14660000E-01   4.02487000E-02 
   4.80331000E+00    9.19999000E-01   2.37594000E-01 
   1.45933000E+00   -3.03068000E-03   8.15854000E-01 
SP   1    1.000000
   4.83456000E-01    1.00000000E+00   1.00000000E+00 
SP   1    1.000000
   1.45585000E-01    1.00000000E+00   1.00000000E+00 
SP   1    1.000000
   4.38000000E-02    1.00000000E+00   1.00000000E+00 
D    1    1.000000
   6.26000000E-01    1.00000000E+00 

2    0
S    3    1.000000
   3.38650000E+01    2.54938000E-02 
   5.09479000E+00    1.90373000E-01 
   1.15879000E+00    8.52161000E-01 
S    1    1.000000
   3.25840000E-01    1.00000000E+00 
S    1    1.000000
   1.02741000E-01    1.00000000E+00 
S    1    1.000000
   3.60000000E-02    1.00000000E+00 
P    1    1.000000
   7.50000000E-01    1.00000000E+00 

3    0
S    3    1.000000
   3.38650000E+01    2.54938000E-02 
   5.09479000E+00    1.90373000E-01 
   1.15879000E+00    8.52161000E-01 
S    1    1.000000
   3.25840000E-01    1.00000000E+00 
S    1    1.000000
   1.02741000E-01    1.00000000E+00 
S    1    1.000000
   3.60000000E-02    1.00000000E+00 
P    1    1.000000
   7.50000000E-01    1.00000000E+00 

4    0
S    3    1.000000
   3.38650000E+01    2.54938000E-02 
   5.09479000E+00    1.90373000E-01 
   1.15879000E+00    8.52161000E-01 
S    1    1.000000
   3.25840000E-01    1.00000000E+00 
S    1    1.000000
   1.02741000E-01    1.00000000E+00 
S    1    1.000000
   3.60000000E-02    1.00000000E+00 
P    1    1.000000
   7.50000000E-01    1.00000000E+00 

5    0
S    6    1.000000
   4.56324000E+03    1.96665000E-03 
   6.82024000E+02    1.52306000E-02 
   1.54973000E+02    7.61269000E-02 
   4.44553000E+01    2.60801000E-01 
   1.30290000E+01    6.16462000E-01 
   1.82773000E+00    2.21006000E-01 
SP   3    1.000000
   2.09642000E+01    1.14660000E-01   4.02487000E-02 
   4.80331000E+00    9.19999000E-01   2.37594000E-01 
   1.45933000E+00   -3.03068000E-03   8.15854000E-01 
SP   1    1.000000
   4.83456000E-01    1.00000000E+00   1.00000000E+00 
SP   1    1.000000
   1.45585000E-01    1.00000000E+00   1.00000000E+00 
SP   1    1.000000
   4.38000000E-02    1.00000000E+00   1.00000000E+00 
D    1    1.000000
   6.26000000E-01    1.00000000E+00 

6    0
S    6    1.000000
   8.58850000E+03    1.89515000E-03 
   1.29723000E+03    1.43859000E-02 
   2.99296000E+02    7.07320000E-02 
   8.73771000E+01    2.40001000E-01 
   2.56789000E+01    5.94797000E-01 
   3.74004000E+00    2.80802000E-01 
SP   3    1.000000
   4.21175000E+01    1.13889000E-01   3.65114000E-02 
   9.62837000E+00    9.20811000E-01   2.37153000E-01 
   2.85332000E+00   -3.27447000E-03   8.19702000E-01 
SP   1    1.000000
   9.05661000E-01    1.00000000E+00   1.00000000E+00 
SP   1    1.000000
   2.55611000E-01    1.00000000E+00   1.00000000E+00 
SP   1    1.000000
   8.45000000E-02    1.00000000E+00   1.00000000E+00 
D    1    1.000000
   1.29200000E+00    1.00000000E+00 

7    0
S    6    1.000000
   4.56324000E+03    1.96665000E-03 
   6.82024000E+02    1.52306000E-02 
   1.54973000E+02    7.61269000E-02 
   4.44553000E+01    2.60801000E-01 
   1.30290000E+01    6.16462000E-01 
   1.82773000E+00    2.21006000E-01 
SP   3    1.000000
   2.09642000E+01    1.14660000E-01   4.02487000E-02 
   4.80331000E+00    9.19999000E-01   2.37594000E-01 
   1.45933000E+00   -3.03068000E-03   8.15854000E-01 
SP   1    1.000000
   4.83456000E-01    1.00000000E+00   1.00000000E+00 
SP   1    1.000000
   1.45585000E-01    1.00000000E+00   1.00000000E+00 
SP   1    1.000000
   4.38000000E-02    1.00000000E+00   1.00000000E+00 
D    1    1.000000
   6.26000000E-01    1.00000000E+00 

8    0
S    6    1.000000
   8.58850000E+03    1.89515000E-03 
   1.29723000E+03    1.43859000E-02 
   2.99296000E+02    7.07320000E-02 
   8.73771000E+01    2.40001000E-01 
   2.56789000E+01    5.94797000E-01 
   3.74004000E+00    2.80802000E-01 
SP   3    1.000000
   4.21175000E+01    1.13889000E-01   3.65114000E-02 
   9.62837000E+00    9.20811000E-01   2.37153000E-01 
   2.85332000E+00   -3.27447000E-03   8.19702000E-01 
SP   1    1.000000
   9.05661000E-01    1.00000000E+00   1.00000000E+00 
SP   1    1.000000
   2.55611000E-01    1.00000000E+00   1.00000000E+00 
SP   1    1.000000
   8.45000000E-02    1.00000000E+00   1.00000000E+00 
D    1    1.000000
   1.29200000E+00    1.00000000E+00 

9    0
S    6    1.000000
   6.29348000E+03    1.96979000E-03 
   9.49044000E+02    1.49613000E-02 
   2.18776000E+02    7.35006000E-02 
   6.36916000E+01    2.48937000E-01 
   1.88282000E+01    6.02460000E-01 
   2.72023000E+00    2.56202000E-01 
SP   3    1.000000
   3.06331000E+01    1.11906000E-01   3.83119000E-02 
   7.02614000E+00    9.21666000E-01   2.37403000E-01 
   2.11205000E+00   -2.56919000E-03   8.17592000E-01 
SP   1    1.000000
   6.84009000E-01    1.00000000E+00   1.00000000E+00 
SP   1    1.000000
   2.00878000E-01    1.00000000E+00   1.00000000E+00 
SP   1    1.000000
   6.39000000E-02    1.00000000E+00   1.00000000E+00 
D    1    1.000000
   9.13000000E-01    1.00000000E+00 

10    0
S    6    1.000000
   6.29348000E+03    1.96979000E-03 
   9.49044000E+02    1.49613000E-02 
   2.18776000E+02    7.35006000E-02 
   6.36916000E+01    2.48937000E-01 
   1.88282000E+01    6.02460000E-01 
   2.72023000E+00    2.56202000E-01 
SP   3    1.000000
   3.06331000E+01    1.11906000E-01   3.83119000E-02 
   7.02614000E+00    9.21666000E-01   2.37403000E-01 
   2.11205000E+00   -2.56919000E-03   8.17592000E-01 
SP   1    1.000000
   6.84009000E-01    1.00000000E+00   1.00000000E+00 
SP   1    1.000000
   2.00878000E-01    1.00000000E+00   1.00000000E+00 
SP   1    1.000000
   6.39000000E-02    1.00000000E+00   1.00000000E+00 
D    1    1.000000
   9.13000000E-01    1.00000000E+00 

11    0
S    6    1.000000
   4.56324000E+03    1.96665000E-03 
   6.82024000E+02    1.52306000E-02 
   1.54973000E+02    7.61269000E-02 
   4.44553000E+01    2.60801000E-01 
   1.30290000E+01    6.16462000E-01 
   1.82773000E+00    2.21006000E-01 
SP   3    1.000000
   2.09642000E+01    1.14660000E-01   4.02487000E-02 
   4.80331000E+00    9.19999000E-01   2.37594000E-01 
   1.45933000E+00   -3.03068000E-03   8.15854000E-01 
SP   1    1.000000
   4.83456000E-01    1.00000000E+00   1.00000000E+00 
SP   1    1.000000
   1.45585000E-01    1.00000000E+00   1.00000000E+00 
SP   1    1.000000
   4.38000000E-02    1.00000000E+00   1.00000000E+00 
D    1    1.000000
   6.26000000E-01    1.00000000E+00 

12    0
S    3    1.000000
   3.38650000E+01    2.54938000E-02 
   5.09479000E+00    1.90373000E-01 
   1.15879000E+00    8.52161000E-01 
S    1    1.000000
   3.25840000E-01    1.00000000E+00 
S    1    1.000000
   1.02741000E-01    1.00000000E+00 
S    1    1.000000
   3.60000000E-02    1.00000000E+00 
P    1    1.000000
   7.50000000E-01    1.00000000E+00 

[MO]
Sym=X
Ene= 2.009919
Spin=Alpha
Occup=1
     1   -1.394585686759e-14
     2   -9.437527141706e-15
     3   -3.063506278876e-14
     4    2.056797298505e-14
     5   -7.182189598331e-02
     6   -4.711968167708e-14
     7   -2.288140180176e-14
     8    4.166954480908e-14
     9   -1.249260270617e-01
    10    5.690042057413e-13
    11   -3.506229730741e-13
    12    1.599650008521e-13
    13   -1.162936358975e-01
    14   -2.135708144804e-12
    15    1.202234323031e-12
    16   -2.362824242179e-12
    17   -1.373473163452e-02
    18    5.011444639371e-15
    19   -1.046658439410e-02
    20   -9.363957765198e-03
    21    3.004130208632e-14
    22    3.824969551099e-15
    23    6.284290823938e-15
    24    1.930195928034e-13
    25   -1.678709679060e-12
    26    5.902331411660e-13
    27    2.581772858211e-14
    28   -1.255392659730e-15
    29    3.036197903295e-04
    30   -1.699930921876e-14
    31    4.274065271918e-14
    32   -4.488687599977e-13
    33   -1.242312201624e-12
    34   -4.621685173977e-15
    35   -1.002112868539e-14
    36   -5.694704347955e-03
    37   -3.625352085954e-14
    38   -1.692391626868e-13
    39   -4.271194136777e-13
    40   -5.309799733757e-13
    41    3.210605801142e-15
    42    1.075476594135e-14
    43    2.121500916387e-03
    44    3.772510328246e-14
    45    2.266011305758e-14
    46   -3.067602913875e-14
    47    1.734768034511e-14
    48    1.984123332079e-03
    49    2.592438501418e-14
    50   -2.323010897576e-14
    51   -4.122215850388e-14
    52    6.027243807279e-03
    53    6.809344782963e-13
    54    2.654111667093e-13
    55   -4.527057183077e-13
    56   -2.784277463804e-03
    57    2.349928253380e-12
    58    1.475420078177e-12
    59    7.499377594006e-13
    60   -1.778302505009e-02
    61   -8.595299270267e-15
    62    4.232273296180e-03
    63   -1.229691561595e-03
    64   -1.574500867637e-14
    65    3.056214396975e-14
    66    1.247198367595e-14
    67    7.558913041090e-15
    68   -4.342068555397e-15
    69   -5.536901217744e-14
    70   -1.552809789386e-02
    71    1.926084475325e-14
    72   -1.619331968075e-14
    73   -7.701745214126e-14
    74   -2.400869448242e-02
    75    9.711405676617e-14
    76    2.057377930992e-13
    77    6.155878252740e-14
    78   -2.611873129892e-02
    79    1.327181049149e-13
    80    4.992185445014e-14
    81    6.971238030696e-14
    82    2.664601601440e-03
    83   -1.586175309168e-15
    84   -9.440452497348e-04
    85    3.634161830369e-04
    86   -1.373751356147e-15
    87   -8.020500416433e-15
    88   -4.191545932230e-14
    89   -4.880628257339e-14
    90   -6.897201559943e-15
    91   -1.935056447521e-14
    92    4.965691459035e-02
    93    5.098446651604e-14
    94   -3.487911389891e-14
    95    1.566268613963e-14
    96    8.722959611944e-02
    97    3.773912940634e-13
    98   -7.732080129972e-13
    99   -5.804893151281e-13
   100    5.090248827975e-02
   101   -1.434846413578e-11
   102    1.225238768917e-12
   103    2.606040913631e-12
   104    3.755606903230e-02
   105    1.116642522832e-14
   106    3.255692219334e-02
   107    3.750258295713e-02
   108   -8.460819968973e-15
   109   -4.363999720175e-15
   110   -3.370718478958e-15
   111   -7.853459098942e-15
   112   -2.583267130076e-14
   113    1.415648009760e-14
   114    3.433091910917e-01
   115    4.690393308194e-14
   116   -3.687885201011e-16
   117    2.494073817827e-14
   118    3.938550095020e-01
   119    5.022503550304e-14
   120   -1.870526673967e-13
   121   -7.874520061558e-14
   122    2.650464685233e-01
   123    1.041018267928e-12
   124    1.491151091779e-14
   125   -4.070549135878e-13
   126    1.742428771142e-02
   127    2.392909676055e-15
   128   -1.843694028517e-02
   129   -1.098552381489e-02
   130    4.008284889921e-15
   131   -6.079680795554e-16
   132    1.456228449956e-15
   133    2.335840911605e-14
   134   -1.024410716135e-14
   135   -1.639344303265e-14
   136    2.008840863830e-02
   137   -7.475396329904e-14
   138   -2.781895143665e-14
   139   -6.719300053257e-14
   140    3.415660953184e-02
   141   -4.870902883109e-13
   142   -2.030650169246e-13
   143    5.940235730424e-13
   144    2.730181383076e-02
   145   -3.979963578148e-14
   146    1.541890525955e-12
   147    1.633424593431e-13
   148   -7.018310990717e-03
   149    1.019510550991e-15
   150    2.747295830925e-03
   151   -1.185328771997e-03
   152    9.373371077362e-15
   153   -1.560051789840e-15
   154    1.020570713111e-14
   155   -7.786911929241e-15
   156   -2.303502332393e-14
   157   -7.951754223311e-16
   158   -8.574990306201e-03
   159    2.055842394814e-13
   160   -1.600420009802e-14
   161   -2.829156577572e-14
   162   -1.576856716701e-02
   163   -7.704643848392e-13
   164   -8.577253493811e-14
   165   -1.176287280166e-13
   166    1.287109109515e-02
   167    2.032120163986e-12
   168   -2.133785086634e-12
   169   -1.525368242235e-13
   170    3.147000569073e-02
   171    3.754513972714e-15
   172   -6.086127433658e-03
   173    4.302578098962e-03
   174   -5.245468951273e-15
   175   -1.913149184882e-14
   176   -7.735881830270e-14
   177   -6.173347380511e-14
   178   -5.075937237008e-14
   179    3.858047138057e-14
   180   -8.471110741250e-02
   181    5.391306355012e-14
   182   -4.065386145557e-14
   183    6.435939286716e-14
   184   -1.430569110840e-01
   185   -1.062088215496e-12
   186   -2.674449161770e-13
   187   -2.589233864394e-13
   188   -1.702167845478e-01
   189    1.194962199832e-11
   190   -2.698686116145e-12
   191    5.075006720739e-12
   192   -3.308850750355e-02
   193    2.458923326538e-14
   194    1.217897510637e-02
   195    4.573332663301e-03
   196   -2.333311048891e-14
   197    1.940217823110e-14
   198   -3.911234476973e-14
   199    3.069161007070e-14
   200    8.599845541217e-13
   201    1.888408237846e-12
   202   -7.978908508014e-16
   203    9.847508169178e-15
   204   -5.994683372677e-03
Sym=X
Ene= 2.005111
Spin=Alpha
Occup=1
     1   -1.587065372019e-14
     2   -2.667807141731e-14
     3   -3.045700162762e-14
     4   -3.018474523976e-14
     5    4.510076730543e-03
     6    6.893495800305e-14
     7   -4.294875814236e-14
     8   -2.900095080450e-14
     9    8.036593734853e-03
    10    1.151325598520e-13
    11   -4.025505938294e-14
    12   -1.271127683783e-13
    13   -3.301435725462e-02
    14   -4.221608789433e-12
    15   -7.144329509952e-13
    16   -1.383546578561e-12
    17   -7.492973388859e-03
    18   -1.281296364932e-15
    19   -2.934841313078e-02
    20    6.828928235605e-03
    21    7.697327613526e-15
    22   -1.522902346461e-16
    23   -1.288405066640e-14
    24    4.134652703914e-15
    25   -1.634613652628e-13
    26    1.127657557742e-13
    27    2.027238405453e-15
    28   -3.365428024437e-15
    29    1.381355527496e-02
    30    3.252259027824e-14
    31    4.136063848086e-14
    32   -2.164580164572e-13
    33   -6.173813445104e-13
    34   -3.649885469285e-15
    35    6.475123651168e-15
    36    9.894461875247e-05
    37   -2.242128533412e-15
    38   -9.789059453300e-15
    39   -2.925821862446e-13
    40   -3.336629481669e-14
    41    2.230485780776e-15
    42    3.120945572568e-15
    43   -1.203921358417e-02
    44    8.769479895547e-15
    45    2.513124960284e-15
    46   -5.578595682197e-14
    47    5.909720207292e-14
    48    1.338369452387e-02
    49    3.398306441348e-14
    50   -8.444241705858e-14
    51    8.204279811652e-14
    52    2.723500716821e-02
    53    8.749602363090e-14
    54   -3.772611289724e-14
    55    1.666390641768e-14
    56    1.576402590485e-02
    57    1.099872566952e-12
    58    3.442904701795e-13
    59   -1.261504569840e-13
    60   -6.816896452174e-03
    61    4.107613774314e-16
    62   -2.570654356265e-02
    63   -2.439585509735e-02
    64    1.990983067832e-14
    65   -2.545562815556e-15
    66    6.075714552391e-14
    67    2.859406448330e-14
    68    3.651573115494e-14
    69   -5.449104295409e-14
    70    2.954845284882e-02
    71    1.363115052460e-13
    72    5.391569180757e-14
    73   -7.954767905806e-14
    74    4.605282313864e-02
    75    8.764411819049e-14
    76    4.461746920048e-14
    77   -5.562035616245e-14
    78    3.971523716250e-02
    79   -1.481362777986e-13
    80   -4.346029257406e-14
    81    6.648044323982e-14
    82    4.382539590447e-03
    83   -5.828237871275e-15
    84    2.536526892711e-03
    85   -2.140023216264e-03
    86    4.327163205136e-15
    87   -7.871440099528e-15
    88   -7.835491164680e-14
    89   -4.757260835640e-14
    90   -1.934590576165e-15
    91    2.214339744279e-14
    92   -9.401688300872e-02
    93   -9.261627963837e-14
    94    7.482700529199e-15
    95    3.995900178482e-14
    96   -1.689923693509e-01
    97   -1.536988832496e-13
    98   -1.554025602166e-13
    99   -1.098697528139e-14
   100   -9.394195928133e-02
   101   -2.138710310447e-12
   102    7.849044960604e-13
   103   -2.532616673799e-14
   104   -9.237523326152e-03
   105    9.623440462375e-15
   106    1.875907260940e-02
   107    2.052649985436e-03
   108    7.223774089032e-15
   109   -8.105715523650e-15
   110    1.258102883483e-14
   111    1.889939264721e-14
   112    3.713319996153e-14
   113   -3.434181066612e-14
   114    2.968614174974e-02
   115   -6.098028337010e-14
   116    4.655979918466e-14
   117   -3.639067419361e-14
   118    2.788157252279e-02
   119   -3.906693602172e-15
   120    2.364335542352e-15
   121   -5.464600812186e-14
   122    3.439645322167e-02
   123    1.647004798889e-13
   124   -3.135989035901e-14
   125   -1.100389278041e-13
   126    3.112679137123e-02
   127    1.961161438736e-15
   128    6.542241903233e-03
   129    4.068274397705e-03
   130   -1.708286758329e-15
   131   -1.222006125427e-15
   132    1.153265016431e-14
   133    1.582868791655e-14
   134   -3.752163948818e-15
   135    9.200407487609e-15
   136   -1.571765845578e-01
   137   -1.942940328521e-14
   138   -1.896825839165e-15
   139    1.344362216295e-14
   140   -2.577730756425e-01
   141    3.755348019982e-15
   142   -5.447062719120e-14
   143    7.229253426020e-14
   144   -2.565405790521e-01
   145    1.395586327197e-13
   146    4.205424293571e-13
   147    4.296848060292e-13
   148   -1.407688780139e-02
   149    4.944231620811e-16
   150   -6.436089450444e-03
   151    7.299127262990e-03
   152    4.364132673824e-15
   153   -7.803810104105e-16
   154    2.454039147914e-14
   155    3.595588797909e-14
   156    7.254349752608e-15
   157   -4.855587988556e-14
   158    1.592605918530e-01
   159   -7.132439655893e-14
   160    1.069783459921e-14
   161   -8.191176549758e-14
   162    2.602170243726e-01
   163   -1.225511374287e-13
   164    3.400930637857e-14
   165   -5.061713851455e-14
   166    2.780132657614e-01
   167    7.600271684567e-13
   168   -1.326101408073e-14
   169    1.685747895038e-13
   170    4.513025347020e-02
   171    1.765204206409e-15
   172    2.524569703601e-03
   173    1.808679465758e-03
   174   -1.795871588160e-15
   175   -7.755666820219e-15
   176   -1.786109503753e-14
   177    2.276621163260e-16
   178    1.025367291040e-14
   179   -2.750761598968e-14
   180   -8.876950063931e-02
   181   -5.424402454761e-14
   182    1.417479522632e-14
   183   -4.975446230882e-14
   184   -1.522437998375e-01
   185   -1.810407182017e-13
   186   -3.465599858861e-14
   187    6.344674056805e-14
   188   -1.558161809616e-01
   189    4.738476808008e-12
   190   -2.010982317989e-12
   191    3.197419190589e-13
   192   -1.418942680257e-02
   193    6.611780383678e-15
   194    4.194892322236e-03
   195   -1.255639032509e-02
   196    6.821750183320e-16
   197    1.678988788011e-15
   198    9.878068778178e-15
   199    4.304836630247e-14
   200    2.513110558023e-13
   201    6.063823238698e-13
   202   -7.446116405109e-15
   203    1.290588802368e-15
   204   -6.854394705670e-03
Sym=X
Ene= 2.002673
Spin=Alpha
Occup=1
     1   -1.060584593573e-02
     2   -1.774081922647e-02
     3    3.782178727205e-02
     4    2.263845007535e-02
     5   -1.261919803775e-15
     6    4.864151525624e-02
     7    6.516251614941e-02
     8    3.823898668902e-02
     9   -2.447908123696e-14
    10    7.196683757348e-02
    11    4.342981885135e-02
    12    5.321116379134e-02
    13    2.336305571444e-14
    14    1.751669791632e-01
    15    5.299313040310e-02
    16    4.276400015640e-02
    17   -2.621073772404e-14
    18   -9.097106147085e-04
    19   -3.740090432782e-14
    20    1.191379086353e-14
    21    6.131650564471e-03
    22    2.021971098328e-03
    23    2.448076081150e-03
    24    5.990487094839e-03
    25   -1.447533983016e-03
    26   -7.821509833186e-03
    27   -3.141865040694e-05
    28    2.696861016977e-07
    29   -7.922344499540e-16
    30   -1.624721531432e-02
    31   -2.214983680981e-02
    32   -6.671330316010e-03
    33    1.703838284786e-02
    34    1.819235435185e-03
    35   -4.624110863605e-04
    36   -2.534749432868e-15
    37   -5.509970389003e-03
    38   -1.671501675790e-02
    39   -6.581263967732e-03
    40    4.307568477567e-02
    41    1.913801440054e-03
    42    1.030127363150e-04
    43    1.580367542184e-14
    44    1.242901890599e-02
    45    2.062940035550e-02
    46   -3.417309220416e-02
    47   -1.465300356952e-02
    48    9.363870109340e-14
    49   -5.820290487798e-02
    50   -5.747352657313e-02
    51   -2.361754294959e-02
    52    1.564508913629e-13
    53   -6.269742805113e-02
    54   -4.449505803165e-02
    55    3.532740804821e-03
    56    1.032583512266e-13
    57   -4.185224813771e-02
    58   -1.325941862670e-02
    59   -2.539411209246e-02
    60    1.518111662291e-13
    61    1.142264495814e-03
    62   -7.114459368087e-14
    63    4.006740148683e-14
    64    4.289232177212e-03
    65   -9.065448006856e-03
    66   -2.751880325487e-03
    67   -4.606481628408e-03
    68    5.427000475915e-03
    69   -1.318264262495e-02
    70    4.228517027861e-14
    71    1.320873484012e-02
    72    6.524400519151e-03
    73   -1.959462785246e-02
    74    9.828205239289e-14
    75    3.657169554042e-03
    76    8.083343840593e-03
    77   -1.126105647054e-02
    78   -1.728099286786e-14
    79   -2.567911426673e-02
    80   -8.680280848778e-03
    81    3.081821567330e-03
    82   -1.169131688582e-13
    83   -2.949189819203e-04
    84    2.029226276020e-14
    85   -7.565763442802e-15
    86   -1.440989401227e-03
    87   -1.483645637254e-03
    88    6.403263919339e-03
    89    1.138414132277e-02
    90   -3.016531855927e-02
    91    6.061286727223e-02
    92    2.973023009699e-14
    93   -3.467304388959e-02
    94   -5.237349668804e-02
    95    1.096675937484e-01
    96    2.455659360744e-14
    97   -4.641756765796e-02
    98    1.384159236518e-02
    99   -1.744756542005e-02
   100    1.333825872765e-14
   101    2.704106508553e-01
   102    1.819430688617e-02
   103   -1.318640680359e-01
   104   -2.553826049085e-13
   105   -9.800115747877e-04
   106   -5.718251280406e-14
   107    2.059794510625e-14
   108    5.275115542377e-02
   109   -3.161802052879e-02
   110    1.787254489265e-03
   111    2.491596123820e-03
   112    1.954247511993e-01
   113   -2.915045889560e-01
   114    6.338204604180e-15
   115   -6.474666653697e-03
   116    2.238712362436e-01
   117   -3.341413102710e-01
   118    8.167778987104e-15
   119    8.464536530339e-05
   120    1.603624460786e-01
   121   -2.418125542510e-01
   122   -1.722669641527e-14
   123    1.867364846996e-02
   124   -6.929629952675e-03
   125   -4.975362568864e-03
   126    1.794457227819e-13
   127    3.904089576425e-04
   128    3.920143188830e-15
   129    1.870933640930e-15
   130   -1.075527944121e-02
   131    4.661037078042e-03
   132   -1.998465704751e-02
   133   -3.294161218250e-02
   134    8.458235165370e-02
   135   -3.002077438796e-02
   136    1.145648093888e-13
   137    8.881714599474e-02
   138    1.361187717216e-01
   139   -4.278350057467e-02
   140    1.941586387015e-13
   141    1.629011184728e-01
   142    1.079407735566e-01
   143   -6.205099537277e-02
   144    1.595232674441e-13
   145    1.133036652616e-01
   146   -5.747132169882e-02
   147   -2.935671482918e-02
   148    6.359041969667e-14
   149    5.306182497088e-04
   150    2.009132789418e-14
   151   -5.036604294883e-15
   152    6.865978800094e-04
   153   -5.062670465075e-03
   154    1.115480472073e-03
   155    1.918187345899e-03
   156   -3.374691553339e-03
   157    2.845578814633e-03
   158    6.171248773770e-14
   159   -5.972066533045e-03
   160   -4.594894246612e-03
   161    4.318925381920e-03
   162    9.968571574330e-14
   163   -4.477379286177e-03
   164   -1.011120981818e-02
   165    1.040238534223e-02
   166    6.723823833308e-14
   167   -3.638012966398e-02
   168   -1.332106535225e-02
   169   -2.775904139652e-02
   170   -3.071533447295e-14
   171   -2.438137470630e-04
   172   -1.637432401215e-16
   173   -1.181734241905e-14
   174    3.544697090756e-03
   175   -8.607335908213e-04
   176    2.042497581282e-02
   177    3.301363518890e-02
   178   -4.275230730512e-02
   179   -6.412600306136e-02
   180   -5.641444083281e-15
   181   -8.209256415068e-02
   182   -7.217075179206e-02
   183   -9.054845011663e-02
   184   -5.945259063103e-14
   185   -1.466580976401e-01
   186   -1.653533980307e-02
   187   -8.078732030669e-02
   188    1.011880211956e-14
   189   -4.691642387150e-01
   190    6.324750130508e-02
   191   -5.108853752605e-02
   192    6.061856330537e-14
   193    9.207610424467e-04
   194   -5.038759065904e-17
   195    1.199807121426e-14
   196    4.764764234072e-03
   197   -4.923326703276e-06
   198   -1.619026167355e-02
   199   -1.913750450229e-02
   200   -2.303048987758e-03
   201   -3.058049061476e-02
   202    1.387172364598e-03
   203   -2.272698790106e-03
   204    1.165133505628e-14
Sym=X
Ene= 2.001681
Spin=Alpha
Occup=1
     1    3.923700531439e-03
     2    6.698996146774e-03
     3    6.291707551859e-03
     4   -2.523527058333e-02
     5    9.053522134834e-15
     6   -1.745633933487e-02
     7    1.125134831875e-02
     8   -4.181011033314e-02
     9    2.795586110682e-14
    10   -3.270964148180e-02
    11    1.229223918195e-02
    12   -3.537625587640e-02
    13    6.441466479144e-14
    14   -4.586726041904e-03
    15    2.381062655756e-02
    16    1.615497260295e-03
    17    2.632740492897e-14
    18    1.631067476572e-03
    19    3.129433649131e-14
    20   -3.906096574637e-16
    21   -5.273660875967e-03
    22   -3.377543008601e-03
    23   -2.077400977780e-02
    24   -4.069321030178e-02
    25   -2.725427285150e-02
    26    3.057307443660e-02
    27   -3.376682927549e-03
    28   -1.982435260624e-03
    29   -3.303082809060e-15
    30    1.714299439511e-02
    31    2.805989528874e-02
    32    2.068872983355e-03
    33    1.160916035668e-02
    34    1.212954065345e-04
    35    2.144236457495e-03
    36   -5.465033658871e-16
    37    1.281606397211e-02
    38    2.064166933387e-02
    39    2.372218461572e-02
    40   -2.219685557823e-02
    41   -3.182683547975e-03
    42   -3.940531140894e-03
    43   -1.569897992287e-15
    44   -1.471445738300e-02
    45   -2.386222188929e-02
    46    8.609402621921e-03
    47    2.331973920956e-03
    48    1.352933254675e-13
    49    6.866123234031e-02
    50    1.108061215535e-02
    51   -1.599040175272e-03
    52    2.134365337144e-13
    53    5.833142849369e-02
    54    7.412402567635e-02
    55    9.642171599795e-02
    56    1.672369577618e-13
    57    3.073443990786e-03
    58    5.512582701086e-02
    59    8.825191339514e-02
    60    8.583085008567e-14
    61   -1.263401096731e-03
    62   -7.052404160106e-14
    63    4.014767344938e-14
    64   -5.816450587975e-02
    65   -2.905395574502e-02
    66    8.468058239148e-03
    67    1.423998992348e-02
    68    1.125078669942e-01
    69    1.837761750270e-01
    70    3.571685581473e-13
    71   -4.130129855098e-02
    72    1.747637709263e-01
    73    2.837969378166e-01
    74    5.507162508281e-13
    75   -4.509706532261e-02
    76    1.510095929837e-01
    77    2.629615103305e-01
    78    5.344524665660e-13
    79   -4.363189553915e-04
    80    4.981641802953e-03
    81    1.214465498863e-02
    82    2.263746121161e-14
    83   -6.839731325290e-04
    84    3.682143285126e-14
    85   -7.989689094591e-15
    86    1.301797053697e-02
    87    6.501543586676e-03
    88   -9.565065100472e-03
    89   -1.410742883366e-02
    90    7.296875736380e-02
    91    6.412738555129e-02
    92    4.259883578208e-14
    93    3.775654637965e-02
    94    1.192048742365e-01
    95    1.059214419430e-01
    96    8.450164104474e-14
    97    3.614363669402e-02
    98    2.528707052822e-02
    99    2.149159466768e-02
   100    8.191684794174e-14
   101    5.229134976726e-02
   102   -1.418246195947e-02
   103   -7.449764118411e-03
   104   -6.968496407087e-14
   105   -5.389387960754e-03
   106    4.221894277368e-14
   107   -9.966094178738e-15
   108    1.032388873129e-02
   109    1.319533732902e-02
   110   -9.270829305212e-03
   111   -1.311191784977e-02
   112   -1.222820296078e-01
   113   -1.157279252245e-01
   114    1.394956412576e-13
   115    3.915753459293e-02
   116   -1.410023912846e-01
   117   -1.325030252985e-01
   118    1.778428187582e-13
   119   -5.218428067738e-02
   120   -5.200169692756e-02
   121   -6.581298764403e-02
   122    5.539299410345e-14
   123   -2.557315642789e-02
   124    8.163578958832e-04
   125    2.880895301526e-04
   126    5.970409218396e-14
   127   -7.666305171156e-03
   128   -1.220935206912e-14
   129   -9.774179736983e-15
   130    5.304983740877e-03
   131    1.220721303913e-02
   132    1.263114937610e-02
   133    2.123179750423e-02
   134    9.224265487349e-03
   135    3.319335685606e-02
   136   -1.067589286070e-13
   137   -5.549438729177e-02
   138    4.326068637688e-03
   139    4.434921889404e-02
   140   -1.701202475127e-13
   141   -1.449174064759e-01
   142    6.609106719829e-02
   143    4.669720971903e-02
   144   -2.379181562561e-13