[Molden Format]
[Atoms] (Angs)
  C      1    6     -0.13173890     -1.79208980      0.00000000
  H      2    1     -2.14962000     -1.30978739      0.00000000
  H      3    1     -0.31599560     -2.86503115      0.00000000
  H      4    1      0.14407746      2.04280963     -0.00000000
  C      5    6     -1.17258876      0.48030861      0.00000000
  O      6    8     -2.25008207      1.06833796      0.00000000
  C      7    6      1.31158357      0.28308717     -0.00000000
  O      8    8      2.36361668      0.96389345     -0.00000000
  N      9    7      0.07017030      1.03138997     -0.00000000
  N     10    7     -1.19586868     -0.94982644      0.00000000
  C     11    6      1.19165158     -1.13169473     -0.00000000
  H     12    1      2.09970506     -1.73445456     -0.00000000
[GTO]
1    0
S    6    1.000000
   4.56324000E+03    1.96665000E-03 
   6.82024000E+02    1.52306000E-02 
   1.54973000E+02    7.61269000E-02 
   4.44553000E+01    2.60801000E-01 
   1.30290000E+01    6.16462000E-01 
   1.82773000E+00    2.21006000E-01 
SP   3    1.000000
   2.09642000E+01    1.14660000E-01   4.02487000E-02 
   4.80331000E+00    9.19999000E-01   2.37594000E-01 
   1.45933000E+00   -3.03068000E-03   8.15854000E-01 
SP   1    1.000000
   4.83456000E-01    1.00000000E+00   1.00000000E+00 
SP   1    1.000000
   1.45585000E-01    1.00000000E+00   1.00000000E+00 
SP   1    1.000000
   4.38000000E-02    1.00000000E+00   1.00000000E+00 
D    1    1.000000
   6.26000000E-01    1.00000000E+00 

2    0
S    3    1.000000
   3.38650000E+01    2.54938000E-02 
   5.09479000E+00    1.90373000E-01 
   1.15879000E+00    8.52161000E-01 
S    1    1.000000
   3.25840000E-01    1.00000000E+00 
S    1    1.000000
   1.02741000E-01    1.00000000E+00 
S    1    1.000000
   3.60000000E-02    1.00000000E+00 
P    1    1.000000
   7.50000000E-01    1.00000000E+00 

3    0
S    3    1.000000
   3.38650000E+01    2.54938000E-02 
   5.09479000E+00    1.90373000E-01 
   1.15879000E+00    8.52161000E-01 
S    1    1.000000
   3.25840000E-01    1.00000000E+00 
S    1    1.000000
   1.02741000E-01    1.00000000E+00 
S    1    1.000000
   3.60000000E-02    1.00000000E+00 
P    1    1.000000
   7.50000000E-01    1.00000000E+00 

4    0
S    3    1.000000
   3.38650000E+01    2.54938000E-02 
   5.09479000E+00    1.90373000E-01 
   1.15879000E+00    8.52161000E-01 
S    1    1.000000
   3.25840000E-01    1.00000000E+00 
S    1    1.000000
   1.02741000E-01    1.00000000E+00 
S    1    1.000000
   3.60000000E-02    1.00000000E+00 
P    1    1.000000
   7.50000000E-01    1.00000000E+00 

5    0
S    6    1.000000
   4.56324000E+03    1.96665000E-03 
   6.82024000E+02    1.52306000E-02 
   1.54973000E+02    7.61269000E-02 
   4.44553000E+01    2.60801000E-01 
   1.30290000E+01    6.16462000E-01 
   1.82773000E+00    2.21006000E-01 
SP   3    1.000000
   2.09642000E+01    1.14660000E-01   4.02487000E-02 
   4.80331000E+00    9.19999000E-01   2.37594000E-01 
   1.45933000E+00   -3.03068000E-03   8.15854000E-01 
SP   1    1.000000
   4.83456000E-01    1.00000000E+00   1.00000000E+00 
SP   1    1.000000
   1.45585000E-01    1.00000000E+00   1.00000000E+00 
SP   1    1.000000
   4.38000000E-02    1.00000000E+00   1.00000000E+00 
D    1    1.000000
   6.26000000E-01    1.00000000E+00 

6    0
S    6    1.000000
   8.58850000E+03    1.89515000E-03 
   1.29723000E+03    1.43859000E-02 
   2.99296000E+02    7.07320000E-02 
   8.73771000E+01    2.40001000E-01 
   2.56789000E+01    5.94797000E-01 
   3.74004000E+00    2.80802000E-01 
SP   3    1.000000
   4.21175000E+01    1.13889000E-01   3.65114000E-02 
   9.62837000E+00    9.20811000E-01   2.37153000E-01 
   2.85332000E+00   -3.27447000E-03   8.19702000E-01 
SP   1    1.000000
   9.05661000E-01    1.00000000E+00   1.00000000E+00 
SP   1    1.000000
   2.55611000E-01    1.00000000E+00   1.00000000E+00 
SP   1    1.000000
   8.45000000E-02    1.00000000E+00   1.00000000E+00 
D    1    1.000000
   1.29200000E+00    1.00000000E+00 

7    0
S    6    1.000000
   4.56324000E+03    1.96665000E-03 
   6.82024000E+02    1.52306000E-02 
   1.54973000E+02    7.61269000E-02 
   4.44553000E+01    2.60801000E-01 
   1.30290000E+01    6.16462000E-01 
   1.82773000E+00    2.21006000E-01 
SP   3    1.000000
   2.09642000E+01    1.14660000E-01   4.02487000E-02 
   4.80331000E+00    9.19999000E-01   2.37594000E-01 
   1.45933000E+00   -3.03068000E-03   8.15854000E-01 
SP   1    1.000000
   4.83456000E-01    1.00000000E+00   1.00000000E+00 
SP   1    1.000000
   1.45585000E-01    1.00000000E+00   1.00000000E+00 
SP   1    1.000000
   4.38000000E-02    1.00000000E+00   1.00000000E+00 
D    1    1.000000
   6.26000000E-01    1.00000000E+00 

8    0
S    6    1.000000
   8.58850000E+03    1.89515000E-03 
   1.29723000E+03    1.43859000E-02 
   2.99296000E+02    7.07320000E-02 
   8.73771000E+01    2.40001000E-01 
   2.56789000E+01    5.94797000E-01 
   3.74004000E+00    2.80802000E-01 
SP   3    1.000000
   4.21175000E+01    1.13889000E-01   3.65114000E-02 
   9.62837000E+00    9.20811000E-01   2.37153000E-01 
   2.85332000E+00   -3.27447000E-03   8.19702000E-01 
SP   1    1.000000
   9.05661000E-01    1.00000000E+00   1.00000000E+00 
SP   1    1.000000
   2.55611000E-01    1.00000000E+00   1.00000000E+00 
SP   1    1.000000
   8.45000000E-02    1.00000000E+00   1.00000000E+00 
D    1    1.000000
   1.29200000E+00    1.00000000E+00 

9    0
S    6    1.000000
   6.29348000E+03    1.96979000E-03 
   9.49044000E+02    1.49613000E-02 
   2.18776000E+02    7.35006000E-02 
   6.36916000E+01    2.48937000E-01 
   1.88282000E+01    6.02460000E-01 
   2.72023000E+00    2.56202000E-01 
SP   3    1.000000
   3.06331000E+01    1.11906000E-01   3.83119000E-02 
   7.02614000E+00    9.21666000E-01   2.37403000E-01 
   2.11205000E+00   -2.56919000E-03   8.17592000E-01 
SP   1    1.000000
   6.84009000E-01    1.00000000E+00   1.00000000E+00 
SP   1    1.000000
   2.00878000E-01    1.00000000E+00   1.00000000E+00 
SP   1    1.000000
   6.39000000E-02    1.00000000E+00   1.00000000E+00 
D    1    1.000000
   9.13000000E-01    1.00000000E+00 

10    0
S    6    1.000000
   6.29348000E+03    1.96979000E-03 
   9.49044000E+02    1.49613000E-02 
   2.18776000E+02    7.35006000E-02 
   6.36916000E+01    2.48937000E-01 
   1.88282000E+01    6.02460000E-01 
   2.72023000E+00    2.56202000E-01 
SP   3    1.000000
   3.06331000E+01    1.11906000E-01   3.83119000E-02 
   7.02614000E+00    9.21666000E-01   2.37403000E-01 
   2.11205000E+00   -2.56919000E-03   8.17592000E-01 
SP   1    1.000000
   6.84009000E-01    1.00000000E+00   1.00000000E+00 
SP   1    1.000000
   2.00878000E-01    1.00000000E+00   1.00000000E+00 
SP   1    1.000000
   6.39000000E-02    1.00000000E+00   1.00000000E+00 
D    1    1.000000
   9.13000000E-01    1.00000000E+00 

11    0
S    6    1.000000
   4.56324000E+03    1.96665000E-03 
   6.82024000E+02    1.52306000E-02 
   1.54973000E+02    7.61269000E-02 
   4.44553000E+01    2.60801000E-01 
   1.30290000E+01    6.16462000E-01 
   1.82773000E+00    2.21006000E-01 
SP   3    1.000000
   2.09642000E+01    1.14660000E-01   4.02487000E-02 
   4.80331000E+00    9.19999000E-01   2.37594000E-01 
   1.45933000E+00   -3.03068000E-03   8.15854000E-01 
SP   1    1.000000
   4.83456000E-01    1.00000000E+00   1.00000000E+00 
SP   1    1.000000
   1.45585000E-01    1.00000000E+00   1.00000000E+00 
SP   1    1.000000
   4.38000000E-02    1.00000000E+00   1.00000000E+00 
D    1    1.000000
   6.26000000E-01    1.00000000E+00 

12    0
S    3    1.000000
   3.38650000E+01    2.54938000E-02 
   5.09479000E+00    1.90373000E-01 
   1.15879000E+00    8.52161000E-01 
S    1    1.000000
   3.25840000E-01    1.00000000E+00 
S    1    1.000000
   1.02741000E-01    1.00000000E+00 
S    1    1.000000
   3.60000000E-02    1.00000000E+00 
P    1    1.000000
   7.50000000E-01    1.00000000E+00 

[MO]
Sym=X
Ene= 2.009691
Spin=Alpha
Occup=1
     1    1.282161991720e-14
     2    8.134884313308e-15
     3    2.904620758037e-14
     4   -1.923813122118e-14
     5    6.771095262184e-02
     6    4.950026110525e-14
     7    2.015974905895e-14
     8   -4.038314384415e-14
     9    1.175316324671e-01
    10   -5.817988862434e-13
    11    3.464105803006e-13
    12   -1.665988365420e-13
    13    1.114654922395e-01
    14    2.189245331947e-12
    15   -1.226712299521e-12
    16    2.398289275043e-12
    17    1.298305842678e-02
    18   -5.232531049490e-15
    19    1.032961106223e-02
    20    8.290833754212e-03
    21   -3.040842213722e-14
    22   -4.252569338741e-15
    23   -3.339801867057e-15
    24   -1.930800820688e-13
    25    1.695479390322e-12
    26   -5.837810923552e-13
    27   -2.590955589918e-14
    28    1.181400478645e-15
    29   -4.265429640580e-04
    30    1.672200567503e-14
    31   -4.579322158704e-14
    32    4.495660969968e-13
    33    1.248770759630e-12
    34    4.630990380559e-15
    35    9.408495238564e-15
    36    5.451828601698e-03
    37    3.405699287977e-14
    38    1.696533440737e-13
    39    4.235656543610e-13
    40    5.435972759416e-13
    41   -3.130523282513e-15
    42   -1.024922793946e-14
    43   -2.256364911348e-03
    44   -3.765330826665e-14
    45   -2.154124073341e-14
    46    2.943660044553e-14
    47   -1.982100659889e-14
    48   -2.036136826833e-03
    49   -3.218341430383e-14
    50    1.980858840843e-14
    51    3.809646884565e-14
    52   -6.012629281807e-03
    53   -6.939274346378e-13
    54   -2.649695088133e-13
    55    4.560203529075e-13
    56    3.730255155307e-03
    57   -2.406630255956e-12
    58   -1.494349902609e-12
    59   -7.507468435637e-13
    60    1.747453082485e-02
    61    8.967077673802e-15
    62   -4.911946512310e-03
    63    1.623693136862e-03
    64    1.442247151345e-14
    65   -3.136193556498e-14
    66   -1.265070128662e-14
    67   -9.644491732986e-15
    68    1.662139258861e-15
    69    5.697982451876e-14
    70    1.703593642158e-02
    71   -9.038202768819e-15
    72    1.199412171553e-14
    73    7.949719841370e-14
    74    2.634264896553e-02
    75   -8.682285311414e-14
    76   -2.093378600401e-13
    77   -6.081537372140e-14
    78    2.825124120631e-02
    79   -1.255964012748e-13
    80   -4.573594889049e-14
    81   -6.979231193826e-14
    82   -2.328524336274e-03
    83    1.592873217650e-15
    84    1.039416367472e-03
    85   -4.192273920708e-04
    86    9.829622991281e-16
    87    8.248916922298e-15
    88    3.874568940292e-14
    89    4.624936547722e-14
    90    6.696457092829e-15
    91    1.791799050962e-14
    92   -5.507045868253e-02
    93   -5.035017628045e-14
    94    3.493041860321e-14
    95   -1.765561790321e-14
    96   -9.665729505553e-02
    97   -3.796136649446e-13
    98    7.812376566528e-13
    99    5.846485842474e-13
   100   -5.821737315583e-02
   101    1.469000233649e-11
   102   -1.237472091622e-12
   103   -2.699139956685e-12
   104   -3.958702616807e-02
   105   -1.096933833641e-14
   106   -3.272621314375e-02
   107   -3.723552887299e-02
   108    8.570488886605e-15
   109    4.445856945249e-15
   110    3.818190617513e-15
   111    8.322593095094e-15
   112    2.836605198733e-14
   113   -1.642891386778e-14
   114   -3.462138928790e-01
   115   -4.875889202947e-14
   116    2.839811234626e-15
   117   -2.751000617800e-14
   118   -3.978410500749e-01
   119   -5.196516167844e-14
   120    1.902360499200e-13
   121    7.667909071363e-14
   122   -2.671197558239e-01
   123   -1.059412508913e-12
   124   -1.150091137020e-14
   125    4.128286630887e-13
   126   -1.590463664179e-02
   127   -2.202906482227e-15
   128    1.953073729537e-02
   129    1.063463864911e-02
   130   -4.543281831830e-15
   131    9.006264987897e-16
   132    2.759291601888e-16
   133   -1.979891193719e-14
   134    1.210819346274e-14
   135    1.626468271987e-14
   136   -2.256039307093e-02
   137    6.313226439588e-14
   138    3.080412880595e-14
   139    6.705360272673e-14
   140   -3.820294918735e-02
   141    4.838966227678e-13
   142    2.055318199487e-13
   143   -5.987141506136e-13
   144   -3.041904926451e-02
   145    4.416599336577e-14
   146   -1.538414104234e-12
   147   -1.496533156388e-13
   148    8.216088914049e-03
   149   -1.087348511629e-15
   150   -3.051092822303e-03
   151    1.478280975744e-03
   152   -9.668691929056e-15
   153    1.882202476951e-15
   154   -1.200489131659e-14
   155    4.007172388137e-15
   156    2.276998969218e-14
   157   -3.396683468985e-16
   158    5.181211992495e-03
   159   -1.948775214673e-13
   160    1.505278005579e-14
   161    2.639272823389e-14
   162    1.033337122813e-02
   163    7.880251146732e-13
   164    8.789132884562e-14
   165    1.186843313904e-13
   166   -1.792648594499e-02
   167   -2.050372820720e-12
   168    2.157151772682e-12
   169    1.728773873845e-13
   170   -3.088489755005e-02
   171   -4.298665680346e-15
   172    5.627246831342e-03
   173   -4.087375259235e-03
   174    5.889779519757e-15
   175    1.922371970551e-14
   176    8.097364016604e-14
   177    6.483382206254e-14
   178    5.108232680752e-14
   179   -3.793097676887e-14
   180    7.922458351765e-02
   181   -5.517908254074e-14
   182    4.035795883389e-14
   183   -6.341116794888e-14
   184    1.332566898070e-01
   185    1.078259547788e-12
   186    2.617414104267e-13
   187    2.610160145083e-13
   188    1.622138326923e-01
   189   -1.225187590632e-11
   190    2.724096669733e-12
   191   -5.195928862820e-12
   192    3.358903530121e-02
   193   -2.504250555959e-14
   194   -1.162965861926e-02
   195   -5.572104135529e-03
   196    2.322975846815e-14
   197   -1.967701412566e-14
   198    3.897364383425e-14
   199   -2.886598336971e-14
   200   -8.613183739832e-13
   201   -1.935330868550e-12
   202    4.843217918861e-16
   203   -9.899491279360e-15
   204    5.616545702722e-03
Sym=X
Ene= 2.004915
Spin=Alpha
Occup=1
     1    1.423795154967e-14
     2    2.409686206195e-14
     3    2.451664644273e-14
     4    3.724776957054e-14
     5   -3.018549013418e-03
     6   -6.195086884870e-14
     7    3.279980276066e-14
     8    3.973669626275e-14
     9   -5.731054853595e-03
    10   -1.294151448492e-13
    11    4.316737634969e-14
    12    1.349324685609e-13
    13    3.488987419629e-02
    14    4.459764669576e-12
    15    7.217213140947e-13
    16    1.497403252091e-12
    17    7.864078388195e-03
    18    4.634100226529e-16
    19    2.965231513826e-02
    20   -6.669828815811e-03
    21   -6.444269457096e-15
    22   -2.449721733619e-15
    23    1.507518104468e-14
    24   -4.933488953591e-15
    25    1.881057119392e-13
    26   -1.214478466262e-13
    27   -1.550773903882e-15
    28    2.910851238812e-15
    29   -1.348833263213e-02
    30   -3.692284929824e-14
    31   -4.884765012015e-14
    32    2.265962705010e-13
    33    6.647402749997e-13
    34    3.225369225776e-15
    35   -6.393668611257e-15
    36    2.970490652160e-05
    37   -8.617672284331e-16
    38    6.485172471794e-15
    39    3.025543841312e-13
    40    5.367751692191e-14
    41   -2.351188898399e-15
    42   -3.235448691389e-15
    43    1.209854889854e-02
    44   -5.367338927563e-15
    45    2.126677107716e-15
    46    6.771052074273e-14
    47   -5.654150712681e-14
    48   -1.094625095219e-02
    49   -4.347935184815e-14
    50    1.011477845656e-13
    51   -7.626192689283e-14
    52   -2.297903726958e-02
    53   -1.033259822126e-13
    54    3.443448988163e-14
    55   -8.232386159312e-15
    56   -1.330690919903e-02
    57   -1.217729519270e-12
    58   -3.889025830895e-13
    59    1.283031247772e-13
    60    7.596698005793e-03
    61   -1.099321911908e-16
    62    2.565370857998e-02
    63    2.423970667736e-02
    64   -1.898499694170e-14
    65    3.232629044270e-15
    66   -5.768580224548e-14
    67   -2.203995367528e-14
    68   -3.971109026374e-14
    69    6.052402114996e-14
    70   -2.762866792675e-02
    71   -1.592703605558e-13
    72   -5.888563024315e-14
    73    8.891036513349e-14
    74   -4.298103712739e-02
    75   -1.067384647071e-13
    76   -4.969427764959e-14
    77    6.000223974012e-14
    78   -3.733293170118e-02
    79    1.624999033182e-13
    80    4.980944755863e-14
    81   -7.167551904350e-14
    82   -4.718877477144e-03
    83    6.557957222244e-15
    84   -2.250469859963e-03
    85    1.986174032048e-03
    86   -4.358339511470e-15
    87    9.294375430784e-15
    88    6.406842159178e-14
    89    3.509496563944e-14
    90   -6.957247888584e-16
    91   -1.792588278524e-14
    92    9.299200480374e-02
    93    9.636539628857e-14
    94   -1.281168203975e-14
    95   -3.297537587522e-14
    96    1.672571565348e-01
    97    1.508302546825e-13
    98    1.715659973968e-13
    99    1.947465848007e-14
   100    9.161312332961e-02
   101    2.698690710129e-12
   102   -8.335509086055e-13
   103   -1.019427320039e-13
   104    8.427039161850e-03
   105   -1.035742395823e-14
   106   -1.986276983211e-02
   107   -2.426202106561e-03
   108   -5.189761765267e-15
   109    6.683300237134e-15
   110   -1.388035887130e-14
   111   -2.085617931090e-14
   112   -3.364776618826e-14
   113    2.858169989208e-14
   114   -3.475117111308e-02
   115    6.712972819782e-14
   116   -4.359535307187e-14
   117    2.974317039035e-14
   118   -3.386874195098e-02
   119    6.867759202520e-15
   120    3.632415068553e-15
   121    5.099033895659e-14
   122   -3.858427237005e-02
   123   -1.966907301396e-13
   124    3.661126017686e-14
   125    1.228589902263e-13
   126   -3.126780758829e-02
   127   -2.175878572460e-15
   128   -6.166439674649e-03
   129   -3.883983119319e-03
   130    1.724317334059e-15
   131    1.292272402438e-15
   132   -7.855523276506e-15
   133   -1.670767077226e-14
   134    2.621686495605e-15
   135   -1.778720682446e-14
   136    1.593083926123e-01
   137    4.060930140537e-14
   138    1.399860644402e-16
   139   -2.668809622772e-14
   140    2.611977962699e-01
   141    2.395780729527e-14
   142    5.792336289689e-14
   143   -9.427515868294e-14
   144    2.603687918631e-01
   145   -1.361574968153e-13
   146   -4.395129804307e-13
   147   -4.364962029552e-13
   148    1.421933445433e-02
   149   -1.060173021171e-15
   150    6.286147165549e-03
   151   -7.472190771828e-03
   152   -3.649295679500e-15
   153    1.001640961025e-15
   154   -2.892714869470e-14
   155   -4.239473732477e-14
   156   -1.610745815916e-15
   157    3.896259064168e-14
   158   -1.568976360826e-01
   159    8.496417227344e-14
   160   -2.368576862434e-15
   161    6.723471297859e-14
   162   -2.563231665105e-01
   163    1.472935051596e-13
   164   -2.669676895800e-14
   165    4.091824135818e-14
   166   -2.750902783770e-01
   167   -8.107283634081e-13
   168    4.338746517147e-14
   169   -1.660997315768e-13
   170   -4.603071669781e-02
   171   -2.123709307376e-15
   172   -2.573628586533e-03
   173   -1.495567268602e-03
   174    2.739653648405e-15
   175    7.708841886624e-15
   176    1.489410076032e-14
   177   -3.365495841895e-15
   178   -5.783013773774e-15
   179    2.334904908578e-14
   180    9.025497849721e-02
   181    5.591365826533e-14
   182   -8.546985625621e-15
   183    4.289623773418e-14
   184    1.546319329547e-01
   185    2.008994681730e-13
   186    4.512640887594e-14
   187   -6.774618446944e-14
   188    1.592626452216e-01
   189   -5.375569180595e-12
   190    2.126048722184e-12
   191   -4.935575505619e-13
   192    1.483506674216e-02
   193   -7.427302302457e-15
   194   -4.640162802696e-03
   195    1.213820653317e-02
   196    6.338529990810e-16
   197   -3.257152914817e-15
   198   -3.834204071831e-15
   199   -3.568836065141e-14
   200   -2.653732824637e-13
   201   -6.765605221502e-13
   202    7.174258398164e-15
   203   -1.240499982977e-15
   204    6.973042553139e-03
Sym=X
Ene= 2.002343
Spin=Alpha
Occup=1
     1    9.972445964004e-03
     2    1.663907760415e-02
     3   -3.447999604757e-02
     4   -2.559572316313e-02
     5    2.569457931857e-15
     6   -4.536029626818e-02
     7   -5.981021741285e-02
     8   -4.304404399906e-02
     9    2.944175151760e-14
    10   -7.103296940143e-02
    11   -4.059832357459e-02
    12   -5.786576582758e-02
    13   -1.227368561078e-14
    14   -1.979210168441e-01
    15   -5.177746102433e-02
    16   -5.791038514188e-02
    17    2.761145135957e-14
    18    1.011573585320e-03
    19    3.969265370872e-14
    20   -1.185365554019e-14
    21   -6.993930924286e-03
    22   -1.511445901560e-03
    23   -3.412557729715e-03
    24   -7.963687958477e-03
    25   -3.582859960921e-03
    26    8.379887464248e-03
    27   -1.784888204013e-04
    28   -3.221191068294e-05
    29   -7.493287794146e-16
    30    1.902667616065e-02
    31    2.658597779992e-02
    32    5.426807005380e-03
    33   -2.939516170126e-02
    34   -1.552922592155e-03
    35    7.833279905370e-04
    36    2.915076643332e-15
    37    5.655901806487e-03
    38    1.723676283075e-02
    39    9.273912922614e-03
    40   -4.745213333143e-02
    41   -2.376526712448e-03
    42   -1.911567829777e-04
    43   -1.802565037928e-14
    44   -1.410015472743e-02
    45   -2.332671891818e-02
    46    3.594152325727e-02
    47    1.506881069337e-02
    48   -1.124619618043e-13
    49    6.589554035562e-02
    50    5.995781137480e-02
    51    2.377702894390e-02
    52   -1.931646705440e-13
    53    6.805777023289e-02
    54    5.194861767905e-02
    55    6.122804174072e-03
    56   -1.205128298284e-13
    57    5.739109276843e-02
    58    2.343488028545e-02
    59    3.256259685721e-02
    60   -1.586992970139e-13
    61   -1.311196998987e-03
    62    6.272305938653e-14
    63   -3.820945014444e-14
    64   -9.738015332412e-03
    65    6.739389414816e-03
    66    3.695482440454e-03
    67    6.193904360529e-03
    68    4.752025379303e-03
    69    3.062606755725e-02
    70   -4.998064213777e-14
    71   -1.781116763929e-02
    72    9.319892360293e-03
    73    4.655800525351e-02
    74   -1.102563667327e-13
    75   -8.008182433297e-03
    76    5.712022078022e-03
    77    3.597243511639e-02
    78    5.561011399023e-15
    79    2.411840186504e-02
    80    8.124196549682e-03
    81   -1.257193386692e-03
    82    1.231422083837e-13
    83    2.487705163179e-04
    84   -1.902508304742e-14
    85    1.087703915980e-14
    86    2.667916022325e-03
    87    2.136791087525e-03
    88   -7.110905911249e-03
    89   -1.192641468039e-02
    90    3.922831388982e-02
    91   -5.439817041434e-02
    92   -2.691559996043e-14
    93    3.471297109108e-02
    94    6.561147748919e-02
    95   -1.005764550497e-01
    96   -1.643898382130e-14
    97    3.919487727819e-02
    98   -1.060301312094e-02
    99    2.160088734552e-02
   100   -8.660697261189e-15
   101   -3.234076769246e-01
   102   -6.724790343745e-03
   103    1.425732800082e-01
   104    2.518943992624e-13
   105    6.991826786129e-04
   106    5.669606818898e-14
   107   -2.328771933704e-14
   108   -5.148887456784e-02
   109    3.409628369560e-02
   110   -1.144538829195e-02
   111   -1.652293118135e-02
   112   -2.007577392023e-01
   113    2.814262024195e-01
   114    6.819918457633e-15
   115    5.433190449621e-02
   116   -2.307640056638e-01
   117    3.221886918624e-01
   118    7.140079561227e-15
   119    1.768931544181e-02
   120   -1.605476595358e-01
   121    2.356421137907e-01
   122    3.127603702790e-14
   123   -1.685719320357e-02
   124    5.610539720325e-03
   125    3.162500033404e-03
   126   -1.797483318957e-13
   127   -1.662652754707e-03
   128   -4.876295425538e-15
   129   -2.610023189832e-15
   130    1.088703663863e-02
   131   -4.121749634645e-03
   132    2.217566832125e-02
   133    3.658447592955e-02
   134   -8.631966442881e-02
   135    3.287617152907e-02
   136   -1.421329754567e-13
   137   -9.826717687432e-02
   138   -1.400163736439e-01
   139    4.671284402704e-02
   140   -2.395290274510e-13
   141   -1.798995395505e-01
   142   -1.044642316177e-01
   143    6.584201470977e-02
   144   -2.028985744621e-13
   145   -1.223251874769e-01
   146    5.979417751036e-02
   147    2.672975020072e-02
   148   -5.986068892818e-14
   149   -5.485230836208e-04
   150   -1.804798889047e-14
   151    6.702940673233e-15
   152   -1.877019516855e-04
   153    6.021240180834e-03
   154   -2.067517937471e-03
   155   -3.481033986008e-03
   156    2.747731410991e-03
   157    3.577451014603e-03
   158   -8.457196784485e-14
   159    1.003441500263e-02
   160    3.379136393897e-03
   161    5.455674181101e-03
   162   -1.373338969623e-13
   163    1.826794858176e-02
   164    9.099514130730e-03
   165    3.414726520341e-04
   166   -1.034922013327e-13
   167    5.661883355581e-02
   168    9.940105010059e-03
   169    2.722265815056e-02
   170    2.847599340082e-14
   171    3.646218089882e-04
   172   -6.055576737804e-16
   173    8.588017439262e-15
   174   -3.710881036801e-03
   175    1.125444882834e-03
   176   -1.868408813886e-02
   177   -3.013806697304e-02
   178    4.081701349967e-02
   179    6.091981985729e-02
   180    2.134828597504e-14
   181    7.505088249514e-02
   182    6.894709764978e-02
   183    8.509108158183e-02
   184    7.984159188885e-14
   185    1.438357647084e-01
   186    1.264289441174e-02
   187    8.118597308602e-02
   188    1.639311431372e-14
   189    5.250567768436e-01
   190   -7.904383574647e-02
   191    6.983760744730e-02
   192   -5.609766810317e-14
   193   -4.635694002917e-04
   194   -6.841573211159e-16
   195   -1.026312179416e-14
   196   -4.207394860020e-03
   197    7.207013200585e-04
   198    1.455805873784e-02
   199    1.696825616652e-02
   200    4.099597860035e-03
   201    4.261172223324e-02
   202   -1.324985605357e-03
   203    1.925137856655e-03
   204   -9.651044360875e-15
Sym=X
Ene= 2.001628
Spin=Alpha
Occup=1
     1   -3.199987853320e-03
     2   -5.617339248365e-03
     3   -5.698467091149e-03
     4    2.013391408702e-02
     5   -1.951866553929e-14
     6    1.472342172707e-02
     7   -1.053733934308e-02
     8    3.331957613538e-02
     9   -4.418504226471e-14
    10    3.150098907471e-02
    11   -1.514368472602e-02
    12    2.766694228138e-02
    13   -7.602529860688e-14
    14   -2.015435231661e-02
    15   -2.742985927651e-02
    16   -1.073780263212e-02
    17   -2.491486355222e-14
    18   -1.431426419335e-03
    19   -2.606928121303e-14
    20   -3.471468307279e-15
    21    3.933530445371e-03
    22    4.426473360562e-03
    23    1.907274779713e-02
    24    3.777954974660e-02
    25    2.609012095732e-02
    26   -3.078213325834e-02
    27    3.040690607031e-03
    28    2.230136606624e-03
    29    1.093812340778e-15
    30   -1.311829763334e-02
    31   -2.241153326110e-02
    32   -1.654135327004e-03
    33   -1.619614554492e-02
    34   -1.432425543573e-04
    35   -1.849975374828e-03
    36    3.035535332970e-17
    37   -9.949934172969e-03
    38   -1.537149425971e-02
    39   -2.410346667110e-02
    40    1.686586907189e-02
    41    2.894954238804e-03
    42    3.676144367566e-03
    43   -1.472661705397e-15
    44    1.223679393338e-02
    45    1.977367200595e-02
    46   -6.725911324775e-03
    47   -5.222681125992e-03
    48   -1.533636748331e-13
    49   -5.731759574383e-02
    50   -7.820378880691e-03
    51   -3.589763475376e-03
    52   -2.431056401089e-13
    53   -4.858513524596e-02
    54   -6.853063953826e-02
    55   -9.769282827961e-02
    56   -1.827586494490e-13
    57    9.757466969880e-03
    58   -5.152126060736e-02
    59   -8.784523925647e-02
    60   -1.034745745004e-13
    61    8.827370646456e-04
    62    6.950194962808e-14
    63   -3.892822521988e-14
    64    5.566137612186e-02
    65    2.969572744796e-02
    66   -7.734335135451e-03
    67   -1.299693814748e-02
    68   -1.117114491629e-01
    69   -1.808998716710e-01
    70   -3.516329893204e-13
    71    3.759546859395e-02
    72   -1.733068680298e-01
    73   -2.795544936570e-01
    74   -5.445504571725e-13
    75    4.257626719146e-02
    76   -1.498112973448e-01
    77   -2.588451534096e-01
    78   -5.191081612272e-13
    79    2.655343792860e-03
    80   -4.411085950843e-03
    81   -1.154524873773e-02
    82   -3.903232894436e-15
    83    6.385293298552e-04
    84   -3.843819235498e-14
    85    8.589095222455e-15
    86   -1.292578482567e-02
    87   -6.483854435355e-03
    88    1.030998221582e-02
    89    1.528523042853e-02
    90   -6.975097976362e-02
    91   -7.313553862022e-02
    92   -4.877833422433e-14
    93   -4.095662103764e-02
    94   -1.138538160789e-01
    95   -1.218185964178e-01
    96   -9.281128512725e-14
    97   -3.817944173145e-02
    98   -2.512846220596e-02
    99   -2.142176562314e-02
   100   -8.452853632785e-14
   101   -9.268995098296e-02
   102    1.883075185847e-02
   103    1.977390308884e-02
   104    9.462458722185e-14
   105    5.957196639257e-03
   106   -3.637853377341e-14
   107    6.864461934292e-15
   108   -1.551112634112e-02
   109   -1.027018271728e-02
   110    7.890058499408e-03
   111    1.109632419501e-02
   112    1.110692571844e-01
   113    1.432442961817e-01
   114   -1.391675294046e-13
   115   -3.214596458643e-02
   116    1.282088920109e-01
   117    1.638478993483e-01
   118   -1.780527560499e-13
   119    5.730116260139e-02
   120    4.101572876713e-02
   121    8.810005840181e-02
   122   -4.930051682746e-14
   123    2.518160235763e-02
   124   -9.787946098227e-04
   125    2.697015694530e-04
   126   -7.683628602927e-14
   127    7.757528134299e-03
   128    1.246632614115e-14
   129    9.523872680908e-15
   130   -5.216239915202e-03
   131   -1.285910409103e-02
   132   -9.638182112611e-03
   133   -1.628342342980e-02
   134   -1.737350814139e-02
   135   -2.653492629115e-02
   136    7.640827423146e-14
   137    4.205117132333e-02
   138   -1.776597856045e-02
   139   -3.412942885138e-02
   140    1.202445184042e-13
   141    1.250025038275e-01
   142   -7.492168095320e-02
   143   -3.627719379239e-02
   144    1.915109381649e-13