[Molden Format]
[Atoms] (Angs)
  C      1    6     -0.13173890     -1.79208980      0.00000000
  H      2    1     -2.14962000     -1.30978739      0.00000000
  H      3    1     -0.31599560     -2.86503115      0.00000000
  H      4    1      0.14407746      2.04280963     -0.00000000
  C      5    6     -1.17258876      0.48030861      0.00000000
  O      6    8     -2.25008207      1.06833796      0.00000000
  C      7    6      1.31158357      0.28308717     -0.00000000
  O      8    8      2.36361668      0.96389345     -0.00000000
  N      9    7      0.07017030      1.03138997     -0.00000000
  N     10    7     -1.19586868     -0.94982644      0.00000000
  C     11    6      1.19165158     -1.13169473     -0.00000000
  H     12    1      2.09970506     -1.73445456     -0.00000000
[GTO]
1    0
S    6    1.000000
   4.56324000E+03    1.96665000E-03 
   6.82024000E+02    1.52306000E-02 
   1.54973000E+02    7.61269000E-02 
   4.44553000E+01    2.60801000E-01 
   1.30290000E+01    6.16462000E-01 
   1.82773000E+00    2.21006000E-01 
SP   3    1.000000
   2.09642000E+01    1.14660000E-01   4.02487000E-02 
   4.80331000E+00    9.19999000E-01   2.37594000E-01 
   1.45933000E+00   -3.03068000E-03   8.15854000E-01 
SP   1    1.000000
   4.83456000E-01    1.00000000E+00   1.00000000E+00 
SP   1    1.000000
   1.45585000E-01    1.00000000E+00   1.00000000E+00 
SP   1    1.000000
   4.38000000E-02    1.00000000E+00   1.00000000E+00 
D    1    1.000000
   6.26000000E-01    1.00000000E+00 

2    0
S    3    1.000000
   3.38650000E+01    2.54938000E-02 
   5.09479000E+00    1.90373000E-01 
   1.15879000E+00    8.52161000E-01 
S    1    1.000000
   3.25840000E-01    1.00000000E+00 
S    1    1.000000
   1.02741000E-01    1.00000000E+00 
S    1    1.000000
   3.60000000E-02    1.00000000E+00 
P    1    1.000000
   7.50000000E-01    1.00000000E+00 

3    0
S    3    1.000000
   3.38650000E+01    2.54938000E-02 
   5.09479000E+00    1.90373000E-01 
   1.15879000E+00    8.52161000E-01 
S    1    1.000000
   3.25840000E-01    1.00000000E+00 
S    1    1.000000
   1.02741000E-01    1.00000000E+00 
S    1    1.000000
   3.60000000E-02    1.00000000E+00 
P    1    1.000000
   7.50000000E-01    1.00000000E+00 

4    0
S    3    1.000000
   3.38650000E+01    2.54938000E-02 
   5.09479000E+00    1.90373000E-01 
   1.15879000E+00    8.52161000E-01 
S    1    1.000000
   3.25840000E-01    1.00000000E+00 
S    1    1.000000
   1.02741000E-01    1.00000000E+00 
S    1    1.000000
   3.60000000E-02    1.00000000E+00 
P    1    1.000000
   7.50000000E-01    1.00000000E+00 

5    0
S    6    1.000000
   4.56324000E+03    1.96665000E-03 
   6.82024000E+02    1.52306000E-02 
   1.54973000E+02    7.61269000E-02 
   4.44553000E+01    2.60801000E-01 
   1.30290000E+01    6.16462000E-01 
   1.82773000E+00    2.21006000E-01 
SP   3    1.000000
   2.09642000E+01    1.14660000E-01   4.02487000E-02 
   4.80331000E+00    9.19999000E-01   2.37594000E-01 
   1.45933000E+00   -3.03068000E-03   8.15854000E-01 
SP   1    1.000000
   4.83456000E-01    1.00000000E+00   1.00000000E+00 
SP   1    1.000000
   1.45585000E-01    1.00000000E+00   1.00000000E+00 
SP   1    1.000000
   4.38000000E-02    1.00000000E+00   1.00000000E+00 
D    1    1.000000
   6.26000000E-01    1.00000000E+00 

6    0
S    6    1.000000
   8.58850000E+03    1.89515000E-03 
   1.29723000E+03    1.43859000E-02 
   2.99296000E+02    7.07320000E-02 
   8.73771000E+01    2.40001000E-01 
   2.56789000E+01    5.94797000E-01 
   3.74004000E+00    2.80802000E-01 
SP   3    1.000000
   4.21175000E+01    1.13889000E-01   3.65114000E-02 
   9.62837000E+00    9.20811000E-01   2.37153000E-01 
   2.85332000E+00   -3.27447000E-03   8.19702000E-01 
SP   1    1.000000
   9.05661000E-01    1.00000000E+00   1.00000000E+00 
SP   1    1.000000
   2.55611000E-01    1.00000000E+00   1.00000000E+00 
SP   1    1.000000
   8.45000000E-02    1.00000000E+00   1.00000000E+00 
D    1    1.000000
   1.29200000E+00    1.00000000E+00 

7    0
S    6    1.000000
   4.56324000E+03    1.96665000E-03 
   6.82024000E+02    1.52306000E-02 
   1.54973000E+02    7.61269000E-02 
   4.44553000E+01    2.60801000E-01 
   1.30290000E+01    6.16462000E-01 
   1.82773000E+00    2.21006000E-01 
SP   3    1.000000
   2.09642000E+01    1.14660000E-01   4.02487000E-02 
   4.80331000E+00    9.19999000E-01   2.37594000E-01 
   1.45933000E+00   -3.03068000E-03   8.15854000E-01 
SP   1    1.000000
   4.83456000E-01    1.00000000E+00   1.00000000E+00 
SP   1    1.000000
   1.45585000E-01    1.00000000E+00   1.00000000E+00 
SP   1    1.000000
   4.38000000E-02    1.00000000E+00   1.00000000E+00 
D    1    1.000000
   6.26000000E-01    1.00000000E+00 

8    0
S    6    1.000000
   8.58850000E+03    1.89515000E-03 
   1.29723000E+03    1.43859000E-02 
   2.99296000E+02    7.07320000E-02 
   8.73771000E+01    2.40001000E-01 
   2.56789000E+01    5.94797000E-01 
   3.74004000E+00    2.80802000E-01 
SP   3    1.000000
   4.21175000E+01    1.13889000E-01   3.65114000E-02 
   9.62837000E+00    9.20811000E-01   2.37153000E-01 
   2.85332000E+00   -3.27447000E-03   8.19702000E-01 
SP   1    1.000000
   9.05661000E-01    1.00000000E+00   1.00000000E+00 
SP   1    1.000000
   2.55611000E-01    1.00000000E+00   1.00000000E+00 
SP   1    1.000000
   8.45000000E-02    1.00000000E+00   1.00000000E+00 
D    1    1.000000
   1.29200000E+00    1.00000000E+00 

9    0
S    6    1.000000
   6.29348000E+03    1.96979000E-03 
   9.49044000E+02    1.49613000E-02 
   2.18776000E+02    7.35006000E-02 
   6.36916000E+01    2.48937000E-01 
   1.88282000E+01    6.02460000E-01 
   2.72023000E+00    2.56202000E-01 
SP   3    1.000000
   3.06331000E+01    1.11906000E-01   3.83119000E-02 
   7.02614000E+00    9.21666000E-01   2.37403000E-01 
   2.11205000E+00   -2.56919000E-03   8.17592000E-01 
SP   1    1.000000
   6.84009000E-01    1.00000000E+00   1.00000000E+00 
SP   1    1.000000
   2.00878000E-01    1.00000000E+00   1.00000000E+00 
SP   1    1.000000
   6.39000000E-02    1.00000000E+00   1.00000000E+00 
D    1    1.000000
   9.13000000E-01    1.00000000E+00 

10    0
S    6    1.000000
   6.29348000E+03    1.96979000E-03 
   9.49044000E+02    1.49613000E-02 
   2.18776000E+02    7.35006000E-02 
   6.36916000E+01    2.48937000E-01 
   1.88282000E+01    6.02460000E-01 
   2.72023000E+00    2.56202000E-01 
SP   3    1.000000
   3.06331000E+01    1.11906000E-01   3.83119000E-02 
   7.02614000E+00    9.21666000E-01   2.37403000E-01 
   2.11205000E+00   -2.56919000E-03   8.17592000E-01 
SP   1    1.000000
   6.84009000E-01    1.00000000E+00   1.00000000E+00 
SP   1    1.000000
   2.00878000E-01    1.00000000E+00   1.00000000E+00 
SP   1    1.000000
   6.39000000E-02    1.00000000E+00   1.00000000E+00 
D    1    1.000000
   9.13000000E-01    1.00000000E+00 

11    0
S    6    1.000000
   4.56324000E+03    1.96665000E-03 
   6.82024000E+02    1.52306000E-02 
   1.54973000E+02    7.61269000E-02 
   4.44553000E+01    2.60801000E-01 
   1.30290000E+01    6.16462000E-01 
   1.82773000E+00    2.21006000E-01 
SP   3    1.000000
   2.09642000E+01    1.14660000E-01   4.02487000E-02 
   4.80331000E+00    9.19999000E-01   2.37594000E-01 
   1.45933000E+00   -3.03068000E-03   8.15854000E-01 
SP   1    1.000000
   4.83456000E-01    1.00000000E+00   1.00000000E+00 
SP   1    1.000000
   1.45585000E-01    1.00000000E+00   1.00000000E+00 
SP   1    1.000000
   4.38000000E-02    1.00000000E+00   1.00000000E+00 
D    1    1.000000
   6.26000000E-01    1.00000000E+00 

12    0
S    3    1.000000
   3.38650000E+01    2.54938000E-02 
   5.09479000E+00    1.90373000E-01 
   1.15879000E+00    8.52161000E-01 
S    1    1.000000
   3.25840000E-01    1.00000000E+00 
S    1    1.000000
   1.02741000E-01    1.00000000E+00 
S    1    1.000000
   3.60000000E-02    1.00000000E+00 
P    1    1.000000
   7.50000000E-01    1.00000000E+00 

[MO]
Sym=X
Ene= 2.003670
Spin=Alpha
Occup=1
     1   -7.356010237051e-03
     2   -1.236438966661e-02
     3   -2.556428456588e-03
     4    1.122076350704e-02
     5   -8.975126329410e-14
     6    3.351156683171e-02
     7   -4.112457714622e-03
     8    1.983024470648e-02
     9   -1.492196155115e-13
    10    5.562029918571e-02
    11   -1.440618749174e-04
    12    2.661346449749e-02
    13   -1.827792655819e-13
    14    5.965608755729e-02
    15   -6.983993094427e-03
    16    1.701027448336e-03
    17    1.824638954871e-16
    18   -1.162495526402e-03
    19   -1.124019808622e-13
    20    8.504421907231e-15
    21    4.275649268726e-03
    22   -2.324703185626e-03
    23   -1.216953578076e-02
    24   -7.360204452459e-03
    25    3.793296509713e-02
    26   -2.643060396165e-02
    27   -1.699661299558e-03
    28    9.466751701608e-04
    29    1.011617015402e-14
    30   -5.359049602963e-03
    31   -1.018781357122e-02
    32   -9.469798730856e-03
    33   -8.645781607180e-03
    34   -1.316199109662e-04
    35    7.582447026908e-04
    36   -4.203863040844e-15
    37    7.833316906772e-03
    38   -1.481030936073e-03
    39   -3.794195601640e-02
    40    5.374951700863e-02
    41    3.451380920103e-04
    42    1.297352624065e-04
    43    2.048788354510e-14
    44    7.817063404937e-03
    45    1.143312228902e-02
    46    1.610121517804e-02
    47   -2.524378677088e-02
    48    1.912138090587e-13
    49   -2.981467442175e-02
    50    2.979499723674e-02
    51   -3.752108047502e-02
    52    3.295386638680e-13
    53   -4.908076630461e-02
    54   -4.483732051718e-02
    55   -6.934669377694e-02
    56    3.080981812879e-13
    57   -2.342644669517e-02
    58   -6.312175154324e-02
    59   -9.996736498698e-02
    60   -1.207939329901e-13
    61    5.216336462751e-04
    62   -1.384260323312e-13
    63    5.532842151887e-14
    64    4.302293382541e-02
    65    2.926182054293e-02
    66    4.457758716355e-03
    67    6.339912147158e-03
    68   -2.038129858950e-01
    69   -2.777810234377e-01
    70    2.829422164164e-13
    71   -2.024806341322e-02
    72   -2.368066695251e-01
    73   -3.222632534477e-01
    74    3.326973147591e-13
    75    1.500759943661e-02
    76   -1.518640874839e-01
    77   -2.393058698573e-01
    78    1.325748699578e-14
    79    1.389569853737e-02
    80    2.536646566222e-03
    81   -1.163000347836e-03
    82    9.135786389443e-14
    83    2.321603528687e-03
    84    4.100769423557e-14
    85   -2.712023732603e-14
    86   -1.532841901511e-02
    87   -4.687083694422e-03
    88    1.013509516802e-02
    89    1.743455536121e-02
    90    1.059848802303e-02
    91   -1.102950858580e-03
    92   -1.939576005735e-13
    93   -4.979841988852e-02
    94    1.764408122761e-02
    95    1.140812131524e-03
    96   -2.978000824442e-13
    97   -4.824539962558e-02
    98    3.786243319219e-02
    99   -2.790116642079e-02
   100   -2.823794773499e-13
   101    2.410397860550e-01
   102    1.110728967145e-02
   103   -1.285623974157e-01
   104    1.183739206322e-13
   105    1.294482207202e-03
   106   -1.962907245603e-13
   107    8.658249425830e-15
   108    2.821308432383e-02
   109   -1.344974081475e-02
   110   -2.446804147324e-03
   111   -4.209661127083e-03
   112    7.014434854455e-02
   113   -9.740912957990e-02
   114   -2.750057250846e-13
   115    1.336532848943e-02
   116    1.080615001295e-01
   117   -1.505297562078e-01
   118   -4.448912993350e-13
   119    1.722339047004e-02
   120    9.712744448081e-02
   121   -1.418244198204e-01
   122   -1.287689485659e-13
   123   -1.774517464118e-02
   124    1.301428284335e-02
   125   -3.763487659242e-03
   126   -1.721739544317e-13
   127    4.248238275971e-04
   128    3.347601663286e-14
   129    2.984318058938e-14
   130   -7.179778417562e-03
   131    2.663274086622e-03
   132   -2.428890615955e-02
   133   -3.988433507767e-02
   134   -1.434144556973e-02
   135   -1.380745739552e-02
   136    2.140449102447e-13
   137    1.042361409383e-01
   138   -1.422865646808e-02
   139   -1.128178418336e-02
   140    3.641782505325e-13
   141    2.035449131222e-01
   142   -3.221566922005e-02
   143   -3.199920676321e-02
   144    3.200764172395e-13
   145    1.929594002640e-01
   146    1.292105593790e-03
   147    1.292325941599e-02
   148    6.422794200906e-14
   149    1.500494550418e-03
   150    1.748301735571e-14
   151    3.058326823607e-15
   152   -4.015523799236e-03
   153    3.213775079712e-04
   154    1.082732086833e-02
   155    1.803164717634e-02
   156    1.598839318768e-02
   157   -2.138192382536e-02
   158    1.231451977986e-13
   159   -4.869660942280e-02
   160    2.918756247020e-02
   161   -2.958277793976e-02
   162    2.112428527749e-13
   163   -1.099744218557e-01
   164    2.168650301592e-02
   165   -4.474642894861e-02
   166    1.448846402876e-13
   167   -1.401173610131e-01
   168    1.981623256850e-02
   169    1.145983811910e-04
   170    5.274408421459e-14
   171   -9.930221437789e-04
   172   -9.340807386412e-15
   173   -7.596376502699e-15
   174   -2.178141525478e-03
   175   -8.379649590216e-04
   176    5.823511587915e-03
   177    9.493284990189e-03
   178   -1.638588496508e-03
   179   -2.396085471736e-02
   180   -2.053927471973e-13
   181   -2.392693742247e-02
   182   -5.628138542954e-03
   183   -3.227367097338e-02
   184   -3.195165603108e-13
   185   -6.407874539025e-02
   186    7.398511919191e-03
   187   -3.768479210129e-02
   188   -3.032200533348e-13
   189   -3.106378504189e-01
   190    1.444989647786e-02
   191   -6.628298316826e-02
   192   -6.193547850331e-14
   193   -6.298143462785e-04
   194    1.449806369441e-14
   195    1.798183454254e-14
   196    1.535100421799e-03
   197    4.187087890443e-04
   198    4.318060541090e-03
   199    8.653481480869e-03
   200    1.068162131028e-03
   201   -1.250704257537e-02
   202   -8.795218374523e-04
   203    8.779352199985e-04
   204   -7.278043305789e-15
Sym=X
Ene= 2.003343
Spin=Alpha
Occup=1
     1   -1.375285358897e-13
     2   -1.610498841826e-13
     3   -4.037159192672e-14
     4    1.249063297444e-14
     5    4.760157337653e-02
     6    2.466268865880e-13
     7   -5.098429667996e-14
     8    5.685117497706e-14
     9    8.330912574949e-02
    10    4.252810650544e-13
    11   -2.902526017932e-13
    12   -1.610216684458e-13
    13    9.099421798143e-02
    14   -6.728259044012e-12
    15   -5.126435647064e-13
    16   -3.194996835023e-12
    17    8.752930625754e-03
    18   -6.806159204265e-15
    19    1.628322534221e-02
    20    3.218429948608e-03
    21    4.679356750241e-15
    22    8.879897156596e-16
    23   -8.478500321077e-14
    24   -4.651124373251e-14
    25   -7.673930557712e-13
    26    2.604707533910e-13
    27   -1.304513598319e-14
    28    6.344866796483e-16
    29   -4.883033101939e-03
    30    3.549015451663e-14
    31    4.435722829787e-14
    32   -4.531883703214e-13
    33   -1.429364458727e-12
    34    1.711530092352e-15
    35    4.337340867489e-16
    36    3.718385664244e-03
    37    3.548605355947e-14
    38    1.363709480380e-13
    39   -3.223187062425e-13
    40   -5.210255114416e-13
    41   -5.567328323152e-17
    42   -1.220064930118e-14
    43   -8.548522512796e-03
    44   -1.132101481890e-13
    45   -7.675125948713e-14
    46    6.398052924680e-15
    47    2.308063629170e-14
    48   -1.051392408594e-01
    49   -9.737244801880e-14
    50    3.210251125161e-14
    51    2.321268881302e-14
    52   -1.828286913960e-01
    53   -3.664138725890e-15
    54   -6.620491365913e-14
    55    1.660076429458e-13
    56   -9.270343099975e-02
    57    2.287421799137e-12
    58    9.817353058771e-13
    59    2.035301511338e-13
    60   -2.035507939431e-02
    61    1.184478831259e-14
    62    8.011686148485e-03
    63   -9.761160302496e-03
    64    1.059924902381e-13
    65    6.559720165240e-14
    66    1.680126708425e-14
    67    2.572669914649e-14
    68   -3.817966065440e-13
    69   -7.065394159452e-13
    70   -1.968132228935e-01
    71   -9.177495300713e-14
    72   -4.308718141528e-13
    73   -8.044501823102e-13
    74   -2.301123718030e-01
    75    3.081193140371e-14
    76   -3.041862041726e-13
    77   -6.336885863098e-13
    78   -1.452280758822e-01
    79   -6.255726828405e-13
    80   -2.250459954439e-13
    81    2.052415469594e-13
    82    1.360230256668e-02
    83   -1.789333902198e-15
    84   -1.540475678175e-02
    85    8.544940230541e-03
    86   -2.766918141741e-14
    87   -1.789481089261e-14
    88    8.464084716288e-14
    89    7.046582692666e-14
    90    6.681627121817e-14
    91   -8.364029095865e-15
    92    6.785248847015e-02
    93   -4.033721227636e-15
    94    1.526800640239e-13
    95   -6.999081453537e-15
    96    1.186021989924e-01
    97   -3.618455559122e-13
    98   -3.638953967472e-14
    99   -5.578210205617e-15
   100    8.842878025213e-02
   101   -1.719046033138e-11
   102    1.673464302064e-12
   103    4.004308378759e-12
   104    1.179865175955e-02
   105   -9.565838726607e-16
   106    2.235800252021e-02
   107   -6.920191503598e-03
   108    2.922013206608e-14
   109    8.769979621413e-15
   110   -1.342406108055e-13
   111   -1.498875490477e-13
   112    3.060159493842e-14
   113   -9.774854760817e-14
   114    9.208553757457e-02
   115    2.001860092422e-13
   116    7.230088932106e-14
   117   -1.702644161979e-13
   118    1.455342419569e-01
   119    5.541995884597e-14
   120    3.037651770627e-14
   121   -8.398287030780e-14
   122    1.265511090431e-01
   123    5.850281798728e-13
   124   -5.285771832677e-14
   125   -4.446304246458e-13
   126   -9.987816457251e-04
   127   -2.038098766479e-16
   128   -9.558761955134e-03
   129   -6.543587791828e-03
   130   -5.769532860519e-15
   131    4.566003210959e-15
   132   -4.652821760460e-14
   133   -6.202731148699e-14
   134   -8.165388232033e-14
   135    4.015794356375e-14
   136   -9.684955885474e-02
   137    1.332585092553e-13
   138   -1.160107794981e-13
   139    9.001302243702e-14
   140   -1.582698000629e-01
   141    1.277544324886e-13
   142   -1.721861771267e-13
   143   -6.580520988456e-14
   144   -1.651741459485e-01
   145    8.035339222954e-13
   146    6.619919170892e-13
   147   -2.131569372040e-14
   148   -1.390689639187e-02
   149    5.380593937674e-15
   150    1.283968995757e-02
   151    2.316823828262e-03
   152   -2.268003418466e-15
   153    3.211166007094e-16
   154   -1.176509277602e-13
   155   -4.905861616300e-14
   156    8.690455428385e-14
   157   -1.010102766447e-13
   158   -5.076430050813e-02
   159   -2.550568034778e-13
   160    1.761974378989e-13
   161   -1.678359757514e-13
   162   -8.264448028967e-02
   163   -2.984314252159e-13
   164   -5.301934542515e-14
   165   -1.710793353206e-14
   166   -9.179656494178e-02
   167    1.448717269115e-12
   168   -1.104948673295e-12
   169    3.534254077255e-13
   170   -1.345759514260e-02
   171   -3.290971009233e-16
   172    3.274624192135e-03
   173   -9.939061945220e-03
   174   -3.030054830276e-15
   175   -1.817390144213e-14
   176    5.689410283241e-14
   177    6.212776614849e-14
   178   -7.255965307904e-14
   179    1.686618766811e-14
   180    9.150895414973e-02
   181   -6.800258539787e-14
   182   -9.176963358163e-14
   183    4.383466924069e-14
   184    1.585465366676e-01
   185   -2.443264472099e-13
   186   -3.821866728233e-13
   187    7.444302551227e-14
   188    1.487575924423e-01
   189    2.019477265725e-11
   190   -3.753004091189e-12
   191    5.043679716709e-12
   192    1.712612105765e-02
   193    1.572950788858e-14
   194   -8.275381398813e-03
   195    5.858991431914e-03
   196   -6.255786308272e-15
   197    2.545009193467e-14
   198   -7.882903724525e-14
   199   -4.115106399367e-14
   200    4.093609713725e-13
   201    2.036059831135e-12
   202   -2.784350212331e-15
   203    5.089711783619e-15
   204    8.027934840268e-03
Sym=X
Ene= 2.001034
Spin=Alpha
Occup=1
     1    2.765883520606e-03
     2    4.775991756247e-03
     3    1.610216860474e-02
     4    3.561521565462e-03
     5    3.415480250923e-12
     6   -1.489180083733e-02
     7    3.095195375280e-02
     8    3.991890217013e-03
     9    5.815509166770e-12
    10   -1.165295772987e-02
    11    2.694977214310e-02
    12    1.119793004757e-02
    13    6.853627941204e-12
    14    2.112585940963e-01
    15    6.328759848370e-02
    16    9.082818351429e-02
    17    7.887361791607e-13
    18    6.881972785496e-05
    19    1.043049966570e-12
    20    2.148007979332e-13
    21   -1.000681633374e-04
    22   -9.754281406481e-04
    23    2.928127591631e-03
    24    5.033257406854e-03
    25   -1.890448553880e-02
    26    3.717123053937e-03
    27    8.239912837838e-04
    28    5.793361064827e-04
    29   -3.340018325519e-13
    30   -6.798529571367e-03
    31   -6.673789771517e-03
    32    6.289181917562e-03
    33    4.648131295594e-02
    34    7.046815485012e-04
    35   -8.609493226542e-04
    36    2.944554357431e-13
    37   -8.974904830736e-03
    38   -6.827212099730e-03
    39    5.687144834757e-03
    40    2.160971386885e-02
    41   -2.406349439400e-03
    42   -1.517149936257e-04
    43    5.871387835357e-14
    44    3.406027561565e-02
    45    4.178228231321e-02
    46    6.342561100754e-02
    47   -3.994070280221e-02
    48   -1.607894008764e-12
    49   -7.886848794384e-02
    50    9.709374602603e-02
    51   -6.949356405939e-02
    52   -2.979661024194e-12
    53   -9.643119005510e-02
    54    4.919711867723e-04
    55    2.077835812104e-02
    56   -1.070343773409e-12
    57   -5.467161903837e-02
    58    4.802943108998e-03
    59    4.123224961269e-02
    60    5.945523952011e-13
    61    4.797351009727e-03
    62    7.840893966145e-13
    63    2.284375622300e-13
    64   -2.974991006139e-02
    65   -5.047410086891e-04
    66   -3.886040925627e-03
    67   -6.152773003367e-03
    68   -6.408839456125e-02
    69    2.337586981326e-01
    70   -4.392892872584e-12
    71    2.797112162656e-02
    72   -7.204844288263e-02
    73    2.695888553587e-01
    74   -5.108119805267e-12
    75    7.579065745610e-02
    76   -8.902397630663e-03
    77    1.754640814925e-01
    78   -3.220969907591e-12
    79    7.822754049944e-03
    80   -4.445561510697e-03
    81   -6.079271763419e-04
    82   -6.449504504806e-13
    83    7.282182773201e-03
    84   -2.728126875519e-13
    85    2.024854601063e-13
    86   -8.592867169116e-04
    87    1.401997557507e-02
    88    1.419118943260e-02
    89    2.445476409625e-02
    90   -2.380327549620e-02
    91   -1.330629457138e-02
    92   -4.094730903879e-12
    93   -7.360121335067e-02
    94   -4.038585424085e-02
    95   -1.380024956420e-02
    96   -7.119481472856e-12
    97   -8.949116226658e-02
    98    2.648360500697e-02
    99   -7.493656486006e-02
   100   -5.617962555313e-12
   101    2.475663490619e-01
   102    5.013781733890e-02
   103   -1.237649781677e-01
   104   -2.743178473432e-12
   105    3.021043269288e-03
   106   -2.423118604686e-12
   107   -2.145372487562e-12
   108    4.268163759251e-02
   109   -3.023778712337e-02
   110   -1.197387814743e-02
   111   -2.030724536108e-02
   112    1.529029303677e-01
   113   -1.299345848887e-01
   114   -1.280182106811e-11
   115    6.173494691585e-02
   116    2.337658040995e-01
   117   -2.017883658693e-01
   118   -2.003348573964e-11
   119    9.319605361946e-02
   120    1.969292431799e-01
   121   -2.033669218638e-01
   122   -1.915227016937e-11
   123    3.337039143494e-02
   124   -5.251947050743e-03
   125   -1.402834263383e-02
   126   -2.554410756867e-12
   127    2.837594819504e-03
   128    1.019143275749e-12
   129    6.134893309026e-13
   130   -1.236268903071e-02
   131    2.495451855313e-04
   132   -1.697876926292e-02
   133   -2.829822622994e-02
   134    2.578147569789e-02
   135   -3.305037880682e-02
   136    9.763965300867e-13
   137    7.507010475259e-02
   138    3.595063237971e-02
   139   -5.182976208998e-02
   140    1.385557278145e-12
   141    1.383521679682e-01
   142    7.391046275602e-02
   143   -7.331819784127e-02
   144    3.048909179009e-12
   145    1.154650850230e-01
   146   -3.104231793370e-02
   147   -4.570389613344e-02
   148    1.872965584499e-12
   149   -4.249452654082e-04
   150   -1.721057509541e-13
   151    9.546810767343e-14
   152   -1.883403323515e-03
   153    5.327519610125e-03
   154   -1.554309704828e-02
   155   -2.559648532277e-02
   156    2.016555585475e-04
   157    3.593534738497e-02
   158   -2.877251622277e-12
   159    6.705514222959e-02
   160   -1.285372409403e-03
   161    5.440070462029e-02
   162   -4.566806897869e-12
   163    1.121799496163e-01
   164    8.097338331938e-03
   165    6.063992876901e-02
   166   -6.417716802711e-12
   167    2.151400359880e-02
   168   -1.736672644296e-02
   169   -3.188223767646e-02
   170   -2.397145678983e-12
   171   -3.987648161172e-04
   172    2.891235660758e-13
   173   -2.890628158508e-13
   174    1.088377966325e-03
   175    3.457005048604e-03
   176    9.041267572398e-03
   177    1.435624962738e-02
   178   -2.898716538423e-03
   179   -2.807617551051e-02
   180    4.920345514800e-12
   181   -3.509974413122e-02
   182   -8.320301721644e-03
   183   -3.494761405140e-02
   184    8.125469766726e-12
   185   -1.154256091027e-01
   186    7.760818368559e-04
   187   -5.834669396967e-02
   188    1.104409359689e-11
   189   -5.178816271388e-01
   190    5.741509708350e-02
   191   -7.367189546801e-02
   192    2.771280330034e-12
   193   -1.536647563855e-03
   194   -7.133157015229e-13
   195   -4.814542008432e-13
   196   -2.888170969779e-03
   197   -2.054903369045e-03
   198    3.596335308660e-03
   199    1.197019304000e-02
   200    3.578050507038e-03
   201   -2.964839676620e-02
   202   -5.226656931756e-04
   203    1.912657796554e-03
   204    3.790788756086e-13
Sym=X
Ene= 2.001007
Spin=Alpha
Occup=1
     1    3.028991641602e-13
     2    4.503110976871e-13
     3    7.855646513298e-13
     4    2.669684363108e-13
     5   -5.817336001824e-02
     6   -1.151781579105e-12
     7    1.549705171273e-12
     8    3.263396832874e-13
     9   -9.905700101905e-02
    10   -9.786904870257e-13
    11    1.524225471783e-12
    12    5.496167241098e-13
    13   -1.166579746456e-01
    14    1.047062567716e-11
    15    4.350700605248e-12
    16    3.969590734602e-12
    17   -1.366578134017e-02
    18    1.091994148271e-14
    19   -1.686764515823e-02
    20   -3.666558897022e-03
    21   -1.033497623682e-14
    22   -8.125081358451e-14
    23    2.582347274413e-13
    24    5.001869066140e-13
    25   -1.428604754978e-12
    26    4.639387648913e-13
    27    7.324924424261e-14
    28    3.712620263312e-14
    29    5.695278702568e-03
    30   -4.834261796101e-13
    31   -5.177107366434e-13
    32    1.752145816741e-13
    33    2.283000222007e-12
    34    3.324495173748e-14
    35   -6.781143439124e-14
    36   -5.025414196268e-03
    37   -7.620961867024e-13
    38   -7.462393699888e-13
    39    5.314699770451e-13
    40    9.898260414236e-13
    41   -1.356810901221e-13
    42    5.123613058675e-14
    43   -6.645076213083e-04
    44    2.668021135431e-12
    45    2.995914690811e-12
    46    3.571123019772e-12
    47   -2.304813914849e-12
    48    2.786981599215e-02
    49   -4.540876634679e-12
    50    5.471936120913e-12
    51   -4.008478649983e-12
    52    5.134121621875e-02
    53   -5.510624492691e-12
    54   -1.095753306662e-13
    55    1.251587717846e-12
    56    1.769383084803e-02
    57   -1.210664733760e-12
    58    1.067173114210e-12
    59    2.293409826951e-12
    60   -7.212348037602e-03
    61    2.800474387852e-13
    62   -1.186281201756e-02
    63   -4.161436328803e-03
    64   -1.686223144312e-12
    65   -4.822873062234e-14
    66   -1.763835483638e-13
    67   -2.849050022632e-13
    68   -3.612194435466e-12
    69    1.322584159443e-11
    70    7.494101309046e-02
    71    1.363454504051e-12
    72   -4.074607131118e-12
    73    1.525003379422e-11
    74    8.714980612136e-02
    75    4.184550820475e-12
    76   -4.789866947658e-13
    77    9.924607572053e-12
    78    5.679517676555e-02
    79    2.008780961873e-13
    80   -4.224282071251e-13
    81    4.971897512582e-15
    82    8.607644439311e-03
    83    4.140283761343e-13
    84    4.653681906798e-03
    85   -3.273061422849e-03
    86   -5.242040555430e-14
    87    7.935550501142e-13
    88    4.211891731250e-13
    89    1.030791659740e-12
    90   -1.248439568578e-12
    91   -7.983281174419e-13
    92    7.462853811354e-02
    93   -3.945259052401e-12
    94   -2.085551931842e-12
    95   -8.304747043138e-13
    96    1.294809503456e-01
    97   -4.996349727805e-12
    98    1.555456456361e-12
    99   -4.410056241273e-12
   100    1.014382898366e-01
   101    5.763063251256e-12
   102    3.479657245970e-12
   103   -5.003393713857e-12
   104    4.505877198795e-02
   105    1.659500517331e-13
   106    4.358355570482e-02
   107    3.733074711676e-02
   108    2.497186168000e-12
   109   -1.681823615241e-12
   110   -5.793321636408e-13
   111   -1.066411709812e-12
   112    8.710310983568e-12
   113   -7.687238310584e-12
   114    2.253286308348e-01
   115    3.500463633479e-12
   116    1.332943083660e-11
   117   -1.193126251264e-11
   118    3.527033920241e-01
   119    5.137978382593e-12
   120    1.128446906976e-11
   121   -1.191998080063e-11
   122    3.343376716981e-01
   123    2.242619700148e-12
   124   -4.377975525306e-13
   125   -9.602017638584e-13
   126    4.719320184605e-02
   127    1.566014377055e-13
   128   -1.815983345598e-02
   129   -1.103999182694e-02
   130   -7.160368147720e-13
   131    3.262515394939e-14
   132   -1.160419102209e-12
   133   -1.654223847416e-12
   134    1.450604654425e-12
   135   -2.061289661041e-12
   136   -1.476084699537e-02
   137    3.616807598057e-12
   138    2.032999676579e-12
   139   -3.230036987957e-12
   140   -2.060187810633e-02
   141    7.524178386437e-12
   142    4.184781507511e-12
   143   -4.335037168097e-12
   144   -4.949753487523e-02