[Molden Format]
[Atoms] (Angs)
  C      1    6     -0.13173890     -1.79208980      0.00000000
  H      2    1     -2.14962000     -1.30978739      0.00000000
  H      3    1     -0.31599560     -2.86503115      0.00000000
  H      4    1      0.14407746      2.04280963     -0.00000000
  C      5    6     -1.17258876      0.48030861      0.00000000
  O      6    8     -2.25008207      1.06833796      0.00000000
  C      7    6      1.31158357      0.28308717     -0.00000000
  O      8    8      2.36361668      0.96389345     -0.00000000
  N      9    7      0.07017030      1.03138997     -0.00000000
  N     10    7     -1.19586868     -0.94982644      0.00000000
  C     11    6      1.19165158     -1.13169473     -0.00000000
  H     12    1      2.09970506     -1.73445456     -0.00000000
[GTO]
1    0
S    6    1.000000
   4.56324000E+03    1.96665000E-03 
   6.82024000E+02    1.52306000E-02 
   1.54973000E+02    7.61269000E-02 
   4.44553000E+01    2.60801000E-01 
   1.30290000E+01    6.16462000E-01 
   1.82773000E+00    2.21006000E-01 
SP   3    1.000000
   2.09642000E+01    1.14660000E-01   4.02487000E-02 
   4.80331000E+00    9.19999000E-01   2.37594000E-01 
   1.45933000E+00   -3.03068000E-03   8.15854000E-01 
SP   1    1.000000
   4.83456000E-01    1.00000000E+00   1.00000000E+00 
SP   1    1.000000
   1.45585000E-01    1.00000000E+00   1.00000000E+00 
SP   1    1.000000
   4.38000000E-02    1.00000000E+00   1.00000000E+00 
D    1    1.000000
   6.26000000E-01    1.00000000E+00 

2    0
S    3    1.000000
   3.38650000E+01    2.54938000E-02 
   5.09479000E+00    1.90373000E-01 
   1.15879000E+00    8.52161000E-01 
S    1    1.000000
   3.25840000E-01    1.00000000E+00 
S    1    1.000000
   1.02741000E-01    1.00000000E+00 
S    1    1.000000
   3.60000000E-02    1.00000000E+00 
P    1    1.000000
   7.50000000E-01    1.00000000E+00 

3    0
S    3    1.000000
   3.38650000E+01    2.54938000E-02 
   5.09479000E+00    1.90373000E-01 
   1.15879000E+00    8.52161000E-01 
S    1    1.000000
   3.25840000E-01    1.00000000E+00 
S    1    1.000000
   1.02741000E-01    1.00000000E+00 
S    1    1.000000
   3.60000000E-02    1.00000000E+00 
P    1    1.000000
   7.50000000E-01    1.00000000E+00 

4    0
S    3    1.000000
   3.38650000E+01    2.54938000E-02 
   5.09479000E+00    1.90373000E-01 
   1.15879000E+00    8.52161000E-01 
S    1    1.000000
   3.25840000E-01    1.00000000E+00 
S    1    1.000000
   1.02741000E-01    1.00000000E+00 
S    1    1.000000
   3.60000000E-02    1.00000000E+00 
P    1    1.000000
   7.50000000E-01    1.00000000E+00 

5    0
S    6    1.000000
   4.56324000E+03    1.96665000E-03 
   6.82024000E+02    1.52306000E-02 
   1.54973000E+02    7.61269000E-02 
   4.44553000E+01    2.60801000E-01 
   1.30290000E+01    6.16462000E-01 
   1.82773000E+00    2.21006000E-01 
SP   3    1.000000
   2.09642000E+01    1.14660000E-01   4.02487000E-02 
   4.80331000E+00    9.19999000E-01   2.37594000E-01 
   1.45933000E+00   -3.03068000E-03   8.15854000E-01 
SP   1    1.000000
   4.83456000E-01    1.00000000E+00   1.00000000E+00 
SP   1    1.000000
   1.45585000E-01    1.00000000E+00   1.00000000E+00 
SP   1    1.000000
   4.38000000E-02    1.00000000E+00   1.00000000E+00 
D    1    1.000000
   6.26000000E-01    1.00000000E+00 

6    0
S    6    1.000000
   8.58850000E+03    1.89515000E-03 
   1.29723000E+03    1.43859000E-02 
   2.99296000E+02    7.07320000E-02 
   8.73771000E+01    2.40001000E-01 
   2.56789000E+01    5.94797000E-01 
   3.74004000E+00    2.80802000E-01 
SP   3    1.000000
   4.21175000E+01    1.13889000E-01   3.65114000E-02 
   9.62837000E+00    9.20811000E-01   2.37153000E-01 
   2.85332000E+00   -3.27447000E-03   8.19702000E-01 
SP   1    1.000000
   9.05661000E-01    1.00000000E+00   1.00000000E+00 
SP   1    1.000000
   2.55611000E-01    1.00000000E+00   1.00000000E+00 
SP   1    1.000000
   8.45000000E-02    1.00000000E+00   1.00000000E+00 
D    1    1.000000
   1.29200000E+00    1.00000000E+00 

7    0
S    6    1.000000
   4.56324000E+03    1.96665000E-03 
   6.82024000E+02    1.52306000E-02 
   1.54973000E+02    7.61269000E-02 
   4.44553000E+01    2.60801000E-01 
   1.30290000E+01    6.16462000E-01 
   1.82773000E+00    2.21006000E-01 
SP   3    1.000000
   2.09642000E+01    1.14660000E-01   4.02487000E-02 
   4.80331000E+00    9.19999000E-01   2.37594000E-01 
   1.45933000E+00   -3.03068000E-03   8.15854000E-01 
SP   1    1.000000
   4.83456000E-01    1.00000000E+00   1.00000000E+00 
SP   1    1.000000
   1.45585000E-01    1.00000000E+00   1.00000000E+00 
SP   1    1.000000
   4.38000000E-02    1.00000000E+00   1.00000000E+00 
D    1    1.000000
   6.26000000E-01    1.00000000E+00 

8    0
S    6    1.000000
   8.58850000E+03    1.89515000E-03 
   1.29723000E+03    1.43859000E-02 
   2.99296000E+02    7.07320000E-02 
   8.73771000E+01    2.40001000E-01 
   2.56789000E+01    5.94797000E-01 
   3.74004000E+00    2.80802000E-01 
SP   3    1.000000
   4.21175000E+01    1.13889000E-01   3.65114000E-02 
   9.62837000E+00    9.20811000E-01   2.37153000E-01 
   2.85332000E+00   -3.27447000E-03   8.19702000E-01 
SP   1    1.000000
   9.05661000E-01    1.00000000E+00   1.00000000E+00 
SP   1    1.000000
   2.55611000E-01    1.00000000E+00   1.00000000E+00 
SP   1    1.000000
   8.45000000E-02    1.00000000E+00   1.00000000E+00 
D    1    1.000000
   1.29200000E+00    1.00000000E+00 

9    0
S    6    1.000000
   6.29348000E+03    1.96979000E-03 
   9.49044000E+02    1.49613000E-02 
   2.18776000E+02    7.35006000E-02 
   6.36916000E+01    2.48937000E-01 
   1.88282000E+01    6.02460000E-01 
   2.72023000E+00    2.56202000E-01 
SP   3    1.000000
   3.06331000E+01    1.11906000E-01   3.83119000E-02 
   7.02614000E+00    9.21666000E-01   2.37403000E-01 
   2.11205000E+00   -2.56919000E-03   8.17592000E-01 
SP   1    1.000000
   6.84009000E-01    1.00000000E+00   1.00000000E+00 
SP   1    1.000000
   2.00878000E-01    1.00000000E+00   1.00000000E+00 
SP   1    1.000000
   6.39000000E-02    1.00000000E+00   1.00000000E+00 
D    1    1.000000
   9.13000000E-01    1.00000000E+00 

10    0
S    6    1.000000
   6.29348000E+03    1.96979000E-03 
   9.49044000E+02    1.49613000E-02 
   2.18776000E+02    7.35006000E-02 
   6.36916000E+01    2.48937000E-01 
   1.88282000E+01    6.02460000E-01 
   2.72023000E+00    2.56202000E-01 
SP   3    1.000000
   3.06331000E+01    1.11906000E-01   3.83119000E-02 
   7.02614000E+00    9.21666000E-01   2.37403000E-01 
   2.11205000E+00   -2.56919000E-03   8.17592000E-01 
SP   1    1.000000
   6.84009000E-01    1.00000000E+00   1.00000000E+00 
SP   1    1.000000
   2.00878000E-01    1.00000000E+00   1.00000000E+00 
SP   1    1.000000
   6.39000000E-02    1.00000000E+00   1.00000000E+00 
D    1    1.000000
   9.13000000E-01    1.00000000E+00 

11    0
S    6    1.000000
   4.56324000E+03    1.96665000E-03 
   6.82024000E+02    1.52306000E-02 
   1.54973000E+02    7.61269000E-02 
   4.44553000E+01    2.60801000E-01 
   1.30290000E+01    6.16462000E-01 
   1.82773000E+00    2.21006000E-01 
SP   3    1.000000
   2.09642000E+01    1.14660000E-01   4.02487000E-02 
   4.80331000E+00    9.19999000E-01   2.37594000E-01 
   1.45933000E+00   -3.03068000E-03   8.15854000E-01 
SP   1    1.000000
   4.83456000E-01    1.00000000E+00   1.00000000E+00 
SP   1    1.000000
   1.45585000E-01    1.00000000E+00   1.00000000E+00 
SP   1    1.000000
   4.38000000E-02    1.00000000E+00   1.00000000E+00 
D    1    1.000000
   6.26000000E-01    1.00000000E+00 

12    0
S    3    1.000000
   3.38650000E+01    2.54938000E-02 
   5.09479000E+00    1.90373000E-01 
   1.15879000E+00    8.52161000E-01 
S    1    1.000000
   3.25840000E-01    1.00000000E+00 
S    1    1.000000
   1.02741000E-01    1.00000000E+00 
S    1    1.000000
   3.60000000E-02    1.00000000E+00 
P    1    1.000000
   7.50000000E-01    1.00000000E+00 

[MO]
Sym=X
Ene= 2.006997
Spin=Alpha
Occup=1
     1   -4.495879768895e-14
     2   -5.288625695059e-14
     3   -1.559647662162e-14
     4    1.789653438115e-15
     5    8.912703062367e-02
     6    7.623909122164e-14
     7   -1.624478642473e-14
     8    3.084976352198e-14
     9    1.552148512562e-01
    10    4.203391957223e-13
    11   -1.953633737790e-13
    12    8.025037443033e-15
    13    1.410016196381e-01
    14   -4.968363703157e-12
    15   -5.632083648621e-13
    16   -2.235852626444e-12
    17    1.631586730065e-02
    18   -1.696590877154e-15
    19    9.634912756103e-03
    20    1.237076819218e-02
    21    8.798430445065e-15
    22    2.445093127340e-16
    23   -1.650531793043e-14
    24   -5.541025606022e-14
    25   -6.132988244128e-13
    26    1.388093708679e-13
    27   -5.203026096629e-15
    28    7.766955578897e-16
    29    5.271113301906e-04
    30    1.192923909596e-14
    31    4.042019251291e-14
    32   -2.687073678713e-13
    33   -1.062151331879e-12
    34   -5.937934390484e-16
    35   -3.876019774161e-15
    36    6.825787233917e-03
    37    1.702904449786e-14
    38    1.406096069607e-13
    39   -3.186779695860e-13
    40   -4.188351691359e-13
    41   -2.351647056268e-15
    42   -1.722710244928e-14
    43   -6.234602952075e-03
    44   -7.272093897904e-14
    45   -4.959018001168e-14
    46    1.078733186776e-14
    47    5.932140189494e-14
    48   -1.030420723043e-01
    49   -6.674395247624e-14
    50    1.515189682608e-14
    51    7.337217711488e-14
    52   -1.831551367216e-01
    53    1.459157258162e-13
    54    2.093545087233e-13
    55    2.087321753992e-13
    56   -1.071626666259e-01
    57    1.631223039977e-12
    58    7.450618494396e-13
    59    3.099864863721e-13
    60   -1.890770426382e-02
    61    8.841252247736e-15
    62    1.821579084015e-02
    63   -2.137062162120e-02
    64    1.192261155334e-14
    65    1.406691324377e-14
    66   -1.655420096985e-15
    67   -1.014983248509e-15
    68   -2.105619386666e-14
    69   -6.480962810547e-14
    70   -2.358812637162e-01
    71    1.985393443695e-15
    72   -9.797511702310e-15
    73   -5.913237593138e-14
    74   -2.760921464770e-01
    75    7.200237093008e-14
    76   -1.303385345883e-15
    77   -8.013246580861e-14
    78   -1.712745248493e-01
    79   -2.893018196003e-13
    80   -8.130552822775e-14
    81    1.235684332423e-13
    82    6.830121338556e-03
    83   -2.799663376808e-15
    84   -1.937382005173e-02
    85    1.064616545143e-02
    86    2.345071064606e-15
    87   -2.057767479379e-15
    88    3.895945862265e-14
    89    2.253656771314e-14
    90    1.791030998703e-14
    91   -4.161534044900e-15
    92    4.897320218921e-02
    93    4.605043543055e-14
    94    4.112388316036e-14
    95    3.073869727258e-15
    96    8.605135257386e-02
    97   -1.728516668574e-13
    98   -1.198803070346e-13
    99    6.350044818509e-15
   100    6.128357618665e-02
   101   -1.165824532793e-11
   102    1.194524590604e-12
   103    2.608258311878e-12
   104    6.246564350255e-03
   105    1.480320316532e-15
   106    6.147295739334e-03
   107   -1.341947041039e-02
   108   -1.660429847834e-15
   109    2.972608830136e-15
   110   -6.525653916714e-14
   111   -7.140266340620e-14
   112   -2.381575928954e-14
   113    1.092491951622e-14
   114    3.106653235823e-02
   115    8.426768351815e-14
   116   -1.400646503875e-14
   117   -2.597113207183e-15
   118    5.025438713635e-02
   119    2.582568467001e-15
   120   -6.014809910787e-14
   121    5.054717224755e-14
   122    3.583533636922e-02
   123    3.862983341378e-13
   124    2.008515976039e-14
   125   -3.321405711570e-13
   126   -1.476985338377e-02
   127    7.916974282612e-16
   128   -4.882587775474e-03
   129   -3.387770883666e-03
   130    2.821508555983e-15
   131   -7.319402900448e-16
   132    2.511855709189e-14
   133    1.469810888793e-14
   134   -3.372026371350e-14
   135    3.744991709860e-14
   136   -6.716486941804e-02
   137    5.756280064942e-14
   138   -6.421717123231e-14
   139    6.612611869933e-14
   140   -1.130778639615e-01
   141   -2.649190610053e-13
   142   -4.897462699401e-14
   143   -3.119199434021e-14
   144   -1.002531330463e-01
   145    3.868080190896e-13
   146    7.786630112054e-13
   147    1.351438279463e-13
   148    2.704669295823e-04
   149    3.096073624277e-15
   150    1.308285984444e-02
   151    2.060528275091e-03
   152    7.117823254416e-15
   153    2.006950185469e-15
   154   -7.888819506950e-14
   155   -4.970243708376e-14
   156    1.531097635138e-14
   157   -5.002497568992e-14
   158    2.146834225204e-02
   159   -5.994982462975e-14
   160    5.838458408865e-14
   161   -9.288246320899e-14
   162    3.455030485038e-02
   163   -1.338029601245e-13
   164   -2.516204223930e-13
   165    1.018613613844e-14
   166    2.432774575698e-02
   167    1.055779771746e-12
   168   -9.015191165110e-13
   169    3.370137759992e-13
   170   -7.256399452619e-03
   171    4.460978694075e-16
   172    7.681817657265e-03
   173   -1.184392400063e-02
   174    4.564435016153e-15
   175   -7.641375165083e-15
   176    1.184690287825e-14
   177    8.885247426121e-15
   178   -3.752784379502e-14
   179    2.422833703772e-14
   180    1.037655074422e-01
   181    1.619666152958e-14
   182   -3.987265063475e-14
   183    4.773946922948e-14
   184    1.804127231054e-01
   185   -2.192199342925e-13
   186   -1.976450504094e-13
   187    7.092298849488e-14
   188    1.658311090138e-01
   189    1.403177803562e-11
   190   -2.946274057952e-12
   191    3.317572581557e-12
   192    9.472821072701e-03
   193    1.532643460672e-14
   194   -1.511898066178e-02
   195    3.108527639381e-03
   196   -9.929905503308e-15
   197    1.557291127569e-14
   198   -3.456131946800e-14
   199    7.528472180701e-15
   200    3.522620639032e-13
   201    1.569770065646e-12
   202   -8.948677993059e-16
   203    5.935835776195e-15
   204    8.480360792548e-03
Sym=X
Ene= 2.004139
Spin=Alpha
Occup=1
     1    8.186248295852e-03
     2    1.362688813929e-02
     3    1.029097030303e-02
     4   -2.828517591761e-02
     5   -2.507292509044e-14
     6   -3.698723719341e-02
     7    1.663229014512e-02
     8   -4.705407082753e-02
     9   -4.939281740048e-14
    10   -4.829097828967e-02
    11   -8.333986270840e-03
    12   -4.595424496401e-02
    13   -1.714481971459e-14
    14   -1.084996797356e-01
    15   -3.372723803826e-03
    16   -2.559107879711e-02
    17   -2.840675053840e-14
    18    1.909389812454e-03
    19    8.293302865894e-14
    20   -2.011568021655e-14
    21   -8.477425692013e-03
    22    5.482107499750e-03
    23    2.300469576310e-03
    24   -8.602366874785e-03
    25   -3.336547868866e-02
    26    2.292238793649e-02
    27    1.684252437409e-04
    28    7.216033875816e-04
    29   -4.327800355064e-15
    30    1.896228809103e-02
    31    3.049557139209e-02
    32    1.027713689796e-02
    33   -6.135862913132e-04
    34    5.602958368596e-04
    35    6.164940123781e-04
    36   -4.774057922433e-15
    37    1.118442717191e-03
    38    1.417652202759e-02
    39    3.552198981264e-02
    40   -5.280411221016e-02
    41    2.078276641375e-03
    42   -1.333119106750e-03
    43   -9.506809578355e-15
    44   -9.350347964377e-03
    45   -1.527854001029e-02
    46   -5.245619776813e-02
    47   -1.139826841476e-02
    48   -4.328011124967e-14
    49    4.474922027900e-02
    50   -8.783484391127e-02
    51   -2.370619070718e-02
    52   -7.073605857850e-14
    53    5.959548997442e-02
    54    3.461814724111e-02
    55    6.282729795333e-02
    56   -1.790208039705e-13
    57    3.684512436355e-02
    58    5.513471729724e-02
    59    7.832784218372e-02
    60    1.384471098231e-13
    61   -2.213368742484e-03
    62    1.186891866969e-13
    63   -3.778408647960e-14
    64   -4.648897010672e-02
    65   -3.381252925134e-02
    66   -7.132611579897e-03
    67   -1.019777909256e-02
    68    2.046329694411e-01
    69    2.339560441055e-01
    70    4.063826618563e-14
    71    3.173914488572e-02
    72    2.359298887465e-01
    73    2.684413722824e-01
    74    4.201035336061e-14
    75   -2.012186884082e-02
    76    1.387406218390e-01
    77    1.984775137198e-01
    78    2.225788445191e-13
    79   -2.152704268607e-02
    80   -3.210462079937e-03
    81    4.742185093171e-03
    82   -1.057275689796e-13
    83   -3.578657398561e-03
    84   -1.742677338376e-14
    85    1.341664468777e-14
    86    1.402736112768e-02
    87    9.836564567219e-04
    88   -1.511495647302e-02
    89   -2.494348858913e-02
    90   -3.549435038318e-02
    91    1.203008818867e-02
    92    7.770942404258e-14
    93    6.636170505259e-02
    94   -6.073588623844e-02
    95    1.715277617575e-02
    96    1.002923688567e-13
    97    5.072258570478e-02
    98   -5.128859414170e-02
    99    2.828876613998e-02
   100    1.422370679479e-13
   101   -2.774369655922e-01
   102   -1.903693817000e-02
   103    1.446513240885e-01
   104   -1.388873518020e-13
   105   -2.779154797903e-03
   106    1.658464987100e-13
   107    1.069560823196e-14
   108   -3.097686003706e-02
   109    7.686879262843e-03
   110    4.544006651112e-03
   111    7.705386573898e-03
   112   -7.017637599775e-02
   113    1.186716646024e-01
   114    1.512408347719e-13
   115   -2.360784679034e-02
   116   -1.087911947870e-01
   117    1.829860672227e-01
   118    2.513834101865e-13
   119   -1.619512216424e-02
   120   -1.005188492709e-01
   121    1.656780906176e-01
   122   -3.617254921636e-14
   123    2.694992682256e-02
   124   -1.098343350258e-02
   125    1.019987271252e-03
   126    1.812689271109e-13
   127   -1.154243236741e-04
   128   -1.992283398934e-14
   129   -1.947950738964e-14
   130    8.876543694342e-03
   131   -4.774512801393e-03
   132    2.239028412265e-02
   133    3.716417982180e-02
   134    5.737233427222e-02
   135    1.911028908026e-02
   136   -8.698755556509e-14
   137   -9.876024412964e-02
   138    8.268863467107e-02
   139    1.948378671409e-02
   140   -1.554967583085e-13
   141   -1.933975553274e-01
   142    7.841636780515e-02
   143    3.599240213284e-02
   144   -1.004536158732e-13
   145   -1.977153761672e-01
   146   -3.843512046683e-03
   147   -1.030692723047e-03
   148   -3.124689724039e-14
   149   -1.318928649354e-03
   150   -3.398254398370e-14
   151   -4.389004984365e-15
   152    4.091547445075e-04
   153   -4.610974276468e-03
   154   -1.203685115918e-02
   155   -1.983115274646e-02
   156   -1.902311205154e-02
   157    5.687890657443e-02
   158   -7.719752408571e-14
   159    5.275401181708e-02
   160   -3.374421721904e-02
   161    8.678088145893e-02
   162   -1.356707997334e-13
   163    1.126816331441e-01
   164   -2.121054684992e-02
   165    8.669743325741e-02
   166   -4.498216739546e-14
   167    1.287929815754e-01
   168   -9.182553750208e-03
   169    5.089308807120e-03
   170   -1.057453060758e-14
   171    3.391868068485e-04
   172    5.423106966830e-16
   173    2.257083463177e-14
   174   -3.014962564381e-03
   175   -1.568305875831e-05
   176   -4.415850799455e-03
   177   -7.077414449611e-03
   178    8.702436489381e-04
   179    2.267006597665e-02
   180    1.849872910606e-14
   181    1.722649526287e-02
   182    4.871646315976e-03
   183    2.948063546656e-02
   184    2.766424019908e-15
   185    6.605340582272e-02
   186   -1.226777690331e-02
   187    3.564890419200e-02
   188   -8.311331703787e-15
   189    3.950818675412e-01
   190   -2.725199851658e-02
   191    8.174595761592e-02
   192    3.603239992409e-14
   193    8.132248934085e-04
   194    4.831543976024e-15
   195   -2.694507230871e-14
   196   -2.550747228700e-03
   197   -1.652375605140e-03
   198   -4.777817078037e-03
   199   -8.809261179952e-03
   200    2.132816866267e-03
   201    2.010927820142e-02
   202    1.329801487256e-03
   203   -1.031198887764e-03
   204   -8.815649783156e-15
Sym=X
Ene= 2.001923
Spin=Alpha
Occup=1
     1    1.503457083997e-13
     2    1.743116792486e-13
     3    1.563180794044e-13
     4   -1.924221503488e-13
     5    8.686548323294e-02
     6   -2.738546322149e-13
     7    2.605233069649e-13
     8   -3.259718959219e-13
     9    1.494584010407e-01
    10    9.830442273943e-15
    11    1.809961620567e-13
    12    1.603752648723e-13
    13    1.105308933794e-01
    14    7.002446478899e-12
    15    4.756042182323e-13
    16    3.297610003836e-12
    17    1.984886594928e-02
    18    1.437269006903e-14
    19   -7.655680351040e-03
    20    1.629929316107e-02
    21   -3.248158483875e-14
    22    2.827141778654e-14
    23   -2.079614988258e-14
    24   -1.419815165891e-13
    25    2.983693488280e-13
    26   -1.845528639012e-13
    27   -1.458543682459e-14
    28    9.456121913521e-15
    29    9.336034921170e-03
    30    9.727110103196e-14
    31    1.933199504742e-13
    32    4.344327014204e-13
    33    1.313230174641e-12
    34    7.047954424016e-15
    35    1.500515994538e-14
    36    6.942824307836e-03
    37    8.961643387170e-14
    38    1.373912191085e-13
    39    9.297669238670e-14
    40    5.105523838553e-13
    41   -1.483028326780e-14
    42   -2.904736412002e-14
    43    3.780287729454e-03
    44    1.089911043520e-13
    45    1.385844791980e-13
    46    3.731885395851e-13
    47   -3.443606901123e-13
    48    5.933425909732e-02
    49   -3.071654714972e-13
    50    5.636330810673e-13
    51   -5.829573837713e-13
    52    1.043012175439e-01
    53   -3.640749650124e-13
    54    2.526435809583e-13
    55   -8.173780151012e-14
    56    5.020611004537e-02
    57   -3.256343651087e-12
    58   -1.024859886442e-12
    59    4.369654038225e-13
    60    2.338727725918e-02
    61    1.665439616316e-14
    62    9.550342880987e-03
    63   -1.134735715383e-02
    64   -2.466206249347e-13
    65    4.129327541156e-15
    66   -3.608958409222e-14
    67   -5.521951815618e-14
    68   -3.047007394337e-13
    69    1.592843837192e-12
    70   -9.084823817116e-03
    71    2.410818609133e-13
    72   -3.332463317392e-13
    73    1.820977363310e-12
    74   -7.173069076661e-03
    75    4.763664589475e-13
    76    1.809262066086e-14
    77    1.155097379361e-12
    78   -1.399691972985e-02
    79    6.113605283596e-13
    80    2.322975073475e-13
    81   -1.495645793120e-13
    82   -2.105581779408e-02
    83    4.482995049476e-14
    84    4.445464141671e-03
    85   -2.528989341573e-03
    86    2.314281961239e-16
    87    9.335742035262e-14
    88    1.370454701764e-13
    89    1.832481373424e-13
    90   -1.116046008404e-13
    91   -9.528356262395e-14
    92   -6.426322597085e-02
    93   -4.072262568458e-13
    94   -2.285093321430e-13
    95   -1.264352723082e-13
    96   -1.134218445722e-01
    97   -1.035455880091e-13
    98    1.326039436888e-13
    99   -3.861141445831e-13
   100   -9.166728975061e-02
   101    1.510972556104e-11
   102   -9.714820137656e-13
   103   -3.949155476247e-12
   104   -1.919440710791e-02
   105    2.148194470617e-14
   106   -3.694089759058e-02
   107   -2.512282247054e-02
   108    1.582255640149e-13
   109   -1.617917329562e-13
   110   -2.108128154420e-14
   111   -3.446630287798e-14
   112    6.735346451274e-13
   113   -5.070165840275e-13
   114   -1.725285031900e-01
   115    1.065619818078e-13
   116    1.013941222166e-12
   117   -7.823553018805e-13
   118   -2.703847558274e-01
   119    3.870575746847e-13
   120    8.556117256068e-13
   121   -8.406430035231e-13
   122   -2.511659654728e-01
   123   -4.296168227329e-13
   124    1.013842571677e-13
   125    2.863538413051e-13
   126   -3.080260132291e-02
   127    1.343874807268e-14
   128    1.472946682385e-02
   129    8.700444157458e-03
   130   -5.549416505255e-14
   131    1.791838571868e-15
   132    1.949631978000e-13
   133    6.796460045672e-14
   134    1.511814793322e-13
   135   -3.487770847724e-14
   136    6.075069280202e-02
   137    5.282711059213e-13
   138    1.954665705582e-13
   139   -6.484657767505e-14
   140    9.777787248638e-02
   141    5.371078387252e-13
   142    4.234516714776e-13
   143   -1.723673041441e-13
   144    1.084633397513e-01
   145    4.289297481179e-13
   146   -3.604781354812e-13
   147   -6.163238762396e-14
   148    7.813393533147e-03
   149   -7.643304231315e-15
   150   -1.042990873912e-02
   151   -2.439279523411e-03
   152   -2.780605507857e-14
   153    3.679133299455e-14
   154   -3.421238920114e-14
   155   -6.171320065379e-14
   156   -9.457791852208e-14
   157    4.248104244653e-13
   158    1.310284553759e-01
   159    1.756803201714e-13
   160   -1.605287599928e-13
   161    6.613848693295e-13
   162    2.161689354146e-01
   163    3.604015672837e-13
   164   -1.778126764520e-13
   165    5.029872456597e-13
   166    1.867669671176e-01
   167   -1.154313601326e-12
   168    3.926031572873e-13
   169   -5.662242762235e-14
   170   -1.946988587842e-02
   171    3.342455953818e-15
   172    8.668705692243e-03
   173    1.074433765992e-03
   174   -1.903121686392e-14
   175    3.495997329221e-14
   176    3.409272484423e-15
   177   -8.616888257828e-15
   178    1.372437992588e-13
   179   -1.679737687430e-13
   180    4.553726064913e-02
   181    5.288785215482e-14
   182    1.790210473110e-13
   183   -2.189043128184e-13
   184    7.520299949191e-02
   185   -2.755669784100e-13
   186    4.103368782057e-13
   187   -4.386987111386e-13
   188    9.832182598014e-02
   189   -1.832937600509e-11
   190    2.841680926308e-12
   191   -4.614143515844e-12
   192    6.625070277693e-03
   193   -1.473328811587e-14
   194   -1.282980095562e-02
   195   -8.863769450206e-03
   196   -2.188822426315e-14
   197   -2.766198152942e-14
   198    1.802629751600e-13
   199    2.176605703679e-13
   200   -3.137321291159e-13
   201   -1.720939010629e-12
   202   -1.215994655620e-14
   203    1.486217058432e-14
   204    2.732727754282e-03
Sym=X
Ene= 2.001689
Spin=Alpha
Occup=1
     1   -8.859452284118e-03
     2   -1.429302416875e-02
     3   -1.991887929712e-02
     4    2.528173298769e-02
     5    4.714769274204e-13
     6    3.929405093051e-02
     7   -3.645937526495e-02
     8    4.228579062615e-02
     9    8.152344083513e-13
    10    2.300909071626e-02
    11   -1.420304355628e-02
    12    2.306858913258e-02
    13    5.279628769326e-13
    14   -1.599964672856e-01
    15   -5.131288291616e-02
    16   -7.664472205509e-02
    17    1.234943013610e-13
    18   -1.790732960932e-03
    19   -1.163941569576e-13
    20    9.715910389128e-14
    21    6.839860570762e-03
    22   -2.831931408952e-03
    23    9.896171929122e-03
    24    1.548807760858e-02
    25    1.621414238238e-02
    26   -3.037487773291e-03
    27    1.626951150868e-03
    28   -2.037017859796e-03
    29    6.296887122121e-14
    30   -1.355203916476e-02
    31   -2.447855753868e-02
    32   -1.161569394124e-02
    33   -4.271160517514e-02
    34   -9.365111250526e-04
    35   -8.125872474023e-04
    36    3.836326318533e-14
    37    7.788930973564e-03
    38   -7.016195474256e-04
    39   -6.623679412181e-03
    40   -1.923336053583e-02
    41    2.285494452662e-03
    42   -8.743134347604e-04
    43    1.458412354962e-15
    44   -1.403962445117e-02
    45   -2.149056690655e-02
    46   -7.061926380747e-02
    47    8.026307068070e-02
    48    3.612475453939e-13
    49    6.143366467770e-02
    50   -1.083506296652e-01
    51    1.377018375321e-01
    52    6.549437581776e-13
    53    7.420432690232e-02
    54   -1.610998031956e-02
    55   -4.873476263790e-03
    56    3.494347210356e-13
    57    3.829684251619e-02
    58   -2.462488681280e-03
    59   -3.387945477989e-02
    60   -5.683802916981e-14
    61   -5.161805309782e-03
    62   -6.530109017467e-14
    63   -6.047201941150e-14
    64    4.285049165881e-02
    65   -3.218316556998e-03
    66    1.007385040879e-03
    67    1.978261901843e-03
    68    8.967350833294e-02
    69   -2.553787384218e-01
    70    8.251704637512e-14
    71   -1.559502543531e-02
    72    1.007363212243e-01
    73   -2.913297157773e-01
    74    1.158226917388e-13
    75   -8.418314865272e-02
    76    1.727474193367e-02
    77   -1.790411190573e-01
    78   -9.680769666377e-14
    79   -1.870301876767e-02
    80    1.815923361890e-03
    81   -5.214145408955e-04
    82    5.016419604479e-14
    83   -8.740288324602e-03
    84    3.419082110422e-14
    85   -3.188754285127e-14
    86    3.257504670542e-03
    87   -1.622237455810e-02
    88   -1.326231735954e-02
    89   -2.181036976318e-02
    90    7.612817744679e-03
    91    2.186941265046e-02
    92   -3.678158570311e-13
    93    6.205050230530e-02
    94    1.251044522158e-02
    95    2.918142978984e-02
    96   -6.287611151085e-13
    97    7.057174170605e-02
    98   -3.035084515684e-02
    99    7.015480526261e-02
   100   -5.110457026943e-13
   101   -2.486958850530e-01
   102   -4.754410337580e-02
   103    1.207652652586e-01
   104    1.029317009481e-13
   105   -3.286708863312e-03
   106   -2.535086589102e-13
   107   -1.175125682629e-13
   108   -3.315623078028e-02
   109    2.241564369437e-02
   110    1.267548491118e-02
   111    2.144731104536e-02
   112   -1.236109436872e-01
   113    1.063549566361e-01
   114   -8.367385196014e-13
   115   -6.485855603508e-02
   116   -1.889402902970e-01
   117    1.652915413633e-01
   118   -1.311807611227e-12
   119   -8.385168677366e-02
   120   -1.591948054469e-01
   121    1.618931728790e-01
   122   -1.075677243983e-12
   123   -1.842705550367e-02
   124    5.755254734070e-03
   125    5.803293531514e-03
   126   -3.195323696113e-13
   127   -2.370051334515e-03
   128    7.973772363481e-14
   129    5.291687839512e-14
   130    1.094746035168e-02
   131   -1.042247249004e-03
   132    2.807966479090e-03
   133    5.758691340645e-03
   134   -1.923833971298e-02
   135    2.112727661481e-02
   136    2.358141248439e-13
   137   -1.817588362479e-02
   138   -2.548805247550e-02
   139    3.449137733929e-02
   140    3.883931835839e-13
   141   -6.570110610828e-02
   142   -6.082226136386e-02
   143    4.991609207679e-02
   144    3.987389076273e-13