[Molden Format]
[Atoms] (Angs)
  C      1    6     -0.13173890     -1.79208980      0.00000000
  H      2    1     -2.14962000     -1.30978739      0.00000000
  H      3    1     -0.31599560     -2.86503115      0.00000000
  H      4    1      0.14407746      2.04280963     -0.00000000
  C      5    6     -1.17258876      0.48030861      0.00000000
  O      6    8     -2.25008207      1.06833796      0.00000000
  C      7    6      1.31158357      0.28308717     -0.00000000
  O      8    8      2.36361668      0.96389345     -0.00000000
  N      9    7      0.07017030      1.03138997     -0.00000000
  N     10    7     -1.19586868     -0.94982644      0.00000000
  C     11    6      1.19165158     -1.13169473     -0.00000000
  H     12    1      2.09970506     -1.73445456     -0.00000000
[GTO]
1    0
S    6    1.000000
   4.56324000E+03    1.96665000E-03 
   6.82024000E+02    1.52306000E-02 
   1.54973000E+02    7.61269000E-02 
   4.44553000E+01    2.60801000E-01 
   1.30290000E+01    6.16462000E-01 
   1.82773000E+00    2.21006000E-01 
SP   3    1.000000
   2.09642000E+01    1.14660000E-01   4.02487000E-02 
   4.80331000E+00    9.19999000E-01   2.37594000E-01 
   1.45933000E+00   -3.03068000E-03   8.15854000E-01 
SP   1    1.000000
   4.83456000E-01    1.00000000E+00   1.00000000E+00 
SP   1    1.000000
   1.45585000E-01    1.00000000E+00   1.00000000E+00 
SP   1    1.000000
   4.38000000E-02    1.00000000E+00   1.00000000E+00 
D    1    1.000000
   6.26000000E-01    1.00000000E+00 

2    0
S    3    1.000000
   3.38650000E+01    2.54938000E-02 
   5.09479000E+00    1.90373000E-01 
   1.15879000E+00    8.52161000E-01 
S    1    1.000000
   3.25840000E-01    1.00000000E+00 
S    1    1.000000
   1.02741000E-01    1.00000000E+00 
S    1    1.000000
   3.60000000E-02    1.00000000E+00 
P    1    1.000000
   7.50000000E-01    1.00000000E+00 

3    0
S    3    1.000000
   3.38650000E+01    2.54938000E-02 
   5.09479000E+00    1.90373000E-01 
   1.15879000E+00    8.52161000E-01 
S    1    1.000000
   3.25840000E-01    1.00000000E+00 
S    1    1.000000
   1.02741000E-01    1.00000000E+00 
S    1    1.000000
   3.60000000E-02    1.00000000E+00 
P    1    1.000000
   7.50000000E-01    1.00000000E+00 

4    0
S    3    1.000000
   3.38650000E+01    2.54938000E-02 
   5.09479000E+00    1.90373000E-01 
   1.15879000E+00    8.52161000E-01 
S    1    1.000000
   3.25840000E-01    1.00000000E+00 
S    1    1.000000
   1.02741000E-01    1.00000000E+00 
S    1    1.000000
   3.60000000E-02    1.00000000E+00 
P    1    1.000000
   7.50000000E-01    1.00000000E+00 

5    0
S    6    1.000000
   4.56324000E+03    1.96665000E-03 
   6.82024000E+02    1.52306000E-02 
   1.54973000E+02    7.61269000E-02 
   4.44553000E+01    2.60801000E-01 
   1.30290000E+01    6.16462000E-01 
   1.82773000E+00    2.21006000E-01 
SP   3    1.000000
   2.09642000E+01    1.14660000E-01   4.02487000E-02 
   4.80331000E+00    9.19999000E-01   2.37594000E-01 
   1.45933000E+00   -3.03068000E-03   8.15854000E-01 
SP   1    1.000000
   4.83456000E-01    1.00000000E+00   1.00000000E+00 
SP   1    1.000000
   1.45585000E-01    1.00000000E+00   1.00000000E+00 
SP   1    1.000000
   4.38000000E-02    1.00000000E+00   1.00000000E+00 
D    1    1.000000
   6.26000000E-01    1.00000000E+00 

6    0
S    6    1.000000
   8.58850000E+03    1.89515000E-03 
   1.29723000E+03    1.43859000E-02 
   2.99296000E+02    7.07320000E-02 
   8.73771000E+01    2.40001000E-01 
   2.56789000E+01    5.94797000E-01 
   3.74004000E+00    2.80802000E-01 
SP   3    1.000000
   4.21175000E+01    1.13889000E-01   3.65114000E-02 
   9.62837000E+00    9.20811000E-01   2.37153000E-01 
   2.85332000E+00   -3.27447000E-03   8.19702000E-01 
SP   1    1.000000
   9.05661000E-01    1.00000000E+00   1.00000000E+00 
SP   1    1.000000
   2.55611000E-01    1.00000000E+00   1.00000000E+00 
SP   1    1.000000
   8.45000000E-02    1.00000000E+00   1.00000000E+00 
D    1    1.000000
   1.29200000E+00    1.00000000E+00 

7    0
S    6    1.000000
   4.56324000E+03    1.96665000E-03 
   6.82024000E+02    1.52306000E-02 
   1.54973000E+02    7.61269000E-02 
   4.44553000E+01    2.60801000E-01 
   1.30290000E+01    6.16462000E-01 
   1.82773000E+00    2.21006000E-01 
SP   3    1.000000
   2.09642000E+01    1.14660000E-01   4.02487000E-02 
   4.80331000E+00    9.19999000E-01   2.37594000E-01 
   1.45933000E+00   -3.03068000E-03   8.15854000E-01 
SP   1    1.000000
   4.83456000E-01    1.00000000E+00   1.00000000E+00 
SP   1    1.000000
   1.45585000E-01    1.00000000E+00   1.00000000E+00 
SP   1    1.000000
   4.38000000E-02    1.00000000E+00   1.00000000E+00 
D    1    1.000000
   6.26000000E-01    1.00000000E+00 

8    0
S    6    1.000000
   8.58850000E+03    1.89515000E-03 
   1.29723000E+03    1.43859000E-02 
   2.99296000E+02    7.07320000E-02 
   8.73771000E+01    2.40001000E-01 
   2.56789000E+01    5.94797000E-01 
   3.74004000E+00    2.80802000E-01 
SP   3    1.000000
   4.21175000E+01    1.13889000E-01   3.65114000E-02 
   9.62837000E+00    9.20811000E-01   2.37153000E-01 
   2.85332000E+00   -3.27447000E-03   8.19702000E-01 
SP   1    1.000000
   9.05661000E-01    1.00000000E+00   1.00000000E+00 
SP   1    1.000000
   2.55611000E-01    1.00000000E+00   1.00000000E+00 
SP   1    1.000000
   8.45000000E-02    1.00000000E+00   1.00000000E+00 
D    1    1.000000
   1.29200000E+00    1.00000000E+00 

9    0
S    6    1.000000
   6.29348000E+03    1.96979000E-03 
   9.49044000E+02    1.49613000E-02 
   2.18776000E+02    7.35006000E-02 
   6.36916000E+01    2.48937000E-01 
   1.88282000E+01    6.02460000E-01 
   2.72023000E+00    2.56202000E-01 
SP   3    1.000000
   3.06331000E+01    1.11906000E-01   3.83119000E-02 
   7.02614000E+00    9.21666000E-01   2.37403000E-01 
   2.11205000E+00   -2.56919000E-03   8.17592000E-01 
SP   1    1.000000
   6.84009000E-01    1.00000000E+00   1.00000000E+00 
SP   1    1.000000
   2.00878000E-01    1.00000000E+00   1.00000000E+00 
SP   1    1.000000
   6.39000000E-02    1.00000000E+00   1.00000000E+00 
D    1    1.000000
   9.13000000E-01    1.00000000E+00 

10    0
S    6    1.000000
   6.29348000E+03    1.96979000E-03 
   9.49044000E+02    1.49613000E-02 
   2.18776000E+02    7.35006000E-02 
   6.36916000E+01    2.48937000E-01 
   1.88282000E+01    6.02460000E-01 
   2.72023000E+00    2.56202000E-01 
SP   3    1.000000
   3.06331000E+01    1.11906000E-01   3.83119000E-02 
   7.02614000E+00    9.21666000E-01   2.37403000E-01 
   2.11205000E+00   -2.56919000E-03   8.17592000E-01 
SP   1    1.000000
   6.84009000E-01    1.00000000E+00   1.00000000E+00 
SP   1    1.000000
   2.00878000E-01    1.00000000E+00   1.00000000E+00 
SP   1    1.000000
   6.39000000E-02    1.00000000E+00   1.00000000E+00 
D    1    1.000000
   9.13000000E-01    1.00000000E+00 

11    0
S    6    1.000000
   4.56324000E+03    1.96665000E-03 
   6.82024000E+02    1.52306000E-02 
   1.54973000E+02    7.61269000E-02 
   4.44553000E+01    2.60801000E-01 
   1.30290000E+01    6.16462000E-01 
   1.82773000E+00    2.21006000E-01 
SP   3    1.000000
   2.09642000E+01    1.14660000E-01   4.02487000E-02 
   4.80331000E+00    9.19999000E-01   2.37594000E-01 
   1.45933000E+00   -3.03068000E-03   8.15854000E-01 
SP   1    1.000000
   4.83456000E-01    1.00000000E+00   1.00000000E+00 
SP   1    1.000000
   1.45585000E-01    1.00000000E+00   1.00000000E+00 
SP   1    1.000000
   4.38000000E-02    1.00000000E+00   1.00000000E+00 
D    1    1.000000
   6.26000000E-01    1.00000000E+00 

12    0
S    3    1.000000
   3.38650000E+01    2.54938000E-02 
   5.09479000E+00    1.90373000E-01 
   1.15879000E+00    8.52161000E-01 
S    1    1.000000
   3.25840000E-01    1.00000000E+00 
S    1    1.000000
   1.02741000E-01    1.00000000E+00 
S    1    1.000000
   3.60000000E-02    1.00000000E+00 
P    1    1.000000
   7.50000000E-01    1.00000000E+00 

[MO]
Sym=X
Ene= 2.007802
Spin=Alpha
Occup=1
     1   -4.214582248749e-14
     2   -4.785923551829e-14
     3   -1.188205672892e-14
     4    6.119655279878e-15
     5    8.707111755167e-02
     6    6.053116126096e-14
     7   -1.176645558515e-14
     8    3.831639111472e-14
     9    1.519821331248e-01
    10    4.704720468897e-13
    11   -2.013919569712e-13
    12    6.098764461936e-14
    13    1.374203966335e-01
    14   -4.239009542373e-12
    15   -4.785199406913e-13
    16   -1.973043608733e-12
    17    1.939014551563e-02
    18   -7.702380115094e-16
    19    1.085278086307e-02
    20    1.173914310723e-02
    21    1.092951477953e-14
    22   -1.567864898098e-15
    23   -1.063511193394e-14
    24   -6.332405698651e-14
    25   -6.406691877456e-13
    26    1.313984106187e-13
    27   -5.048804829409e-15
    28    1.758127055533e-15
    29    1.996775710084e-05
    30    4.734745757201e-15
    31    3.801654277267e-14
    32   -2.493754861048e-13
    33   -9.872911027030e-13
    34   -5.771058224920e-16
    35   -4.721032343865e-15
    36    6.741715087639e-03
    37    1.303359182401e-14
    38    1.382946775217e-13
    39   -3.195552728621e-13
    40   -3.937923874766e-13
    41   -2.125975990940e-15
    42   -1.751335822566e-14
    43   -5.238168375218e-03
    44   -7.198995945978e-14
    45   -4.944684264836e-14
    46    1.312584120112e-14
    47    5.044601666426e-14
    48   -1.018530931959e-01
    49   -6.816241423496e-14
    50    1.701945963220e-14
    51    5.748684758559e-14
    52   -1.811855714351e-01
    53    1.748994803153e-13
    54    2.532053296614e-13
    55    1.885817985346e-13
    56   -1.020793128311e-01
    57    1.331934837563e-12
    58    6.792005232817e-13
    59    3.882043476357e-13
    60   -1.237685300054e-02
    61    8.158504586170e-15
    62    2.064666733701e-02
    63   -1.982438876958e-02
    64    9.004295464240e-15
    65    1.523113338845e-14
    66   -1.745308897611e-15
    67   -9.696426215286e-16
    68   -2.978756633738e-14
    69   -5.909340781651e-14
    70   -2.473697843886e-01
    71    3.288392866905e-15
    72   -1.965366794728e-14
    73   -5.263380796887e-14
    74   -2.881694352647e-01
    75    8.078716018964e-14
    76   -6.924198260043e-16
    77   -7.332296645404e-14
    78   -1.772880080413e-01
    79   -2.270518450728e-13
    80   -5.584374973321e-14
    81    1.100469443039e-13
    82    5.688370690488e-03
    83   -2.448607085756e-15
    84   -1.972272284451e-02
    85    1.092845530200e-02
    86    1.576430590218e-15
    87   -1.499212601960e-15
    88    3.753716793016e-14
    89    2.230026966731e-14
    90    1.791953091395e-14
    91   -3.071023888979e-15
    92    4.762286865754e-02
    93    3.983994355332e-14
    94    3.611461484260e-14
    95    5.524697845350e-15
    96    8.380057447520e-02
    97   -1.460150033953e-13
    98   -1.348744066582e-13
    99   -5.980433719102e-15
   100    5.724725739579e-02
   101   -1.078853882036e-11
   102    1.123442576537e-12
   103    2.375295315543e-12
   104    1.059895361606e-02
   105    2.716254428454e-15
   106    4.095407930825e-03
   107   -1.469477643299e-02
   108   -1.269643287156e-15
   109    9.298104762279e-16
   110   -5.845894097878e-14
   111   -6.451757858201e-14
   112   -2.162590478765e-14
   113    8.422081837935e-15
   114    2.199917041622e-02
   115    7.957818732786e-14
   116   -1.022159945392e-14
   117   -6.656859287838e-15
   118    3.600003456455e-02
   119    5.490820799048e-15
   120   -6.152364483889e-14
   121    4.286459745040e-14
   122    2.230881991139e-02
   123    3.544346242726e-13
   124    3.781470565889e-14
   125   -3.172153353428e-13
   126   -1.775645239527e-02
   127    9.726595501542e-16
   128   -4.224870377290e-03
   129   -3.032509753129e-03
   130    3.004574329086e-15
   131   -5.258579038928e-16
   132    2.712141065345e-14
   133    1.760039621776e-14
   134   -3.098867898446e-14
   135    3.444225590286e-14
   136   -5.700945551517e-02
   137    5.372277544731e-14
   138   -6.142878321917e-14
   139    6.183712703414e-14
   140   -9.645418889574e-02
   141   -3.137049439831e-13
   142   -4.361289947473e-14
   143   -2.908101071125e-14
   144   -8.382522825694e-02
   145    4.295723147552e-13
   146    8.156184063543e-13
   147    1.241272815706e-13
   148    1.399982075329e-04
   149    4.022229394131e-15
   150    1.220635863472e-02
   151    2.013341141771e-03
   152    7.352221666999e-15
   153    2.408583672087e-15
   154   -7.441188441445e-14
   155   -5.046091211594e-14
   156    9.809486838688e-15
   157   -4.346911980309e-14
   158    1.429819675918e-02
   159   -3.038873861146e-14
   160    5.248336650938e-14
   161   -8.242844967973e-14
   162    2.304773614840e-02
   163   -1.557982962097e-13
   164   -3.006631636839e-13
   165    8.421376760334e-15
   166    1.138823480631e-02
   167    9.567510397306e-13
   168   -9.682454381783e-13
   169    3.516321412539e-13
   170   -1.306423339860e-02
   171   -3.036152425403e-16
   172    7.479646509227e-03
   173   -1.181100621640e-02
   174    4.628425018342e-15
   175   -6.874587108796e-15
   176    1.250037731980e-14
   177    7.458166701178e-15
   178   -3.464385134159e-14
   179    1.919719212239e-14
   180    1.063884442727e-01
   181    2.703134307041e-14
   182   -3.517654100850e-14
   183    4.089650366162e-14
   184    1.845087704300e-01
   185   -2.416872099826e-13
   186   -1.693221589235e-13
   187    4.307095332540e-14
   188    1.746969206469e-01
   189    1.275294416498e-11
   190   -2.754340702615e-12
   191    3.068653239407e-12
   192    7.962089812483e-03
   193    1.620580282783e-14
   194   -1.465720493945e-02
   195    3.223352508029e-03
   196   -1.006923679548e-14
   197    1.556262787220e-14
   198   -2.704678166402e-14
   199    1.473597647281e-14
   200    3.411925932033e-13
   201    1.481725896764e-12
   202   -5.267596890814e-16
   203    6.031098546437e-15
   204    8.636970992917e-03
Sym=X
Ene= 2.004311
Spin=Alpha
Occup=1
     1    8.451139834657e-03
     2    1.409899748247e-02
     3    8.504624763578e-03
     4   -2.724878145340e-02
     5   -7.065822009232e-15
     6   -3.843673925005e-02
     7    1.416452850364e-02
     8   -4.559541575666e-02
     9   -1.821621066193e-14
    10   -5.161647022263e-02
    11   -5.518710410831e-03
    12   -4.571306664261e-02
    13    7.353386492700e-15
    14   -8.748979673402e-02
    15    1.399176113879e-03
    16   -1.496671798324e-02
    17   -2.766148428065e-14
    18    1.860997773615e-03
    19    9.039150731017e-14
    20   -1.799630835177e-14
    21   -8.575179923017e-03
    22    4.676035551496e-03
    23    5.631087210853e-04
    24   -1.080845203739e-02
    25   -3.548926272772e-02
    26    2.454636010221e-02
    27   -7.791386280218e-05
    28    3.470076443425e-04
    29   -2.587395407658e-15
    30    1.813465881343e-02
    31    2.948456951944e-02
    32    1.064383654655e-02
    33    4.045129463229e-03
    34    4.840184716198e-04
    35    5.140751652826e-04
    36   -3.561295576552e-15
    37    2.894770677391e-03
    38    1.676706908500e-02
    39    3.487955668663e-02
    40   -5.059236051453e-02
    41    1.109759950677e-03
    42   -1.697122285122e-03
    43   -8.862567557899e-15
    44   -1.042891024514e-02
    45   -1.701768928028e-02
    46   -4.185067864180e-02
    47   -7.368992972514e-03
    48   -3.223744470001e-14
    49    4.966805689688e-02
    50   -7.121571631148e-02
    51   -1.724871452722e-02
    52   -5.263499700592e-14
    53    5.624738596366e-02
    54    3.974439324381e-02
    55    6.633886785235e-02
    56   -1.775841594151e-13
    57    3.196415901242e-02
    58    5.870571767294e-02
    59    8.634180015149e-02
    60    1.613745598980e-13
    61   -2.129536408466e-03
    62    1.318006048724e-13
    63   -4.307411776925e-14
    64   -5.056361536106e-02
    65   -3.404404030761e-02
    66   -6.148097686310e-03
    67   -8.780967357986e-03
    68    2.098553379163e-01
    69    2.638798464809e-01
    70    4.931524561795e-14
    71    2.724525621475e-02
    72    2.415988271226e-01
    73    3.021058601411e-01
    74    5.264279193295e-14
    75   -1.759103770131e-02
    76    1.440108520548e-01
    77    2.182513012795e-01
    78    2.476665932118e-13
    79   -1.926245868121e-02
    80   -4.069057783537e-03
    81    2.782730060486e-03
    82   -1.262456189722e-13
    83   -3.155551753646e-03
    84   -1.726285542131e-14
    85    1.398713759882e-14
    86    1.524305174876e-02
    87    2.681409160848e-03
    88   -1.306588114490e-02
    89   -2.187897295836e-02
    90   -2.670314762764e-02
    91    5.175826682927e-03
    92    8.043466309232e-14
    93    5.962543067783e-02
    94   -4.560998787413e-02
    95    6.835905125677e-03
    96    1.018600288185e-13
    97    5.104409574873e-02
    98   -4.430230685030e-02
    99    2.322897377592e-02
   100    1.454101089337e-13
   101   -2.273348694285e-01
   102   -1.235785622239e-02
   103    1.219722620298e-01
   104   -1.652735259891e-13
   105   -2.063292351113e-03
   106    1.775696673960e-13
   107    7.134026821377e-15
   108   -2.773687256320e-02
   109    7.349955728116e-03
   110    3.637219667119e-03
   111    6.179074806411e-03
   112   -5.952648226989e-02
   113    9.977033912160e-02
   114    1.431054793507e-13
   115   -1.887096031600e-02
   116   -9.230670492631e-02
   117    1.538500938567e-01
   118    2.394843282918e-13
   119   -1.516129906795e-02
   120   -8.416243013510e-02
   121    1.403583186916e-01
   122   -7.262223460744e-14
   123    2.217538011431e-02
   124   -1.071612511919e-02
   125    1.562094560043e-03
   126    2.009967355235e-13
   127   -7.150042093912e-05
   128   -2.029956095727e-14
   129   -2.071442819254e-14
   130    7.339632517165e-03
   131   -3.781558911001e-03
   132    2.219948572360e-02
   133    3.680863223859e-02
   134    4.696274616470e-02
   135    2.200911889901e-02
   136   -8.304004586822e-14
   137   -9.785495271503e-02
   138    6.544986904968e-02
   139    2.408610919897e-02
   140   -1.504428515503e-13
   141   -1.927498265355e-01
   142    6.949240288604e-02
   143    3.926314625512e-02
   144   -9.142943463284e-14
   145   -1.903091534685e-01
   146   -3.534424732503e-03
   147   -3.021974431615e-03
   148   -3.418728455584e-14
   149   -1.503281899475e-03
   150   -3.998578490016e-14
   151   -5.213972695795e-15
   152    8.393269578204e-04
   153   -2.689486275418e-03
   154   -1.278422604887e-02
   155   -2.115253654908e-02
   156   -1.549953377725e-02
   157    5.708073701007e-02
   158   -5.641764840510e-14
   159    5.672593946642e-02
   160   -2.838814434416e-02
   161    8.682686270298e-02
   162   -1.024781845266e-13
   163    1.220392387988e-01
   164   -1.629167415628e-02
   165    8.747059774587e-02
   166   -8.666208114839e-15
   167    1.358668878958e-01
   168   -9.623675789356e-03
   169    3.208349428865e-03
   170   -1.841289490036e-14
   171    5.151067751611e-04
   172    2.238726311822e-15
   173    2.545395244197e-14
   174   -2.754433641896e-03
   175    1.990628841062e-04
   176   -4.345855535215e-03
   177   -7.008230630616e-03
   178    3.537091204105e-03
   179    2.333264554946e-02
   180    3.472114788096e-14
   181    1.730200875230e-02
   182    8.590978487744e-03
   183    3.153369570367e-02
   184    2.750423008382e-14
   185    5.839252021090e-02
   186   -8.788492180299e-03
   187    3.422207354123e-02
   188    1.731147337574e-14
   189    3.192236469606e-01
   190   -2.176156739261e-02
   191    6.506379929009e-02
   192    4.530022605518e-14
   193    5.908474457614e-04
   194    2.273335366277e-15
   195   -3.066627627330e-14
   196   -3.261969421627e-03
   197   -1.161533027670e-03
   198   -3.814513432868e-03
   199   -7.130731550085e-03
   200    1.125328700688e-03
   201    1.512384398527e-02
   202    1.092921322375e-03
   203   -5.429038920352e-04
   204   -8.699871121797e-15
Sym=X
Ene= 2.002070
Spin=Alpha
Occup=1
     1   -1.539878207759e-13
     2   -1.838676446153e-13
     3   -2.930155082456e-13
     4    1.404749169232e-13
     5   -7.717631233932e-02
     6    3.160935475379e-13
     7   -5.003839366923e-13
     8    2.564092467323e-13
     9   -1.325572011813e-01
    10    1.515249341935e-14
    11   -3.210852170005e-13
    12   -2.714733306387e-13
    13   -1.054960023958e-01
    14   -8.949842348112e-12
    15   -8.140840168844e-13
    16   -4.061412850931e-12
    17   -1.938438640325e-02
    18   -1.559926335985e-14
    19    2.367705585050e-03
    20   -1.365483471881e-02
    21    2.970286962428e-14
    22   -2.732598739218e-14
    23    3.464439651945e-14
    24    1.519006508582e-13
    25   -2.688488739065e-13
    26    2.254945464460e-13
    27    1.820206820993e-14
    28   -1.463908279338e-14
    29   -5.841186821978e-03
    30   -3.673042750438e-14
    31   -1.126227565334e-13
    32   -5.003077700135e-13
    33   -1.642745928098e-12
    34   -1.214827386971e-14
    35   -6.381542993956e-15
    36   -6.210200988354e-03
    37   -5.841078599596e-14
    38   -1.194253507888e-13
    39   -1.394927408554e-13
    40   -6.460333812309e-13
    41    2.243840239979e-14
    42    2.914579099575e-14
    43   -5.971684974466e-03
    44   -1.549346938607e-13
    45   -2.746517969655e-13
    46   -7.552228089363e-13
    47    6.507052940791e-13
    48   -5.544216645435e-02
    49    8.961626842429e-13
    50   -1.155314197864e-12
    51    1.095038882696e-12
    52   -9.661142766224e-02
    53    8.621182860972e-13
    54   -3.167699649191e-13
    55    5.832997521024e-14
    56   -4.597824108729e-02
    57    3.932168715531e-12
    58    1.191446700702e-12
    59   -6.096736662613e-13
    60   -2.504868420116e-02
    61   -5.285595688931e-14
    62   -1.571036634250e-02
    63    4.914152347415e-03
    64    3.833818918283e-13
    65   -4.701481213867e-14
    66    1.010559929360e-14
    67    2.029984145905e-14
    68    9.614793080424e-13
    69   -2.535810542888e-12
    70    1.908766429362e-02
    71   -1.709286074075e-13
    72    1.080033048637e-12
    73   -2.893567255575e-12
    74    1.895297522855e-02
    75   -8.452419627673e-13
    76    2.139676667481e-13
    77   -1.749901392671e-12
    78    2.145750801718e-02
    79   -7.670120299146e-13
    80   -2.557314865791e-13
    81    1.780179060341e-13
    82    2.243554291095e-02
    83   -9.199374380514e-14
    84   -3.775406132582e-03
    85    1.842298400277e-03
    86    3.035768832387e-14
    87   -1.749585154876e-13
    88   -2.344276384905e-13
    89   -3.271806871777e-13
    90    1.749923369550e-13
    91    8.499248563169e-14
    92    6.389092705470e-02
    93    7.706199432228e-13
    94    3.429065908772e-13
    95    8.341366388922e-14
    96    1.121700814469e-01
    97    5.075897209849e-13
    98   -3.018637782858e-13
    99    6.496310038938e-13
   100    9.572938127614e-02
   101   -1.756399587995e-11
   102    1.004140375532e-12
   103    4.738672318898e-12
   104    1.911762944646e-02
   105   -3.277063846915e-14
   106    4.465507403112e-02
   107    2.700144541280e-02
   108   -3.331654875461e-13
   109    2.778784882163e-13
   110    5.299432069516e-14
   111    1.035816033406e-13
   112   -1.227452258454e-12
   113    1.021637086270e-12
   114    1.944053040332e-01
   115   -3.618549998880e-13
   116   -1.860747636770e-12
   117    1.580985697694e-12
   118    3.043828159137e-01
   119   -7.413304565008e-13
   120   -1.573453185193e-12
   121    1.637892175140e-12
   122    2.856840085309e-01
   123    3.878143903666e-13
   124   -1.054550528687e-13
   125   -2.677486141997e-13
   126    3.857804448197e-02
   127   -2.246325960307e-14
   128   -1.602297008339e-02
   129   -9.757213480415e-03
   130    1.015590326689e-13
   131   -5.729491618568e-15
   132   -1.030233894067e-13
   133    6.645772153762e-14
   134   -2.623980126756e-13
   135    1.692537938262e-13
   136   -8.994155695487e-02
   137   -8.366483511980e-13
   138   -3.566383174633e-13
   139    2.735147851005e-13
   140   -1.449911402759e-01
   141   -1.112710915394e-12
   142   -7.253501340833e-13
   143    4.769361513095e-13
   144   -1.608293296545e-01
   145   -9.309384057123e-13
   146    4.994291007780e-13
   147    2.663591974454e-13
   148   -1.401455520585e-02
   149    8.231786610520e-15
   150    1.048260432079e-02
   151    3.278006631562e-03
   152    4.347951458309e-14
   153   -6.410651142492e-14
   154    1.067565497971e-13
   155    1.717203462258e-13
   156    7.623858827017e-14
   157   -6.353053430073e-13
   158   -9.077130712493e-02
   159   -4.377195477012e-13
   160    1.328691679566e-13
   161   -9.851357885306e-13
   162   -1.504170045981e-01
   163   -7.772705544905e-13
   164    1.318945822170e-13
   165   -8.058819053501e-13
   166   -1.196208812105e-01
   167    1.304622233546e-12
   168   -3.248579147927e-13
   169    1.602905876345e-13
   170    2.711613894338e-02
   171   -7.531946164027e-16
   172   -8.024584535735e-03
   173   -6.377477949663e-04
   174    1.594005161029e-14
   175   -5.618863269578e-14
   176   -6.406846652536e-14
   177   -5.043231307439e-14
   178   -1.171821715438e-13
   179    3.661090520366e-13
   180   -5.173124221694e-02
   181   -8.615297546968e-16
   182   -1.300332246299e-13
   183    4.951653859221e-13
   184   -8.511731889532e-02
   185    6.093991677304e-13
   186   -4.241619406570e-13
   187    7.538788118547e-13
   188   -1.160456869696e-01
   189    2.236101680294e-11
   190   -3.520519458855e-12
   191    5.290663541261e-12
   192   -9.844102714567e-03
   193    2.445342167113e-14
   194    1.252947324141e-02
   195    8.050668532278e-03
   196    1.512320466776e-14
   197    3.430097363216e-14
   198   -2.486110065649e-13
   199   -3.362074345486e-13
   200    3.240382282025e-13
   201    2.025219251974e-12
   202    2.118471136781e-14
   203   -2.333284969295e-14
   204   -3.184333402956e-03
Sym=X
Ene= 2.001878
Spin=Alpha
Occup=1
     1    5.884458851456e-03
     2    9.575742623584e-03
     3    2.390204830607e-02
     4   -1.218824381002e-02
     5   -7.840457288224e-13
     6   -2.704446555771e-02
     7    4.308900441714e-02
     8   -2.141058549230e-02
     9   -1.349706067267e-12
    10   -1.499002400839e-02
    11    2.228940187178e-02
    12   -6.839374607569e-03
    13   -9.982265691799e-13
    14    1.790172830435e-01
    15    5.470174913085e-02
    16    7.987215089556e-02
    17   -2.085130101982e-13
    18    1.215425070583e-03
    19    9.693198302549e-14
    20   -1.470385748722e-13
    21   -3.735743329057e-03
    22    1.717246802262e-03
    23   -6.955962016671e-03
    24   -8.576233158062e-03
    25   -1.544558342684e-02
    26    1.358399845941e-03
    27   -1.215586228362e-03
    28    1.609778939338e-03
    29   -7.271887305119e-14
    30    3.869356613381e-03
    31    9.355817056726e-03
    32    8.782592312253e-03
    33    4.336674767105e-02
    34    1.011009856491e-03
    35   -4.992388182787e-05
    36   -6.327935156644e-14
    37   -7.042703347150e-03
    38   -9.019342154573e-04
    39    6.577314115694e-03
    40    2.032222890501e-02
    41   -2.150787101847e-03
    42    4.479668838218e-04
    43   -3.733324123517e-14
    44    2.213804239264e-02
    45    3.488922729356e-02
    46    7.739896298039e-02
    47   -7.454637691185e-02
    48   -5.851347167817e-13
    49   -9.984934243776e-02
    50    1.197275943781e-01
    51   -1.269505751976e-01
    52   -1.042990070068e-12
    53   -9.374455200053e-02
    54    1.261824586581e-02
    55    7.936954929021e-03
    56   -5.140295028150e-13
    57   -4.984467883391e-02
    58   -1.809570831749e-03
    59    3.341126819222e-02
    60   -6.994401780439e-14
    61    6.995060820614e-03
    62   -4.544429713378e-14
    63    5.608751460111e-14
    64   -3.814597654890e-02
    65    5.751470959872e-03
    66    1.544584883928e-03
    67    1.686758419064e-03
    68   -1.148519312808e-01
    69    2.434952402895e-01
    70    6.906821234488e-14
    71    4.297695880505e-03
    72   -1.298233955308e-01
    73    2.774865428198e-01
    74    4.658612937128e-14
    75    8.579451857572e-02
    76   -3.166082277037e-02
    77    1.643966356319e-01
    78    2.318951133346e-13
    79    1.919191804016e-02
    80   -2.146179314118e-03
    81   -8.225733361432e-04
    82    6.059747632816e-14
    83    9.665793822041e-03
    84   -4.503115971452e-14
    85    3.558221865524e-14
    86   -4.675072771893e-03
    87    1.750525976993e-02
    88    1.511441184004e-02
    89    2.537842378141e-02
    90   -1.077005450538e-02
    91   -9.985175046539e-03
    92    6.410969750989e-13
    93   -7.360058915328e-02
    94   -1.802119172966e-02
    95   -9.923654639201e-03
    96    1.108580168917e-12
    97   -8.343249758825e-02
    98    3.184798441644e-02
    99   -6.718208826341e-02
   100    9.454600092289e-13
   101    2.355336647946e-01
   102    4.269030900675e-02
   103   -1.145364058651e-01
   104   -2.077992258902e-14
   105    3.125945058202e-03
   106    4.806529001553e-13
   107    2.481420001235e-13
   108    3.662265970748e-02
   109   -2.467587109501e-02
   110   -1.132161302960e-02
   111   -1.920956117407e-02
   112    1.251838955627e-01
   113   -1.124488423624e-01
   114    1.799695787014e-12
   115    5.836875230638e-02
   116    1.914347795821e-01
   117   -1.746529108040e-01
   118    2.816823168991e-12
   119    7.945936780925e-02
   120    1.616485503014e-01
   121   -1.724173525808e-01
   122    2.519960709597e-12
   123    2.267768456383e-02
   124   -5.842511041794e-03
   125   -8.810890019743e-03
   126    5.259227676449e-13
   127    2.237436344709e-03
   128   -1.560471615414e-13
   129   -1.001670115192e-13
   130   -1.079647169063e-02
   131    9.524424875215e-04
   132   -8.156187648996e-03
   133   -1.434077960124e-02
   134    2.329078828231e-02
   135   -2.456686936950e-02
   136   -7.766365068529e-13
   137    4.036305713769e-02
   138    3.271572604586e-02
   139   -3.916962668769e-02
   140   -1.259390299063e-12
   141    9.602538112865e-02
   142    6.550205991892e-02
   143   -5.775680830534e-02
   144   -1.372826927029e-12