[Molden Format]
[Atoms] (Angs)
  C      1    6     -0.13173890     -1.79208980      0.00000000
  H      2    1     -2.14962000     -1.30978739      0.00000000
  H      3    1     -0.31599560     -2.86503115      0.00000000
  H      4    1      0.14407746      2.04280963     -0.00000000
  C      5    6     -1.17258876      0.48030861      0.00000000
  O      6    8     -2.25008207      1.06833796      0.00000000
  C      7    6      1.31158357      0.28308717     -0.00000000
  O      8    8      2.36361668      0.96389345     -0.00000000
  N      9    7      0.07017030      1.03138997     -0.00000000
  N     10    7     -1.19586868     -0.94982644      0.00000000
  C     11    6      1.19165158     -1.13169473     -0.00000000
  H     12    1      2.09970506     -1.73445456     -0.00000000
[GTO]
1    0
S    6    1.000000
   4.56324000E+03    1.96665000E-03 
   6.82024000E+02    1.52306000E-02 
   1.54973000E+02    7.61269000E-02 
   4.44553000E+01    2.60801000E-01 
   1.30290000E+01    6.16462000E-01 
   1.82773000E+00    2.21006000E-01 
SP   3    1.000000
   2.09642000E+01    1.14660000E-01   4.02487000E-02 
   4.80331000E+00    9.19999000E-01   2.37594000E-01 
   1.45933000E+00   -3.03068000E-03   8.15854000E-01 
SP   1    1.000000
   4.83456000E-01    1.00000000E+00   1.00000000E+00 
SP   1    1.000000
   1.45585000E-01    1.00000000E+00   1.00000000E+00 
SP   1    1.000000
   4.38000000E-02    1.00000000E+00   1.00000000E+00 
D    1    1.000000
   6.26000000E-01    1.00000000E+00 

2    0
S    3    1.000000
   3.38650000E+01    2.54938000E-02 
   5.09479000E+00    1.90373000E-01 
   1.15879000E+00    8.52161000E-01 
S    1    1.000000
   3.25840000E-01    1.00000000E+00 
S    1    1.000000
   1.02741000E-01    1.00000000E+00 
S    1    1.000000
   3.60000000E-02    1.00000000E+00 
P    1    1.000000
   7.50000000E-01    1.00000000E+00 

3    0
S    3    1.000000
   3.38650000E+01    2.54938000E-02 
   5.09479000E+00    1.90373000E-01 
   1.15879000E+00    8.52161000E-01 
S    1    1.000000
   3.25840000E-01    1.00000000E+00 
S    1    1.000000
   1.02741000E-01    1.00000000E+00 
S    1    1.000000
   3.60000000E-02    1.00000000E+00 
P    1    1.000000
   7.50000000E-01    1.00000000E+00 

4    0
S    3    1.000000
   3.38650000E+01    2.54938000E-02 
   5.09479000E+00    1.90373000E-01 
   1.15879000E+00    8.52161000E-01 
S    1    1.000000
   3.25840000E-01    1.00000000E+00 
S    1    1.000000
   1.02741000E-01    1.00000000E+00 
S    1    1.000000
   3.60000000E-02    1.00000000E+00 
P    1    1.000000
   7.50000000E-01    1.00000000E+00 

5    0
S    6    1.000000
   4.56324000E+03    1.96665000E-03 
   6.82024000E+02    1.52306000E-02 
   1.54973000E+02    7.61269000E-02 
   4.44553000E+01    2.60801000E-01 
   1.30290000E+01    6.16462000E-01 
   1.82773000E+00    2.21006000E-01 
SP   3    1.000000
   2.09642000E+01    1.14660000E-01   4.02487000E-02 
   4.80331000E+00    9.19999000E-01   2.37594000E-01 
   1.45933000E+00   -3.03068000E-03   8.15854000E-01 
SP   1    1.000000
   4.83456000E-01    1.00000000E+00   1.00000000E+00 
SP   1    1.000000
   1.45585000E-01    1.00000000E+00   1.00000000E+00 
SP   1    1.000000
   4.38000000E-02    1.00000000E+00   1.00000000E+00 
D    1    1.000000
   6.26000000E-01    1.00000000E+00 

6    0
S    6    1.000000
   8.58850000E+03    1.89515000E-03 
   1.29723000E+03    1.43859000E-02 
   2.99296000E+02    7.07320000E-02 
   8.73771000E+01    2.40001000E-01 
   2.56789000E+01    5.94797000E-01 
   3.74004000E+00    2.80802000E-01 
SP   3    1.000000
   4.21175000E+01    1.13889000E-01   3.65114000E-02 
   9.62837000E+00    9.20811000E-01   2.37153000E-01 
   2.85332000E+00   -3.27447000E-03   8.19702000E-01 
SP   1    1.000000
   9.05661000E-01    1.00000000E+00   1.00000000E+00 
SP   1    1.000000
   2.55611000E-01    1.00000000E+00   1.00000000E+00 
SP   1    1.000000
   8.45000000E-02    1.00000000E+00   1.00000000E+00 
D    1    1.000000
   1.29200000E+00    1.00000000E+00 

7    0
S    6    1.000000
   4.56324000E+03    1.96665000E-03 
   6.82024000E+02    1.52306000E-02 
   1.54973000E+02    7.61269000E-02 
   4.44553000E+01    2.60801000E-01 
   1.30290000E+01    6.16462000E-01 
   1.82773000E+00    2.21006000E-01 
SP   3    1.000000
   2.09642000E+01    1.14660000E-01   4.02487000E-02 
   4.80331000E+00    9.19999000E-01   2.37594000E-01 
   1.45933000E+00   -3.03068000E-03   8.15854000E-01 
SP   1    1.000000
   4.83456000E-01    1.00000000E+00   1.00000000E+00 
SP   1    1.000000
   1.45585000E-01    1.00000000E+00   1.00000000E+00 
SP   1    1.000000
   4.38000000E-02    1.00000000E+00   1.00000000E+00 
D    1    1.000000
   6.26000000E-01    1.00000000E+00 

8    0
S    6    1.000000
   8.58850000E+03    1.89515000E-03 
   1.29723000E+03    1.43859000E-02 
   2.99296000E+02    7.07320000E-02 
   8.73771000E+01    2.40001000E-01 
   2.56789000E+01    5.94797000E-01 
   3.74004000E+00    2.80802000E-01 
SP   3    1.000000
   4.21175000E+01    1.13889000E-01   3.65114000E-02 
   9.62837000E+00    9.20811000E-01   2.37153000E-01 
   2.85332000E+00   -3.27447000E-03   8.19702000E-01 
SP   1    1.000000
   9.05661000E-01    1.00000000E+00   1.00000000E+00 
SP   1    1.000000
   2.55611000E-01    1.00000000E+00   1.00000000E+00 
SP   1    1.000000
   8.45000000E-02    1.00000000E+00   1.00000000E+00 
D    1    1.000000
   1.29200000E+00    1.00000000E+00 

9    0
S    6    1.000000
   6.29348000E+03    1.96979000E-03 
   9.49044000E+02    1.49613000E-02 
   2.18776000E+02    7.35006000E-02 
   6.36916000E+01    2.48937000E-01 
   1.88282000E+01    6.02460000E-01 
   2.72023000E+00    2.56202000E-01 
SP   3    1.000000
   3.06331000E+01    1.11906000E-01   3.83119000E-02 
   7.02614000E+00    9.21666000E-01   2.37403000E-01 
   2.11205000E+00   -2.56919000E-03   8.17592000E-01 
SP   1    1.000000
   6.84009000E-01    1.00000000E+00   1.00000000E+00 
SP   1    1.000000
   2.00878000E-01    1.00000000E+00   1.00000000E+00 
SP   1    1.000000
   6.39000000E-02    1.00000000E+00   1.00000000E+00 
D    1    1.000000
   9.13000000E-01    1.00000000E+00 

10    0
S    6    1.000000
   6.29348000E+03    1.96979000E-03 
   9.49044000E+02    1.49613000E-02 
   2.18776000E+02    7.35006000E-02 
   6.36916000E+01    2.48937000E-01 
   1.88282000E+01    6.02460000E-01 
   2.72023000E+00    2.56202000E-01 
SP   3    1.000000
   3.06331000E+01    1.11906000E-01   3.83119000E-02 
   7.02614000E+00    9.21666000E-01   2.37403000E-01 
   2.11205000E+00   -2.56919000E-03   8.17592000E-01 
SP   1    1.000000
   6.84009000E-01    1.00000000E+00   1.00000000E+00 
SP   1    1.000000
   2.00878000E-01    1.00000000E+00   1.00000000E+00 
SP   1    1.000000
   6.39000000E-02    1.00000000E+00   1.00000000E+00 
D    1    1.000000
   9.13000000E-01    1.00000000E+00 

11    0
S    6    1.000000
   4.56324000E+03    1.96665000E-03 
   6.82024000E+02    1.52306000E-02 
   1.54973000E+02    7.61269000E-02 
   4.44553000E+01    2.60801000E-01 
   1.30290000E+01    6.16462000E-01 
   1.82773000E+00    2.21006000E-01 
SP   3    1.000000
   2.09642000E+01    1.14660000E-01   4.02487000E-02 
   4.80331000E+00    9.19999000E-01   2.37594000E-01 
   1.45933000E+00   -3.03068000E-03   8.15854000E-01 
SP   1    1.000000
   4.83456000E-01    1.00000000E+00   1.00000000E+00 
SP   1    1.000000
   1.45585000E-01    1.00000000E+00   1.00000000E+00 
SP   1    1.000000
   4.38000000E-02    1.00000000E+00   1.00000000E+00 
D    1    1.000000
   6.26000000E-01    1.00000000E+00 

12    0
S    3    1.000000
   3.38650000E+01    2.54938000E-02 
   5.09479000E+00    1.90373000E-01 
   1.15879000E+00    8.52161000E-01 
S    1    1.000000
   3.25840000E-01    1.00000000E+00 
S    1    1.000000
   1.02741000E-01    1.00000000E+00 
S    1    1.000000
   3.60000000E-02    1.00000000E+00 
P    1    1.000000
   7.50000000E-01    1.00000000E+00 

[MO]
Sym=X
Ene= 2.007784
Spin=Alpha
Occup=1
     1   -3.516952762993e-14
     2   -4.266778303910e-14
     3   -1.497094539889e-14
     4    4.221039859829e-15
     5    9.806589704756e-02
     6    6.419280213880e-14
     7   -1.818284908277e-14
     8    3.182298537377e-14
     9    1.709579494161e-01
    10    4.419267015109e-13
    11   -1.779442567514e-13
    12    6.085845959036e-14
    13    1.512894537164e-01
    14   -4.035633095783e-12
    15   -5.017367050628e-13
    16   -1.798661072717e-12
    17    1.837236306743e-02
    18   -1.440675837601e-15
    19    1.007466196991e-02
    20    1.482929988205e-02
    21    9.718332826492e-15
    22   -1.910139691216e-15
    23   -1.098233733421e-14
    24   -5.694343524540e-14
    25   -5.788666602027e-13
    26    8.810977815275e-14
    27   -3.208811683477e-15
    28    1.977176785171e-15
    29    8.977142989026e-04
    30    8.385150053930e-15
    31    3.942289766877e-14
    32   -2.167994173266e-13
    33   -8.856954591210e-13
    34   -8.672583060574e-16
    35   -3.443085162985e-15
    36    7.222232921641e-03
    37    1.960949568838e-14
    38    1.379034167424e-13
    39   -3.042296315114e-13
    40   -3.487169303459e-13
    41   -1.806068431011e-15
    42   -1.862219711754e-14
    43   -5.052158496832e-03
    44   -6.556229199261e-14
    45   -4.448409982090e-14
    46    1.523217529909e-14
    47    4.981205875751e-14
    48   -9.384832463540e-02
    49   -6.502646647750e-14
    50    2.024130332569e-14
    51    5.971250626681e-14
    52   -1.673130074119e-01
    53    1.591474177773e-13
    54    2.326987032363e-13
    55    1.731080792218e-13
    56   -9.885331510626e-02
    57    1.179366356009e-12
    58    5.795768503597e-13
    59    3.357756662793e-13
    60   -1.667706476133e-02
    61    6.734715089605e-15
    62    1.989320446323e-02
    63   -2.122467098676e-02
    64    8.186169310668e-15
    65    1.425053560912e-14
    66   -1.338807878248e-15
    67   -6.564971696007e-16
    68   -2.609013407134e-14
    69   -4.768329395758e-14
    70   -2.326786580431e-01
    71    1.888749348508e-15
    72   -1.588334352307e-14
    73   -4.001836828170e-14
    74   -2.716931723504e-01
    75    7.513184569667e-14
    76   -1.287149131931e-15
    77   -6.407181952816e-14
    78   -1.687783650231e-01
    79   -2.140187483736e-13
    80   -4.732731786511e-14
    81    1.013330899678e-13
    82    3.683055584762e-03
    83   -1.321116146763e-15
    84   -1.880789571895e-02
    85    9.874826768086e-03
    86    2.068528235646e-15
    87   -1.360807155403e-15
    88    4.050206257076e-14
    89    2.590020840362e-14
    90    1.489090467474e-14
    91   -1.907758768746e-15
    92    4.402906208069e-02
    93    3.366215849551e-14
    94    2.903492496994e-14
    95    6.034304096874e-15
    96    7.693267346467e-02
    97   -1.246810812479e-13
    98   -1.243553216767e-13
    99   -9.027969962326e-15
   100    5.367602346128e-02
   101   -9.642628045403e-12
   102    1.016945179804e-12
   103    2.116166468191e-12
   104    9.072076053137e-03
   105    2.458595742100e-15
   106    5.809441488704e-04
   107   -1.752481654465e-02
   108    1.386269408302e-16
   109   -2.374707418071e-15
   110   -5.480267307097e-14
   111   -5.912548882628e-14
   112   -1.485419526736e-14
   113    2.153232919769e-15
   114    7.403526649443e-03
   115    6.484614639623e-14
   116   -2.158616485971e-15
   117   -1.505392977950e-14
   118    1.327309681342e-02
   119    2.978903534541e-15
   120   -4.920382959236e-14
   121    3.071562234308e-14
   122    3.148696615913e-04
   123    3.181364477685e-13
   124    3.648854486467e-14
   125   -2.878863342437e-13
   126   -2.233640079141e-02
   127    3.142995835350e-16
   128   -3.079673530330e-03
   129   -2.361068494006e-03
   130    2.276507076591e-15
   131   -8.106265152113e-16
   132    2.644375193197e-14
   133    1.219317359992e-14
   134   -2.683097491914e-14
   135    3.560738773293e-14
   136   -5.352471389638e-02
   137    7.787552230754e-14
   138   -5.497332759035e-14
   139    6.300792311233e-14
   140   -9.075702142491e-02
   141   -2.660481873364e-13
   142   -3.511533061716e-14
   143   -2.437320567701e-14
   144   -7.865542105166e-02
   145    4.062435006416e-13
   146    7.281494562835e-13
   147    1.366083937306e-13
   148    2.135089921257e-03
   149    3.868880179717e-15
   150    1.138562118787e-02
   151    1.531851691856e-03
   152    6.286494406187e-15
   153    1.970351637107e-15
   154   -7.413341221813e-14
   155   -5.118707205990e-14
   156    1.280599288451e-14
   157   -4.284432720912e-14
   158    3.079245480309e-02
   159   -2.894486531204e-14
   160    5.423412099747e-14
   161   -7.995140180239e-14
   162    4.989157807309e-02
   163   -1.453368262730e-13
   164   -2.708368994863e-13
   165    5.070836623128e-15
   166    3.634993316161e-02
   167    8.659407899619e-13
   168   -8.640721307870e-13
   169    3.228026020688e-13
   170   -1.200231613306e-02
   171    6.490969422653e-16
   172    8.731869903881e-03
   173   -1.149279481539e-02
   174    4.351165847867e-15
   175   -7.290878625177e-15
   176    1.247746173151e-14
   177    9.920007132464e-15
   178   -3.150150464726e-14
   179    1.758910417159e-14
   180    1.142135783341e-01
   181    1.362646268916e-14
   182   -3.373204990378e-14
   183    3.780379833043e-14
   184    1.975116226864e-01
   185   -2.409920375250e-13
   186   -1.433720643926e-13
   187    3.350948027866e-14
   188    1.901809574900e-01
   189    1.163048767159e-11
   190   -2.566525713796e-12
   191    2.721609859724e-12
   192    1.059782936925e-02
   193    1.506224133897e-14
   194   -1.673320961310e-02
   195    3.176209120696e-03
   196   -8.851767831425e-15
   197    1.280754488816e-14
   198   -2.769211898169e-14
   199    7.756781610242e-15
   200    3.027296688180e-13
   201    1.368586416899e-12
   202    3.499955005885e-16
   203    4.631133465462e-15
   204    8.938215015992e-03
Sym=X
Ene= 2.003884
Spin=Alpha
Occup=1
     1    8.605430521183e-03
     2    1.425383227280e-02
     3    9.030206062474e-03
     4   -3.097744957943e-02
     5   -3.239929631344e-14
     6   -3.830488983938e-02
     7    1.473281649433e-02
     8   -5.172043231438e-02
     9   -6.199986540644e-14
    10   -4.839158215335e-02
    11   -9.895279377819e-03
    12   -5.085643389449e-02
    13   -2.238009804727e-14
    14   -9.754512492047e-02
    15   -3.830675455619e-03
    16   -2.910166078494e-02
    17   -3.095509758235e-14
    18    2.016935150791e-03
    19    8.669210213215e-14
    20   -2.257309788806e-14
    21   -8.682850189801e-03
    22    5.409701377476e-03
    23    4.397707933369e-04
    24   -1.182550447697e-02
    25   -3.022857721625e-02
    26    2.559193157548e-02
    27   -1.813076632459e-04
    28    5.776708457864e-04
    29   -5.624098947330e-15
    30    2.061696392880e-02
    31    3.206720257898e-02
    32    7.978727699742e-03
    33   -9.117552077527e-03
    34    5.635650294131e-04
    35    8.968164885202e-04
    36   -5.380668144166e-15
    37    2.041251435309e-03
    38    1.598079764928e-02
    39    3.320866982754e-02
    40   -5.457145117983e-02
    41    1.718152049584e-03
    42   -1.490024535393e-03
    43   -1.066833797886e-14
    44   -1.118168156340e-02
    45   -1.802814501610e-02
    46   -5.054201113445e-02
    47   -1.177249167459e-02
    48   -6.692009487008e-14
    49    5.161041688010e-02
    50   -8.351435670012e-02
    51   -2.493535433252e-02
    52   -1.128789527457e-13
    53    6.029320106082e-02
    54    3.775269385249e-02
    55    6.573091300459e-02
    56   -2.016054013966e-13
    57    3.395960992896e-02
    58    5.147078015517e-02
    59    8.054632940227e-02
    60    1.429249399421e-13
    61   -2.368384983585e-03
    62    1.183475511225e-13
    63   -3.754374950657e-14
    64   -4.832929461968e-02
    65   -3.401932012615e-02
    66   -1.216812843554e-02
    67   -1.752905438472e-02
    68    2.021592976407e-01
    69    2.436419448459e-01
    70    2.747193964683e-14
    71    5.678331818169e-02
    72    2.336801978696e-01
    73    2.789272824321e-01
    74    2.600239230440e-14
    75   -5.869555888685e-03
    76    1.365808752466e-01
    77    2.038289069934e-01
    78    2.195803844602e-13
    79   -2.076157346258e-02
    80   -3.554313526054e-03
    81    3.613849891507e-03
    82   -1.057725138031e-13
    83   -3.923113879381e-03
    84   -2.084328519643e-14
    85    1.412321475726e-14
    86    1.440392593242e-02
    87    1.858069032970e-03
    88   -1.439631112296e-02
    89   -2.391908002915e-02
    90   -3.217797040269e-02
    91    8.039982294272e-03
    92    9.503195061783e-14
    93    6.428412107770e-02
    94   -5.489928673390e-02
    95    1.090999781252e-02
    96    1.287075753468e-13
    97    5.439027101073e-02
    98   -4.975283500107e-02
    99    2.749433717502e-02
   100    1.701192615295e-13
   101   -2.439188111982e-01
   102   -2.020169107624e-02
   103    1.338237152490e-01
   104   -1.426200245130e-13
   105   -2.457975147227e-03
   106    1.787295574470e-13
   107    1.384476515248e-14
   108   -3.061860387860e-02
   109    7.463117514601e-03
   110    4.367953839580e-03
   111    7.405668569549e-03
   112   -6.638721378161e-02
   113    1.132402880583e-01
   114    1.915463816394e-13
   115   -2.253675994211e-02
   116   -1.030098605792e-01
   117    1.746678351788e-01
   118    3.143848428059e-13
   119   -1.658989235406e-02
   120   -9.456606147014e-02
   121    1.584285990159e-01
   122    1.736822646765e-14
   123    2.321307852433e-02
   124   -9.743513901654e-03
   125    1.588932204544e-03
   126    1.950626332887e-13
   127   -5.574286231365e-05
   128   -2.360000312626e-14
   129   -2.186332125513e-14
   130    8.383355178496e-03
   131   -4.493835865122e-03
   132    2.311774332012e-02
   133    3.833703139434e-02
   134    5.366312049905e-02
   135    2.130573908092e-02
   136   -1.184455042219e-13
   137   -1.015661128584e-01
   138    7.657753135955e-02
   139    2.301595618579e-02
   140   -2.071141067308e-13
   141   -1.996593852030e-01
   142    7.541858375912e-02
   143    3.931887628174e-02
   144   -1.537952586567e-13
   145   -1.962834453279e-01
   146   -2.377768896160e-03
   147    1.997593386587e-03
   148   -3.951650874237e-14
   149   -1.309687330532e-03
   150   -3.118823098687e-14
   151   -3.164568007303e-15
   152    3.532765848791e-04
   153   -3.919152046600e-03
   154   -1.193749546419e-02
   155   -1.964646252109e-02
   156   -1.790865516584e-02
   157    5.970059684268e-02
   158   -1.020932909513e-13
   159    5.213452409151e-02
   160   -3.201234439584e-02
   161    9.093123091011e-02
   162   -1.772114974285e-13
   163    1.155167902253e-01
   164   -1.907312714173e-02
   165    9.083656265240e-02
   166   -7.956680614947e-14
   167    1.329929780165e-01
   168   -3.320292557745e-03
   169    8.417189825818e-03
   170   -1.207512710387e-14
   171    3.730153221635e-04
   172   -6.268983767816e-16
   173    2.157557391359e-14
   174   -3.583887375282e-03
   175    9.235428460103e-05
   176   -5.017393332041e-03
   177   -8.065140757278e-03
   178    4.572303789851e-03
   179    2.337581663280e-02
   180    2.005486405755e-14
   181    1.966097883261e-02
   182    1.066332895664e-02
   183    3.091905985335e-02
   184    8.051778036443e-15
   185    6.783249064157e-02
   186   -8.601525691319e-03
   187    3.536325881408e-02
   188   -1.066731875882e-14
   189    3.619657302463e-01
   190   -2.403269345641e-02
   191    7.406288321294e-02
   192    3.821702746808e-14
   193    6.054377011164e-04
   194    5.584490691083e-15
   195   -2.595941740301e-14
   196   -3.190210664810e-03
   197   -1.540372117297e-03
   198   -2.382881792728e-03
   199   -5.552853047015e-03
   200    2.145500869568e-03
   201    1.734800080001e-02
   202    1.017384048958e-03
   203   -5.982892867351e-04
   204   -8.225957256501e-15
Sym=X
Ene= 2.002463
Spin=Alpha
Occup=1
     1   -1.382475568086e-13
     2   -1.453195145373e-13
     3   -1.004445425287e-13
     4    6.984656496371e-14
     5   -7.681788142739e-02
     6    1.623342692268e-13
     7   -1.529759613912e-13
     8    1.321339074162e-13
     9   -1.320341136180e-01
    10   -2.589971590401e-14
    11   -1.774822408064e-13
    12   -2.752694988011e-13
    13   -9.502376357173e-02
    14   -7.641800868561e-12
    15   -5.201107155892e-13
    16   -3.467599445054e-12
    17   -1.832219238865e-02
    18   -8.323941424504e-15
    19    6.898903457066e-03
    20   -1.564643667638e-02
    21    9.096367663290e-15
    22   -1.505212462598e-14
    23   -2.260606017510e-14
    24    7.044907349194e-14
    25   -4.059069004005e-13
    26    2.140280199670e-13
    27    5.610981475759e-15
    28   -2.998067703503e-15
    29   -8.312179982555e-03
    30   -1.761112602715e-14
    31   -5.438227150803e-14
    32   -4.356538596330e-13
    33   -1.359298902459e-12
    34   -3.751279746803e-15
    35   -7.772538682109e-15
    36   -5.899586623799e-03
    37   -6.577758651149e-14
    38   -5.089010110992e-14
    39   -1.585729621055e-13
    40   -4.884329726205e-13
    41    4.512713351233e-15
    42    1.981046838484e-14
    43   -5.495486658320e-03
    44   -4.156249920974e-14
    45   -4.469996644621e-14
    46   -1.122227964350e-13
    47    1.004616224895e-13
    48   -7.670191137170e-02
    49    7.090670838901e-14
    50   -1.625776136553e-13
    51    1.587585584787e-13
    52   -1.343114735041e-01
    53    1.079753826519e-13
    54   -1.923277358317e-13
    55    1.081885788980e-13
    56   -6.750157996067e-02
    57    3.421373143099e-12
    58    1.145943861936e-12
    59   -3.287407029103e-13
    60   -2.788443278789e-02
    61    3.554167802784e-15
    62   -9.419934256461e-03
    63    6.832617005458e-03
    64    1.116116238276e-13
    65    2.046017870669e-14
    66    3.028861624357e-14
    67    4.518931494439e-14
    68   -3.871182742946e-14
    69   -7.500449168923e-13
    70   -2.568755897307e-02
    71   -1.749098560317e-13
    72   -5.039032008110e-14
    73   -8.567335196667e-13
    74   -3.353976354019e-02
    75   -1.673124476787e-13
    76   -9.983866746856e-14
    77   -5.688867629693e-13
    78   -1.056708624238e-02
    79   -6.086592896142e-13
    80   -2.599640312667e-13
    81    1.780559436851e-13
    82    2.322250311141e-02
    83   -1.438965492085e-14
    84   -7.455332531492e-03
    85    4.045420234176e-03
    86   -1.124394868944e-14
    87   -3.812186530563e-14
    88   -7.590596767647e-14
    89   -8.939916141857e-14
    90    7.109727933489e-14
    91   -1.553963703990e-14
    92    5.732206909426e-02
    93    1.594214441269e-13
    94    1.664199882204e-13
    95   -2.881196003328e-14
    96    1.010825967842e-01
    97   -1.702503243457e-13
    98   -4.938170295760e-14
    99    1.361261333573e-13
   100    8.707347746824e-02
   101   -1.583602686677e-11
   102    1.355437565981e-12
   103    3.844576865563e-12
   104    1.353749970713e-02
   105   -6.711096905304e-15
   106    3.891923024821e-02
   107    2.286730114949e-02
   108   -4.936840183236e-14
   109    7.170530502042e-14
   110   -3.677720991529e-14
   111   -3.682408034577e-14
   112   -2.198100345625e-13
   113    1.484313551554e-13
   114    1.677472812869e-01
   115    3.217914022225e-14
   116   -3.176005317276e-13
   117    2.214815348022e-13
   118    2.626983583532e-01
   119   -1.629631151799e-13
   120   -2.859671170776e-13
   121    2.923826962771e-13
   122    2.456002038387e-01
   123    5.630410375924e-13
   124   -1.227723857061e-13
   125   -3.544015415516e-13
   126    3.200209309400e-02
   127   -2.676076822265e-15
   128   -1.407280553408e-02
   129   -8.484109724645e-03
   130    1.501181307140e-14
   131   -1.038641946036e-15
   132   -1.538877038317e-13
   133   -7.053615343940e-14
   134   -1.073672217678e-13
   135    1.116390950447e-15
   136   -8.615137727662e-02
   137   -3.225007222028e-13
   138   -1.435002310256e-13
   139    1.027832938518e-14
   140   -1.397255959980e-01
   141   -2.173775665973e-13
   142   -2.605219450327e-13
   143    2.336743376469e-14
   144   -1.482277945500e-01
   145    2.429119093022e-15
   146    3.931102121816e-13
   147    3.461628679929e-14
   148   -5.632139848815e-03
   149    6.818904154810e-15
   150    1.169000794147e-02
   151    3.966326131602e-03
   152    9.856971260711e-15
   153   -9.577020276917e-15
   154   -1.806949327413e-14
   155   -5.380371527103e-15
   156    7.916897200048e-14
   157   -1.731743434372e-13
   158   -1.226870436651e-01
   159   -4.640223662246e-14
   160    1.365087526416e-13
   161   -2.727395412223e-13
   162   -2.024913055764e-01
   163   -8.195379832509e-14
   164    1.646647594883e-13
   165   -1.581213181259e-13
   166   -1.734735915311e-01
   167    1.382601764345e-12
   168   -4.681102925177e-13
   169    3.960143602346e-14
   170    2.186121541438e-02
   171   -2.705119411037e-15
   172   -8.172945910916e-03
   173   -2.964736869568e-03
   174    1.140799771690e-15
   175   -1.938392206325e-14
   176    3.330752682805e-14
   177    4.040001256217e-14
   178   -6.800614983818e-14
   179    1.108416323449e-13
   180   -4.123669508355e-02
   181   -5.744409736248e-14
   182   -7.750333340152e-14
   183    1.592157475601e-13
   184   -6.753891432173e-02
   185    1.964860609156e-14
   186   -3.955849411188e-13
   187    2.958858225526e-13
   188   -9.275406825982e-02
   189    1.905935963106e-11
   190   -3.274372649470e-12
   191    4.731248808864e-12
   192   -3.003806436707e-03
   193    1.036863923060e-14
   194    1.163299637678e-02
   195    7.303194441190e-03
   196   -3.567038195638e-15
   197    2.263439596245e-14
   198   -1.135217341014e-13
   199   -8.943952101562e-14
   200    3.830160147572e-13
   201    1.869139487059e-12
   202    1.866994339400e-15
   203    9.918019845202e-16
   204   -2.182478546507e-03
Sym=X
Ene= 2.001680
Spin=Alpha
Occup=1
     1   -6.252766974291e-03
     2   -1.000296007937e-02
     3   -3.317791033926e-02
     4    1.607906419319e-02
     5    1.856755891909e-13
     6    2.753015614899e-02
     7   -5.802905769215e-02
     8    2.760776651128e-02
     9    3.232871180083e-13
    10    8.820655208180e-03
    11   -2.445180537358e-02
    12    1.003003754088e-02
    13    1.495948826072e-13
    14   -1.846585087760e-01
    15   -5.856459251669e-02
    16   -7.513947315646e-02
    17    5.820930295872e-14
    18   -1.668806709218e-03
    19   -9.338982535133e-14
    20    4.764651610075e-14
    21    4.727157107350e-03
    22   -4.041487234590e-03
    23    6.885120018768e-03
    24    9.573197723636e-03
    25    1.549555560398e-02
    26   -2.934342441401e-03
    27    1.393676813297e-03
    28   -2.167241855249e-03
    29    3.450456000220e-14
    30   -6.055706538626e-03
    31   -1.235594030385e-02
    32   -7.837008660924e-03
    33   -3.695653537055e-02
    34   -1.411584315548e-03
    35   -2.870699207499e-05
    36    1.482690939019e-14
    37    6.224823317671e-03
    38   -7.284065892079e-04
    39   -7.643005308717e-03
    40   -1.832926365556e-02
    41    2.238111923238e-03
    42   -5.168380278380e-04
    43   -9.463465559074e-15
    44   -1.583501983746e-02
    45   -2.463830393870e-02
    46   -6.965264145130e-02
    47    8.013514922448e-02
    48    2.115048692859e-13
    49    7.134781135844e-02
    50   -1.075780678127e-01
    51    1.374343598313e-01
    52    3.924883690480e-13
    53    8.154869631246e-02
    54   -1.587901105007e-02
    55   -5.991941730829e-03
    56    2.219608604283e-13
    57    4.306423322456e-02
    58    3.351499644891e-03
    59   -3.203212776577e-02
    60   -1.165388038430e-13
    61   -5.448216275375e-03
    62   -1.006086434200e-13
    63   -2.402099751478e-14
    64    4.146901530925e-02
    65   -4.123924698613e-03
    66    7.401917451206e-04
    67    1.581585345038e-03
    68    9.524374214568e-02
    69   -2.485971224157e-01
    70    2.034411256081e-13
    71   -1.431273998659e-02
    72    1.070749274460e-01
    73   -2.832580190454e-01
    74    2.464729852057e-13
    75   -8.559276466745e-02
    76    1.994686022007e-02
    77   -1.718931458407e-01
    78    1.851582233308e-14
    79   -1.841058097066e-02
    80    1.825403918526e-03
    81    2.813937849437e-05
    82    1.149749229618e-13
    83   -8.700315786484e-03
    84    2.749770919581e-14
    85   -2.718528304820e-14
    86    4.084050034237e-03
    87   -1.642012462703e-02
    88   -1.607600392842e-02
    89   -2.670400810871e-02
    90    7.081898748618e-03
    91    9.301627331227e-03
    92   -9.867902849251e-14
    93    7.600161937063e-02
    94    1.178334697647e-02
    95    8.797538058448e-03
    96   -1.539005782223e-13
    97    8.448336048915e-02
    98   -3.491228458655e-02
    99    6.638166423938e-02
   100   -1.439928769528e-13
   101   -2.365278826683e-01
   102   -4.069468522424e-02
   103    1.144338372728e-01
   104    1.916444372736e-13
   105   -3.342123953888e-03
   106   -1.146377956813e-13
   107   -2.058762429828e-14
   108   -3.624337884299e-02
   109    2.314403494436e-02
   110    1.195958050827e-02
   111    2.027309608763e-02
   112   -1.226690323669e-01
   113    1.133047928993e-01
   114   -1.643180443480e-13
   115   -6.147344214586e-02
   116   -1.877467745359e-01
   117    1.759340303276e-01
   118   -2.572851769338e-13
   119   -7.942316500269e-02
   120   -1.592955038508e-01
   121    1.725959435630e-01
   122   -1.056869010741e-13
   123   -2.081360827590e-02
   124    5.906089361545e-03
   125    7.932393179992e-03
   126   -2.035875489344e-13
   127   -2.162683283246e-03
   128    2.105770911814e-14
   129    1.815431795250e-14
   130    1.077554126053e-02
   131   -1.254519311309e-03
   132    5.106963709408e-03
   133    9.409066998796e-03
   134   -2.339298110042e-02
   135    2.079804972092e-02
   136    6.339208377686e-14
   137   -2.753060379081e-02
   138   -3.247396553546e-02
   139    3.339699301853e-02
   140    1.134461897407e-13
   141   -8.095057865106e-02
   142   -6.766060901401e-02
   143    5.171492567206e-02
   144    6.979016642618e-14