[Molden Format]
[Atoms] (Angs)
  C      1    6     -0.13173890     -1.79208980      0.00000000
  H      2    1     -2.14962000     -1.30978739      0.00000000
  H      3    1     -0.31599560     -2.86503115      0.00000000
  H      4    1      0.14407746      2.04280963     -0.00000000
  C      5    6     -1.17258876      0.48030861      0.00000000
  O      6    8     -2.25008207      1.06833796      0.00000000
  C      7    6      1.31158357      0.28308717     -0.00000000
  O      8    8      2.36361668      0.96389345     -0.00000000
  N      9    7      0.07017030      1.03138997     -0.00000000
  N     10    7     -1.19586868     -0.94982644      0.00000000
  C     11    6      1.19165158     -1.13169473     -0.00000000
  H     12    1      2.09970506     -1.73445456     -0.00000000
[GTO]
1    0
S    6    1.000000
   4.56324000E+03    1.96665000E-03 
   6.82024000E+02    1.52306000E-02 
   1.54973000E+02    7.61269000E-02 
   4.44553000E+01    2.60801000E-01 
   1.30290000E+01    6.16462000E-01 
   1.82773000E+00    2.21006000E-01 
SP   3    1.000000
   2.09642000E+01    1.14660000E-01   4.02487000E-02 
   4.80331000E+00    9.19999000E-01   2.37594000E-01 
   1.45933000E+00   -3.03068000E-03   8.15854000E-01 
SP   1    1.000000
   4.83456000E-01    1.00000000E+00   1.00000000E+00 
SP   1    1.000000
   1.45585000E-01    1.00000000E+00   1.00000000E+00 
SP   1    1.000000
   4.38000000E-02    1.00000000E+00   1.00000000E+00 
D    1    1.000000
   6.26000000E-01    1.00000000E+00 

2    0
S    3    1.000000
   3.38650000E+01    2.54938000E-02 
   5.09479000E+00    1.90373000E-01 
   1.15879000E+00    8.52161000E-01 
S    1    1.000000
   3.25840000E-01    1.00000000E+00 
S    1    1.000000
   1.02741000E-01    1.00000000E+00 
S    1    1.000000
   3.60000000E-02    1.00000000E+00 
P    1    1.000000
   7.50000000E-01    1.00000000E+00 

3    0
S    3    1.000000
   3.38650000E+01    2.54938000E-02 
   5.09479000E+00    1.90373000E-01 
   1.15879000E+00    8.52161000E-01 
S    1    1.000000
   3.25840000E-01    1.00000000E+00 
S    1    1.000000
   1.02741000E-01    1.00000000E+00 
S    1    1.000000
   3.60000000E-02    1.00000000E+00 
P    1    1.000000
   7.50000000E-01    1.00000000E+00 

4    0
S    3    1.000000
   3.38650000E+01    2.54938000E-02 
   5.09479000E+00    1.90373000E-01 
   1.15879000E+00    8.52161000E-01 
S    1    1.000000
   3.25840000E-01    1.00000000E+00 
S    1    1.000000
   1.02741000E-01    1.00000000E+00 
S    1    1.000000
   3.60000000E-02    1.00000000E+00 
P    1    1.000000
   7.50000000E-01    1.00000000E+00 

5    0
S    6    1.000000
   4.56324000E+03    1.96665000E-03 
   6.82024000E+02    1.52306000E-02 
   1.54973000E+02    7.61269000E-02 
   4.44553000E+01    2.60801000E-01 
   1.30290000E+01    6.16462000E-01 
   1.82773000E+00    2.21006000E-01 
SP   3    1.000000
   2.09642000E+01    1.14660000E-01   4.02487000E-02 
   4.80331000E+00    9.19999000E-01   2.37594000E-01 
   1.45933000E+00   -3.03068000E-03   8.15854000E-01 
SP   1    1.000000
   4.83456000E-01    1.00000000E+00   1.00000000E+00 
SP   1    1.000000
   1.45585000E-01    1.00000000E+00   1.00000000E+00 
SP   1    1.000000
   4.38000000E-02    1.00000000E+00   1.00000000E+00 
D    1    1.000000
   6.26000000E-01    1.00000000E+00 

6    0
S    6    1.000000
   8.58850000E+03    1.89515000E-03 
   1.29723000E+03    1.43859000E-02 
   2.99296000E+02    7.07320000E-02 
   8.73771000E+01    2.40001000E-01 
   2.56789000E+01    5.94797000E-01 
   3.74004000E+00    2.80802000E-01 
SP   3    1.000000
   4.21175000E+01    1.13889000E-01   3.65114000E-02 
   9.62837000E+00    9.20811000E-01   2.37153000E-01 
   2.85332000E+00   -3.27447000E-03   8.19702000E-01 
SP   1    1.000000
   9.05661000E-01    1.00000000E+00   1.00000000E+00 
SP   1    1.000000
   2.55611000E-01    1.00000000E+00   1.00000000E+00 
SP   1    1.000000
   8.45000000E-02    1.00000000E+00   1.00000000E+00 
D    1    1.000000
   1.29200000E+00    1.00000000E+00 

7    0
S    6    1.000000
   4.56324000E+03    1.96665000E-03 
   6.82024000E+02    1.52306000E-02 
   1.54973000E+02    7.61269000E-02 
   4.44553000E+01    2.60801000E-01 
   1.30290000E+01    6.16462000E-01 
   1.82773000E+00    2.21006000E-01 
SP   3    1.000000
   2.09642000E+01    1.14660000E-01   4.02487000E-02 
   4.80331000E+00    9.19999000E-01   2.37594000E-01 
   1.45933000E+00   -3.03068000E-03   8.15854000E-01 
SP   1    1.000000
   4.83456000E-01    1.00000000E+00   1.00000000E+00 
SP   1    1.000000
   1.45585000E-01    1.00000000E+00   1.00000000E+00 
SP   1    1.000000
   4.38000000E-02    1.00000000E+00   1.00000000E+00 
D    1    1.000000
   6.26000000E-01    1.00000000E+00 

8    0
S    6    1.000000
   8.58850000E+03    1.89515000E-03 
   1.29723000E+03    1.43859000E-02 
   2.99296000E+02    7.07320000E-02 
   8.73771000E+01    2.40001000E-01 
   2.56789000E+01    5.94797000E-01 
   3.74004000E+00    2.80802000E-01 
SP   3    1.000000
   4.21175000E+01    1.13889000E-01   3.65114000E-02 
   9.62837000E+00    9.20811000E-01   2.37153000E-01 
   2.85332000E+00   -3.27447000E-03   8.19702000E-01 
SP   1    1.000000
   9.05661000E-01    1.00000000E+00   1.00000000E+00 
SP   1    1.000000
   2.55611000E-01    1.00000000E+00   1.00000000E+00 
SP   1    1.000000
   8.45000000E-02    1.00000000E+00   1.00000000E+00 
D    1    1.000000
   1.29200000E+00    1.00000000E+00 

9    0
S    6    1.000000
   6.29348000E+03    1.96979000E-03 
   9.49044000E+02    1.49613000E-02 
   2.18776000E+02    7.35006000E-02 
   6.36916000E+01    2.48937000E-01 
   1.88282000E+01    6.02460000E-01 
   2.72023000E+00    2.56202000E-01 
SP   3    1.000000
   3.06331000E+01    1.11906000E-01   3.83119000E-02 
   7.02614000E+00    9.21666000E-01   2.37403000E-01 
   2.11205000E+00   -2.56919000E-03   8.17592000E-01 
SP   1    1.000000
   6.84009000E-01    1.00000000E+00   1.00000000E+00 
SP   1    1.000000
   2.00878000E-01    1.00000000E+00   1.00000000E+00 
SP   1    1.000000
   6.39000000E-02    1.00000000E+00   1.00000000E+00 
D    1    1.000000
   9.13000000E-01    1.00000000E+00 

10    0
S    6    1.000000
   6.29348000E+03    1.96979000E-03 
   9.49044000E+02    1.49613000E-02 
   2.18776000E+02    7.35006000E-02 
   6.36916000E+01    2.48937000E-01 
   1.88282000E+01    6.02460000E-01 
   2.72023000E+00    2.56202000E-01 
SP   3    1.000000
   3.06331000E+01    1.11906000E-01   3.83119000E-02 
   7.02614000E+00    9.21666000E-01   2.37403000E-01 
   2.11205000E+00   -2.56919000E-03   8.17592000E-01 
SP   1    1.000000
   6.84009000E-01    1.00000000E+00   1.00000000E+00 
SP   1    1.000000
   2.00878000E-01    1.00000000E+00   1.00000000E+00 
SP   1    1.000000
   6.39000000E-02    1.00000000E+00   1.00000000E+00 
D    1    1.000000
   9.13000000E-01    1.00000000E+00 

11    0
S    6    1.000000
   4.56324000E+03    1.96665000E-03 
   6.82024000E+02    1.52306000E-02 
   1.54973000E+02    7.61269000E-02 
   4.44553000E+01    2.60801000E-01 
   1.30290000E+01    6.16462000E-01 
   1.82773000E+00    2.21006000E-01 
SP   3    1.000000
   2.09642000E+01    1.14660000E-01   4.02487000E-02 
   4.80331000E+00    9.19999000E-01   2.37594000E-01 
   1.45933000E+00   -3.03068000E-03   8.15854000E-01 
SP   1    1.000000
   4.83456000E-01    1.00000000E+00   1.00000000E+00 
SP   1    1.000000
   1.45585000E-01    1.00000000E+00   1.00000000E+00 
SP   1    1.000000
   4.38000000E-02    1.00000000E+00   1.00000000E+00 
D    1    1.000000
   6.26000000E-01    1.00000000E+00 

12    0
S    3    1.000000
   3.38650000E+01    2.54938000E-02 
   5.09479000E+00    1.90373000E-01 
   1.15879000E+00    8.52161000E-01 
S    1    1.000000
   3.25840000E-01    1.00000000E+00 
S    1    1.000000
   1.02741000E-01    1.00000000E+00 
S    1    1.000000
   3.60000000E-02    1.00000000E+00 
P    1    1.000000
   7.50000000E-01    1.00000000E+00 

[MO]
Sym=X
Ene= 2.003980
Spin=Alpha
Occup=1
     1    1.833803156855e-14
     2    8.450612512325e-16
     3   -1.031531455300e-14
     4   -7.664650635533e-14
     5    5.005393528691e-02
     6    9.401635680256e-14
     7   -3.112094940537e-14
     8   -1.073132064638e-13
     9    8.660666214285e-02
    10   -2.426593143155e-13
    11    2.412328906429e-13
    12   -2.190419550005e-13
    13    6.022121991760e-02
    14   -3.011518337206e-12
    15   -1.494858615228e-12
    16    2.309505775273e-13
    17    1.694332820235e-03
    18   -5.134992197052e-15
    19   -8.325311909981e-03
    20    8.587517369352e-03
    21   -1.853777149457e-14
    22   -5.308943794172e-15
    23   -5.044890926609e-14
    24   -1.839759613119e-13
    25    1.143772583182e-12
    26   -4.120315991662e-13
    27   -2.261182081575e-14
    28   -2.470859353913e-15
    29    8.175694003129e-03
    30    7.543935317268e-14
    31    6.732574166157e-14
    32    1.966082044318e-13
    33    3.993933250542e-13
    34   -4.459687043457e-16
    35    1.646626043061e-14
    36    4.040801963553e-03
    37    6.768595846368e-14
    38    1.789757757146e-13
    39    8.136647736631e-14
    40    2.946100951381e-13
    41   -2.651680061689e-15
    42   -1.382353996861e-14
    43   -1.217226181148e-02
    44   -8.481722309339e-14
    45   -5.736103359588e-14
    46    1.335076562986e-15
    47    2.163914379229e-14
    48    9.794376467940e-04
    49   -5.478135808955e-14
    50   -3.661630699570e-15
    51    6.830410214963e-14
    52    1.898921628612e-03
    53   -4.411529867106e-13
    54   -2.049346613245e-13
    55    3.177698360534e-13
    56    8.107919366710e-03
    57   -1.710293238020e-13
    58   -6.353120941815e-13
    59   -7.710237186935e-13
    60    9.676508507356e-03
    61    1.130299652301e-14
    62   -2.739487413845e-02
    63   -1.269146327787e-02
    64    1.561241612301e-14
    65   -2.345530310802e-14
    66    3.140491729916e-14
    67    7.223315761212e-15
    68    1.015819266389e-14
    69    4.902207404789e-14
    70    4.789085036368e-02
    71    1.160140656072e-13
    72    2.157075395489e-14
    73    6.891446011800e-14
    74    7.410127769994e-02
    75    5.422737734775e-14
    76   -1.148322687016e-13
    77   -1.953544241513e-14
    78    7.364992945146e-02
    79   -2.422367523125e-13
    80   -1.143493937445e-13
    81    1.614067800394e-15
    82    8.397488033918e-03
    83   -1.003362780386e-15
    84    2.942140565855e-03
    85   -2.084084150187e-03
    86    3.466597299392e-15
    87    3.889997783205e-15
    88   -1.930812692955e-14
    89    6.904695096494e-15
    90    2.295647967558e-14
    91    5.127633418336e-14
    92   -8.762297872036e-02
    93   -1.039335217676e-13
    94    6.895968556678e-14
    95    5.058373095699e-14
    96   -1.527974898555e-01
    97   -4.035960732875e-13
    98    3.954464484704e-13
    99    4.037682548595e-13
   100   -7.762826159074e-02
   101    6.009989881146e-12
   102   -1.587412377832e-13
   103   -1.173039380553e-12
   104   -3.458634104770e-02
   105   -3.625084131438e-15
   106   -8.961019322323e-03
   107   -2.488940903802e-02
   108    1.439587445511e-14
   109   -9.645689722005e-15
   110    6.265400880203e-15
   111    1.143418847886e-14
   112    3.096992746383e-14
   113   -7.753674100418e-14
   114   -2.408377937164e-01
   115   -5.053061424471e-14
   116    1.765298574591e-14
   117   -9.553619367355e-14
   118   -2.797857470432e-01
   119   -3.326440052248e-14
   120    1.259224216378e-13
   121   -1.626009734803e-14
   122   -1.881403079576e-01
   123   -4.759127952058e-13
   124   -7.594625289457e-14
   125    1.751227126108e-13
   126    5.891361969269e-03
   127   -2.562793109487e-15
   128    1.539349183187e-02
   129    8.693943820969e-03
   130   -3.379487330154e-15
   131    2.793560171356e-15
   132   -4.374629221774e-15
   133   -3.001130913391e-14
   134    1.756084347106e-14
   135    5.472007691150e-14
   136   -1.391252192153e-01
   137    1.245015462885e-13
   138    4.128270112488e-14
   139    1.139250204696e-13
   140   -2.266891872508e-01
   141    3.895728938858e-13
   142    1.221342896882e-13
   143   -3.277734386315e-13
   144   -2.309227055913e-01
   145    5.800204436349e-14
   146   -8.850278918024e-13
   147    1.797722701704e-13
   148   -1.582983034398e-02
   149   -1.788750420838e-15
   150   -3.267517663967e-03
   151    4.616624149971e-03
   152   -6.529196482651e-15
   153    2.072056205152e-15
   154   -7.362778835080e-15
   155    2.844505032459e-14
   156    4.642558261063e-14
   157   -1.775839987493e-14
   158    9.097384177480e-02
   159   -2.514108021118e-13
   160    6.034954192626e-14
   161   -1.030828644826e-14
   162    1.494708591225e-01
   163    3.796423203325e-13
   164    9.926592995530e-14
   165    6.808240974033e-14
   166    1.414955674921e-01
   167   -8.826977855572e-13
   168    1.585319309953e-12
   169    1.380482221505e-13
   170    8.358736910363e-03
   171    1.616702366882e-15
   172    4.190847333783e-03
   173   -2.469753985148e-03
   174   -1.857375061314e-15
   175    7.575899936435e-15
   176    1.639765161959e-13
   177    1.426713225321e-13
   178    9.011937777324e-14
   179   -7.853863673662e-14
   180    9.865906654339e-03
   181   -6.285408195178e-14
   182    1.133546584544e-13
   183   -1.299033052023e-13
   184    1.514232419196e-02
   185    5.509312980000e-13
   186    2.603814892521e-13
   187    2.095136095210e-13
   188    3.063211269217e-02
   189   -1.836863131307e-12
   190    7.876030876980e-14
   191   -2.615978087896e-12
   192    2.091641285977e-02
   193   -1.003292249640e-14
   194   -5.637421577740e-03
   195   -1.130303166543e-02
   196    1.619360204233e-14
   197   -1.302936735632e-14
   198    8.176742848300e-14
   199    8.672570893146e-14
   200   -4.414938410157e-13
   201   -5.769557669282e-13
   202   -1.194603612620e-14
   203   -4.540302207327e-16
   204    7.292412696144e-04
Sym=X
Ene= 2.002257
Spin=Alpha
Occup=1
     1    8.363460898700e-03
     2    1.354925886869e-02
     3   -1.331207896682e-02
     4   -7.318942387137e-03
     5   -1.009222030025e-14
     6   -3.505822140655e-02
     7   -2.462536466837e-02
     8   -1.403260806214e-02
     9    4.497381313462e-15
    10   -6.408443742382e-02
    11   -2.525754004693e-02
    12   -3.153981797845e-02
    13   -2.623463757701e-14
    14   -1.579933215675e-01
    15   -3.798879666227e-02
    16   -4.190196004976e-02
    17    1.251978871262e-14
    18    8.825091951198e-04
    19    4.205661062436e-14
    20   -1.503666329796e-14
    21   -2.637851270898e-03
    22   -8.499503564628e-04
    23   -3.517020294173e-04
    24   -2.493105279783e-03
    25   -1.094572881137e-02
    26    9.134982292870e-03
    27   -6.696687290501e-06
    28   -4.679761055797e-04
    29   -2.479645281303e-15
    30    2.884341871160e-03
    31    2.849102858501e-03
    32    4.173333113533e-03
    33   -1.448557348497e-02
    34   -1.028019131075e-03
    35   -9.729924181077e-04
    36    1.417003643902e-15
    37   -1.568741621912e-02
    38   -1.214639407251e-02
    39    2.370089218712e-02
    40   -5.376089061499e-02
    41    3.277460819759e-04
    42    2.210313852073e-03
    43   -1.794559889424e-14
    44   -8.895003068526e-03
    45   -1.484795103456e-02
    46    1.693703121078e-02
    47    1.219679705986e-02
    48   -9.131515420848e-14
    49    4.308799358088e-02
    50    2.780395308518e-02
    51    1.979346566123e-02
    52   -1.503236081363e-13
    53    5.822205206682e-02
    54    4.156332132146e-02
    55    2.606151361500e-02
    56   -1.005203309748e-13
    57    2.954548092123e-02
    58    1.881001555765e-02
    59    4.600676098680e-02
    60   -1.302560023844e-13
    61   -5.649279794376e-04
    62    6.006658545197e-14
    63   -3.227227604046e-14
    64   -1.019823596506e-02
    65   -2.153116997696e-03
    66    1.453629216260e-03
    67    2.481188560019e-03
    68    2.025350080999e-02
    69    3.739118877478e-02
    70   -5.171007291815e-15
    71   -7.461447452801e-03
    72    3.208544559014e-02
    73    5.777897254352e-02
    74   -4.097242280029e-14
    75   -9.445609298596e-03
    76    2.349392068004e-02
    77    5.016526035940e-02
    78    7.617248358548e-14
    79    1.044076739764e-02
    80    8.098612364577e-03
    81    1.480807620680e-03
    82    1.081053513062e-13
    83   -1.408144680238e-04
    84   -1.753248414212e-14
    85    6.553669286327e-15
    86    3.346690793023e-03
    87    1.673891187449e-03
    88   -6.105930699526e-03
    89   -9.165601970913e-03
    90   -2.156157616243e-03
    91   -5.580294648416e-04
    92   -2.976345901696e-14
    93    2.166003099720e-02
    94   -3.486031486305e-03
    95   -1.199040881565e-02
    96   -2.126213164265e-14
    97    3.039964732443e-02
    98   -2.774095216935e-02
    99    3.984835219890e-02
   100   -8.393745742852e-15
   101   -3.798050308158e-01
   102   -3.754421097849e-02
   103    1.949151325823e-01
   104    2.041759507819e-13
   105   -9.611715734038e-04
   106    5.576572644149e-14
   107   -2.056244712876e-14
   108   -4.700240643306e-02
   109    2.561348967237e-02
   110   -1.971184704270e-03
   111   -2.777741948744e-03
   112   -2.128183456351e-01
   113    3.161578986879e-01
   114   -1.939666549670e-14
   115    7.686173444732e-03
   116   -2.469541100197e-01
   117    3.668360637999e-01
   118   -2.209693079804e-14
   119    1.976236182288e-03
   120   -1.816695920560e-01
   121    2.714568187958e-01
   122   -1.436986555164e-15
   123   -3.699104455531e-03
   124    4.655262292837e-03
   125   -2.702172955161e-03
   126   -1.524041069973e-13
   127   -6.698386320390e-04
   128   -3.710818786526e-15
   129   -1.733829982938e-15
   130    1.429504986388e-02
   131   -6.248512915183e-03
   132    1.975096351523e-02
   133    3.247520548984e-02
   134   -3.678277599499e-02
   135    1.669700625657e-03
   136   -1.313637827744e-13
   137   -8.654108733567e-02
   138   -6.058735080766e-02
   139   -4.089985880484e-03
   140   -2.191096401518e-13
   141   -1.678568336801e-01
   142   -4.860716656759e-02
   143    2.292880559873e-02
   144   -1.963197962989e-13
   145   -1.628368534875e-01
   146    4.178963913487e-02
   147    4.964321262889e-03
   148   -5.515845963464e-14
   149   -1.110314672508e-03
   150   -1.846345881866e-14
   151    4.400065382026e-15
   152    3.592979952603e-03
   153    5.125820958589e-04
   154   -2.102827018595e-03
   155   -3.506362348842e-03
   156   -8.897615086730e-05
   157    4.479140975060e-03
   158   -1.065188371756e-13
   159    9.422566424070e-03
   160   -1.486406151475e-03
   161    6.676671362739e-03
   162   -1.716849400823e-13
   163    2.736870421412e-02
   164    2.523697281074e-03
   165    6.662671663396e-03
   166   -1.474517327877e-13
   167    7.228378926367e-02
   168   -2.539475969086e-03
   169    2.170710784355e-02
   170    2.580713736024e-14
   171    3.689871572370e-04
   172   -6.991887540373e-16
   173    1.195273818653e-14
   174   -1.323973811270e-03
   175    1.138858076716e-03
   176   -1.420594160134e-02
   177   -2.322777037593e-02
   178    2.259844605128e-02
   179    2.429375081989e-02
   180    1.132614764618e-14
   181    5.826754205668e-02
   182    4.052973525471e-02
   183    2.635093942474e-02
   184    6.769251344571e-14
   185    1.287368855697e-01
   186    6.320938032317e-03
   187    4.601793559304e-02
   188    8.301760810155e-15
   189    5.843485264355e-01
   190   -4.686785510392e-02
   191    9.664183721644e-02
   192   -2.915325990594e-14
   193    5.546384876279e-04
   194    1.144805279147e-15
   195   -1.241048333917e-14
   196    3.588389753494e-03
   197   -2.097812145719e-03
   198    1.869153404062e-02
   199    2.370496049389e-02
   200    6.027141780359e-03
   201    3.110505274926e-02
   202   -1.587428943721e-03
   203   -1.611081750767e-04
   204   -1.074951614065e-14
Sym=X
Ene= 2.001204
Spin=Alpha
Occup=1
     1   -8.131609625337e-03
     2   -1.331922206947e-02
     3   -6.348787274502e-03
     4    2.510896619147e-02
     5    5.857422734753e-14
     6    3.417969721516e-02
     7   -1.243751400179e-02
     8    4.070733682039e-02
     9    9.391421229451e-14
    10    4.516826932227e-02
    11   -1.470097832094e-02
    12    2.976172621578e-02
    13    2.146392351006e-14
    14   -2.204472129704e-02
    15   -3.339939943614e-02
    16   -1.152735367388e-02
    17   -1.844330297819e-14
    18   -2.012706376996e-03
    19   -3.184814705357e-14
    20    1.157255261468e-14
    21    3.548526684024e-03
    22    2.633121945118e-03
    23    5.114017325011e-03
    24    2.301050663979e-02
    25    3.502082789213e-02
    26   -3.317638629939e-02
    27    7.837208426954e-04
    28    1.403597416321e-03
    29    1.192671143709e-14
    30   -1.353637304375e-02
    31   -2.521304931549e-02
    32   -5.237934175589e-03
    33   -1.519463121690e-02
    34   -3.266121218477e-04
    35   -1.695324839820e-03
    36    5.219197550356e-15
    37   -7.913749754733e-03
    38   -1.557902115091e-02
    39   -2.626444621554e-02
    40    2.197722331362e-02
    41    2.039683188379e-03
    42    3.298486825624e-03
    43   -8.671534503679e-15
    44    7.705028909470e-03
    45    1.239181384223e-02
    46    1.022074290348e-02
    47   -2.873366913871e-03
    48   -3.173079072357e-13
    49   -3.756293753962e-02
    50    2.095204736278e-02
    51    1.042895550010e-03
    52   -5.301748505681e-13
    53   -4.051956703679e-02
    54   -6.226573266647e-02
    55   -1.034508131231e-01
    56   -3.734537733191e-13
    57    8.913919585714e-03
    58   -5.691015002545e-02
    59   -9.327764017660e-02
    60   -1.596386129468e-13
    61    2.302842197523e-05
    62    1.241658587728e-13
    63   -9.022761268061e-14
    64    6.053929647409e-02
    65    3.410174152394e-02
    66   -6.871892005439e-03
    67   -1.155463054266e-02
    68   -1.283752293412e-01
    69   -1.963643964629e-01
    70   -6.591451215003e-13
    71    3.349719881309e-02
    72   -1.987031861063e-01
    73   -3.034265041378e-01
    74   -1.030182238203e-12
    75    4.537114665298e-02
    76   -1.720331920504e-01
    77   -2.869640952166e-01
    78   -9.489118801448e-13
    79    1.211907421702e-02
    80   -4.922263278186e-03
    81   -1.746232270302e-02
    82   -4.071675253035e-14
    83    1.032870530050e-03
    84   -6.820282112520e-14
    85    2.597973404809e-14
    86   -1.366199267779e-02
    87   -6.038060413411e-03
    88    2.251191483731e-02
    89    2.921700154443e-02
    90   -4.642991887120e-02
    91   -5.460115129458e-02
    92   -5.725242034489e-14
    93   -5.887223597756e-02
    94   -7.464856074091e-02
    95   -9.254267115981e-02
    96   -1.061641205257e-13
    97   -5.037969187643e-02
    98   -1.106300997000e-02
    99   -8.182917170079e-03
   100   -7.237305213680e-14
   101   -8.566977942359e-02
   102    1.276736857109e-02
   103    1.507368940743e-02
   104    1.044356110514e-13
   105    5.695916475025e-03
   106   -2.062090651894e-14
   107   -5.922585078050e-15
   108   -1.220405551679e-02
   109   -3.453126350078e-03
   110    7.581047540391e-03
   111    1.064529185033e-02
   112    7.541389026651e-02
   113    1.249221436206e-01
   114   -1.709651505748e-13
   115   -3.221694622850e-02
   116    8.797967418928e-02
   117    1.444995114170e-01
   118   -2.114211417802e-13
   119    4.061940281396e-02
   120    2.483583515939e-02
   121    8.556918613925e-02
   122   -9.459750119912e-14
   123    1.416488436488e-02
   124    1.492009149636e-03
   125    1.067737556146e-03
   126   -8.798291458561e-14
   127    6.129020081146e-03
   128    1.143166736417e-14
   129    8.625953070712e-15
   130   -3.413906959564e-03
   131   -9.770137708488e-03
   132   -1.340193445028e-02
   133   -2.200483432278e-02
   134   -3.957295565782e-02
   135   -2.466148913466e-02
   136   -2.558318971432e-14
   137    5.538668810736e-02
   138   -5.196747432221e-02
   139   -2.985028246208e-02
   140   -5.466037442176e-14
   141    1.376275285123e-01
   142   -1.018125241251e-01
   143   -3.290297167256e-02
   144    6.049238765497e-14
   145    1.506394566107e-01
   146    3.557114142212e-03
   147    1.324414892771e-02
   148    6.608779944746e-14
   149    1.527505402264e-03
   150    2.607809509323e-14
   151    9.343321484556e-15
   152   -4.602252433794e-03
   153   -3.429578384273e-03
   154    1.689068826300e-02
   155    2.765790821887e-02
   156    2.967999732017e-03
   157   -5.479138621224e-02
   158    1.620268285119e-13
   159   -7.348345084066e-02
   160    8.537157623546e-03
   161   -8.314697253467e-02
   162    2.600106267989e-13
   163   -1.755866278719e-01
   164    5.084004226585e-03
   165   -9.827836629377e-02
   166    3.183644865954e-13
   167   -1.858747372804e-01
   168   -9.343795472310e-03
   169    1.446431008823e-03
   170    1.574479586064e-13
   171   -1.780726480129e-03
   172    8.556362463967e-15
   173   -2.183901335646e-14
   174    1.404536218319e-03
   175   -1.509575750236e-03
   176   -4.395427779401e-03
   177   -7.590924723868e-03
   178   -3.613406946483e-02
   179    4.105925804722e-02
   180   -5.185041492066e-14
   181    2.040235190451e-02
   182   -5.535299419133e-02
   183    6.136670609924e-02
   184   -7.141416283128e-14
   185    3.913685761392e-02
   186   -3.872104254124e-02
   187    5.252615492698e-02
   188   -9.283897009491e-14
   189    1.202480055260e-01
   190   -3.825209449153e-02
   191    1.081822047009e-02
   192   -5.087002503133e-14
   193   -7.378696881898e-04
   194   -4.210305328194e-15
   195   -4.931120354801e-15
   196   -1.641194505873e-03
   197    1.013340448915e-03
   198   -3.891695755747e-02
   199   -6.224321733711e-02
   200   -5.750713307240e-03
   201    1.502213865737e-02
   202    5.160088246843e-03
   203   -3.314534259960e-03
   204   -7.735736682670e-15
Sym=X
Ene= 2.000412
Spin=Alpha
Occup=1
     1    8.116880789329e-13
     2    7.606286325735e-13
     3   -2.084706362930e-13
     4   -2.066747152118e-14
     5   -3.056669694782e-02
     6   -4.563648908244e-13
     7   -3.738098489452e-13
     8   -4.468062849723e-14
     9   -5.245142739050e-02
    10    3.639619749689e-16
    11   -8.535607601453e-14
    12    2.366541227936e-13
    13   -4.276082966008e-02
    14    3.347568114668e-12
    15    6.249952014649e-13
    16    1.536633777171e-12
    17    4.891025289235e-05
    18    1.384604869052e-14
    19    2.577185113170e-03
    20   -4.786980694013e-03
    21   -2.874709754569e-14
    22   -4.077340782296e-14
    23   -2.355773649468e-13
    24   -3.607089755894e-13
    25    2.373906634477e-13
    26   -9.962756748727e-14
    27   -3.980226099729e-14
    28    8.745958274303e-16
    29   -1.614241165338e-03
    30   -3.995435243906e-14
    31   -1.285035835191e-14
    32    2.108646427984e-13
    33    6.761349227159e-13
    34   -1.819937181418e-14
    35   -9.800600128215e-15
    36   -2.352336820714e-03
    37   -2.663476616169e-13
    38   -3.837247557948e-13
    39   -2.689810351096e-15
    40    5.160491927267e-13
    41    1.950396989274e-14
    42    7.037769261328e-14
    43    2.679184959708e-03
    44    1.383556711338e-12
    45    1.083070823298e-12
    46   -2.026356298390e-13
    47   -2.245141118899e-13
    48    1.274621110690e-01
    49    3.702201894732e-13
    50   -3.414072914534e-13
    51   -3.372948655368e-13
    52    2.212496503941e-01
    53    4.849867218223e-13
    54   -1.206787842482e-13
    55   -5.787120542482e-13
    56    1.468932535618e-01
    57   -6.450926854393e-13
    58   -4.418072232429e-13
    59   -5.013086468588e-13
    60    4.051233306096e-02
    61   -1.813322918294e-14
    62   -4.012270269257e-02
    63    2.763737600878e-02
    64    1.573510156859e-13
    65    3.368914423209e-14
    66    3.072250254770e-13
    67    3.609387919584e-13
    68   -1.544557964199e-13
    69   -8.911140744711e-13
    70    2.318826845366e-01
    71   -5.813980672171e-13
    72   -2.722630767087e-13
    73   -1.369219651364e-12
    74    3.645525532439e-01
    75   -7.238356998893e-13
    76   -2.926409217699e-13
    77   -1.170603441323e-12
    78    3.273562306471e-01
    79    6.058032087779e-13
    80    1.867805065333e-13
    81   -1.860499836286e-13
    82    2.298559120650e-02
    83   -8.207632864213e-15
    84    2.303597767045e-02
    85   -1.272582948009e-02
    86   -4.755888434370e-14
    87   -5.489936992916e-14
    88    4.006081637764e-14
    89    1.122504830459e-13
    90   -6.815546456336e-14
    91   -7.543854449359e-14
    92   -1.671379262632e-03
    93   -4.152862682363e-13
    94   -1.388902349194e-13
    95   -1.364617595452e-13
    96   -2.236267250383e-03
    97    8.710118604965e-14
    98   -1.410948585116e-13
    99   -7.441386701710e-14
   100   -6.115223832779e-03
   101    7.959229162199e-12
   102   -3.904386288923e-13
   103   -2.521466250235e-12
   104   -5.383716871091e-03
   105    3.640377264011e-14
   106    2.025828256176e-04
   107    3.471481207860e-03
   108   -3.427206723996e-14
   109   -6.822259310945e-15
   110    6.227443609784e-14
   111    9.264634091193e-14
   112    1.182062875788e-13
   113    3.541328005521e-13
   114    1.366328580169e-02
   115   -3.110248276585e-13
   116    1.351473442031e-13
   117    4.274814837929e-13
   118    1.580020738452e-02
   119    7.871891969544e-14
   120    3.679501411773e-15
   121    2.043080236957e-13
   122    1.112569995008e-02
   123   -3.205472320469e-13
   124    8.565855119241e-14
   125    2.616479509710e-13
   126    1.058653357397e-02
   127    1.560598162431e-14
   128   -2.745487136182e-04
   129   -1.812290159401e-04
   130   -3.739998176927e-15
   131   -2.474681646063e-14
   132   -8.735235846047e-13
   133   -5.989135891904e-13
   134   -3.170541514871e-14
   135   -1.919541512060e-13
   136    2.951456880884e-02
   137   -7.393525710999e-13
   138   -2.981280026259e-14
   139   -2.665299894610e-13
   140    5.295789911789e-02
   141   -4.545841440841e-13
   142   -1.969215325022e-13
   143   -8.957166305772e-14
   144    1.707512041749e-02