[Molden Format]
[Atoms] (Angs)
  C      1    6     -0.13173890     -1.79208980      0.00000000
  H      2    1     -2.14962000     -1.30978739      0.00000000
  H      3    1     -0.31599560     -2.86503115      0.00000000
  H      4    1      0.14407746      2.04280963     -0.00000000
  C      5    6     -1.17258876      0.48030861      0.00000000
  O      6    8     -2.25008207      1.06833796      0.00000000
  C      7    6      1.31158357      0.28308717     -0.00000000
  O      8    8      2.36361668      0.96389345     -0.00000000
  N      9    7      0.07017030      1.03138997     -0.00000000
  N     10    7     -1.19586868     -0.94982644      0.00000000
  C     11    6      1.19165158     -1.13169473     -0.00000000
  H     12    1      2.09970506     -1.73445456     -0.00000000
[GTO]
1    0
S    6    1.000000
   4.56324000E+03    1.96665000E-03 
   6.82024000E+02    1.52306000E-02 
   1.54973000E+02    7.61269000E-02 
   4.44553000E+01    2.60801000E-01 
   1.30290000E+01    6.16462000E-01 
   1.82773000E+00    2.21006000E-01 
SP   3    1.000000
   2.09642000E+01    1.14660000E-01   4.02487000E-02 
   4.80331000E+00    9.19999000E-01   2.37594000E-01 
   1.45933000E+00   -3.03068000E-03   8.15854000E-01 
SP   1    1.000000
   4.83456000E-01    1.00000000E+00   1.00000000E+00 
SP   1    1.000000
   1.45585000E-01    1.00000000E+00   1.00000000E+00 
SP   1    1.000000
   4.38000000E-02    1.00000000E+00   1.00000000E+00 
D    1    1.000000
   6.26000000E-01    1.00000000E+00 

2    0
S    3    1.000000
   3.38650000E+01    2.54938000E-02 
   5.09479000E+00    1.90373000E-01 
   1.15879000E+00    8.52161000E-01 
S    1    1.000000
   3.25840000E-01    1.00000000E+00 
S    1    1.000000
   1.02741000E-01    1.00000000E+00 
S    1    1.000000
   3.60000000E-02    1.00000000E+00 
P    1    1.000000
   7.50000000E-01    1.00000000E+00 

3    0
S    3    1.000000
   3.38650000E+01    2.54938000E-02 
   5.09479000E+00    1.90373000E-01 
   1.15879000E+00    8.52161000E-01 
S    1    1.000000
   3.25840000E-01    1.00000000E+00 
S    1    1.000000
   1.02741000E-01    1.00000000E+00 
S    1    1.000000
   3.60000000E-02    1.00000000E+00 
P    1    1.000000
   7.50000000E-01    1.00000000E+00 

4    0
S    3    1.000000
   3.38650000E+01    2.54938000E-02 
   5.09479000E+00    1.90373000E-01 
   1.15879000E+00    8.52161000E-01 
S    1    1.000000
   3.25840000E-01    1.00000000E+00 
S    1    1.000000
   1.02741000E-01    1.00000000E+00 
S    1    1.000000
   3.60000000E-02    1.00000000E+00 
P    1    1.000000
   7.50000000E-01    1.00000000E+00 

5    0
S    6    1.000000
   4.56324000E+03    1.96665000E-03 
   6.82024000E+02    1.52306000E-02 
   1.54973000E+02    7.61269000E-02 
   4.44553000E+01    2.60801000E-01 
   1.30290000E+01    6.16462000E-01 
   1.82773000E+00    2.21006000E-01 
SP   3    1.000000
   2.09642000E+01    1.14660000E-01   4.02487000E-02 
   4.80331000E+00    9.19999000E-01   2.37594000E-01 
   1.45933000E+00   -3.03068000E-03   8.15854000E-01 
SP   1    1.000000
   4.83456000E-01    1.00000000E+00   1.00000000E+00 
SP   1    1.000000
   1.45585000E-01    1.00000000E+00   1.00000000E+00 
SP   1    1.000000
   4.38000000E-02    1.00000000E+00   1.00000000E+00 
D    1    1.000000
   6.26000000E-01    1.00000000E+00 

6    0
S    6    1.000000
   8.58850000E+03    1.89515000E-03 
   1.29723000E+03    1.43859000E-02 
   2.99296000E+02    7.07320000E-02 
   8.73771000E+01    2.40001000E-01 
   2.56789000E+01    5.94797000E-01 
   3.74004000E+00    2.80802000E-01 
SP   3    1.000000
   4.21175000E+01    1.13889000E-01   3.65114000E-02 
   9.62837000E+00    9.20811000E-01   2.37153000E-01 
   2.85332000E+00   -3.27447000E-03   8.19702000E-01 
SP   1    1.000000
   9.05661000E-01    1.00000000E+00   1.00000000E+00 
SP   1    1.000000
   2.55611000E-01    1.00000000E+00   1.00000000E+00 
SP   1    1.000000
   8.45000000E-02    1.00000000E+00   1.00000000E+00 
D    1    1.000000
   1.29200000E+00    1.00000000E+00 

7    0
S    6    1.000000
   4.56324000E+03    1.96665000E-03 
   6.82024000E+02    1.52306000E-02 
   1.54973000E+02    7.61269000E-02 
   4.44553000E+01    2.60801000E-01 
   1.30290000E+01    6.16462000E-01 
   1.82773000E+00    2.21006000E-01 
SP   3    1.000000
   2.09642000E+01    1.14660000E-01   4.02487000E-02 
   4.80331000E+00    9.19999000E-01   2.37594000E-01 
   1.45933000E+00   -3.03068000E-03   8.15854000E-01 
SP   1    1.000000
   4.83456000E-01    1.00000000E+00   1.00000000E+00 
SP   1    1.000000
   1.45585000E-01    1.00000000E+00   1.00000000E+00 
SP   1    1.000000
   4.38000000E-02    1.00000000E+00   1.00000000E+00 
D    1    1.000000
   6.26000000E-01    1.00000000E+00 

8    0
S    6    1.000000
   8.58850000E+03    1.89515000E-03 
   1.29723000E+03    1.43859000E-02 
   2.99296000E+02    7.07320000E-02 
   8.73771000E+01    2.40001000E-01 
   2.56789000E+01    5.94797000E-01 
   3.74004000E+00    2.80802000E-01 
SP   3    1.000000
   4.21175000E+01    1.13889000E-01   3.65114000E-02 
   9.62837000E+00    9.20811000E-01   2.37153000E-01 
   2.85332000E+00   -3.27447000E-03   8.19702000E-01 
SP   1    1.000000
   9.05661000E-01    1.00000000E+00   1.00000000E+00 
SP   1    1.000000
   2.55611000E-01    1.00000000E+00   1.00000000E+00 
SP   1    1.000000
   8.45000000E-02    1.00000000E+00   1.00000000E+00 
D    1    1.000000
   1.29200000E+00    1.00000000E+00 

9    0
S    6    1.000000
   6.29348000E+03    1.96979000E-03 
   9.49044000E+02    1.49613000E-02 
   2.18776000E+02    7.35006000E-02 
   6.36916000E+01    2.48937000E-01 
   1.88282000E+01    6.02460000E-01 
   2.72023000E+00    2.56202000E-01 
SP   3    1.000000
   3.06331000E+01    1.11906000E-01   3.83119000E-02 
   7.02614000E+00    9.21666000E-01   2.37403000E-01 
   2.11205000E+00   -2.56919000E-03   8.17592000E-01 
SP   1    1.000000
   6.84009000E-01    1.00000000E+00   1.00000000E+00 
SP   1    1.000000
   2.00878000E-01    1.00000000E+00   1.00000000E+00 
SP   1    1.000000
   6.39000000E-02    1.00000000E+00   1.00000000E+00 
D    1    1.000000
   9.13000000E-01    1.00000000E+00 

10    0
S    6    1.000000
   6.29348000E+03    1.96979000E-03 
   9.49044000E+02    1.49613000E-02 
   2.18776000E+02    7.35006000E-02 
   6.36916000E+01    2.48937000E-01 
   1.88282000E+01    6.02460000E-01 
   2.72023000E+00    2.56202000E-01 
SP   3    1.000000
   3.06331000E+01    1.11906000E-01   3.83119000E-02 
   7.02614000E+00    9.21666000E-01   2.37403000E-01 
   2.11205000E+00   -2.56919000E-03   8.17592000E-01 
SP   1    1.000000
   6.84009000E-01    1.00000000E+00   1.00000000E+00 
SP   1    1.000000
   2.00878000E-01    1.00000000E+00   1.00000000E+00 
SP   1    1.000000
   6.39000000E-02    1.00000000E+00   1.00000000E+00 
D    1    1.000000
   9.13000000E-01    1.00000000E+00 

11    0
S    6    1.000000
   4.56324000E+03    1.96665000E-03 
   6.82024000E+02    1.52306000E-02 
   1.54973000E+02    7.61269000E-02 
   4.44553000E+01    2.60801000E-01 
   1.30290000E+01    6.16462000E-01 
   1.82773000E+00    2.21006000E-01 
SP   3    1.000000
   2.09642000E+01    1.14660000E-01   4.02487000E-02 
   4.80331000E+00    9.19999000E-01   2.37594000E-01 
   1.45933000E+00   -3.03068000E-03   8.15854000E-01 
SP   1    1.000000
   4.83456000E-01    1.00000000E+00   1.00000000E+00 
SP   1    1.000000
   1.45585000E-01    1.00000000E+00   1.00000000E+00 
SP   1    1.000000
   4.38000000E-02    1.00000000E+00   1.00000000E+00 
D    1    1.000000
   6.26000000E-01    1.00000000E+00 

12    0
S    3    1.000000
   3.38650000E+01    2.54938000E-02 
   5.09479000E+00    1.90373000E-01 
   1.15879000E+00    8.52161000E-01 
S    1    1.000000
   3.25840000E-01    1.00000000E+00 
S    1    1.000000
   1.02741000E-01    1.00000000E+00 
S    1    1.000000
   3.60000000E-02    1.00000000E+00 
P    1    1.000000
   7.50000000E-01    1.00000000E+00 

[MO]
Sym=X
Ene= 2.009952
Spin=Alpha
Occup=1
     1    1.715474895677e-14
     2    1.470203372605e-14
     3    3.336489798908e-14
     4   -2.270048241096e-14
     5    7.067479441178e-02
     6    3.306372677131e-14
     7    2.750288154225e-14
     8   -4.527851545354e-14
     9    1.229917869703e-01
    10   -5.817748256812e-13
    11    3.544748741484e-13
    12   -1.693676938535e-13
    13    1.152187889930e-01
    14    1.899806143843e-12
    15   -1.249516839277e-12
    16    2.295521041902e-12
    17    8.259205697222e-03
    18   -4.215462146142e-15
    19    1.140376634539e-02
    20    8.705279518061e-03
    21   -3.117472352138e-14
    22   -3.300259335348e-15
    23   -4.177055960102e-15
    24   -1.900532847181e-13
    25    1.681290995359e-12
    26   -5.950500088279e-13
    27   -2.570720182345e-14
    28    2.080028227244e-15
    29   -8.016554420308e-04
    30    1.631696512913e-14
    31   -4.363019795319e-14
    32    4.450459984953e-13
    33    1.219569412074e-12
    34    4.701770225144e-15
    35    9.152007921835e-15
    36    5.762342492021e-03
    37    4.073854676659e-14
    38    1.785005121538e-13
    39    4.253041496972e-13
    40    5.269446402041e-13
    41   -3.154227901411e-15
    42   -1.143134492463e-14
    43   -2.269742985658e-03
    44   -4.128178023526e-14
    45   -2.655916481662e-14
    46    2.875305933299e-14
    47   -2.608415380113e-14
    48   -5.206003187517e-03
    49   -2.097155477877e-14
    50    2.061912366705e-14
    51    2.629046486666e-14
    52   -1.168064866219e-02
    53   -6.845472010801e-13
    54   -2.706333392315e-13
    55    4.516375114107e-13
    56   -2.799075158878e-04
    57   -2.308609613637e-12
    58   -1.465825862502e-12
    59   -7.646014896234e-13
    60    1.383461804151e-02
    61    8.613216830277e-15
    62   -4.413071599983e-03
    63    1.881771502286e-03
    64    1.285704171415e-14
    65   -3.000878287109e-14
    66   -1.099064306501e-14
    67   -5.989632458298e-15
    68    2.559393776621e-15
    69    5.502653250714e-14
    70    1.460514897281e-02
    71   -2.348261852013e-14
    72    1.366861085466e-14
    73    7.618667413978e-14
    74    2.248993290299e-02
    75   -9.878445451329e-14
    76   -2.072062064821e-13
    77   -6.119089936766e-14
    78    2.532904130618e-02
    79   -1.491683142586e-13
    80   -5.935340996401e-14
    81   -6.565737401112e-14
    82   -9.028711909970e-04
    83    1.448985799234e-15
    84    6.726880282624e-04
    85   -1.902571367615e-04
    86    7.457650162293e-16
    87    7.726624769062e-15
    88    4.776254261351e-14
    89    5.381463632460e-14
    90    8.286886766290e-15
    91    1.902547331029e-14
    92   -4.965604158234e-02
    93   -5.169333120563e-14
    94    3.877424795662e-14
    95   -1.617332301966e-14
    96   -8.701700776757e-02
    97   -3.814350493561e-13
    98    7.726875272161e-13
    99    5.844610328841e-13
   100   -5.101190489980e-02
   101    1.412358105341e-11
   102   -1.196371186017e-12
   103   -2.543320735044e-12
   104   -3.366255649513e-02
   105   -1.107809957220e-14
   106   -3.232325025678e-02
   107   -3.776371824803e-02
   108    8.019669672556e-15
   109    5.014460926077e-15
   110    3.348033212045e-15
   111    7.212431754052e-15
   112    2.346752957702e-14
   113   -1.258858118699e-14
   114   -3.441989187727e-01
   115   -4.518536322079e-14
   116   -1.915624255224e-15
   117   -2.362497859200e-14
   118   -3.948576771061e-01
   119   -5.294752021257e-14
   120    1.858677266471e-13
   121    8.155317529598e-14
   122   -2.652569841031e-01
   123   -1.027045654700e-12
   124   -2.174543545280e-14
   125    4.006510841976e-13
   126   -1.739872915781e-02
   127   -2.326174430209e-15
   128    1.844713592432e-02
   129    1.076278481167e-02
   130   -4.027570924856e-15
   131    5.962030538002e-16
   132   -2.192812068161e-15
   133   -2.349976928507e-14
   134    1.218945603649e-14
   135    2.227904705350e-14
   136   -2.213498967745e-02
   137    7.190536394884e-14
   138    3.124624725813e-14
   139    7.653563674802e-14
   140   -3.749254031868e-02
   141    4.847139372039e-13
   142    2.035671901336e-13
   143   -5.897322034552e-13
   144   -3.025398779090e-02
   145    4.522095898974e-14
   146   -1.562508999781e-12
   147   -1.581483813994e-13
   148    8.616218727132e-03
   149   -1.149221934937e-15
   150   -2.504436885708e-03
   151    1.338228525913e-03
   152   -1.023493923588e-14
   153    1.916290297506e-15
   154   -1.338614206108e-14
   155    3.134077449844e-15
   156    1.824974253438e-14
   157    1.077483045477e-14
   158    2.196822940621e-03
   159   -1.947300894642e-13
   160    8.541925237602e-15
   161    4.441931377250e-14
   162    5.383105496612e-03
   163    7.847939031017e-13
   164    8.464997293909e-14
   165    1.289113932310e-13
   166   -2.299979018544e-02
   167   -2.011239053311e-12
   168    2.144401339046e-12
   169    1.549807198237e-13
   170   -3.071714328263e-02
   171   -4.107524307458e-15
   172    5.877445499441e-03
   173   -4.546320652786e-03
   174    4.537522293546e-15
   175    1.990604053581e-14
   176    8.240114365287e-14
   177    6.777255146148e-14
   178    4.889432630327e-14
   179   -3.567062127025e-14
   180    8.623637301472e-02
   181   -6.342464021612e-14
   182    3.845406793284e-14
   183   -5.988877835971e-14
   184    1.456802288640e-01
   185    1.057804656557e-12
   186    2.610532448823e-13
   187    2.663862711066e-13
   188    1.730863792651e-01
   189   -1.154465414642e-11
   190    2.613538974347e-12
   191   -5.026034771478e-12
   192    3.318186351869e-02
   193   -2.399066899283e-14
   194   -1.191234881462e-02
   195   -4.752981275691e-03
   196    2.253109488586e-14
   197   -1.884969212017e-14
   198    3.433697905015e-14
   199   -3.573310180240e-14
   200   -8.602472860530e-13
   201   -1.854260957988e-12
   202    1.215421674675e-15
   203   -1.011136388648e-14
   204    6.396461121023e-03
Sym=X
Ene= 2.004806
Spin=Alpha
Occup=1
     1    2.062638997644e-14
     2    3.501632730424e-14
     3    3.047885317504e-14
     4    4.017196617366e-14
     5   -8.576747885724e-03
     6   -9.236702598793e-14
     7    4.293743886357e-14
     8    4.315633274416e-14
     9   -1.527718087541e-02
    10   -1.400052580954e-13
    11    4.470863591547e-14
    12    1.391711384324e-13
    13    2.621434472705e-02
    14    4.568250666823e-12
    15    7.538959267373e-13
    16    1.526520732442e-12
    17    5.651627430350e-03
    18    1.943535080957e-15
    19    2.893481456541e-02
    20   -7.451321993971e-03
    21   -7.413368169468e-15
    22   -1.002644409224e-15
    23    1.621358797624e-14
    24   -1.977812143778e-15
    25    1.747964722744e-13
    26   -1.197869718374e-13
    27   -1.490908897991e-15
    28    3.746197459093e-15
    29   -1.408756182452e-02
    30   -4.462866361260e-14
    31   -5.965882050592e-14
    32    2.276532683540e-13
    33    6.719480890106e-13
    34    3.273038308267e-15
    35   -8.443416862052e-15
    36   -3.693308435487e-04
    37   -3.959305699554e-15
    38    2.041606525765e-15
    39    3.022433494189e-13
    40    5.586674720758e-14
    41   -2.207624744959e-15
    42   -2.251368299022e-15
    43    1.292799005326e-02
    44   -6.223236271843e-15
    45   -2.718347490148e-15
    46    6.597835790115e-14
    47   -6.701685583126e-14
    48   -8.715314432094e-03
    49   -2.223823854518e-14
    50    9.875994023918e-14
    51   -9.483575955885e-14
    52   -1.891556019105e-02
    53   -8.474218990687e-14
    54    4.081796688480e-14
    55   -1.914473499898e-14
    56   -1.222689085876e-02
    57   -1.223803883013e-12
    58   -3.851378731430e-13
    59    1.307545890029e-13
    60    5.896917544536e-03
    61   -1.554551674164e-15
    62    2.527751445114e-02
    63    2.505253689279e-02
    64   -2.221377696674e-14
    65    2.993696058402e-15
    66   -6.187842195903e-14
    67   -2.640345011394e-14
    68   -3.959939017491e-14
    69    6.019386894283e-14
    70   -2.462817621251e-02
    71   -1.548998117502e-13
    72   -5.876972340369e-14
    73    8.835810757255e-14
    74   -3.827579544864e-02
    75   -1.048691056468e-13
    76   -4.718544943280e-14
    77    6.342693155266e-14
    78   -3.321879743295e-02
    79    1.753581984133e-13
    80    5.327960376442e-14
    81   -7.275723060067e-14
    82   -3.908519001727e-03
    83    6.444040281648e-15
    84   -1.903101668382e-03
    85    1.781917392058e-03
    86   -4.749713242638e-15
    87    8.810106962361e-15
    88    6.669619290550e-14
    89    3.466518759204e-14
    90   -1.825050314128e-15
    91   -2.546340373578e-14
    92    9.262158779138e-02
    93    1.109928591522e-13
    94   -1.510615480484e-14
    95   -4.529439585722e-14
    96    1.669730896173e-01
    97    1.682002922136e-13
    98    1.620854118628e-13
    99    1.077014682645e-14
   100    8.990473777328e-02
   101    2.852595018008e-12
   102   -8.420782063897e-13
   103   -1.549194742559e-13
   104    9.481891281359e-03
   105   -1.037097596210e-14
   106   -1.900651829896e-02
   107   -9.992178889821e-04
   108   -7.425595812896e-15
   109    8.309300914649e-15
   110   -1.248072838286e-14
   111   -1.879930465178e-14
   112   -3.824192024084e-14
   113    3.643711802618e-14
   114   -2.934871877802e-02
   115    6.005529695674e-14
   116   -4.861212829698e-14
   117    3.939068293093e-14
   118   -2.766831462109e-02
   119    5.109924687340e-15
   120   -1.834172047226e-15
   121    5.502259225777e-14
   122   -3.380199630110e-02
   123   -1.960268320715e-13
   124    3.706716898904e-14
   125    1.275320296613e-13
   126   -2.942665206766e-02
   127   -1.868380548104e-15
   128   -6.492003333684e-03
   129   -4.000821765251e-03
   130    1.696740135320e-15
   131    1.350634566300e-15
   132   -1.568241007680e-14
   133   -2.075938926390e-14
   134    2.258222100127e-15
   135   -1.979576957085e-14
   136    1.626560138586e-01
   137    2.618711082161e-14
   138   -1.202437445567e-15
   139   -3.024271543759e-14
   140    2.667261380258e-01
   141    1.977422050955e-15
   142    5.539801200385e-14
   143   -8.760480760686e-14
   144    2.647965518428e-01
   145   -1.484421845995e-13
   146   -4.298033860238e-13
   147   -4.286124080031e-13
   148    1.580998988808e-02
   149   -1.127795370772e-15
   150    6.107724710681e-03
   151   -7.160848646870e-03
   152   -3.804696659810e-15
   153    1.070481986684e-15
   154   -2.577474781004e-14
   155   -4.199086882378e-14
   156   -7.166794535214e-15
   157    5.556834541209e-14
   158   -1.592353978866e-01
   159    9.766318962579e-14
   160   -1.114755212893e-14
   161    9.348637047453e-14
   162   -2.602691086970e-01
   163    1.476669325170e-13
   164   -3.169322987745e-14
   165    5.618994819299e-14
   166   -2.760508392285e-01
   167   -8.109509277422e-13
   168    2.931705105678e-14
   169   -1.770643994197e-13
   170   -4.412780149456e-02
   171   -2.487796158346e-15
   172   -2.780221015745e-03
   173   -1.114160128392e-03
   174    1.698610991073e-15
   175    8.737520086514e-15
   176    1.457966914770e-14
   177   -3.721083648247e-15
   178   -1.061737412374e-14
   179    3.358860837262e-14
   180    8.427936285760e-02
   181    5.705048996966e-14
   182   -1.559869857655e-14
   183    5.941520831520e-14
   184    1.444667320356e-01
   185    1.937895419451e-13
   186    3.859757283613e-14
   187   -6.228083373139e-14
   188    1.482531694871e-01
   189   -5.639914561190e-12
   190    2.153457154698e-12
   191   -5.223202227627e-13
   192    1.361860327481e-02
   193   -7.178688789205e-15
   194   -3.227141379046e-03
   195    1.232661580340e-02
   196   -1.366503368654e-15
   197   -2.450546982622e-15
   198   -1.178908349489e-14
   199   -4.805726993899e-14
   200   -2.596223353442e-13
   201   -6.824673579222e-13
   202    8.137163893049e-15
   203   -1.611871314595e-15
   204    6.745758431403e-03
Sym=X
Ene= 2.002750
Spin=Alpha
Occup=1
     1    1.015049070135e-02
     2    1.688999932761e-02
     3   -3.677603067208e-02
     4   -2.219723420337e-02
     5    2.481914364928e-15
     6   -4.609536129226e-02
     7   -6.344314785010e-02
     8   -3.746345290078e-02
     9    2.681699655662e-14
    10   -6.837425648595e-02
    11   -4.292366562598e-02
    12   -5.143667612563e-02
    13   -2.345852662620e-14
    14   -1.749489079331e-01
    15   -5.390517843553e-02
    16   -4.501751916740e-02
    17    2.842930766242e-14
    18    8.481576040564e-04
    19    3.642664123039e-14
    20   -1.151071733598e-14
    21   -6.260206040481e-03
    22   -1.645727705321e-03
    23   -2.527275269771e-03
    24   -5.889697360124e-03
    25    1.452624407853e-03
    26    6.329219923688e-03
    27   -6.083061014372e-06
    28   -8.550340065873e-06
    29    8.280676539881e-16
    30    1.636984564467e-02
    31    2.270348620703e-02
    32    6.805590105642e-03
    33   -2.107171595919e-02
    34   -1.764555463657e-03
    35    4.699556352001e-04
    36    2.771709277128e-15
    37    4.746099833847e-03
    38    1.592276461198e-02
    39    8.663576426434e-03
    40   -4.140710251458e-02
    41   -1.844070708510e-03
    42    3.605972569124e-05
    43   -1.651045651722e-14
    44   -1.210660262485e-02
    45   -2.002755439940e-02
    46    3.342467927628e-02
    47    1.421735021500e-02
    48   -9.805551079449e-14
    49    5.620697412678e-02
    50    5.610583330662e-02
    51    2.301196727673e-02
    52   -1.633832780945e-13
    53    6.103568402050e-02
    54    4.240678836229e-02
    55   -3.856881749333e-03
    56   -1.093704306581e-13
    57    4.429438807587e-02
    58    1.299130906318e-02
    59    2.348852040797e-02
    60   -1.565765168803e-13
    61   -1.137469896477e-03
    62    7.124932920619e-14
    63   -4.117926475961e-14
    64   -3.494269917980e-03
    65    9.154285419604e-03
    66    2.684903125901e-03
    67    4.486697012094e-03
    68   -6.533834975625e-03
    69    1.085120346626e-02
    70   -5.214487276920e-14
    71   -1.282504760853e-02
    72   -8.330019091017e-03
    73    1.602970652671e-02
    74   -1.126457835603e-13
    75   -3.739419493213e-03
    76   -9.669967715780e-03
    77    8.159531298377e-03
    78    1.217191131572e-15
    79    2.463976475983e-02
    80    8.377260139807e-03
    81   -2.900722118186e-03
    82    1.190394341045e-13
    83    3.025807497694e-04
    84   -2.082816857460e-14
    85    8.080234577169e-15
    86    1.251610171257e-03
    87    1.385058435846e-03
    88   -6.285078419362e-03
    89   -1.121557077347e-02
    90    2.674545508194e-02
    91   -5.953772698332e-02
    92   -2.677386456419e-14
    93    3.411298343054e-02
    94    4.634280921889e-02
    95   -1.082964762008e-01
    96   -1.908558147837e-14
    97    4.336029008794e-02
    98   -1.461356708767e-02
    99    1.725457770700e-02
   100   -1.011266506536e-14
   101   -2.831335939585e-01
   102   -1.730712976547e-02
   103    1.369527168126e-01
   104    2.589755943423e-13
   105    1.016390763399e-03
   106    5.607574305185e-14
   107   -2.024782836186e-14
   108   -5.280943854877e-02
   109    3.116511207539e-02
   110   -3.726249070894e-03
   111   -5.331303280970e-03
   112   -1.922844660205e-01
   113    2.976538663834e-01
   114    9.419713741581e-16
   115    1.642468049694e-02
   116   -2.205925757690e-01
   117    3.412711291071e-01
   118   -4.012951518270e-16
   119    6.954085211577e-03
   120   -1.595105797733e-01
   121    2.465685401004e-01
   122    2.626241230553e-14
   123   -1.629059525904e-02
   124    6.105974443544e-03
   125    4.889334759018e-03
   126   -1.847794511628e-13
   127   -3.362608276270e-04
   128   -4.368026406362e-15
   129   -2.085831916426e-15
   130    1.068836312763e-02
   131   -5.190925489451e-03
   132    1.938106521876e-02
   133    3.203714117098e-02
   134   -8.278252658878e-02
   135    2.815734856006e-02
   136   -1.146323269452e-13
   137   -8.685789426063e-02
   138   -1.331514969182e-01
   139    3.987613834586e-02
   140   -1.940117027273e-13
   141   -1.591334252053e-01
   142   -1.066324447851e-01
   143    5.849959512241e-02
   144   -1.585426858557e-13
   145   -1.128401026412e-01
   146    5.632562448312e-02
   147    2.682465415892e-02
   148   -6.215799974387e-14
   149   -5.737054701681e-04
   150   -1.902690738248e-14
   151    4.799546918904e-15
   152   -7.262857318559e-04
   153    4.614852333916e-03
   154   -6.602895605695e-04
   155   -1.155417591550e-03
   156    3.217178316274e-03
   157   -3.183656762339e-03
   158   -6.038205866686e-14
   159    3.856163206965e-03
   160    4.419465159810e-03
   161   -4.894349958690e-03
   162   -9.742978593205e-14
   163    1.370315964848e-03
   164    9.260253733098e-03
   165   -1.071923352122e-02
   166   -6.516717632968e-14
   167    3.269817986437e-02
   168    1.201510004658e-02
   169    2.735025658937e-02
   170    3.353924324098e-14
   171    2.114421902431e-04
   172    3.273585278495e-16
   173    1.109713891173e-14
   174   -3.464594161247e-03
   175    8.150079031956e-04
   176   -1.967603834602e-02
   177   -3.180653114479e-02
   178    3.987390469434e-02
   179    6.470409266717e-02
   180    7.457684740362e-15
   181    7.923467033696e-02
   182    6.783973223978e-02
   183    9.123573535761e-02
   184    6.193959786316e-14
   185    1.437284415099e-01
   186    1.410448087138e-02
   187    8.164862625835e-02
   188   -7.192848050347e-15
   189    4.865830039108e-01
   190   -6.340931986998e-02
   191    5.377418254505e-02
   192   -6.229017029915e-14
   193   -8.235410678036e-04
   194   -2.478839324295e-18
   195   -1.117221916296e-14
   196   -4.573592532886e-03
   197    1.160046361482e-04
   198    1.350811426050e-02
   199    1.531957086899e-02
   200    1.607972661646e-03
   201    2.769014784733e-02
   202   -9.739150858744e-04
   203    1.979283611443e-03
   204   -1.137089097642e-14
Sym=X
Ene= 2.001642
Spin=Alpha
Occup=1
     1   -4.269061126468e-03
     2   -7.408788189138e-03
     3   -2.535864924339e-03
     4    2.320215246444e-02
     5   -5.997521391565e-15
     6    1.982103337016e-02
     7   -4.923754136434e-03
     8    3.848541077727e-02
     9   -2.276897177902e-14
    10    3.672445798389e-02
    11   -1.098765313654e-02
    12    3.354631803861e-02
    13   -5.636883717123e-14
    14   -1.519790156909e-03
    15   -2.205190210392e-02
    16   -4.606960741167e-03
    17   -2.727296628852e-14
    18   -1.469596943906e-03
    19   -2.996115288398e-14
    20    6.769851305839e-16
    21    4.577920438855e-03
    22    4.761999791366e-03
    23    2.069526046816e-02
    24    4.130819373132e-02
    25    2.689831344421e-02
    26   -3.056987459621e-02
    27    3.215187772080e-03
    28    2.049048509087e-03
    29    2.876717536614e-15
    30   -1.539925114648e-02
    31   -2.562554632713e-02
    32   -2.548190102094e-03
    33   -1.141258797146e-02
    34    1.009434141801e-04
    35   -2.002497619132e-03
    36    6.396928624391e-16
    37   -1.523226570458e-02
    38   -2.336873271807e-02
    39   -2.422642990195e-02
    40    2.182956960523e-02
    41    3.155366403744e-03
    42    4.329627461131e-03
    43    1.611379890390e-15
    44    1.412628117881e-02
    45    2.266845475844e-02
    46   -1.032720981029e-02
    47   -2.871835664843e-03
    48   -1.385755052246e-13
    49   -6.452596293649e-02
    50   -1.430563081339e-02
    51    8.804498751945e-04
    52   -2.188908040189e-13
    53   -5.364680380525e-02
    54   -7.421227161910e-02
    55   -9.370512825077e-02
    56   -1.676026960682e-13
    57    5.000820058208e-03
    58   -5.255354186468e-02
    59   -8.861444605524e-02
    60   -8.277215804268e-14
    61    1.120391834601e-03
    62    6.751788711457e-14
    63   -3.898328034774e-14
    64    5.746640942335e-02
    65    2.807374796804e-02
    66   -8.271424554186e-03
    67   -1.389387244587e-02
    68   -1.089519500002e-01
    69   -1.822118750702e-01
    70   -3.549524936359e-13
    71    4.030229952421e-02
    72   -1.693687737238e-01
    73   -2.812688111290e-01
    74   -5.460457601452e-13
    75    4.137080985315e-02
    76   -1.481656185397e-01
    77   -2.604042491975e-01
    78   -5.314358259263e-13
    79   -3.075946143592e-03
    80   -6.322341304284e-03
    81   -1.241700334844e-02
    82   -2.354271551045e-14
    83    6.352640352402e-04
    84   -3.659288738976e-14
    85    7.842165792094e-15
    86   -1.264735023255e-02
    87   -6.645876349073e-03
    88    8.637214529689e-03
    89    1.235144490798e-02
    90   -7.445714859930e-02
    91   -6.467159596079e-02
    92   -3.987847258492e-14
    93   -3.198405149007e-02
    94   -1.215282289631e-01
    95   -1.061535392523e-01
    96   -8.009332680272e-14
    97   -3.282713015978e-02
    98   -2.497178514058e-02
    99   -2.340819947506e-02
   100   -7.648840899943e-14
   101   -6.113360549423e-02
   102    1.640131849177e-02
   103    7.560550567180e-03
   104    6.682407421270e-14
   105    5.305314906738e-03
   106   -4.146285530317e-14
   107    8.788835292307e-15
   108   -9.184859339082e-03
   109   -1.292447621335e-02
   110    9.321482907091e-03
   111    1.318720763186e-02
   112    1.255449376872e-01
   113    1.102862227164e-01
   114   -1.377368761003e-13
   115   -3.946420407945e-02
   116    1.448662119383e-01
   117    1.263186860009e-01
   118   -1.757083052564e-13
   119    5.156376936459e-02
   120    5.499725610174e-02
   121    6.169352530311e-02
   122   -5.591282807986e-14
   123    2.636587623107e-02
   124   -1.341226931882e-03
   125   -2.788031965699e-04
   126   -5.734175887760e-14
   127    7.667533598469e-03
   128    1.202396316425e-14
   129    9.402152717542e-15
   130   -5.609941706838e-03
   131   -1.200139813899e-02
   132   -1.186738157778e-02
   133   -2.003424057002e-02
   134   -7.360405926217e-03
   135   -3.572804847586e-02
   136    9.967568333077e-14
   137    5.255626549178e-02
   138   -1.462476811320e-03
   139   -4.841976267317e-02
   140    1.587528783685e-13
   141    1.414607147370e-01
   142   -6.274184052159e-02
   143   -4.948758589145e-02
   144    2.241263989022e-13