[Molden Format]
[Atoms] (Angs)
  C      1    6     -0.13173890     -1.79208980      0.00000000
  H      2    1     -2.14962000     -1.30978739      0.00000000
  H      3    1     -0.31599560     -2.86503115      0.00000000
  H      4    1      0.14407746      2.04280963     -0.00000000
  C      5    6     -1.17258876      0.48030861      0.00000000
  O      6    8     -2.25008207      1.06833796      0.00000000
  C      7    6      1.31158357      0.28308717     -0.00000000
  O      8    8      2.36361668      0.96389345     -0.00000000
  N      9    7      0.07017030      1.03138997     -0.00000000
  N     10    7     -1.19586868     -0.94982644      0.00000000
  C     11    6      1.19165158     -1.13169473     -0.00000000
  H     12    1      2.09970506     -1.73445456     -0.00000000
[GTO]
1    0
S    6    1.000000
   4.56324000E+03    1.96665000E-03 
   6.82024000E+02    1.52306000E-02 
   1.54973000E+02    7.61269000E-02 
   4.44553000E+01    2.60801000E-01 
   1.30290000E+01    6.16462000E-01 
   1.82773000E+00    2.21006000E-01 
SP   3    1.000000
   2.09642000E+01    1.14660000E-01   4.02487000E-02 
   4.80331000E+00    9.19999000E-01   2.37594000E-01 
   1.45933000E+00   -3.03068000E-03   8.15854000E-01 
SP   1    1.000000
   4.83456000E-01    1.00000000E+00   1.00000000E+00 
SP   1    1.000000
   1.45585000E-01    1.00000000E+00   1.00000000E+00 
SP   1    1.000000
   4.38000000E-02    1.00000000E+00   1.00000000E+00 
D    1    1.000000
   6.26000000E-01    1.00000000E+00 

2    0
S    3    1.000000
   3.38650000E+01    2.54938000E-02 
   5.09479000E+00    1.90373000E-01 
   1.15879000E+00    8.52161000E-01 
S    1    1.000000
   3.25840000E-01    1.00000000E+00 
S    1    1.000000
   1.02741000E-01    1.00000000E+00 
S    1    1.000000
   3.60000000E-02    1.00000000E+00 
P    1    1.000000
   7.50000000E-01    1.00000000E+00 

3    0
S    3    1.000000
   3.38650000E+01    2.54938000E-02 
   5.09479000E+00    1.90373000E-01 
   1.15879000E+00    8.52161000E-01 
S    1    1.000000
   3.25840000E-01    1.00000000E+00 
S    1    1.000000
   1.02741000E-01    1.00000000E+00 
S    1    1.000000
   3.60000000E-02    1.00000000E+00 
P    1    1.000000
   7.50000000E-01    1.00000000E+00 

4    0
S    3    1.000000
   3.38650000E+01    2.54938000E-02 
   5.09479000E+00    1.90373000E-01 
   1.15879000E+00    8.52161000E-01 
S    1    1.000000
   3.25840000E-01    1.00000000E+00 
S    1    1.000000
   1.02741000E-01    1.00000000E+00 
S    1    1.000000
   3.60000000E-02    1.00000000E+00 
P    1    1.000000
   7.50000000E-01    1.00000000E+00 

5    0
S    6    1.000000
   4.56324000E+03    1.96665000E-03 
   6.82024000E+02    1.52306000E-02 
   1.54973000E+02    7.61269000E-02 
   4.44553000E+01    2.60801000E-01 
   1.30290000E+01    6.16462000E-01 
   1.82773000E+00    2.21006000E-01 
SP   3    1.000000
   2.09642000E+01    1.14660000E-01   4.02487000E-02 
   4.80331000E+00    9.19999000E-01   2.37594000E-01 
   1.45933000E+00   -3.03068000E-03   8.15854000E-01 
SP   1    1.000000
   4.83456000E-01    1.00000000E+00   1.00000000E+00 
SP   1    1.000000
   1.45585000E-01    1.00000000E+00   1.00000000E+00 
SP   1    1.000000
   4.38000000E-02    1.00000000E+00   1.00000000E+00 
D    1    1.000000
   6.26000000E-01    1.00000000E+00 

6    0
S    6    1.000000
   8.58850000E+03    1.89515000E-03 
   1.29723000E+03    1.43859000E-02 
   2.99296000E+02    7.07320000E-02 
   8.73771000E+01    2.40001000E-01 
   2.56789000E+01    5.94797000E-01 
   3.74004000E+00    2.80802000E-01 
SP   3    1.000000
   4.21175000E+01    1.13889000E-01   3.65114000E-02 
   9.62837000E+00    9.20811000E-01   2.37153000E-01 
   2.85332000E+00   -3.27447000E-03   8.19702000E-01 
SP   1    1.000000
   9.05661000E-01    1.00000000E+00   1.00000000E+00 
SP   1    1.000000
   2.55611000E-01    1.00000000E+00   1.00000000E+00 
SP   1    1.000000
   8.45000000E-02    1.00000000E+00   1.00000000E+00 
D    1    1.000000
   1.29200000E+00    1.00000000E+00 

7    0
S    6    1.000000
   4.56324000E+03    1.96665000E-03 
   6.82024000E+02    1.52306000E-02 
   1.54973000E+02    7.61269000E-02 
   4.44553000E+01    2.60801000E-01 
   1.30290000E+01    6.16462000E-01 
   1.82773000E+00    2.21006000E-01 
SP   3    1.000000
   2.09642000E+01    1.14660000E-01   4.02487000E-02 
   4.80331000E+00    9.19999000E-01   2.37594000E-01 
   1.45933000E+00   -3.03068000E-03   8.15854000E-01 
SP   1    1.000000
   4.83456000E-01    1.00000000E+00   1.00000000E+00 
SP   1    1.000000
   1.45585000E-01    1.00000000E+00   1.00000000E+00 
SP   1    1.000000
   4.38000000E-02    1.00000000E+00   1.00000000E+00 
D    1    1.000000
   6.26000000E-01    1.00000000E+00 

8    0
S    6    1.000000
   8.58850000E+03    1.89515000E-03 
   1.29723000E+03    1.43859000E-02 
   2.99296000E+02    7.07320000E-02 
   8.73771000E+01    2.40001000E-01 
   2.56789000E+01    5.94797000E-01 
   3.74004000E+00    2.80802000E-01 
SP   3    1.000000
   4.21175000E+01    1.13889000E-01   3.65114000E-02 
   9.62837000E+00    9.20811000E-01   2.37153000E-01 
   2.85332000E+00   -3.27447000E-03   8.19702000E-01 
SP   1    1.000000
   9.05661000E-01    1.00000000E+00   1.00000000E+00 
SP   1    1.000000
   2.55611000E-01    1.00000000E+00   1.00000000E+00 
SP   1    1.000000
   8.45000000E-02    1.00000000E+00   1.00000000E+00 
D    1    1.000000
   1.29200000E+00    1.00000000E+00 

9    0
S    6    1.000000
   6.29348000E+03    1.96979000E-03 
   9.49044000E+02    1.49613000E-02 
   2.18776000E+02    7.35006000E-02 
   6.36916000E+01    2.48937000E-01 
   1.88282000E+01    6.02460000E-01 
   2.72023000E+00    2.56202000E-01 
SP   3    1.000000
   3.06331000E+01    1.11906000E-01   3.83119000E-02 
   7.02614000E+00    9.21666000E-01   2.37403000E-01 
   2.11205000E+00   -2.56919000E-03   8.17592000E-01 
SP   1    1.000000
   6.84009000E-01    1.00000000E+00   1.00000000E+00 
SP   1    1.000000
   2.00878000E-01    1.00000000E+00   1.00000000E+00 
SP   1    1.000000
   6.39000000E-02    1.00000000E+00   1.00000000E+00 
D    1    1.000000
   9.13000000E-01    1.00000000E+00 

10    0
S    6    1.000000
   6.29348000E+03    1.96979000E-03 
   9.49044000E+02    1.49613000E-02 
   2.18776000E+02    7.35006000E-02 
   6.36916000E+01    2.48937000E-01 
   1.88282000E+01    6.02460000E-01 
   2.72023000E+00    2.56202000E-01 
SP   3    1.000000
   3.06331000E+01    1.11906000E-01   3.83119000E-02 
   7.02614000E+00    9.21666000E-01   2.37403000E-01 
   2.11205000E+00   -2.56919000E-03   8.17592000E-01 
SP   1    1.000000
   6.84009000E-01    1.00000000E+00   1.00000000E+00 
SP   1    1.000000
   2.00878000E-01    1.00000000E+00   1.00000000E+00 
SP   1    1.000000
   6.39000000E-02    1.00000000E+00   1.00000000E+00 
D    1    1.000000
   9.13000000E-01    1.00000000E+00 

11    0
S    6    1.000000
   4.56324000E+03    1.96665000E-03 
   6.82024000E+02    1.52306000E-02 
   1.54973000E+02    7.61269000E-02 
   4.44553000E+01    2.60801000E-01 
   1.30290000E+01    6.16462000E-01 
   1.82773000E+00    2.21006000E-01 
SP   3    1.000000
   2.09642000E+01    1.14660000E-01   4.02487000E-02 
   4.80331000E+00    9.19999000E-01   2.37594000E-01 
   1.45933000E+00   -3.03068000E-03   8.15854000E-01 
SP   1    1.000000
   4.83456000E-01    1.00000000E+00   1.00000000E+00 
SP   1    1.000000
   1.45585000E-01    1.00000000E+00   1.00000000E+00 
SP   1    1.000000
   4.38000000E-02    1.00000000E+00   1.00000000E+00 
D    1    1.000000
   6.26000000E-01    1.00000000E+00 

12    0
S    3    1.000000
   3.38650000E+01    2.54938000E-02 
   5.09479000E+00    1.90373000E-01 
   1.15879000E+00    8.52161000E-01 
S    1    1.000000
   3.25840000E-01    1.00000000E+00 
S    1    1.000000
   1.02741000E-01    1.00000000E+00 
S    1    1.000000
   3.60000000E-02    1.00000000E+00 
P    1    1.000000
   7.50000000E-01    1.00000000E+00 

[MO]
Sym=X
Ene= 2.007849
Spin=Alpha
Occup=1
     1   -3.969346371938e-14
     2   -4.624636042214e-14
     3   -1.161809151329e-14
     4    3.703616118935e-15
     5    9.210718245615e-02
     6    6.305517847559e-14
     7   -1.278661810544e-14
     8    3.279970431880e-14
     9    1.604439926892e-01
    10    4.684579286611e-13
    11   -1.929611041743e-13
    12    6.800974848274e-14
    13    1.449290277541e-01
    14   -4.034322753202e-12
    15   -4.750872304686e-13
    16   -1.845693395079e-12
    17    1.787328658846e-02
    18   -8.188030084088e-16
    19    1.140299616398e-02
    20    1.262409494107e-02
    21    1.024176880124e-14
    22   -1.366217833708e-15
    23   -1.249784028653e-14
    24   -6.115316903561e-14
    25   -6.194534324725e-13
    26    1.126659052289e-13
    27   -4.250431797983e-15
    28    2.155705478891e-15
    29    1.309707760640e-04
    30    8.504369897538e-15
    31    4.278043635395e-14
    32   -2.277997620163e-13
    33   -9.207558949449e-13
    34   -5.481889794588e-16
    35   -3.886038914805e-15
    36    7.073009910178e-03
    37    1.709898220522e-14
    38    1.406457367376e-13
    39   -3.069508494223e-13
    40   -3.765905227155e-13
    41   -1.729647636612e-15
    42   -1.871498929780e-14
    43   -5.008468775470e-03
    44   -6.781007189830e-14
    45   -4.650652907564e-14
    46    1.477544276754e-14
    47    4.941568721681e-14
    48   -9.799205397916e-02
    49   -6.503017938617e-14
    50    1.776016708185e-14
    51    5.753505446478e-14
    52   -1.740759682806e-01
    53    1.718252414087e-13
    54    2.459944296687e-13
    55    1.736294792480e-13
    56   -1.003366270450e-01
    57    1.197237104054e-12
    58    6.242015779500e-13
    59    3.823795663280e-13
    60   -1.913224469911e-02
    61    7.017228824650e-15
    62    2.039017886651e-02
    63   -1.992663100141e-02
    64    7.831663816111e-15
    65    1.468170450274e-14
    66   -1.589834503983e-15
    67   -9.059785314342e-16
    68   -2.660470274053e-14
    69   -5.110664885023e-14
    70   -2.411152966528e-01
    71    3.051816074398e-15
    72   -1.643969912022e-14
    73   -4.378850745342e-14
    74   -2.808664432657e-01
    75    7.856754339902e-14
    76    1.340953108993e-15
    77   -6.540558124210e-14
    78   -1.732816713836e-01
    79   -2.193908095169e-13
    80   -5.263973421539e-14
    81    1.044550159114e-13
    82    4.883678864966e-03
    83   -1.618162227400e-15
    84   -1.942455657619e-02
    85    1.025789648360e-02
    86    1.854242097525e-15
    87   -1.681423981905e-15
    88    3.855966984439e-14
    89    2.276243036112e-14
    90    1.621246665377e-14
    91   -4.817072150444e-15
    92    4.582066852430e-02
    93    4.163219620108e-14
    94    3.162918918233e-14
    95    2.176082811223e-15
    96    8.050841390910e-02
    97   -1.221044923123e-13
    98   -1.353429107693e-13
    99   -1.193375629997e-14
   100    5.432695407599e-02
   101   -1.020520281408e-11
   102    1.061725637555e-12
   103    2.259221744905e-12
   104    8.088546150498e-03
   105    2.471819898988e-15
   106    1.998658837183e-03
   107   -1.644756633546e-02
   108   -1.521956257056e-15
   109   -1.164657676098e-15
   110   -5.743153984990e-14
   111   -6.330600409644e-14
   112   -1.792257837213e-14
   113    6.342473189031e-15
   114    1.293745561056e-02
   115    7.737367593621e-14
   116   -5.817955481425e-15
   117   -9.378323570883e-15
   118    2.185095703775e-02
   119    8.578888029812e-15
   120   -5.606412795107e-14
   121    3.804010171503e-14
   122    8.692906373658e-03
   123    3.407761823262e-13
   124    3.556399359155e-14
   125   -3.016900043950e-13
   126   -2.026009857451e-02
   127    4.378530828433e-16
   128   -3.540838987479e-03
   129   -2.636366531209e-03
   130    2.395828796203e-15
   131   -7.210543745614e-16
   132    2.549454159243e-14
   133    1.344562483587e-14
   134   -2.817424778782e-14
   135    3.566108365282e-14
   136   -5.358595816644e-02
   137    6.887108207636e-14
   138   -5.719488036326e-14
   139    6.327484515960e-14
   140   -9.071483699689e-02
   141   -2.956995759910e-13
   142   -4.001340170698e-14
   143   -2.407164094459e-14
   144   -7.861925935238e-02
   145    4.188088518235e-13
   146    7.568968399024e-13
   147    1.219392374310e-13
   148    2.899679734000e-03
   149    4.039088497114e-15
   150    1.156607374654e-02
   151    1.777018827094e-03
   152    6.511875807750e-15
   153    2.114939940558e-15
   154   -7.187563558862e-14
   155   -4.774483975776e-14
   156    1.136171287824e-14
   157   -3.960686526516e-14
   158    1.794846280304e-02
   159   -3.357906217264e-14
   160    5.379244011749e-14
   161   -7.557329180616e-14
   162    2.915106321755e-02
   163   -1.687488124583e-13
   164   -2.919044040778e-13
   165    1.004388756971e-14
   166    1.570416432136e-02
   167    9.032118607551e-13
   168   -9.323056425149e-13
   169    3.400077883532e-13
   170   -1.215194001046e-02
   171    4.662707871862e-16
   172    7.940959742971e-03
   173   -1.157658285244e-02
   174    4.297408859582e-15
   175   -7.303111136863e-15
   176    1.217586710126e-14
   177    7.081036931201e-15
   178   -3.326342042601e-14
   179    2.008367887415e-14
   180    1.119244350688e-01
   181    2.711878908050e-14
   182   -3.492601909016e-14
   183    4.292002858124e-14
   184    1.934996322291e-01
   185   -2.425506872056e-13
   186   -1.530580859571e-13
   187    3.089245437561e-14
   188    1.867758264943e-01
   189    1.214394002319e-11
   190   -2.627297034906e-12
   191    2.892933540879e-12
   192    1.174655352954e-02
   193    1.572350010828e-14
   194   -1.551193779000e-02
   195    3.015455149956e-03
   196   -9.941350947566e-15
   197    1.436018627605e-14
   198   -2.766000850426e-14
   199    1.056243435884e-14
   200    3.123585544244e-13
   201    1.407213604988e-12
   202    4.139836302735e-17
   203    5.346770367067e-15
   204    8.954733535140e-03
Sym=X
Ene= 2.004002
Spin=Alpha
Occup=1
     1    8.715862121222e-03
     2    1.454719355842e-02
     3    6.969716443424e-03
     4   -2.675358593117e-02
     5   -8.514318925187e-15
     6   -3.953089959504e-02
     7    1.148241540247e-02
     8   -4.492749135980e-02
     9   -2.053882732884e-14
    10   -5.361708313826e-02
    11   -7.293221118788e-03
    12   -4.653385792231e-02
    13    3.716708862963e-15
    14   -8.907591211937e-02
    15   -2.124440727605e-03
    16   -1.541959211383e-02
    17   -2.525269923081e-14
    18    1.836589468453e-03
    19    8.862191757905e-14
    20   -1.813027754903e-14
    21   -8.330777261105e-03
    22    4.475783263185e-03
    23    1.515913935568e-03
    24   -9.803472318591e-03
    25   -3.213622463727e-02
    26    2.568263747666e-02
    27    6.900276909174e-05
    28    1.249664714020e-04
    29   -1.988179766329e-15
    30    1.758960496379e-02
    31    2.813081016996e-02
    32    1.055640089048e-02
    33    2.970307378682e-03
    34    4.796690243768e-04
    35    3.890010279834e-04
    36   -3.772795973822e-15
    37    1.994060321781e-03
    38    1.575873446598e-02
    39    3.450396542100e-02
    40   -5.196484755290e-02
    41    1.106499775800e-03
    42   -1.581692921960e-03
    43   -9.657792524853e-15
    44   -1.149153999440e-02
    45   -1.858251890183e-02
    46   -4.139378831717e-02
    47   -4.002106858331e-03
    48   -3.459275094602e-14
    49    5.348725770847e-02
    50   -6.921612457756e-02
    51   -1.160781519526e-02
    52   -5.639238593801e-14
    53    5.753576971764e-02
    54    4.400778805319e-02
    55    6.930949958788e-02
    56   -1.798518487382e-13
    57    2.907560760069e-02
    58    5.845654617782e-02
    59    8.867925797176e-02
    60    1.592831196697e-13
    61   -2.205602141445e-03
    62    1.274482123265e-13
    63   -4.277513412906e-14
    64   -4.939138569242e-02
    65   -3.376672955832e-02
    66   -7.882747183479e-03
    67   -1.129038831515e-02
    68    2.087698694671e-01
    69    2.582011248334e-01
    70    5.616960638452e-14
    71    3.504985360148e-02
    72    2.405975198022e-01
    73    2.955388157617e-01
    74    6.022194765033e-14
    75   -1.247389640637e-02
    76    1.422775829141e-01
    77    2.120775150683e-01
    78    2.508731758692e-13
    79   -1.636481267993e-02
    80   -3.169641867214e-03
    81    2.157373787392e-03
    82   -1.203765217210e-13
    83   -3.717043802042e-03
    84   -1.762644790071e-14
    85    1.272804857582e-14
    86    1.537054676056e-02
    87    2.976573788571e-03
    88   -1.339799415381e-02
    89   -2.241255416472e-02
    90   -2.646045946821e-02
    91    4.804961959071e-03
    92    8.224599394675e-14
    93    6.098794052124e-02
    94   -4.512721795086e-02
    95    5.807088561520e-03
    96    1.044648786858e-13
    97    5.376836013258e-02
    98   -4.609065431630e-02
    99    2.675916102833e-02
   100    1.500251524675e-13
   101   -2.251801055607e-01
   102   -1.509781280657e-02
   103    1.246639940998e-01
   104   -1.580304981965e-13
   105   -2.104606336528e-03
   106    1.790860693568e-13
   107    8.259170633273e-15
   108   -2.961660372874e-02
   109    8.588773512993e-03
   110    3.811729642961e-03
   111    6.478676988841e-03
   112   -6.482937316202e-02
   113    1.066219458045e-01
   114    1.536924858849e-13
   115   -1.979557802283e-02
   116   -1.004546752242e-01
   117    1.644867522741e-01
   118    2.559935193477e-13
   119   -1.659798598674e-02
   120   -9.150422079312e-02
   121    1.504718384053e-01
   122   -5.297833461052e-14
   123    2.099181659663e-02
   124   -1.053752582013e-02
   125    2.162812113682e-03
   126    1.980081792733e-13
   127   -1.003529924103e-04
   128   -2.101229561866e-14
   129   -2.086532517863e-14
   130    7.827084680133e-03
   131   -3.953012821418e-03
   132    2.255934130796e-02
   133    3.737286460451e-02
   134    4.362248182361e-02
   135    2.143576541669e-02
   136   -9.488060036424e-14
   137   -9.916547104191e-02
   138    6.034459772076e-02
   139    2.311994778196e-02
   140   -1.695052479557e-13
   141   -2.007324430602e-01
   142    6.553890648910e-02
   143    4.004437798347e-02
   144   -1.124185237081e-13
   145   -2.001438226124e-01
   146   -1.222849420278e-03
   147   -1.991254631028e-04
   148   -3.745971221617e-14
   149   -1.571848484819e-03
   150   -3.861975627489e-14
   151   -4.868545342968e-15
   152    1.181162273020e-03
   153   -2.680686069806e-03
   154   -1.251357131919e-02
   155   -2.057881795898e-02
   156   -1.563520879098e-02
   157    5.356346483207e-02
   158   -5.460604792248e-14
   159    5.467145377793e-02
   160   -2.845400904948e-02
   161    8.106413954968e-02
   162   -1.001327467839e-13
   163    1.205296940610e-01
   164   -1.697952449161e-02
   165    8.436167409218e-02
   166   -4.798084988858e-15
   167    1.367259812624e-01
   168   -7.513224291511e-03
   169    7.823004441410e-03
   170   -1.958446854551e-14
   171    5.183628994865e-04
   172    1.706064241136e-15
   173    2.539819191461e-14
   174   -2.619066058837e-03
   175    3.837434921815e-04
   176   -4.641489300961e-03
   177   -7.484689279831e-03
   178    4.144174413191e-03
   179    2.504960188715e-02
   180    3.154481024847e-14
   181    1.845731197625e-02
   182    9.796468815558e-03
   183    3.382038698514e-02
   184    2.572342322518e-14
   185    6.445990990456e-02
   186   -8.491218254172e-03
   187    3.727766390037e-02
   188    1.142789070374e-14
   189    3.266806156170e-01
   190   -2.329771755706e-02
   191    6.420785833682e-02
   192    4.182908661018e-14
   193    6.586747759922e-04
   194    2.566003288774e-15
   195   -3.010313155551e-14
   196   -3.188743985863e-03
   197   -1.231742301651e-03
   198   -3.853201564781e-03
   199   -7.576414735786e-03
   200    1.407707702226e-03
   201    1.614856376047e-02
   202    1.149797308886e-03
   203   -6.284682833671e-04
   204   -8.842830898454e-15
Sym=X
Ene= 2.001928
Spin=Alpha
Occup=1
     1   -1.736593221574e-13
     2   -2.196054551823e-13
     3   -3.593983689101e-13
     4    1.206862877423e-13
     5   -6.573417913615e-02
     6    4.243616334228e-13
     7   -6.182112271082e-13
     8    2.361669844835e-13
     9   -1.123808244000e-01
    10    1.319675204335e-13
    11   -3.700684798224e-13
    12   -3.038954514324e-13
    13   -9.417400632700e-02
    14   -1.061121105719e-11
    15   -1.100907979317e-12
    16   -4.676861196031e-12
    17   -1.677364808843e-02
    18   -1.797135642674e-14
    19   -1.580120630926e-04
    20   -1.143402018894e-02
    21    3.173321382872e-14
    22   -2.736237088378e-14
    23    2.330019684762e-14
    24    1.477896786306e-13
    25   -2.519479594493e-13
    26    2.114436327345e-13
    27    1.521868015709e-14
    28   -1.742520589831e-14
    29   -3.519133568983e-03
    30    9.703053839072e-16
    31   -6.276250109735e-14
    32   -5.517800633156e-13
    33   -1.888572066123e-12
    34   -1.454598182778e-14
    35    1.228720548700e-15
    36   -5.251879674343e-03
    37   -1.820892847797e-14
    38   -8.984495781797e-14
    39   -2.062193886242e-13
    40   -6.981174280874e-13
    41    2.435594368928e-14
    42    2.681901727469e-14
    43   -7.808483049482e-03
    44   -1.953943571676e-13
    45   -3.468976208714e-13
    46   -9.350009222692e-13
    47    8.353653852249e-13
    48   -5.809628456003e-02
    49    1.138401915158e-12
    50   -1.432651669495e-12
    51    1.410262483488e-12
    52   -1.004266636555e-01
    53    1.112020859669e-12
    54   -4.091569012079e-13
    55    2.533015948162e-14
    56   -5.153468725733e-02
    57    4.485254259894e-12
    58    1.287922933981e-12
    59   -8.092494131123e-13
    60   -2.420583991309e-02
    61   -6.694155900416e-14
    62   -1.956998724207e-02
    63    2.258477011027e-04
    64    4.902786422456e-13
    65   -4.684068474218e-14
    66    1.529727542680e-14
    67    2.931264749772e-14
    68    1.166887472544e-12
    69   -3.223483862583e-12
    70    2.065046252672e-02
    71   -2.227579587360e-13
    72    1.312064823454e-12
    73   -3.677161340124e-12
    74    2.052093075541e-02
    75   -1.088831212315e-12
    76    2.277748723712e-13
    77   -2.220142731489e-12
    78    2.369415425664e-02
    79   -9.131604390123e-13
    80   -2.893759496200e-13
    81    2.009949272632e-13
    82    2.385446552079e-02
    83   -1.136934371423e-13
    84   -3.926286544939e-03
    85    1.772965236538e-03
    86    4.067267003011e-14
    87   -2.222875654303e-13
    88   -2.583895828229e-13
    89   -3.571688874017e-13
    90    2.497167308777e-13
    91    8.930319771774e-14
    92    6.136461014650e-02
    93    8.381411442197e-13
    94    4.769248447927e-13
    95    7.708822423912e-14
    96    1.075831873913e-01
    97    6.498132416047e-13
    98   -3.618596020016e-13
    99    7.805823243942e-13
   100    9.591050321752e-02
   101   -1.948045379752e-11
   102    1.110737378761e-12
   103    5.244703566070e-12
   104    1.978974480531e-02
   105   -3.321727990551e-14
   106    4.802177536241e-02
   107    2.612857972025e-02
   108   -4.035875160858e-13
   109    3.338917906111e-13
   110    7.649078474044e-14
   111    1.545708912135e-13
   112   -1.482864872078e-12
   113    1.200223772470e-12
   114    2.001054782363e-01
   115   -5.483366895937e-13
   116   -2.248362202850e-12
   117    1.859256929801e-12
   118    3.132227065610e-01
   119   -9.789593227637e-13
   120   -1.896793390565e-12
   121    1.929235015410e-12
   122    2.950248152296e-01
   123    3.947137943255e-13
   124   -1.126845475973e-13
   125   -2.812562745306e-13
   126    4.166304400556e-02
   127   -2.750722481341e-14
   128   -1.619453696696e-02
   129   -9.922285317860e-03
   130    1.195868015055e-13
   131   -4.517076348275e-15
   132   -9.677924102867e-14
   133    9.134643301530e-14
   134   -3.646021578272e-13
   135    2.642483826438e-13
   136   -1.138242123156e-01
   137   -9.406416589081e-13
   138   -5.073793893382e-13
   139    4.305307515929e-13
   140   -1.840026117902e-01
   141   -1.280538210323e-12
   142   -9.435910514016e-13
   143    6.549886276310e-13
   144   -2.014737972716e-01
   145   -1.055655634220e-12
   146    5.735676336154e-13
   147    3.978457212242e-13
   148   -1.921752333105e-02
   149    9.885444073341e-15
   150    1.096226449084e-02
   151    4.027757654921e-03
   152    4.933976289686e-14
   153   -7.420194536242e-14
   154    1.458222912369e-13
   155    2.511003679873e-13
   156    8.632830352818e-14
   157   -7.878093824998e-13
   158   -6.579670645711e-02
   159   -6.875307520820e-13
   160    1.506253638960e-13
   161   -1.219208472734e-12
   162   -1.095712377786e-01
   163   -1.133123116261e-12
   164    1.303111179769e-13
   165   -1.027092046910e-12
   166   -7.947020368651e-02
   167    1.378094969022e-12
   168   -2.889835391154e-13
   169    2.124800715816e-13
   170    2.831211974470e-02
   171    2.193299922949e-15
   172   -7.261119241234e-03
   173   -1.184883192303e-03
   174    1.809868535040e-14
   175   -7.150177714925e-14
   176   -8.637543351358e-14
   177   -6.474124709099e-14
   178   -1.220493506555e-13
   179    4.314105763256e-13
   180   -4.912986170335e-02
   181   -1.826399060998e-14
   182   -1.308474331974e-13
   183    5.806265650605e-13
   184   -8.008299905202e-02
   185    6.987375344052e-13
   186   -4.279864079236e-13
   187    8.918203097867e-13
   188   -1.144973204116e-01
   189    2.546624518479e-11
   190   -4.111017671944e-12
   191    5.800757932543e-12
   192   -1.180801961841e-02
   193    3.066720925910e-14
   194    1.138754160634e-02
   195    7.247251105136e-03
   196    1.889259333739e-14
   197    4.244164749497e-14
   198   -2.888764514271e-13
   199   -4.052686108084e-13
   200    3.379470327086e-13
   201    2.284360455979e-12
   202    2.515467639292e-14
   203   -2.899122449330e-14
   204   -2.917552490650e-03
Sym=X
Ene= 2.001760
Spin=Alpha
Occup=1
     1    6.267116119080e-03
     2    1.033065200572e-02
     3    2.449881767501e-02
     4   -1.005942349092e-02
     5   -8.203376638040e-13
     6   -2.937539879466e-02
     7    4.411637330391e-02
     8   -1.818153117715e-02
     9   -1.405381285036e-12
    10   -1.926337582220e-02
    11    2.239591594229e-02
    12   -5.734289778408e-03
    13   -1.110723098409e-12
    14    1.854996230066e-01
    15    5.573270447483e-02
    16    8.265988223643e-02
    17   -2.221657215023e-13
    18    1.181077056820e-03
    19    6.968531530128e-14
    20   -1.507921876143e-13
    21   -3.206281543846e-03
    22    1.572368623470e-03
    23   -5.021900209893e-03
    24   -6.168540434719e-03
    25   -1.539562715646e-02
    26    2.459391279681e-03
    27   -8.575358801371e-04
    28    1.455092343360e-03
    29   -5.392857794456e-14
    30    1.595732630883e-03
    31    5.737938349819e-03
    32    8.719632908681e-03
    33    4.456305174201e-02
    34    1.014988029356e-03
    35   -3.996929757733e-04
    36   -6.589712614271e-14
    37   -8.927091330525e-03
    38   -3.097339025040e-03
    39    9.058661268381e-03
    40    1.846459824918e-02
    41   -1.955396173794e-03
    42    6.623009678708e-04
    43   -7.742284766320e-14
    44    2.288970987727e-02
    45    3.620574866545e-02
    46    7.696066340250e-02
    47   -7.376009673685e-02
    48   -7.460274448634e-13
    49   -1.040498762888e-01
    50    1.193402917746e-01
    51   -1.258945529821e-01
    52   -1.312487536059e-12
    53   -9.784793280555e-02
    54    1.609760972970e-02
    55    1.019416831579e-02
    56   -6.991501581115e-13
    57   -5.425126864400e-02
    58   -7.761502758926e-04
    59    3.768491432700e-02
    60   -1.171687618958e-13
    61    7.138993478775e-03
    62   -1.369498014206e-13
    63    3.569012216681e-15
    64   -3.916143121117e-02
    65    4.701173012844e-03
    66    5.885133710709e-04
    67    2.984007092869e-04
    68   -1.098235420530e-01
    69    2.527425937493e-01
    70    1.751151943482e-13
    71    8.870056600633e-03
    72   -1.240952016809e-01
    73    2.880558406893e-01
    74    1.581774719467e-13
    75    9.024691647956e-02
    76   -2.689603858359e-02
    77    1.707963050163e-01
    78    3.483502517169e-13
    79    2.236070791067e-02
    80   -1.320166718285e-03
    81   -1.065847937896e-03
    82    1.330368076894e-13
    83    9.584278855597e-03
    84   -5.491649695695e-14
    85    3.762037080849e-14
    86   -4.582969313493e-03
    87    1.800900751030e-02
    88    1.464089847756e-02
    89    2.459649788260e-02
    90   -1.405325723313e-02
    91   -7.969554077589e-03
    92    7.654508332975e-13
    93   -7.165415565866e-02
    94   -2.365019176616e-02
    95   -6.890181705467e-03
    96    1.321855643813e-12
    97   -8.380520070073e-02
    98    2.927948481173e-02
    99   -6.468995064237e-02
   100    1.186099313926e-12
   101    2.312157595763e-01
   102    3.993924774234e-02
   103   -1.085271475220e-01
   104    3.179640204326e-14
   105    2.913412550608e-03
   106    6.428266695720e-13
   107    3.039351244158e-13
   108    3.564351304701e-02
   109   -2.474302862868e-02
   110   -1.149000433036e-02
   111   -1.950391783054e-02
   112    1.230781126029e-01
   113   -1.065566433788e-01
   114    2.361601286199e-12
   115    5.923590756818e-02
   116    1.880957780029e-01
   117   -1.655800350295e-01
   118    3.696886368055e-12
   119    8.126611865289e-02
   120    1.581940382140e-01
   121   -1.647960352228e-01
   122    3.351039061070e-12
   123    2.436436008545e-02
   124   -6.184498730287e-03
   125   -9.048714447112e-03
   126    6.685332110466e-13
   127    2.281661951714e-03
   128   -1.984032409451e-13
   129   -1.269782642728e-13
   130   -1.033287720079e-02
   131    6.074964367728e-04
   132   -7.723860405955e-03
   133   -1.359163184305e-02
   134    2.633205298292e-02
   135   -2.669716320073e-02
   136   -1.325603233517e-12
   137    3.825793089976e-02
   138    3.752021675094e-02
   139   -4.290398473257e-02
   140   -2.151909950575e-12
   141    9.089792615891e-02
   142    6.935779620917e-02
   143   -6.015772113821e-02
   144   -2.323601444388e-12