[Molden Format]
[Atoms] (Angs)
  C      1    6     -0.13173890     -1.79208980      0.00000000
  H      2    1     -2.14962000     -1.30978739      0.00000000
  H      3    1     -0.31599560     -2.86503115      0.00000000
  H      4    1      0.14407746      2.04280963     -0.00000000
  C      5    6     -1.17258876      0.48030861      0.00000000
  O      6    8     -2.25008207      1.06833796      0.00000000
  C      7    6      1.31158357      0.28308717     -0.00000000
  O      8    8      2.36361668      0.96389345     -0.00000000
  N      9    7      0.07017030      1.03138997     -0.00000000
  N     10    7     -1.19586868     -0.94982644      0.00000000
  C     11    6      1.19165158     -1.13169473     -0.00000000
  H     12    1      2.09970506     -1.73445456     -0.00000000
[GTO]
1    0
S    6    1.000000
   4.56324000E+03    1.96665000E-03 
   6.82024000E+02    1.52306000E-02 
   1.54973000E+02    7.61269000E-02 
   4.44553000E+01    2.60801000E-01 
   1.30290000E+01    6.16462000E-01 
   1.82773000E+00    2.21006000E-01 
SP   3    1.000000
   2.09642000E+01    1.14660000E-01   4.02487000E-02 
   4.80331000E+00    9.19999000E-01   2.37594000E-01 
   1.45933000E+00   -3.03068000E-03   8.15854000E-01 
SP   1    1.000000
   4.83456000E-01    1.00000000E+00   1.00000000E+00 
SP   1    1.000000
   1.45585000E-01    1.00000000E+00   1.00000000E+00 
SP   1    1.000000
   4.38000000E-02    1.00000000E+00   1.00000000E+00 
D    1    1.000000
   6.26000000E-01    1.00000000E+00 

2    0
S    3    1.000000
   3.38650000E+01    2.54938000E-02 
   5.09479000E+00    1.90373000E-01 
   1.15879000E+00    8.52161000E-01 
S    1    1.000000
   3.25840000E-01    1.00000000E+00 
S    1    1.000000
   1.02741000E-01    1.00000000E+00 
S    1    1.000000
   3.60000000E-02    1.00000000E+00 
P    1    1.000000
   7.50000000E-01    1.00000000E+00 

3    0
S    3    1.000000
   3.38650000E+01    2.54938000E-02 
   5.09479000E+00    1.90373000E-01 
   1.15879000E+00    8.52161000E-01 
S    1    1.000000
   3.25840000E-01    1.00000000E+00 
S    1    1.000000
   1.02741000E-01    1.00000000E+00 
S    1    1.000000
   3.60000000E-02    1.00000000E+00 
P    1    1.000000
   7.50000000E-01    1.00000000E+00 

4    0
S    3    1.000000
   3.38650000E+01    2.54938000E-02 
   5.09479000E+00    1.90373000E-01 
   1.15879000E+00    8.52161000E-01 
S    1    1.000000
   3.25840000E-01    1.00000000E+00 
S    1    1.000000
   1.02741000E-01    1.00000000E+00 
S    1    1.000000
   3.60000000E-02    1.00000000E+00 
P    1    1.000000
   7.50000000E-01    1.00000000E+00 

5    0
S    6    1.000000
   4.56324000E+03    1.96665000E-03 
   6.82024000E+02    1.52306000E-02 
   1.54973000E+02    7.61269000E-02 
   4.44553000E+01    2.60801000E-01 
   1.30290000E+01    6.16462000E-01 
   1.82773000E+00    2.21006000E-01 
SP   3    1.000000
   2.09642000E+01    1.14660000E-01   4.02487000E-02 
   4.80331000E+00    9.19999000E-01   2.37594000E-01 
   1.45933000E+00   -3.03068000E-03   8.15854000E-01 
SP   1    1.000000
   4.83456000E-01    1.00000000E+00   1.00000000E+00 
SP   1    1.000000
   1.45585000E-01    1.00000000E+00   1.00000000E+00 
SP   1    1.000000
   4.38000000E-02    1.00000000E+00   1.00000000E+00 
D    1    1.000000
   6.26000000E-01    1.00000000E+00 

6    0
S    6    1.000000
   8.58850000E+03    1.89515000E-03 
   1.29723000E+03    1.43859000E-02 
   2.99296000E+02    7.07320000E-02 
   8.73771000E+01    2.40001000E-01 
   2.56789000E+01    5.94797000E-01 
   3.74004000E+00    2.80802000E-01 
SP   3    1.000000
   4.21175000E+01    1.13889000E-01   3.65114000E-02 
   9.62837000E+00    9.20811000E-01   2.37153000E-01 
   2.85332000E+00   -3.27447000E-03   8.19702000E-01 
SP   1    1.000000
   9.05661000E-01    1.00000000E+00   1.00000000E+00 
SP   1    1.000000
   2.55611000E-01    1.00000000E+00   1.00000000E+00 
SP   1    1.000000
   8.45000000E-02    1.00000000E+00   1.00000000E+00 
D    1    1.000000
   1.29200000E+00    1.00000000E+00 

7    0
S    6    1.000000
   4.56324000E+03    1.96665000E-03 
   6.82024000E+02    1.52306000E-02 
   1.54973000E+02    7.61269000E-02 
   4.44553000E+01    2.60801000E-01 
   1.30290000E+01    6.16462000E-01 
   1.82773000E+00    2.21006000E-01 
SP   3    1.000000
   2.09642000E+01    1.14660000E-01   4.02487000E-02 
   4.80331000E+00    9.19999000E-01   2.37594000E-01 
   1.45933000E+00   -3.03068000E-03   8.15854000E-01 
SP   1    1.000000
   4.83456000E-01    1.00000000E+00   1.00000000E+00 
SP   1    1.000000
   1.45585000E-01    1.00000000E+00   1.00000000E+00 
SP   1    1.000000
   4.38000000E-02    1.00000000E+00   1.00000000E+00 
D    1    1.000000
   6.26000000E-01    1.00000000E+00 

8    0
S    6    1.000000
   8.58850000E+03    1.89515000E-03 
   1.29723000E+03    1.43859000E-02 
   2.99296000E+02    7.07320000E-02 
   8.73771000E+01    2.40001000E-01 
   2.56789000E+01    5.94797000E-01 
   3.74004000E+00    2.80802000E-01 
SP   3    1.000000
   4.21175000E+01    1.13889000E-01   3.65114000E-02 
   9.62837000E+00    9.20811000E-01   2.37153000E-01 
   2.85332000E+00   -3.27447000E-03   8.19702000E-01 
SP   1    1.000000
   9.05661000E-01    1.00000000E+00   1.00000000E+00 
SP   1    1.000000
   2.55611000E-01    1.00000000E+00   1.00000000E+00 
SP   1    1.000000
   8.45000000E-02    1.00000000E+00   1.00000000E+00 
D    1    1.000000
   1.29200000E+00    1.00000000E+00 

9    0
S    6    1.000000
   6.29348000E+03    1.96979000E-03 
   9.49044000E+02    1.49613000E-02 
   2.18776000E+02    7.35006000E-02 
   6.36916000E+01    2.48937000E-01 
   1.88282000E+01    6.02460000E-01 
   2.72023000E+00    2.56202000E-01 
SP   3    1.000000
   3.06331000E+01    1.11906000E-01   3.83119000E-02 
   7.02614000E+00    9.21666000E-01   2.37403000E-01 
   2.11205000E+00   -2.56919000E-03   8.17592000E-01 
SP   1    1.000000
   6.84009000E-01    1.00000000E+00   1.00000000E+00 
SP   1    1.000000
   2.00878000E-01    1.00000000E+00   1.00000000E+00 
SP   1    1.000000
   6.39000000E-02    1.00000000E+00   1.00000000E+00 
D    1    1.000000
   9.13000000E-01    1.00000000E+00 

10    0
S    6    1.000000
   6.29348000E+03    1.96979000E-03 
   9.49044000E+02    1.49613000E-02 
   2.18776000E+02    7.35006000E-02 
   6.36916000E+01    2.48937000E-01 
   1.88282000E+01    6.02460000E-01 
   2.72023000E+00    2.56202000E-01 
SP   3    1.000000
   3.06331000E+01    1.11906000E-01   3.83119000E-02 
   7.02614000E+00    9.21666000E-01   2.37403000E-01 
   2.11205000E+00   -2.56919000E-03   8.17592000E-01 
SP   1    1.000000
   6.84009000E-01    1.00000000E+00   1.00000000E+00 
SP   1    1.000000
   2.00878000E-01    1.00000000E+00   1.00000000E+00 
SP   1    1.000000
   6.39000000E-02    1.00000000E+00   1.00000000E+00 
D    1    1.000000
   9.13000000E-01    1.00000000E+00 

11    0
S    6    1.000000
   4.56324000E+03    1.96665000E-03 
   6.82024000E+02    1.52306000E-02 
   1.54973000E+02    7.61269000E-02 
   4.44553000E+01    2.60801000E-01 
   1.30290000E+01    6.16462000E-01 
   1.82773000E+00    2.21006000E-01 
SP   3    1.000000
   2.09642000E+01    1.14660000E-01   4.02487000E-02 
   4.80331000E+00    9.19999000E-01   2.37594000E-01 
   1.45933000E+00   -3.03068000E-03   8.15854000E-01 
SP   1    1.000000
   4.83456000E-01    1.00000000E+00   1.00000000E+00 
SP   1    1.000000
   1.45585000E-01    1.00000000E+00   1.00000000E+00 
SP   1    1.000000
   4.38000000E-02    1.00000000E+00   1.00000000E+00 
D    1    1.000000
   6.26000000E-01    1.00000000E+00 

12    0
S    3    1.000000
   3.38650000E+01    2.54938000E-02 
   5.09479000E+00    1.90373000E-01 
   1.15879000E+00    8.52161000E-01 
S    1    1.000000
   3.25840000E-01    1.00000000E+00 
S    1    1.000000
   1.02741000E-01    1.00000000E+00 
S    1    1.000000
   3.60000000E-02    1.00000000E+00 
P    1    1.000000
   7.50000000E-01    1.00000000E+00 

[MO]
Sym=X
Ene= 2.007783
Spin=Alpha
Occup=1
     1   -3.704653118318e-14
     2   -4.286969254257e-14
     3   -8.035073102781e-15
     4   -2.620617378760e-17
     5    9.372839243485e-02
     6    5.662066406970e-14
     7   -6.569027638717e-15
     8    2.772168278761e-14
     9    1.632924705432e-01
    10    4.627826632728e-13
    11   -1.866055252049e-13
    12    7.114010749249e-14
    13    1.469012918968e-01
    14   -3.886264254641e-12
    15   -4.225812971993e-13
    16   -1.813864578604e-12
    17    1.810677741111e-02
    18   -2.943975080682e-16
    19    1.132626485194e-02
    20    1.328664340580e-02
    21    8.764683791219e-15
    22    7.912961745530e-16
    23   -1.494365443574e-14
    24   -6.047809353064e-14
    25   -6.258272439718e-13
    26    1.195361300417e-13
    27   -6.547333441253e-15
    28    1.360773340656e-15
    29    2.764016017038e-04
    30    8.521643095603e-15
    31    4.663302280506e-14
    32   -2.247347690055e-13
    33   -9.034642766126e-13
    34   -2.566371164909e-16
    35   -3.777916873900e-15
    36    7.035325435426e-03
    37    1.598677708009e-14
    38    1.278091927749e-13
    39   -2.884839748690e-13
    40   -3.742355493854e-13
    41   -2.354873290633e-15
    42   -1.626744806284e-14
    43   -4.522206822115e-03
    44   -6.462295988348e-14
    45   -4.303812373551e-14
    46    1.360668565122e-14
    47    5.350169883693e-14
    48   -9.520370584649e-02
    49   -6.847118886973e-14
    50    2.060493380560e-14
    51    6.444531625156e-14
    52   -1.693949133182e-01
    53    1.749884562623e-13
    54    2.440217761145e-13
    55    1.719307235971e-13
    56   -9.922065899139e-02
    57    1.196504195572e-12
    58    6.251943027141e-13
    59    3.811474262364e-13
    60   -1.800199713936e-02
    61    8.069968836584e-15
    62    2.096171552744e-02
    63   -1.930587971963e-02
    64    8.402092855392e-15
    65    1.374072149154e-14
    66   -1.653329537855e-15
    67   -8.866689196398e-16
    68   -2.010927225952e-14
    69   -4.258326192358e-14
    70   -2.369993512652e-01
    71    3.158169641737e-15
    72   -8.731801806672e-15
    73   -3.451957270679e-14
    74   -2.764803784318e-01
    75    7.689210216497e-14
    76    4.978241156567e-15
    77   -5.806482421624e-14
    78   -1.716715600255e-01
    79   -2.130261618377e-13
    80   -5.087357337298e-14
    81    1.017838910861e-13
    82    4.926804798755e-03
    83   -2.838340477641e-15
    84   -1.848785746769e-02
    85    1.083647797918e-02
    86    2.401443521966e-15
    87   -1.715446245801e-16
    88    3.948200690717e-14
    89    2.261561192220e-14
    90    1.589058828058e-14
    91   -6.150867064487e-15
    92    5.067116944763e-02
    93    4.533322673181e-14
    94    3.136428786416e-14
    95   -3.058129104867e-16
    96    8.901775457854e-02
    97   -1.161012700516e-13
    98   -1.383250487020e-13
    99   -2.476055870690e-14
   100    5.911199946514e-02
   101   -1.014875388824e-11
   102    1.035753828506e-12
   103    2.255677126382e-12
   104    9.792496666573e-03
   105    1.932558770033e-15
   106    2.378765728790e-03
   107   -1.578657899592e-02
   108    8.156263448698e-17
   109    1.070986725213e-15
   110   -5.859193330056e-14
   111   -6.532210776593e-14
   112   -1.635579353084e-14
   113    5.596946502221e-15
   114    1.876922944723e-02
   115    8.273303599695e-14
   116   -3.257228038976e-15
   117   -9.929399617787e-15
   118    3.107978816258e-02
   119    1.928323183281e-14
   120   -5.543832738055e-14
   121    3.601459467299e-14
   122    1.674324491915e-02
   123    3.455386527564e-13
   124    3.327234092991e-14
   125   -2.983565261347e-13
   126   -2.025680000027e-02
   127    1.415283810247e-15
   128   -4.201829217154e-03
   129   -3.049727991710e-03
   130    2.852978478944e-15
   131    1.410910920439e-17
   132    2.644140470903e-14
   133    1.463033067060e-14
   134   -2.829657586662e-14
   135    3.332943209143e-14
   136   -4.832015299376e-02
   137    6.531987227783e-14
   138   -5.672653502781e-14
   139    5.984815420939e-14
   140   -8.220005990887e-02
   141   -2.923299298741e-13
   142   -3.484000239712e-14
   143   -1.942881375358e-14
   144   -7.069868225192e-02
   145    3.971548198851e-13
   146    7.449261622047e-13
   147    1.013449514753e-13
   148    2.188825912563e-03
   149    2.918936331734e-15
   150    1.159633137818e-02
   151    1.539022667351e-03
   152    7.172874289959e-15
   153    2.730134926823e-15
   154   -6.681352909408e-14
   155   -3.949592270535e-14
   156    7.779802704775e-15
   157   -3.965976165874e-14
   158    2.079212631187e-02
   159   -5.617109145022e-14
   160    4.815696969401e-14
   161   -7.573725788140e-14
   162    3.385585628725e-02
   163   -1.808998336737e-13
   164   -2.924558677940e-13
   165    7.313192153863e-15
   166    1.999958546204e-02
   167    8.996112448306e-13
   168   -9.359681008774e-13
   169    3.156472965921e-13
   170   -1.274508989298e-02
   171   -7.795648442639e-17
   172    8.187773378636e-03
   173   -1.140178397030e-02
   174    4.653358605571e-15
   175   -5.971482176571e-15
   176    6.685647756389e-15
   177    1.931281217117e-15
   178   -3.466048526359e-14
   179    2.165337985024e-14
   180    1.138804585943e-01
   181    3.032590710441e-14
   182   -3.478524375226e-14
   183    4.470067929804e-14
   184    1.969122876355e-01
   185   -2.520120292015e-13
   186   -1.520731676177e-13
   187    2.506669456262e-14
   188    1.891030002034e-01
   189    1.193885014219e-11
   190   -2.552727031693e-12
   191    2.904004996019e-12
   192    1.039240066908e-02
   193    1.553600726922e-14
   194   -1.588206947922e-02
   195    3.574891178803e-03
   196   -1.078236930937e-14
   197    1.597627956072e-14
   198   -2.666713372081e-14
   199    6.650547782736e-15
   200    3.112514320111e-13
   201    1.390064671710e-12
   202   -2.732511457361e-16
   203    5.377292950473e-15
   204    9.031987622097e-03
Sym=X
Ene= 2.003685
Spin=Alpha
Occup=1
     1    9.009922701355e-03
     2    1.498768367516e-02
     3    8.928634227083e-03
     4   -2.882481766499e-02
     5   -3.388969680870e-14
     6   -4.064681050320e-02
     7    1.454862806122e-02
     8   -4.815426686247e-02
     9   -6.379906120696e-14
    10   -5.385114950083e-02
    11   -6.522228043197e-03
    12   -4.918961981595e-02
    13   -3.170959293896e-14
    14   -1.209697147521e-01
    15   -2.342675371043e-03
    16   -2.432567614942e-02
    17   -3.545153303002e-14
    18    2.016671865277e-03
    19    8.807143357500e-14
    20   -2.275101954123e-14
    21   -8.795737411787e-03
    22    4.986531785319e-03
    23    2.034627835460e-03
    24   -8.736735517197e-03
    25   -3.145317217758e-02
    26    3.122304739778e-02
    27    2.080811753722e-04
    28    6.772605971139e-04
    29   -4.262969005001e-15
    30    1.897511412108e-02
    31    3.017168092918e-02
    32    1.006897009207e-02
    33    3.964070357025e-03
    34    5.315334454268e-04
    35    5.138374937032e-04
    36   -5.579936511037e-15
    37    3.359851126510e-03
    38    1.736615691125e-02
    39    2.960337933713e-02
    40   -5.667364324388e-02
    41    1.404868453246e-03
    42   -1.688868447368e-03
    43   -1.242950035339e-14
    44   -1.173087627662e-02
    45   -1.943881087146e-02
    46   -4.882868661929e-02
    47   -1.029184238494e-02
    48   -5.542087649054e-14
    49    5.781970088356e-02
    50   -8.325648424584e-02
    51   -2.133721654411e-02
    52   -9.048551253642e-14
    53    6.650963777297e-02
    54    3.795628512441e-02
    55    6.253930131216e-02
    56   -2.004248670262e-13
    57    3.631697425603e-02
    58    6.009077869817e-02
    59    7.863863093497e-02
    60    1.426147558508e-13
    61   -2.680085240430e-03
    62    1.194631660634e-13
    63   -4.113440168295e-14
    64   -4.922224333587e-02
    65   -3.411114001162e-02
    66   -2.017428663259e-03
    67   -2.739412200888e-03
    68    2.150855203216e-01
    69    2.431919577031e-01
    70    6.046061301997e-14
    71    5.961439424917e-03
    72    2.471880711079e-01
    73    2.786967250996e-01
    74    6.352435156559e-14
    75   -3.388396766369e-02
    76    1.446728067586e-01
    77    2.041927233592e-01
    78    2.538414073370e-13
    79   -2.101734716420e-02
    80   -4.661352380467e-03
    81    3.331162392317e-03
    82   -1.071810502871e-13
    83   -3.309532001185e-03
    84   -1.780515188172e-14
    85    1.465842186168e-14
    86    1.505168576335e-02
    87    8.387499007510e-04
    88   -1.412677170367e-02
    89   -2.366601887067e-02
    90   -2.698383616388e-02
    91    6.564817469127e-03
    92    9.795101096762e-14
    93    6.473489978851e-02
    94   -4.613228293623e-02
    95    8.995305638467e-03
    96    1.352226796684e-13
    97    5.798260124625e-02
    98   -4.662954396369e-02
    99    2.810017720038e-02
   100    1.746848603970e-13
   101   -2.606856027517e-01
   102   -1.288165349614e-02
   103    1.349013106968e-01
   104   -1.472440344332e-13
   105   -2.297426051451e-03
   106    1.892773978982e-13
   107    1.591891021883e-14
   108   -2.998013716937e-02
   109    8.528216632739e-03
   110    4.461487766635e-03
   111    7.574912669372e-03
   112   -6.703920050798e-02
   113    1.070469313623e-01
   114    2.086356363494e-13
   115   -2.291616632924e-02
   116   -1.038670954422e-01
   117    1.651502689437e-01
   118    3.426042219935e-13
   119   -2.114347316262e-02
   120   -9.325171850949e-02
   121    1.513610007164e-01
   122    3.212911985991e-14
   123    2.001706404599e-02
   124   -1.009854471900e-02
   125    1.576113854037e-03
   126    2.040254399770e-13
   127   -1.401961368078e-04
   128   -2.528077199662e-14
   129   -2.373339339891e-14
   130    8.099373127501e-03
   131   -3.849254767331e-03
   132    2.360184461865e-02
   133    3.905740155935e-02
   134    4.916782668048e-02
   135    2.411663904897e-02
   136   -1.240581342100e-13
   137   -1.033628775314e-01
   138    6.905228295285e-02
   139    2.753925484277e-02
   140   -2.162925754006e-13
   141   -2.005776451511e-01
   142    6.901764715148e-02
   143    4.454468595657e-02
   144   -1.639930941130e-13
   145   -1.908130064832e-01
   146   -3.029779592246e-03
   147    5.056976238684e-03
   148   -3.923326108159e-14
   149   -1.396365693943e-03
   150   -3.472846973744e-14
   151   -3.134865174817e-15
   152    7.476785529817e-04
   153   -3.407589309586e-03
   154   -1.348990521231e-02
   155   -2.221896835203e-02
   156   -1.789507028292e-02
   157    5.922341764236e-02
   158   -8.671629949140e-14
   159    5.909706256926e-02
   160   -3.201041110050e-02
   161    9.075339322171e-02
   162   -1.520687685186e-13
   163    1.202571229846e-01
   164   -1.754163615507e-02
   165    8.839429876752e-02
   166   -5.111415634610e-14
   167    1.335815507661e-01
   168   -4.850795349852e-03
   169    3.936884698192e-03
   170   -3.064667707545e-15
   171    2.735408602109e-04
   172   -8.030206305464e-16
   173    2.358423581250e-14
   174   -3.441648355691e-03
   175    2.117041817512e-04
   176   -4.626763955934e-03
   177   -7.458835888465e-03
   178    3.734307916775e-03
   179    2.469451620756e-02
   180    1.593703992061e-14
   181    1.838725103656e-02
   182    9.087131969414e-03
   183    3.324729574173e-02
   184   -3.740090931220e-15
   185    6.517410107640e-02
   186   -9.958028793794e-03
   187    3.773138600638e-02
   188   -2.286797850615e-14
   189    3.777802965762e-01
   190   -2.963225343438e-02
   191    7.495350789536e-02
   192    4.009945497253e-14
   193    6.982496309865e-04
   194    7.039922729284e-15
   195   -2.690528791095e-14
   196   -3.287927811912e-03
   197   -1.092475104333e-03
   198   -4.072354972868e-03
   199   -7.517188125711e-03
   200    1.464840572779e-03
   201    1.814669820049e-02
   202    1.119407370999e-03
   203   -6.128386513359e-04
   204   -9.943682649163e-15
Sym=X
Ene= 2.002132
Spin=Alpha
Occup=1
     1    1.585167704017e-13
     2    1.817968801728e-13
     3    1.748706869904e-13
     4   -7.420981414147e-14
     5    7.511220760915e-02
     6   -2.735157062121e-13
     7    2.845441379394e-13
     8   -1.464301795497e-13
     9    1.286936199773e-01
    10   -4.394032073640e-14
    11    2.081367017750e-13
    12    3.097967248151e-13
    13    1.012648901456e-01
    14    9.099252122638e-12
    15    7.877168422122e-13
    16    3.988459134572e-12
    17    1.903347040101e-02
    18    1.231350055566e-14
    19   -2.515664581890e-03
    20    1.408340911161e-02
    21   -1.270361386753e-14
    22    1.888958386557e-14
    23    2.110765192363e-14
    24   -8.655776434726e-14
    25    3.256575277895e-13
    26   -1.850878224709e-13
    27   -7.581629345619e-15
    28    7.698970378176e-15
    29    5.630190265861e-03
    30   -2.698930072728e-15
    31    3.818412922911e-14
    32    4.831988639027e-13
    33    1.563112936390e-12
    34    6.795872642773e-15
    35    2.683499781375e-15
    36    5.831470354736e-03
    37    6.252704103488e-14
    38    7.749968903045e-14
    39    1.882422551247e-13
    40    5.199150207371e-13
    41   -9.377279183360e-15
    42   -2.480068919806e-14
    43    7.175876255960e-03
    44    7.578457956917e-14
    45    1.139065227024e-13
    46    3.120891135633e-13
    47   -2.903297567783e-13
    48    6.980799363631e-02
    49   -3.225958206501e-13
    50    4.592814888153e-13
    51   -4.768365884569e-13
    52    1.214496001105e-01
    53   -3.113518361802e-13
    54    2.944061796625e-13
    55   -7.261701406058e-14
    56    6.191093267403e-02
    57   -3.905534714232e-12
    58   -1.184091551663e-12
    59    5.507746452012e-13
    60    2.724311686124e-02
    61    1.192834905202e-14
    62    1.676801775041e-02
    63   -3.315796035675e-03
    64   -2.175369211262e-13
    65   -8.402645635457e-15
    66    6.370919207301e-15
    67    6.620613758336e-15
    68   -2.015035803183e-13
    69    1.391866663552e-12
    70   -3.366025884191e-03
    71    2.258810766439e-14
    72   -2.236710559813e-13
    73    1.592603445482e-12
    74   -9.178339184172e-06
    75    3.049243320060e-13
    76    5.569936364278e-14
    77    1.003008650409e-12
    78   -1.144811637994e-02
    79    7.157573959681e-13
    80    2.816210575696e-13
    81   -1.937687662823e-13
    82   -2.475259213806e-02
    83    4.074980853634e-14
    84    5.620624556758e-03
    85   -2.854383346055e-03
    86    4.489250906470e-15
    87    8.230407020478e-14
    88    1.445305086548e-13
    89    1.727023041905e-13
    90   -1.441464356617e-13
    91   -3.104776415064e-14
    92   -5.120293855420e-02
    93   -3.152300233963e-13
    94   -2.952994846013e-13
    95   -2.960910098272e-14
    96   -9.002312356473e-02
    97    1.185097048975e-15
    98    1.340435149635e-13
    99   -2.985865443845e-13
   100   -8.341295216474e-02
   101    1.697937465906e-11
   102   -1.369773661470e-12
   103   -4.210748223749e-12
   104   -1.387737304547e-02
   105    1.349235541490e-14
   106   -4.420445706582e-02
   107   -2.390568578049e-02
   108    1.262576407860e-13
   109   -1.446931611954e-13
   110    3.396754032417e-14
   111    2.878881226835e-14
   112    5.328926530289e-13
   113   -3.785224472254e-13
   114   -1.784475648225e-01
   115    7.349904936894e-15
   116    7.963162783031e-13
   117   -5.812368050330e-13
   118   -2.791639986495e-01
   119    2.831600729286e-13
   120    6.767800367585e-13
   121   -6.576091473842e-13
   122   -2.635353569680e-01
   123   -5.434911508224e-13
   124    1.371050922579e-13
   125    3.463342595408e-13
   126   -3.848433786257e-02
   127    1.038270335053e-14
   128    1.420185033781e-02
   129    8.818094730608e-03
   130   -4.062243225165e-14
   131   -1.412715438158e-15
   132    1.671979868053e-13
   133    4.954349353413e-14
   134    1.861741095989e-13
   135   -6.007293610415e-14
   136    1.112171121993e-01
   137    4.986670156466e-13
   138    2.511844720475e-13
   139   -1.065384551744e-13
   140    1.803589386512e-01
   141    4.462858504297e-13
   142    4.620496422199e-13
   143   -1.768854219597e-13
   144    1.922266450592e-01
   145    2.274367203285e-13
   146   -4.029676504672e-13
   147   -1.579972023874e-13
   148    1.183683120840e-02
   149   -8.888256720137e-15
   150   -1.122341515168e-02
   151   -5.053413586681e-03
   152   -2.074789295778e-14
   153    2.450509974874e-14
   154   -2.980912570959e-14
   155   -6.998647836559e-14
   156   -9.414506645388e-14
   157    3.416704520396e-13
   158    9.422892043989e-02
   159    2.362462285916e-13
   160   -1.597285775525e-13
   161    5.334551432651e-13
   162    1.561101072423e-01
   163    3.746705492784e-13
   164   -1.987857280961e-13
   165    3.912468157744e-13
   166    1.251601666240e-01
   167   -1.416316004853e-12
   168    3.388642849083e-13
   169   -6.811331802450e-14
   170   -2.826159389879e-02
   171    5.782673371981e-16
   172    8.095654566551e-03
   173    2.059775040512e-03
   174   -4.856444424177e-15
   175    3.334484251410e-14
   176   -2.108412334865e-14
   177   -4.630916626639e-14
   178    9.816500524708e-14
   179   -1.871522046371e-13
   180    5.148227304545e-02
   181    1.344739787027e-13
   182    1.172280488457e-13
   183   -2.563681346754e-13
   184    8.466598686867e-02
   185   -1.008001534929e-13
   186    4.047215370063e-13
   187   -4.630129741352e-13
   188    1.130481116558e-01
   189   -2.135267688444e-11
   190    3.713257660446e-12
   191   -5.039760407531e-12
   192    6.039463305440e-03
   193   -1.813939764941e-14
   194   -1.224565178101e-02
   195   -6.580145651225e-03
   196   -3.541663452772e-15
   197   -3.237695621005e-14
   198    1.873498244242e-13
   199    2.119220360869e-13
   200   -3.763811156256e-13
   201   -2.056565448668e-12
   202   -1.060332866969e-14
   203    9.292584245963e-15
   204    3.051001632643e-03
Sym=X
Ene= 2.001734
Spin=Alpha
Occup=1
     1    7.355487500443e-03
     2    1.208388992962e-02
     3    2.641158363906e-02
     4   -1.279335313355e-02
     5   -3.752199777388e-13
     6   -3.393835701470e-02
     7    4.719970015643e-02
     8   -2.250151327294e-02
     9   -6.459798824375e-13
    10   -2.161305664429e-02
    11    2.232610022655e-02
    12   -8.879879831350e-03
    13   -4.305563375937e-13
    14    1.679850920091e-01
    15    5.677834960237e-02
    16    7.806486584686e-02
    17   -1.101734526725e-13
    18    1.460292913879e-03
    19    9.076898927450e-14
    20   -8.017177139169e-14
    21   -3.610913092794e-03
    22    2.278511894990e-03
    23   -2.975066048817e-03
    24   -4.006721172359e-03
    25   -1.711725118235e-02
    26    5.559230617755e-03
    27   -5.620329216457e-04
    28    1.838567382166e-03
    29   -4.066673963083e-14
    30    2.828975830837e-03
    31    7.650136480008e-03
    32    8.809144975004e-03
    33    4.489847880072e-02
    34    1.082840964291e-03
    35   -3.517484226322e-04
    36   -2.952232852389e-14
    37   -7.955551402277e-03
    38   -1.280906235905e-03
    39    9.786343910116e-03
    40    1.543125390281e-02
    41   -2.055122350943e-03
    42    4.973594163839e-04
    43   -1.547857157729e-14
    44    2.158253076692e-02
    45    3.374644793658e-02
    46    7.391553497415e-02
    47   -7.686781669839e-02
    48   -3.770537344846e-13
    49   -9.592836423445e-02
    50    1.132452809785e-01
    51   -1.305545600174e-01
    52   -6.778086960538e-13
    53   -8.837690208277e-02
    54    1.860825552760e-02
    55    1.265065226917e-02
    56   -3.736562250078e-13
    57   -4.080144102007e-02
    58    5.675277980131e-03
    59    3.769712737383e-02
    60    5.430455417088e-14
    61    6.559763027433e-03
    62    3.856941074413e-14
    63    1.843788626792e-14
    64   -4.141153008362e-02
    65    3.914589722533e-03
    66    4.650430126812e-03
    67    6.222924148389e-03
    68   -9.917941270442e-02
    69    2.546686006907e-01
    70   -1.055344299079e-13
    71   -1.157027408377e-02
    72   -1.123110674350e-01
    73    2.907871760617e-01
    74   -1.450145758985e-13
    75    7.628631027124e-02
    76   -2.146955987544e-02
    77    1.737793765878e-01
    78    8.734016822078e-14
    79    2.010564490341e-02
    80   -2.288344570156e-03
    81   -1.086251624064e-03
    82   -5.124845148348e-14
    83    9.657111847785e-03
    84   -3.556087546086e-14
    85    3.300406785613e-14
    86   -3.416374461340e-03
    87    1.741583695765e-02
    88    1.466621995090e-02
    89    2.471009761183e-02
    90   -1.488379634569e-02
    91   -9.792016020579e-03
    92    2.233244326127e-13
    93   -7.230461551569e-02
    94   -2.528247757301e-02
    95   -9.921152388816e-03
    96    3.747918697295e-13
    97   -8.523474627971e-02
    98    2.854423856148e-02
    99   -6.711580981615e-02
   100    3.648709270627e-13
   101    2.005012028240e-01
   102    4.427839901433e-02
   103   -1.017909018017e-01
   104   -1.650612003693e-13
   105    3.013419657286e-03
   106    2.538348420065e-13
   107    8.816487199449e-14
   108    3.498214092828e-02
   109   -2.493858595322e-02
   110   -1.182097691750e-02
   111   -2.006661969206e-02
   112    1.243692229133e-01
   113   -1.045133568918e-01
   114    6.804151224397e-13
   115    6.083560018476e-02
   116    1.899962615173e-01
   117   -1.625288633863e-01
   118    1.065031574746e-12
   119    8.455562986117e-02
   120    1.587447571258e-01
   121   -1.622596334518e-01
   122    8.654658605938e-13
   123    2.662859795021e-02
   124   -6.928804286506e-03
   125   -9.265924791158e-03
   126    3.341399234341e-13
   127    2.325461180157e-03
   128   -6.126916066769e-14
   129   -4.370946771180e-14
   130   -1.044701814699e-02
   131    3.589919584835e-04
   132   -6.818735451052e-03
   133   -1.209833232919e-02
   134    2.776978622771e-02
   135   -2.474863430266e-02
   136   -4.380188008015e-13
   137    3.439865123690e-02
   138    3.914471473100e-02
   139   -4.025959935107e-02
   140   -7.211496713278e-13
   141    8.400040271342e-02
   142    7.329987678532e-02
   143   -5.710209777368e-02
   144   -7.198646277357e-13