[Molden Format]
[Atoms] (Angs)
  C      1    6     -0.13173890     -1.79208980      0.00000000
  H      2    1     -2.14962000     -1.30978739      0.00000000
  H      3    1     -0.31599560     -2.86503115      0.00000000
  H      4    1      0.14407746      2.04280963     -0.00000000
  C      5    6     -1.17258876      0.48030861      0.00000000
  O      6    8     -2.25008207      1.06833796      0.00000000
  C      7    6      1.31158357      0.28308717     -0.00000000
  O      8    8      2.36361668      0.96389345     -0.00000000
  N      9    7      0.07017030      1.03138997     -0.00000000
  N     10    7     -1.19586868     -0.94982644      0.00000000
  C     11    6      1.19165158     -1.13169473     -0.00000000
  H     12    1      2.09970506     -1.73445456     -0.00000000
[GTO]
1    0
S    6    1.000000
   4.56324000E+03    1.96665000E-03 
   6.82024000E+02    1.52306000E-02 
   1.54973000E+02    7.61269000E-02 
   4.44553000E+01    2.60801000E-01 
   1.30290000E+01    6.16462000E-01 
   1.82773000E+00    2.21006000E-01 
SP   3    1.000000
   2.09642000E+01    1.14660000E-01   4.02487000E-02 
   4.80331000E+00    9.19999000E-01   2.37594000E-01 
   1.45933000E+00   -3.03068000E-03   8.15854000E-01 
SP   1    1.000000
   4.83456000E-01    1.00000000E+00   1.00000000E+00 
SP   1    1.000000
   1.45585000E-01    1.00000000E+00   1.00000000E+00 
SP   1    1.000000
   4.38000000E-02    1.00000000E+00   1.00000000E+00 
D    1    1.000000
   6.26000000E-01    1.00000000E+00 

2    0
S    3    1.000000
   3.38650000E+01    2.54938000E-02 
   5.09479000E+00    1.90373000E-01 
   1.15879000E+00    8.52161000E-01 
S    1    1.000000
   3.25840000E-01    1.00000000E+00 
S    1    1.000000
   1.02741000E-01    1.00000000E+00 
S    1    1.000000
   3.60000000E-02    1.00000000E+00 
P    1    1.000000
   7.50000000E-01    1.00000000E+00 

3    0
S    3    1.000000
   3.38650000E+01    2.54938000E-02 
   5.09479000E+00    1.90373000E-01 
   1.15879000E+00    8.52161000E-01 
S    1    1.000000
   3.25840000E-01    1.00000000E+00 
S    1    1.000000
   1.02741000E-01    1.00000000E+00 
S    1    1.000000
   3.60000000E-02    1.00000000E+00 
P    1    1.000000
   7.50000000E-01    1.00000000E+00 

4    0
S    3    1.000000
   3.38650000E+01    2.54938000E-02 
   5.09479000E+00    1.90373000E-01 
   1.15879000E+00    8.52161000E-01 
S    1    1.000000
   3.25840000E-01    1.00000000E+00 
S    1    1.000000
   1.02741000E-01    1.00000000E+00 
S    1    1.000000
   3.60000000E-02    1.00000000E+00 
P    1    1.000000
   7.50000000E-01    1.00000000E+00 

5    0
S    6    1.000000
   4.56324000E+03    1.96665000E-03 
   6.82024000E+02    1.52306000E-02 
   1.54973000E+02    7.61269000E-02 
   4.44553000E+01    2.60801000E-01 
   1.30290000E+01    6.16462000E-01 
   1.82773000E+00    2.21006000E-01 
SP   3    1.000000
   2.09642000E+01    1.14660000E-01   4.02487000E-02 
   4.80331000E+00    9.19999000E-01   2.37594000E-01 
   1.45933000E+00   -3.03068000E-03   8.15854000E-01 
SP   1    1.000000
   4.83456000E-01    1.00000000E+00   1.00000000E+00 
SP   1    1.000000
   1.45585000E-01    1.00000000E+00   1.00000000E+00 
SP   1    1.000000
   4.38000000E-02    1.00000000E+00   1.00000000E+00 
D    1    1.000000
   6.26000000E-01    1.00000000E+00 

6    0
S    6    1.000000
   8.58850000E+03    1.89515000E-03 
   1.29723000E+03    1.43859000E-02 
   2.99296000E+02    7.07320000E-02 
   8.73771000E+01    2.40001000E-01 
   2.56789000E+01    5.94797000E-01 
   3.74004000E+00    2.80802000E-01 
SP   3    1.000000
   4.21175000E+01    1.13889000E-01   3.65114000E-02 
   9.62837000E+00    9.20811000E-01   2.37153000E-01 
   2.85332000E+00   -3.27447000E-03   8.19702000E-01 
SP   1    1.000000
   9.05661000E-01    1.00000000E+00   1.00000000E+00 
SP   1    1.000000
   2.55611000E-01    1.00000000E+00   1.00000000E+00 
SP   1    1.000000
   8.45000000E-02    1.00000000E+00   1.00000000E+00 
D    1    1.000000
   1.29200000E+00    1.00000000E+00 

7    0
S    6    1.000000
   4.56324000E+03    1.96665000E-03 
   6.82024000E+02    1.52306000E-02 
   1.54973000E+02    7.61269000E-02 
   4.44553000E+01    2.60801000E-01 
   1.30290000E+01    6.16462000E-01 
   1.82773000E+00    2.21006000E-01 
SP   3    1.000000
   2.09642000E+01    1.14660000E-01   4.02487000E-02 
   4.80331000E+00    9.19999000E-01   2.37594000E-01 
   1.45933000E+00   -3.03068000E-03   8.15854000E-01 
SP   1    1.000000
   4.83456000E-01    1.00000000E+00   1.00000000E+00 
SP   1    1.000000
   1.45585000E-01    1.00000000E+00   1.00000000E+00 
SP   1    1.000000
   4.38000000E-02    1.00000000E+00   1.00000000E+00 
D    1    1.000000
   6.26000000E-01    1.00000000E+00 

8    0
S    6    1.000000
   8.58850000E+03    1.89515000E-03 
   1.29723000E+03    1.43859000E-02 
   2.99296000E+02    7.07320000E-02 
   8.73771000E+01    2.40001000E-01 
   2.56789000E+01    5.94797000E-01 
   3.74004000E+00    2.80802000E-01 
SP   3    1.000000
   4.21175000E+01    1.13889000E-01   3.65114000E-02 
   9.62837000E+00    9.20811000E-01   2.37153000E-01 
   2.85332000E+00   -3.27447000E-03   8.19702000E-01 
SP   1    1.000000
   9.05661000E-01    1.00000000E+00   1.00000000E+00 
SP   1    1.000000
   2.55611000E-01    1.00000000E+00   1.00000000E+00 
SP   1    1.000000
   8.45000000E-02    1.00000000E+00   1.00000000E+00 
D    1    1.000000
   1.29200000E+00    1.00000000E+00 

9    0
S    6    1.000000
   6.29348000E+03    1.96979000E-03 
   9.49044000E+02    1.49613000E-02 
   2.18776000E+02    7.35006000E-02 
   6.36916000E+01    2.48937000E-01 
   1.88282000E+01    6.02460000E-01 
   2.72023000E+00    2.56202000E-01 
SP   3    1.000000
   3.06331000E+01    1.11906000E-01   3.83119000E-02 
   7.02614000E+00    9.21666000E-01   2.37403000E-01 
   2.11205000E+00   -2.56919000E-03   8.17592000E-01 
SP   1    1.000000
   6.84009000E-01    1.00000000E+00   1.00000000E+00 
SP   1    1.000000
   2.00878000E-01    1.00000000E+00   1.00000000E+00 
SP   1    1.000000
   6.39000000E-02    1.00000000E+00   1.00000000E+00 
D    1    1.000000
   9.13000000E-01    1.00000000E+00 

10    0
S    6    1.000000
   6.29348000E+03    1.96979000E-03 
   9.49044000E+02    1.49613000E-02 
   2.18776000E+02    7.35006000E-02 
   6.36916000E+01    2.48937000E-01 
   1.88282000E+01    6.02460000E-01 
   2.72023000E+00    2.56202000E-01 
SP   3    1.000000
   3.06331000E+01    1.11906000E-01   3.83119000E-02 
   7.02614000E+00    9.21666000E-01   2.37403000E-01 
   2.11205000E+00   -2.56919000E-03   8.17592000E-01 
SP   1    1.000000
   6.84009000E-01    1.00000000E+00   1.00000000E+00 
SP   1    1.000000
   2.00878000E-01    1.00000000E+00   1.00000000E+00 
SP   1    1.000000
   6.39000000E-02    1.00000000E+00   1.00000000E+00 
D    1    1.000000
   9.13000000E-01    1.00000000E+00 

11    0
S    6    1.000000
   4.56324000E+03    1.96665000E-03 
   6.82024000E+02    1.52306000E-02 
   1.54973000E+02    7.61269000E-02 
   4.44553000E+01    2.60801000E-01 
   1.30290000E+01    6.16462000E-01 
   1.82773000E+00    2.21006000E-01 
SP   3    1.000000
   2.09642000E+01    1.14660000E-01   4.02487000E-02 
   4.80331000E+00    9.19999000E-01   2.37594000E-01 
   1.45933000E+00   -3.03068000E-03   8.15854000E-01 
SP   1    1.000000
   4.83456000E-01    1.00000000E+00   1.00000000E+00 
SP   1    1.000000
   1.45585000E-01    1.00000000E+00   1.00000000E+00 
SP   1    1.000000
   4.38000000E-02    1.00000000E+00   1.00000000E+00 
D    1    1.000000
   6.26000000E-01    1.00000000E+00 

12    0
S    3    1.000000
   3.38650000E+01    2.54938000E-02 
   5.09479000E+00    1.90373000E-01 
   1.15879000E+00    8.52161000E-01 
S    1    1.000000
   3.25840000E-01    1.00000000E+00 
S    1    1.000000
   1.02741000E-01    1.00000000E+00 
S    1    1.000000
   3.60000000E-02    1.00000000E+00 
P    1    1.000000
   7.50000000E-01    1.00000000E+00 

[MO]
Sym=X
Ene= 2.000000
Spin=Alpha
Occup=1
     1   -2.585194920392e-07
     2    1.116985153299e-06
     3   -3.452593638421e-06
     4    3.918470033032e-06
     5    2.028141546195e-15
     6   -1.240706968257e-05
     7    1.384084899179e-05
     8   -1.489024286457e-05
     9    1.893286312486e-16
    10    1.562519148576e-04
    11    1.240785883043e-04
    12    2.115375322692e-04
    13    6.537950703852e-15
    14    3.656695616069e-04
    15    2.233533341996e-04
    16    6.034108086358e-04
    17   -1.196289971233e-15
    18   -1.140512257670e-06
    19   -6.673215783019e-16
    20    7.383126275586e-16
    21    6.325601473791e-06
    22   -1.493573423458e-06
    23    2.687740297605e-06
    24    1.831802118192e-05
    25    8.883687865738e-05
    26    1.561223923128e-04
    27    9.831020718058e-06
    28   -8.147304157078e-06
    29    2.886908198619e-16
    30   -2.455459544048e-06
    31    3.274159478604e-05
    32    1.282215005368e-04
    33    3.312321990224e-04
    34   -3.436648379542e-06
    35    4.412636752126e-06
    36    7.385863584150e-16
    37   -7.487127451075e-08
    38   -1.788958962082e-06
    39    1.772577299668e-05
    40    1.337066065035e-04
    41    1.170242881920e-05
    42    2.812795116516e-07
    43   -2.402256832543e-15
    44    3.510441755181e-06
    45   -5.422989814851e-05
    46   -4.291259648787e-05
    47    2.225308711974e-05
    48   -1.144197270934e-14
    49    2.125009087803e-04
    50   -2.459586966019e-04
    51    1.371575498819e-04
    52   -2.557108135239e-14
    53    1.228357041402e-04
    54   -2.207424008602e-04
    55    1.209994038773e-04
    56   -7.486670939947e-15
    57    3.930250380588e-04
    58    4.610567100160e-04
    59   -8.715764897053e-05
    60   -2.441089729261e-15
    61   -4.410214343616e-05
    62   -2.402271827045e-15
    63   -1.464606883013e-15
    64    7.400063747907e-05
    65   -1.258077160924e-04
    66    3.849943496714e-01
    67    3.292794560692e-01
    68    1.119609590342e-03
    69   -6.101058783954e-04
    70   -5.279109583112e-15
    71    3.835951458627e-03
    72   -4.625783586909e-04
    73    2.462309514595e-04
    74   -1.008844197536e-14
    75   -8.987835265589e-04
    76    1.061083865272e-04
    77   -5.396891896540e-05
    78   -1.928637621535e-15
    79    1.192014895264e-03
    80    1.289126569220e-04
    81   -6.348238150405e-05
    82   -1.197950792287e-15
    83   -5.626285181027e-05
    84   -4.657199727994e-16
    85    1.060344032215e-15
    86   -4.053454773270e-05
    87    4.999041268819e-05
    88   -2.889223085257e-06
    89    5.180389595555e-05
    90   -3.272783763399e-05
    91   -2.164821215544e-05
    92   -5.730574596338e-15
    93   -1.977577316624e-04
    94   -2.340808380245e-04
    95   -1.676490220383e-04
    96   -1.132895656914e-14
    97    7.579166917984e-05
    98   -2.353680713079e-04
    99   -3.254765994493e-04
   100   -5.231416746047e-15
   101    2.233358874253e-03
   102    5.478894708287e-04
   103   -8.175472373096e-04
   104    1.438245010610e-15
   105    4.221447164865e-05
   106    2.388776971410e-15
   107   -1.180766805861e-15
   108   -7.732410701553e-05
   109   -1.315650052846e-04
   110   -3.948825995934e-01
   111   -3.377310738999e-01
   112    1.074824855717e-03
   113    6.728412687452e-04
   114    5.327134972097e-15
   115   -3.869439904039e-03
   116   -4.505252649261e-04
   117   -2.879053305305e-04
   118    2.836532034176e-15
   119    8.652405885004e-04
   120    1.043828007586e-04
   121    7.609358324231e-05
   122    1.210706192622e-14
   123   -1.036386423272e-03
   124    6.400943096233e-05
   125    4.243778548671e-05
   126    2.873286414665e-16
   127    6.611099276548e-05
   128   -3.771206082982e-16
   129   -2.058488146313e-16
   130    2.976599715942e-05
   131    7.585878801336e-05
   132   -2.454009257974e-07
   133   -5.915199162425e-07
   134    1.641922500658e-05
   135   -4.110700764899e-06
   136   -2.854570284290e-14
   137    3.005608318246e-06
   138   -4.400785851179e-05
   139    1.176201192062e-05
   140   -4.705733507604e-14
   141    4.472020831596e-05
   142    6.661097563526e-05
   143   -1.114128824374e-05
   144   -4.690223480862e-14
   145    1.284862571713e-04
   146    7.149307612461e-04
   147   -5.606476493709e-05
   148   -2.610282570806e-15
   149    3.900119131708e-07
   150    4.695726242343e-16
   151    1.524578657202e-15
   152    7.235327335499e-06
   153    1.576804720638e-05
   154    4.131865067985e-07
   155    5.663385533204e-07
   156    1.765613893992e-06
   157   -7.913417227565e-06
   158   -2.676035401072e-15
   159   -8.274931894548e-06
   160   -3.789992196192e-06
   161    1.957875008263e-05
   162   -4.321362829189e-15
   163    1.647995620980e-05
   164    8.446475127619e-05
   165    4.698838341138e-06
   166   -6.619233741437e-15
   167   -2.560587231953e-04
   168    1.928331846098e-04
   169   -3.044626912654e-04
   170    1.216670931330e-15
   171   -5.711907370376e-06
   172   -5.816018685530e-16
   173   -1.747609619251e-15
   174   -1.429177815603e-05
   175   -3.082642787166e-06
   176   -9.526233454332e-07
   177   -6.217659905165e-07
   178    4.336758956678e-06
   179    1.200302406088e-05
   180   -1.030857103773e-15
   181    2.007493191271e-05
   182   -1.467161611298e-05
   183   -6.151885945508e-05
   184    3.942050136741e-15
   185   -4.670272833700e-04
   186    3.750899719073e-04
   187   -1.352400780155e-04
   188   -7.188756887361e-16
   189   -3.291622059749e-03
   190    2.162641123450e-04
   191   -1.046793680935e-03
   192    2.362295531973e-15
   193    7.863923307592e-06
   194   -9.087492717462e-17
   195   -1.287665386168e-15
   196    2.451888892367e-05
   197   -2.498051324655e-05
   198    2.585156535042e-06
   199   -9.200940872794e-05
   200   -1.157532596571e-04
   201   -3.726377689030e-04
   202    1.540758009804e-05
   203   -7.992219349661e-06
   204    1.159433948748e-15
Sym=X
Ene= 2.000000
Spin=Alpha
Occup=1
     1   -2.204347367002e-07
     2   -1.162799520655e-06
     3   -1.064622903390e-06
     4    3.632440790317e-06
     5   -1.891283554093e-15
     6    1.109728645484e-05
     7    7.941096513262e-06
     8   -1.579589148767e-05
     9   -1.758678839296e-15
    10   -4.738958960487e-04
    11   -2.788978046806e-05
    12   -1.690093086027e-04
    13   -3.148521110883e-15
    14    3.336746007017e-04
    15    5.092522266883e-04
    16   -2.084808543152e-04
    17    8.166107593136e-15
    18    2.764152824733e-06
    19    8.604817850437e-16
    20    1.743492377555e-16
    21   -1.363849409806e-06
    22    5.584192592406e-06
    23    2.857270144214e-06
    24    3.265235366111e-05
    25    3.815849176778e-05
    26    2.652131400575e-04
    27    6.094701790930e-06
    28   -5.450132477819e-06
    29    7.639290750244e-16
    30   -3.052691532220e-06
    31    8.310754168551e-06
    32   -8.797803032743e-05
    33   -1.010883047720e-04
    34    2.214674962570e-06
    35    2.988143279819e-07
    36    6.929784947639e-16
    37    4.100165452140e-06
    38    8.257355173078e-05
    39    1.343402762984e-04
    40    2.666081696667e-04
    41   -2.652228760831e-07
    42   -9.880368805721e-06
    43   -6.621956711390e-16
    44    2.778695697688e-06
    45   -5.387211216833e-05
    46   -3.640989307194e-05
    47    2.270193235281e-05
    48    9.151548463315e-16
    49    2.038417610200e-04
    50   -2.833964542618e-04
    51    1.399723085180e-04
    52    2.391797936766e-15
    53   -2.353231555692e-04
    54   -4.012081794872e-04
    55    1.259349364254e-04
    56    2.551766293820e-15
    57    1.084388689048e-04
    58    5.081425860842e-04
    59   -3.289056412837e-04
    60   -5.032742848502e-15
    61   -4.004708157986e-05
    62   -8.175675658914e-16
    63    5.198096377199e-16
    64    7.157293472759e-05
    65   -1.261725320939e-04
    66    3.948674331063e-01
    67    3.377250090127e-01
    68    1.148669275871e-03
    69   -6.261713499547e-04
    70    4.218809850921e-15
    71    3.923183897156e-03
    72   -4.791179096114e-04
    73    2.536365116694e-04
    74    1.168278941269e-14
    75   -8.820615701817e-04
    76    1.324059387515e-04
    77   -5.656150638475e-05
    78    4.927880149275e-15
    79    9.096787924166e-04
    80   -5.071409530604e-05
    81   -5.410041283514e-06
    82    6.851147382917e-15
    83   -5.739164404717e-05
    84    2.576042062277e-16
    85   -1.507712326786e-15
    86   -4.068379310093e-05
    87    5.115193031237e-05
    88    2.326197312916e-06
    89   -4.984236280009e-05
    90    2.700122793606e-05
    91    2.366469850654e-05
    92   -2.125501677846e-15
    93    1.907727743962e-04
    94    2.482768143458e-04
    95    1.483231100627e-04
    96   -6.413245427996e-15
    97   -3.108961590691e-04
    98    3.359791035444e-04
    99    2.456356846584e-04
   100   -2.242070105630e-15
   101   -8.590483823089e-04
   102   -3.566313288560e-04
   103   -2.164187830325e-04
   104    9.115937076111e-15
   105   -3.677750481495e-05
   106    2.091587518484e-16
   107   -3.548526718202e-16
   108    6.479062361097e-05
   109    1.321458716782e-04
   110    3.850092356504e-01
   111    3.292877848230e-01
   112   -1.047469286261e-03
   113   -6.567789571475e-04
   114   -3.896955123716e-16
   115    3.762229532473e-03
   116    4.405058490869e-04
   117    2.828813871712e-04
   118   -2.118166345529e-15
   119   -7.912690920249e-04
   120   -1.205041855456e-04
   121   -8.529887527156e-05
   122    2.028176402002e-15
   123    8.061528672672e-04
   124    3.069769179592e-05
   125    5.163011232640e-05
   126   -1.616371060692e-15
   127   -6.425457658966e-05
   128    3.582342788725e-16
   129   -2.087829443852e-16
   130   -2.782152062132e-05
   131   -7.348458365443e-05
   132    3.961438681611e-07
   133    2.666650079246e-06
   134    3.202090713859e-07
   135    1.183713940592e-06
   136   -5.403595618252e-15
   137   -4.308790064306e-05
   138   -7.027669854540e-06
   139   -2.580499473127e-07
   140   -1.213654545797e-14
   141    3.953535504123e-04
   142   -6.741944731218e-05
   143   -3.267588159915e-04
   144   -9.836009921731e-15
   145   -1.764203533352e-04
   146   -3.430474435214e-05
   147   -1.360845479954e-04
   148   -4.068652773141e-15
   149   -1.110872917414e-05
   150    9.801874594368e-16
   151    1.070894471109e-15
   152    3.018694067304e-05
   153   -8.327108872580e-06
   154    4.137175934971e-07
   155    1.402699653239e-06
   156    2.215713627752e-06
   157   -7.654902294229e-06
   158   -6.872012169183e-16
   159   -2.241116738938e-05
   160   -5.287347391187e-06
   161    1.745006909654e-05
   162    8.895757107723e-17
   163    2.324940291501e-04
   164    1.996869292053e-04
   165    1.243956853820e-05
   166   -2.187983410298e-15
   167    5.603113259842e-05
   168    1.311846472868e-04
   169   -2.799632416101e-04
   170   -2.261244327317e-15
   171   -5.322051308866e-06
   172   -5.309866236041e-16
   173   -3.891370973477e-16
   174   -1.530983804212e-05
   175   -5.529253605755e-06
   176    1.145960521502e-06
   177   -4.139872830563e-07
   178   -1.930241032876e-06
   179   -1.249305539214e-05
   180   -1.675718809472e-15
   181   -4.930513098204e-06
   182    1.973066457763e-07
   183    6.471294018303e-05
   184   -5.565949304815e-15
   185    3.922522596976e-04
   186   -3.058143850018e-04
   187    9.711579177197e-05
   188    1.840192376808e-16
   189   -8.169823311119e-04
   190    3.747966334625e-04
   191    4.346844133396e-04
   192   -9.848450306565e-15
   193   -2.536130686543e-06
   194    8.641193604664e-16
   195   -2.251511142840e-16
   196   -2.263350611016e-05
   197    2.219321347121e-05
   198   -8.183630335531e-07
   199    8.021089106238e-05
   200    8.128389607611e-05
   201    8.332222258932e-05
   202   -1.563242275643e-05
   203    8.363180479556e-06
   204   -2.521280910593e-16
Sym=X
Ene= 1.999999
Spin=Alpha
Occup=1
     1    5.483581544483e-05
     2    4.960148753407e-05
     3   -1.187014947399e-05
     4   -5.282137876238e-06
     5   -9.918977532452e-16
     6    7.461778212048e-06
     7   -5.530997527069e-06
     8   -5.688922600763e-05
     9   -3.220438748957e-15
    10   -1.156895098180e-03
    11   -1.212447715559e-04
    12   -5.888205879794e-04
    13   -4.036648886792e-16
    14   -3.159491253828e-03
    15   -4.996875487540e-04
    16   -1.270309045671e-03
    17   -8.838382916288e-15
    18    1.823288762327e-05
    19   -5.500110574907e-16
    20   -1.556630440854e-15
    21    1.558847571324e-06
    22    1.548858024926e-06
    23    3.629647156082e-05
    24    1.258400298021e-04
    25    3.283641686425e-04
    26    2.087579273845e-04
    27    1.407829351801e-05
    28    2.864510995053e-06
    29    7.088504572058e-16
    30    3.509526823854e-06
    31   -2.496740467195e-05
    32   -2.561197407566e-04
    33   -5.055851720176e-04
    34    4.708448976505e-07
    35   -3.006723761712e-07
    36   -8.931331231499e-16
    37   -1.341872932228e-04
    38    4.511492624389e-04
    39   -5.123720306738e-04
    40   -6.936484523425e-05
    41    1.034953235622e-06
    42   -6.645989418730e-05
    43   -1.680692807412e-15
    44    1.773565471764e-03
    45    1.567202588524e-03
    46   -1.897554868804e-04
    47   -8.018715565582e-05
    48   -7.885286790073e-15
    49   -4.926572203504e-04
    50   -3.746565195975e-04
    51   -1.024723122732e-04
    52   -1.702132575303e-14
    53   -6.236123737471e-04
    54   -1.028608078152e-03
    55    3.144831197570e-04
    56   -3.905417982397e-15
    57    5.242514119748e-04
    58    4.165187829723e-05
    59   -2.420269417265e-04
    60    9.426491106049e-17
    61    1.984581313288e-05
    62   -3.697063620199e-15
    63    1.687179910632e-16
    64   -1.039597143819e-04
    65   -4.564721377744e-05
    66   -9.161914030394e-06
    67   -1.708298102926e-05
    68   -3.172532210957e-05
    69   -1.865438559865e-05
    70    2.573343629970e-15
    71    7.120560249211e-05
    72   -6.614520382232e-05
    73   -4.215052332775e-05
    74    3.923355445696e-15
    75   -3.187641800758e-04
    76   -1.190589034641e-04
    77    5.334089031327e-05
    78    5.741217705675e-15
    79   -5.470081900545e-04
    80   -1.557458127283e-04
    81    1.285608840335e-04
    82    9.015037368428e-16
    83    2.600147880744e-06
    84   -8.568299493288e-16
    85    7.414420305363e-16
    86   -1.145639235260e-05
    87   -8.462146743331e-07
    88    4.782546734089e-04
    89    4.820553608909e-04
    90    1.593360120206e-04
    91   -1.021480596160e-04
    92   -5.023454974264e-15
    93   -4.492839425737e-04
    94    3.787427405752e-04
    95   -1.721141753444e-04
    96   -8.515296127616e-15
    97   -6.776310568112e-04
    98    1.018267441650e-03
    99    2.734856924035e-04
   100   -7.236737492524e-15
   101    4.376876979001e-04
   102    1.440081171024e-05
   103   -2.872368645806e-04
   104   -1.063184198452e-14
   105    1.748843919047e-05
   106    3.809005649994e-15
   107    4.431994563508e-16
   108   -9.760434902404e-05
   109    8.284465255692e-05
   110   -5.924241361069e-06
   111   -1.085635443678e-05
   112    3.646177151168e-05
   113   -2.543612276686e-05
   114    4.667459264150e-15
   115    5.173851076763e-05
   116    9.569945478741e-05
   117   -4.858977273597e-05
   118    6.546332248027e-15
   119   -3.086749876593e-04
   120    9.116425249045e-05
   121    7.051774720097e-05
   122    6.046883132758e-15
   123   -3.996593018273e-04
   124    1.186727779729e-04
   125    8.417790610667e-05
   126    9.154354415390e-15
   127    6.768070426808e-06
   128    2.442952494763e-16
   129   -1.093169844628e-15
   130   -1.475163585390e-05
   131   -6.751901330131e-06
   132   -5.574939264948e-01
   133   -4.680228963732e-01
   134    1.732192082267e-04
   135    3.330816863702e-04
   136   -2.477824804233e-14
   137   -5.945419780283e-03
   138   -4.503696950967e-05
   139    3.201641080169e-04
   140   -4.069453729198e-14
   141    1.751629858519e-03
   142   -3.001628227358e-05
   143   -4.530902841014e-04
   144   -4.123520878988e-14
   145   -4.658775350069e-04
   146    6.412671961219e-05
   147    8.163705320242e-04
   148   -2.364137158719e-15
   149    1.739506062913e-05
   150    6.969118157858e-16
   151    5.194180543398e-16
   152    2.722748528729e-05
   153   -3.047811035125e-05
   154   -1.205353692360e-03
   155   -1.018993746837e-03
   156   -3.257708727979e-05
   157   -6.752379531469e-06
   158   -4.783712293665e-15
   159    1.155105113719e-05
   160   -8.823655484819e-05
   161   -4.632887688169e-05
   162   -7.232881354921e-15
   163    5.213097684018e-04
   164    4.750565419987e-04
   165    8.744478935488e-05
   166   -9.705685222175e-15
   167    1.480375039340e-03
   168    8.386940348367e-04
   169    4.003184449515e-04
   170    8.413921671525e-15
   171    4.995562862820e-06
   172    1.751904326223e-16
   173    2.266330534810e-16
   174    7.904418347796e-06
   175   -1.248518563995e-05
   176   -4.481285132494e-06
   177   -1.562348034540e-06
   178    4.537344114998e-05
   179   -8.610251318073e-06
   180   -1.625255036898e-15
   181   -2.766653740934e-05
   182    4.551314198208e-05
   183   -3.220613150627e-05
   184   -1.451451705407e-15
   185    9.203052818434e-04
   186   -7.363091807625e-04
   187    3.213061981864e-04
   188    4.926186979909e-16
   189    2.141793930689e-03
   190   -9.336753970029e-04
   191    1.104988830300e-04
   192    9.656445570695e-15
   193    7.815555594023e-06
   194   -1.684189427659e-16
   195    9.806519681293e-17
   196    1.385093383444e-05
   197    6.349178297529e-06
   198    1.841011123874e-05
   199    1.884875586749e-04
   200    2.859160281440e-04
   201    2.975990513381e-04
   202   -1.276736172777e-05
   203    1.424179499587e-05
   204    8.574507834052e-17
Sym=X
Ene= 1.999996
Spin=Alpha
Occup=1
     1    5.644466027390e-01
     2    4.684298458235e-01
     3   -1.156720058801e-03
     4    2.017288797683e-03
     5    2.068936229353e-15
     6   -1.896793018823e-03
     7   -7.068572526341e-04
     8    2.173334302070e-03
     9    4.112326973060e-15
    10   -5.131578275443e-03
    11   -4.862804195760e-04
    12    1.354963464742e-03
    13   -2.246528023691e-16
    14   -1.446221648850e-03
    15    5.937702224975e-04
    16    1.288065480113e-03
    17    7.116504892567e-15
    18   -1.931237167543e-04
    19   -2.088154327684e-15
    20    5.418882878880e-16
    21    1.244099126638e-04
    22   -1.376494530676e-04
    23    1.967294730860e-04
    24    2.792707284093e-04
    25    2.432699060127e-04
    26    6.980233081038e-04
    27    1.095285915401e-04
    28   -1.343098439371e-05
    29    1.093792660185e-15
    30   -1.921967775742e-03
    31   -3.543120054994e-03
    32    5.267625777677e-04
    33    8.479778803878e-04
    34   -9.295555206007e-05
    35   -4.144611157453e-04
    36    9.184287082300e-16
    37   -6.669924338254e-06
    38    7.453804372811e-05
    39   -4.465038475637e-04
    40   -2.876606501636e-04
    41   -4.410603950599e-07
    42   -1.359652903684e-05
    43   -4.990135370845e-16
    44   -2.412955972337e-04
    45   -1.940264999915e-04
    46    5.612697788396e-05
    47    7.600588896327e-05
    48    6.845144452284e-15
    49   -3.126765642673e-05
    50    7.392673727046e-05
    51    7.390170724533e-05
    52    7.850524254976e-15
    53   -1.011738409807e-03
    54    1.369029247935e-04
    55    7.444550390893e-04
    56    9.671937033804e-15
    57   -5.904875011486e-04
    58    5.890888661943e-05
    59    6.913614554834e-04
    60   -7.116217784612e-15
    61    9.312418677404e-07
    62   -9.215058617631e-16
    63   -3.673413966960e-16
    64   -4.341184399651e-05
    65   -3.983047471540e-05
    66    1.500888554671e-05
    67    2.358169592758e-05
    68    3.594346297462e-05
    69    6.674955693752e-05
    70    7.204511311986e-15
    71   -5.571163548341e-05
    72    6.262392653970e-05
    73    9.047863071134e-05
    74    1.541485101820e-14
    75   -2.956135558748e-05
    76    5.238732551835e-05
    77    2.124544699108e-06
    78    5.145247183403e-15
    79    5.360701230247e-04
    80    1.373282159287e-04
    81   -3.006541423487e-04
    82    5.632178899313e-15
    83    3.218394699296e-06
    84    6.667269547665e-16
    85    2.340465577421e-17
    86    7.823377165872e-07
    87   -1.537022812814e-07
    88   -8.632571219371e-04
    89   -7.583552706298e-04
    90    7.547111258066e-06
    91    5.011028580656e-05
    92   -1.105165782609e-16
    93    2.242093409671e-04
    94   -7.681825793845e-06
    95    3.875796475077e-05
    96    2.916007637290e-15
    97    3.849203235612e-05
    98    9.518119354099e-05
    99   -4.645556763456e-05
   100   -1.664196917104e-15
   101   -5.073791321285e-04
   102    6.264741986755e-04
   103    9.531369066518e-05
   104    1.118499559924e-14
   105   -1.308288236368e-05
   106   -5.912979240500e-16
   107    1.673400311961e-16
   108    1.671475100004e-05
   109   -6.694690608209e-05
   110   -1.831951150730e-05
   111   -3.033806013505e-05
   112    1.445711186484e-05
   113   -6.111220400423e-05
   114   -1.088925364581e-15
   115    8.006064240765e-05
   116    1.826300965197e-06
   117   -1.098745133962e-04
   118    1.331328927662e-15
   119    5.692637887705e-05
   120    5.125251706215e-05
   121   -4.223953986738e-05
   122   -1.612689532514e-15
   123   -3.048700474059e-04
   124    4.396018512987e-05
   125   -8.640181998194e-05
   126   -1.121277783235e-15
   127   -6.849722749702e-06
   128    2.179421162887e-16
   129    5.101941934634e-16
   130    1.738307325815e-06
   131    9.484236966914e-06
   132    6.791954065177e-06
   133   -5.284816603139e-05
   134    5.948869268618e-05
   135   -5.675478097051e-05
   136    2.698212577428e-15
   137    3.142655633047e-04
   138    4.297489557337e-05
   139   -1.074898308337e-04
   140    7.294924256053e-15
   141    3.258547673723e-04
   142    1.861443761498e-04
   143   -2.254519311508e-04
   144    2.694578259307e-15