[Molden Format]
[Atoms] (Angs)
  C      1    6     -0.13173890     -1.79208980      0.00000000
  H      2    1     -2.14962000     -1.30978739      0.00000000
  H      3    1     -0.31599560     -2.86503115      0.00000000
  H      4    1      0.14407746      2.04280963     -0.00000000
  C      5    6     -1.17258876      0.48030861      0.00000000
  O      6    8     -2.25008207      1.06833796      0.00000000
  C      7    6      1.31158357      0.28308717     -0.00000000
  O      8    8      2.36361668      0.96389345     -0.00000000
  N      9    7      0.07017030      1.03138997     -0.00000000
  N     10    7     -1.19586868     -0.94982644      0.00000000
  C     11    6      1.19165158     -1.13169473     -0.00000000
  H     12    1      2.09970506     -1.73445456     -0.00000000
[GTO]
1    0
S    6    1.000000
   4.56324000E+03    1.96665000E-03 
   6.82024000E+02    1.52306000E-02 
   1.54973000E+02    7.61269000E-02 
   4.44553000E+01    2.60801000E-01 
   1.30290000E+01    6.16462000E-01 
   1.82773000E+00    2.21006000E-01 
SP   3    1.000000
   2.09642000E+01    1.14660000E-01   4.02487000E-02 
   4.80331000E+00    9.19999000E-01   2.37594000E-01 
   1.45933000E+00   -3.03068000E-03   8.15854000E-01 
SP   1    1.000000
   4.83456000E-01    1.00000000E+00   1.00000000E+00 
SP   1    1.000000
   1.45585000E-01    1.00000000E+00   1.00000000E+00 
SP   1    1.000000
   4.38000000E-02    1.00000000E+00   1.00000000E+00 
D    1    1.000000
   6.26000000E-01    1.00000000E+00 

2    0
S    3    1.000000
   3.38650000E+01    2.54938000E-02 
   5.09479000E+00    1.90373000E-01 
   1.15879000E+00    8.52161000E-01 
S    1    1.000000
   3.25840000E-01    1.00000000E+00 
S    1    1.000000
   1.02741000E-01    1.00000000E+00 
S    1    1.000000
   3.60000000E-02    1.00000000E+00 
P    1    1.000000
   7.50000000E-01    1.00000000E+00 

3    0
S    3    1.000000
   3.38650000E+01    2.54938000E-02 
   5.09479000E+00    1.90373000E-01 
   1.15879000E+00    8.52161000E-01 
S    1    1.000000
   3.25840000E-01    1.00000000E+00 
S    1    1.000000
   1.02741000E-01    1.00000000E+00 
S    1    1.000000
   3.60000000E-02    1.00000000E+00 
P    1    1.000000
   7.50000000E-01    1.00000000E+00 

4    0
S    3    1.000000
   3.38650000E+01    2.54938000E-02 
   5.09479000E+00    1.90373000E-01 
   1.15879000E+00    8.52161000E-01 
S    1    1.000000
   3.25840000E-01    1.00000000E+00 
S    1    1.000000
   1.02741000E-01    1.00000000E+00 
S    1    1.000000
   3.60000000E-02    1.00000000E+00 
P    1    1.000000
   7.50000000E-01    1.00000000E+00 

5    0
S    6    1.000000
   4.56324000E+03    1.96665000E-03 
   6.82024000E+02    1.52306000E-02 
   1.54973000E+02    7.61269000E-02 
   4.44553000E+01    2.60801000E-01 
   1.30290000E+01    6.16462000E-01 
   1.82773000E+00    2.21006000E-01 
SP   3    1.000000
   2.09642000E+01    1.14660000E-01   4.02487000E-02 
   4.80331000E+00    9.19999000E-01   2.37594000E-01 
   1.45933000E+00   -3.03068000E-03   8.15854000E-01 
SP   1    1.000000
   4.83456000E-01    1.00000000E+00   1.00000000E+00 
SP   1    1.000000
   1.45585000E-01    1.00000000E+00   1.00000000E+00 
SP   1    1.000000
   4.38000000E-02    1.00000000E+00   1.00000000E+00 
D    1    1.000000
   6.26000000E-01    1.00000000E+00 

6    0
S    6    1.000000
   8.58850000E+03    1.89515000E-03 
   1.29723000E+03    1.43859000E-02 
   2.99296000E+02    7.07320000E-02 
   8.73771000E+01    2.40001000E-01 
   2.56789000E+01    5.94797000E-01 
   3.74004000E+00    2.80802000E-01 
SP   3    1.000000
   4.21175000E+01    1.13889000E-01   3.65114000E-02 
   9.62837000E+00    9.20811000E-01   2.37153000E-01 
   2.85332000E+00   -3.27447000E-03   8.19702000E-01 
SP   1    1.000000
   9.05661000E-01    1.00000000E+00   1.00000000E+00 
SP   1    1.000000
   2.55611000E-01    1.00000000E+00   1.00000000E+00 
SP   1    1.000000
   8.45000000E-02    1.00000000E+00   1.00000000E+00 
D    1    1.000000
   1.29200000E+00    1.00000000E+00 

7    0
S    6    1.000000
   4.56324000E+03    1.96665000E-03 
   6.82024000E+02    1.52306000E-02 
   1.54973000E+02    7.61269000E-02 
   4.44553000E+01    2.60801000E-01 
   1.30290000E+01    6.16462000E-01 
   1.82773000E+00    2.21006000E-01 
SP   3    1.000000
   2.09642000E+01    1.14660000E-01   4.02487000E-02 
   4.80331000E+00    9.19999000E-01   2.37594000E-01 
   1.45933000E+00   -3.03068000E-03   8.15854000E-01 
SP   1    1.000000
   4.83456000E-01    1.00000000E+00   1.00000000E+00 
SP   1    1.000000
   1.45585000E-01    1.00000000E+00   1.00000000E+00 
SP   1    1.000000
   4.38000000E-02    1.00000000E+00   1.00000000E+00 
D    1    1.000000
   6.26000000E-01    1.00000000E+00 

8    0
S    6    1.000000
   8.58850000E+03    1.89515000E-03 
   1.29723000E+03    1.43859000E-02 
   2.99296000E+02    7.07320000E-02 
   8.73771000E+01    2.40001000E-01 
   2.56789000E+01    5.94797000E-01 
   3.74004000E+00    2.80802000E-01 
SP   3    1.000000
   4.21175000E+01    1.13889000E-01   3.65114000E-02 
   9.62837000E+00    9.20811000E-01   2.37153000E-01 
   2.85332000E+00   -3.27447000E-03   8.19702000E-01 
SP   1    1.000000
   9.05661000E-01    1.00000000E+00   1.00000000E+00 
SP   1    1.000000
   2.55611000E-01    1.00000000E+00   1.00000000E+00 
SP   1    1.000000
   8.45000000E-02    1.00000000E+00   1.00000000E+00 
D    1    1.000000
   1.29200000E+00    1.00000000E+00 

9    0
S    6    1.000000
   6.29348000E+03    1.96979000E-03 
   9.49044000E+02    1.49613000E-02 
   2.18776000E+02    7.35006000E-02 
   6.36916000E+01    2.48937000E-01 
   1.88282000E+01    6.02460000E-01 
   2.72023000E+00    2.56202000E-01 
SP   3    1.000000
   3.06331000E+01    1.11906000E-01   3.83119000E-02 
   7.02614000E+00    9.21666000E-01   2.37403000E-01 
   2.11205000E+00   -2.56919000E-03   8.17592000E-01 
SP   1    1.000000
   6.84009000E-01    1.00000000E+00   1.00000000E+00 
SP   1    1.000000
   2.00878000E-01    1.00000000E+00   1.00000000E+00 
SP   1    1.000000
   6.39000000E-02    1.00000000E+00   1.00000000E+00 
D    1    1.000000
   9.13000000E-01    1.00000000E+00 

10    0
S    6    1.000000
   6.29348000E+03    1.96979000E-03 
   9.49044000E+02    1.49613000E-02 
   2.18776000E+02    7.35006000E-02 
   6.36916000E+01    2.48937000E-01 
   1.88282000E+01    6.02460000E-01 
   2.72023000E+00    2.56202000E-01 
SP   3    1.000000
   3.06331000E+01    1.11906000E-01   3.83119000E-02 
   7.02614000E+00    9.21666000E-01   2.37403000E-01 
   2.11205000E+00   -2.56919000E-03   8.17592000E-01 
SP   1    1.000000
   6.84009000E-01    1.00000000E+00   1.00000000E+00 
SP   1    1.000000
   2.00878000E-01    1.00000000E+00   1.00000000E+00 
SP   1    1.000000
   6.39000000E-02    1.00000000E+00   1.00000000E+00 
D    1    1.000000
   9.13000000E-01    1.00000000E+00 

11    0
S    6    1.000000
   4.56324000E+03    1.96665000E-03 
   6.82024000E+02    1.52306000E-02 
   1.54973000E+02    7.61269000E-02 
   4.44553000E+01    2.60801000E-01 
   1.30290000E+01    6.16462000E-01 
   1.82773000E+00    2.21006000E-01 
SP   3    1.000000
   2.09642000E+01    1.14660000E-01   4.02487000E-02 
   4.80331000E+00    9.19999000E-01   2.37594000E-01 
   1.45933000E+00   -3.03068000E-03   8.15854000E-01 
SP   1    1.000000
   4.83456000E-01    1.00000000E+00   1.00000000E+00 
SP   1    1.000000
   1.45585000E-01    1.00000000E+00   1.00000000E+00 
SP   1    1.000000
   4.38000000E-02    1.00000000E+00   1.00000000E+00 
D    1    1.000000
   6.26000000E-01    1.00000000E+00 

12    0
S    3    1.000000
   3.38650000E+01    2.54938000E-02 
   5.09479000E+00    1.90373000E-01 
   1.15879000E+00    8.52161000E-01 
S    1    1.000000
   3.25840000E-01    1.00000000E+00 
S    1    1.000000
   1.02741000E-01    1.00000000E+00 
S    1    1.000000
   3.60000000E-02    1.00000000E+00 
P    1    1.000000
   7.50000000E-01    1.00000000E+00 

[MO]
Sym=X
Ene= 2.000000
Spin=Alpha
Occup=1
     1   -2.578972452263e-07
     2    1.120543866964e-06
     3   -3.449264544978e-06
     4    3.907149757308e-06
     5   -1.147095785092e-14
     6   -1.244153570823e-05
     7    1.381607677121e-05
     8   -1.484102896749e-05
     9   -2.294778626297e-14
    10    1.577254935762e-04
    11    1.241647555746e-04
    12    2.120623121337e-04
    13   -1.001785106984e-14
    14    3.646296978613e-04
    15    2.217679216151e-04
    16    6.040564921358e-04
    17   -2.769856677356e-15
    18   -1.149106184387e-06
    19    2.484667186415e-17
    20   -1.444521190444e-15
    21    6.329813825840e-06
    22   -1.510939091883e-06
    23    2.678837579927e-06
    24    1.821634732570e-05
    25    8.871773384979e-05
    26    1.552965337132e-04
    27    9.812011806209e-06
    28   -8.130308913930e-06
    29   -1.395138671450e-15
    30   -2.445950335991e-06
    31    3.271558099406e-05
    32    1.284945881498e-04
    33    3.315450915545e-04
    34   -3.443521800418e-06
    35    4.411685731331e-06
    36   -4.496889594801e-16
    37   -8.762672242418e-08
    38   -2.045844209752e-06
    39    1.730774223622e-05
    40    1.328765158778e-04
    41    1.170319728810e-05
    42    3.120168915371e-07
    43   -1.276328463572e-16
    44    3.501452548699e-06
    45   -5.406230539603e-05
    46   -4.279911372828e-05
    47    2.218235120558e-05
    48   -5.875486778555e-15
    49    2.118657064145e-04
    50   -2.450758313321e-04
    51    1.367214186606e-04
    52   -1.639719576165e-14
    53    1.235672219957e-04
    54   -2.194931350476e-04
    55    1.206070233388e-04
    56   -2.607209200946e-15
    57    3.926857734295e-04
    58    4.594735998667e-04
    59   -8.613397004374e-05
    60   -1.872353255181e-15
    61   -4.397733943329e-05
    62    4.021194717814e-16
    63    2.182377875303e-15
    64    7.377760851090e-05
    65   -1.254145724697e-04
    66    3.837640164716e-01
    67    3.282271680006e-01
    68    1.116030553102e-03
    69   -6.081548448355e-04
    70   -2.207128131684e-15
    71    3.823727496422e-03
    72   -4.610855385932e-04
    73    2.454406764675e-04
    74   -5.164567006551e-15
    75   -8.960349992697e-04
    76    1.056959466123e-04
    77   -5.379268663434e-05
    78    1.812263542838e-15
    79    1.189179029770e-03
    80    1.290698092488e-04
    81   -6.346524289017e-05
    82   -1.971520057498e-15
    83   -5.608402859576e-05
    84    6.498640534076e-17
    85    8.481493288118e-16
    86   -4.040778041979e-05
    87    4.983103250306e-05
    88   -2.896420835928e-06
    89    5.195873056036e-05
    90   -3.281168279964e-05
    91   -2.172172972609e-05
    92   -5.145550416179e-15
    93   -1.983502870158e-04
    94   -2.348521178864e-04
    95   -1.681096576462e-04
    96   -1.014175161622e-14
    97    7.675852991662e-05
    98   -2.364121954674e-04
    99   -3.262392199296e-04
   100   -6.661775729669e-15
   101    2.236020645289e-03
   102    5.489963334480e-04
   103   -8.168699809076e-04
   104    1.957384436760e-15
   105    4.232868563666e-05
   106   -6.440135923170e-16
   107    1.274046700259e-15
   108   -7.752530257781e-05
   109   -1.319754869395e-04
   110   -3.960784888172e-01
   111   -3.387538849887e-01
   112    1.078078430310e-03
   113    6.748813142311e-04
   114    1.846458357903e-15
   115   -3.881125830812e-03
   116   -4.518935402953e-04
   117   -2.887840079541e-04
   118   -2.618239207518e-15
   119    8.676981143755e-04
   120    1.047571954482e-04
   121    7.635858791595e-05
   122    6.769499793303e-15
   123   -1.038889425300e-03
   124    6.391361758099e-05
   125    4.227695381675e-05
   126   -9.757480861207e-16
   127    6.631057489444e-05
   128   -2.483220617190e-16
   129   -8.409354456753e-18
   130    2.985240852793e-05
   131    7.608703841234e-05
   132   -2.465300638400e-07
   133   -5.997275391702e-07
   134    1.641814952407e-05
   135   -4.114363373410e-06
   136   -2.824692783242e-15
   137    3.139645548793e-06
   138   -4.398578128172e-05
   139    1.176275804316e-05
   140   -5.282450934839e-15
   141    4.349000872640e-05
   142    6.682040191502e-05
   143   -1.012465652417e-05
   144   -2.720518377836e-15
   145    1.290344942053e-04
   146    7.150340264218e-04
   147   -5.564112177234e-05
   148    3.425406219399e-15
   149    4.245703050716e-07
   150   -7.180206119247e-17
   151    9.765494651607e-16
   152    7.141377793189e-06
   153    1.579387729326e-05
   154    4.118202333146e-07
   155    5.619073568998e-07
   156    1.758712111660e-06
   157   -7.889563275398e-06
   158   -2.148654154517e-14
   159   -8.205170876382e-06
   160   -3.773524452050e-06
   161    1.952436732175e-05
   162   -3.504657107795e-14
   163    1.575656590147e-05
   164    8.384309744211e-05
   165    4.660116223637e-06
   166   -3.632598168101e-14
   167   -2.562318015073e-04
   168    1.924241233262e-04
   169   -3.035902258446e-04
   170   -5.610890076377e-16
   171   -5.695322265270e-06
   172   -1.589458805527e-15
   173   -9.426361018567e-16
   174   -1.424407857127e-05
   175   -3.065425755795e-06
   176   -9.562435194985e-07
   177   -6.205241188226e-07
   178    4.342743110144e-06
   179    1.204183291713e-05
   180   -1.106640159470e-14
   181    2.009017215524e-05
   182   -1.467215891189e-05
   183   -6.171989005596e-05
   184   -1.330214811990e-14
   185   -4.682453578227e-04
   186    3.760395742332e-04
   187   -1.355415599801e-04
   188   -1.758080785231e-14
   189   -3.289064419081e-03
   190    2.150970376618e-04
   191   -1.048140958978e-03
   192   -1.076357691643e-15
   193    7.871775469199e-06
   194    1.314075424883e-15
   195   -8.078029063147e-16
   196    2.458918526331e-05
   197   -2.504943755756e-05
   198    2.587689749616e-06
   199   -9.225850748914e-05
   200   -1.160055813705e-04
   201   -3.728951887797e-04
   202    1.545613953285e-05
   203   -8.018199347805e-06
   204    3.062883669085e-16
Sym=X
Ene= 2.000000
Spin=Alpha
Occup=1
     1   -2.218634762643e-07
     2   -1.159837722394e-06
     3   -1.075357155920e-06
     4    3.644611705334e-06
     5   -1.473606436178e-14
     6    1.105863431552e-05
     7    7.984120232352e-06
     8   -1.584214240627e-05
     9   -2.349459896494e-14
    10   -4.734074808384e-04
    11   -2.750362409145e-05
    12   -1.683503777968e-04
    13   -1.893945455285e-14
    14    3.348106270355e-04
    15    5.099446362821e-04
    16   -2.066025754513e-04
    17    6.292611054333e-15
    18    2.760591471837e-06
    19    1.231968161087e-15
    20   -2.069450623040e-15
    21   -1.344163485155e-06
    22    5.579519236709e-06
    23    2.865617391833e-06
    24    3.270918377964e-05
    25    3.843468582356e-05
    26    2.656975670758e-04
    27    6.125257302600e-06
    28   -5.475453115989e-06
    29   -6.567094056031e-16
    30   -3.060314034425e-06
    31    8.412579743054e-06
    32   -8.757869523762e-05
    33   -1.000573202982e-04
    34    2.203972614018e-06
    35    3.125413760288e-07
    36   -4.390069651239e-16
    37    4.099913232709e-06
    38    8.256758550768e-05
    39    1.343947744739e-04
    40    2.670228534211e-04
    41   -2.288142736606e-07
    42   -9.879445849155e-06
    43    2.662119616102e-16
    44    2.789738834382e-06
    45   -5.404045467040e-05
    46   -3.654322087779e-05
    47    2.277105458432e-05
    48    3.725229196489e-16
    49    2.045018904293e-04
    50   -2.841602820587e-04
    51    1.403983421923e-04
    52    1.495767085532e-15
    53   -2.349398593485e-04
    54   -4.018929856747e-04
    55    1.263107669800e-04
    56    2.368418917493e-15
    57    1.096610818850e-04
    58    5.095745183234e-04
    59   -3.291752045209e-04
    60   -6.386628073666e-15
    61   -4.018409405675e-05
    62    7.414262445841e-17
    63    3.619729417249e-15
    64    7.180281161173e-05
    65   -1.265633212393e-04
    66    3.960632760915e-01
    67    3.387477942188e-01
    68    1.152146929772e-03
    69   -6.280664155393e-04
    70    4.586672540038e-15
    71    3.935098920994e-03
    72   -4.805547141185e-04
    73    2.544013341746e-04
    74    1.233364609256e-14
    75   -8.848535010867e-04
    76    1.327354126174e-04
    77   -5.672913316068e-05
    78    5.294745418743e-15
    79    9.133828618466e-04
    80   -5.031279016003e-05
    81   -5.607514759983e-06
    82    6.744302348523e-15
    83   -5.756640542715e-05
    84    3.436034353012e-16
    85   -1.436107789830e-15
    86   -4.080970282028e-05
    87    5.130720768333e-05
    88    2.317193424848e-06
    89   -4.968095846171e-05
    90    2.689927709159e-05
    91    2.359723466112e-05
    92   -5.720252758123e-15
    93    1.901566101751e-04
    94    2.475473634968e-04
    95    1.478008210057e-04
    96   -1.259254855292e-14
    97   -3.106588575824e-04
    98    3.352452225718e-04
    99    2.446219067984e-04
   100   -9.047526129650e-15
   101   -8.520960357708e-04
   102   -3.549250674791e-04
   103   -2.189612014298e-04
   104    7.867592513617e-15
   105   -3.664599371199e-05
   106    2.529432579556e-16
   107    2.025083541209e-15
   108    6.454974769781e-05
   109    1.317359207685e-04
   110    3.837788551940e-01
   111    3.282354778452e-01
   112   -1.044120335382e-03
   113   -6.546825052644e-04
   114    1.682285928539e-15
   115    3.750173130754e-03
   116    4.391020897739e-04
   117    2.819843180812e-04
   118    8.993928086192e-16
   119   -7.885734163716e-04
   120   -1.201788581934e-04
   121   -8.506172783194e-05
   122    6.325643789581e-15
   123    8.029246707751e-04
   124    3.089668228009e-05
   125    5.176189030130e-05
   126    9.174732591914e-16
   127   -6.404858808195e-05
   128    4.032381229874e-16
   129   -9.704880275015e-17
   130   -2.772878105704e-05
   131   -7.324822414293e-05
   132    3.968337918293e-07
   133    2.666018074908e-06
   134    3.712884976788e-07
   135    1.170918157189e-06
   136    3.238071775918e-15
   137   -4.307832240114e-05
   138   -7.164549155675e-06
   139   -2.214574550475e-07
   140    1.901506846094e-15
   141    3.954907626484e-04
   142   -6.721188791857e-05
   143   -3.267918955024e-04
   144    5.780614272348e-15
   145   -1.760197670422e-04
   146   -3.208036156598e-05
   147   -1.362583145792e-04
   148    6.613164945233e-16
   149   -1.110746218317e-05
   150    6.111193346798e-16
   151    1.349850648828e-15
   152    3.020930444962e-05
   153   -8.278012505791e-06
   154    4.148804798096e-07
   155    1.404354086739e-06
   156    2.221195690313e-06
   157   -7.679483561000e-06
   158   -1.817034576025e-14
   159   -2.243680728794e-05
   160   -5.299113390056e-06
   161    1.751089846090e-05
   162   -2.836131391474e-14
   163    2.325441720655e-04
   164    1.999487392792e-04
   165    1.245412762171e-05
   166   -2.897248658075e-14
   167    5.523423397796e-05
   168    1.317839314628e-04
   169   -2.809090997213e-04
   170   -2.549177313720e-15
   171   -5.339795833844e-06
   172   -1.635646253613e-15
   173   -1.545040382637e-16
   174   -1.535422728098e-05
   175   -5.538816964740e-06
   176    1.143042731483e-06
   177   -4.158772845609e-07
   178   -1.916740696086e-06
   179   -1.245565245188e-05
   180   -1.335922535689e-14
   181   -4.868032323735e-06
   182    1.516591928795e-07
   183    6.452123578698e-05
   184   -2.522192476610e-14
   185    3.907973938149e-04
   186   -3.046459639004e-04
   187    9.669457667792e-05
   188   -1.983330605236e-14
   189   -8.272189290403e-04
   190    3.754676399821e-04
   191    4.314256362251e-04
   192   -1.136913053005e-14
   193   -2.511653152906e-06
   194    2.409570552468e-15
   195   -4.313011180616e-16
   196   -2.255711615688e-05
   197    2.211538949556e-05
   198   -8.103168669092e-07
   199    7.992425162934e-05
   200    8.092338258686e-05
   201    8.216250769906e-05
   202   -1.558441258947e-05
   203    8.338275391894e-06
   204   -1.209709383187e-15
Sym=X
Ene= 1.999997
Spin=Alpha
Occup=1
     1   -4.104715479143e-03
     2   -3.625302125368e-03
     3   -5.925632770582e-04
     4    3.124935934375e-04
     5    8.511715535399e-15
     6    1.103766509699e-03
     7   -9.944081084928e-04
     8    6.288010410364e-04
     9    1.262140949466e-14
    10    8.309714488927e-04
    11   -1.976023757272e-05
    12    6.157658528494e-04
    13    8.029048439823e-15
    14    2.524984772159e-03
    15   -2.749594690235e-04
    16    3.148180559310e-04
    17    6.520744605672e-15
    18   -6.894016655757e-05
    19   -3.190768226407e-15
    20    2.444368619502e-15
    21    7.188129414765e-05
    22   -1.803871543745e-04
    23    5.368161138063e-04
    24    6.684478600712e-04
    25    2.590278669029e-04
    26   -3.600750255188e-04
    27    1.599219975628e-04
    28    8.240233675708e-05
    29    3.434095671428e-15
    30   -2.289516988422e-05
    31    8.583551684564e-05
    32   -1.128271065535e-04
    33   -2.411439234013e-04
    34   -3.446875537220e-05
    35    6.419861186562e-05
    36    1.540852039409e-16
    37   -6.385253873774e-04
    38   -1.043158570558e-03
    39   -1.358265785322e-04
    40    4.067445526079e-04
    41    2.975996248273e-05
    42    1.349653096865e-04
    43    4.158631474100e-16
    44    5.331349387953e-01
    45    4.411625451961e-01
    46   -5.844681767491e-04
    47    4.631432711065e-04
    48    1.764956664191e-14
    49    4.986563120674e-03
    50   -2.455528678291e-03
    51    6.617944793445e-04
    52    3.224509233099e-14
    53    7.383133585679e-04
    54   -8.966248014220e-04
    55   -1.065772673717e-03
    56    1.986093645401e-14
    57   -2.222198236136e-03
    58   -1.537280760564e-03
    59   -5.929749173930e-04
    60   -4.187698524586e-15
    61   -4.714958376091e-04
    62   -1.622435238533e-15
    63   -2.664238246882e-15
    64    1.079147655991e-03
    65   -1.596389881463e-04
    66   -4.606781182574e-04
    67   -7.372815896946e-04
    68   -1.400779745579e-04
    69   -3.704952334809e-03
    70    1.045961071373e-14
    71    1.843014113594e-03
    72   -2.527927796698e-04
    73   -5.684393713746e-03
    74    1.831871666178e-14
    75   -4.283485773083e-04
    76   -1.512655705969e-03
    77   -4.257133819902e-03
    78    6.174659330148e-15
    79   -1.112014289536e-04
    80    3.490551974734e-04
    81   -3.964006399972e-04
    82    2.639792518012e-15
    83   -1.277049791609e-04
    84    1.475051861407e-15
    85   -2.023930100815e-15
    86   -8.933448644871e-07
    87   -3.701319685597e-04
    88    2.401100876588e-03
    89    2.020593158840e-03
    90    5.983936585918e-05
    91   -3.251164710104e-04
    92    2.279820915586e-15
    93   -1.137491665337e-04
    94    4.349758798018e-05
    95   -5.779849759850e-04
    96    1.731244035337e-15
    97    1.734622675207e-04
    98    1.095117906034e-06
    99   -3.962741655161e-04
   100    1.699450743453e-15
   101    2.314554827504e-03
   102   -6.486082213598e-04
   103   -4.029173421845e-04
   104    1.076863924362e-14
   105    3.395899532298e-05
   106   -5.273247818405e-16
   107    4.858950570853e-16
   108    1.000729950268e-04
   109    4.951519512101e-05
   110    8.221394503709e-05
   111    1.378421971586e-04
   112    2.472083798635e-04
   113   -2.770337850542e-04
   114    4.886414297708e-15
   115   -3.981493776990e-04
   116    3.841840995015e-04
   117   -4.254050763860e-04
   118    9.522632709938e-15
   119   -1.073463658285e-04
   120    2.330438526505e-04
   121   -3.682681098029e-04
   122    8.785715275673e-15
   123   -2.582257431953e-04
   124    1.840978889155e-04
   125    3.583419217739e-05
   126   -1.658717113046e-15
   127    1.352605684331e-05
   128    6.319785961972e-16
   129   -1.449859663705e-16
   130   -3.459757679476e-05
   131    5.743581932351e-06
   132    9.110691586717e-03
   133    7.819266451744e-03
   134   -4.318738865017e-04
   135   -6.179375658283e-04
   136    1.059281681916e-14
   137   -9.310924009234e-04
   138   -8.547298975812e-04
   139   -9.235817360937e-04
   140    1.422813376286e-14
   141   -1.390911548085e-04
   142   -5.569891890317e-04
   143   -3.209653030829e-04
   144    1.222509199037e-14
   145    2.097534527795e-03
   146   -6.341116212368e-05
   147   -3.666128935258e-04
   148   -4.128851334510e-15
   149    5.232584996155e-05
   150   -9.665915318732e-16
   151   -2.070682102587e-15
   152    1.916416031709e-04
   153    3.199914176110e-05
   154    1.789513756680e-01
   155    1.499730497036e-01
   156    9.042458840582e-05
   157   -8.768529432859e-04
   158    3.017981809541e-14
   159    3.324436754648e-03
   160    2.013489613858e-04
   161   -1.093115741749e-03
   162    5.044589512782e-14
   163   -1.249514237471e-03
   164    1.489365001197e-04
   165   -2.100351758402e-03
   166    4.549626520978e-14
   167   -1.520877196925e-03
   168    3.191870985228e-05
   169    2.493523317344e-04
   170    1.585739957578e-15
   171   -8.587053734378e-05
   172    1.174885166434e-15
   173    1.176645111557e-15
   174   -1.508060084590e-04
   175   -9.006605808204e-05
   176    2.437964064926e-03
   177    2.091782244314e-03
   178   -1.596112807638e-04
   179    3.024645072467e-04
   180   -8.725301829958e-16
   181   -3.232237855741e-04
   182   -2.992324135702e-04
   183    4.804553037361e-04
   184   -3.679253408867e-15
   185   -1.088143256170e-03
   186    2.224740034102e-04
   187    2.963239775954e-05
   188   -5.083206421510e-15
   189   -2.513595396832e-03
   190    7.076455042412e-04
   191   -3.968438477696e-04
   192   -1.219595624780e-14
   193    6.384263444489e-06
   194   -9.138779535329e-16
   195    6.062493554558e-16
   196   -6.120073688258e-06
   197    3.107374320464e-05
   198   -3.292484562940e-04
   199   -5.223280216764e-04
   200   -2.551618265786e-04
   201   -1.429043295908e-04
   202    4.194893528814e-05
   203   -2.129944569056e-05
   204    5.225506082235e-16
Sym=X
Ene= 1.999997
Spin=Alpha
Occup=1
     1    1.545636555957e-03
     2    1.373517966900e-03
     3    1.358194950556e-04
     4   -9.423780405606e-05
     5    2.237817291930e-14
     6   -5.051621114557e-04
     7    1.272536603422e-04
     8   -1.367393897418e-04
     9    3.645140779744e-14
    10   -9.111333816778e-04
    11    1.679633898234e-04
    12   -6.402635074249e-04
    13    2.917340120047e-14
    14    1.083998332318e-03
    15    4.543891001183e-05
    16    2.465930660053e-04
    17   -1.434953261760e-14
    18    1.069330281893e-05
    19   -2.029144427536e-15
    20    4.380336638304e-15
    21    4.310883190852e-05
    22    3.670600330635e-05
    23    2.792291321083e-04
    24    9.748258405306e-04
    25   -5.094316813263e-04
    26   -1.904263648226e-04
    27    1.481234144032e-04
    28    8.330126403125e-05
    29    4.561449940962e-15
    30   -5.628483536505e-05
    31   -2.342132294861e-04
    32   -1.898249233126e-04
    33    4.921019452906e-05
    34   -1.027080223560e-05
    35   -1.758110613285e-05
    36    9.777642249955e-16
    37   -9.542660374867e-05
    38   -7.589787817660e-05
    39    2.958628022672e-04
    40    2.383549669421e-04
    41   -6.150170074531e-06
    42    3.393001394696e-06
    43   -3.721750443396e-16
    44    1.812515916248e-01
    45    1.500841335791e-01
    46    1.368678381655e-05
    47    2.839102751914e-04
    48    2.999553205466e-15
    49    1.148307924884e-03
    50   -5.813553953561e-04
    51    5.401881137092e-04
    52    8.301737117801e-16
    53   -5.611060947713e-04
    54   -8.092268504827e-04
    55    6.242267769827e-04
    56    4.948929031336e-15
    57   -7.935204220224e-04
    58   -3.732444505230e-04
    59    1.588866613855e-04
    60    1.691558916504e-14
    61   -1.284008020264e-04
    62    1.365495391803e-15
    63   -8.185043279918e-15
    64    3.154652805963e-04
    65    1.243583694382e-05
    66   -1.698339779077e-04
    67   -2.742975710802e-04
    68    5.095301501708e-05
    69   -4.485061531361e-04
    70   -1.021955006553e-14
    71    7.225269563743e-04
    72    8.382694506204e-05
    73   -6.447977880405e-04
    74   -1.588107795210e-14
    75   -2.333291023121e-04
    76   -3.772562579658e-04
    77   -4.145283163821e-04
    78   -1.340125149460e-14
    79   -4.809919908503e-04
    80   -1.360703646775e-05
    81   -2.423547662125e-05
    82   -1.201876445316e-14
    83   -2.708305936827e-05
    84   -1.788446923958e-16
    85    6.064211170163e-16
    86    3.187377043424e-05
    87   -5.872883922591e-05
    88    1.350809846490e-04
    89    1.223188426756e-04
    90   -1.953286813921e-05
    91   -4.851027626193e-05
    92    6.212167253888e-15
    93   -1.436148757043e-05
    94   -1.912273877525e-05
    95   -8.276228951890e-05
    96    1.112756072550e-14
    97   -1.114793194610e-03
    98    4.806260644417e-04
    99    1.498843191389e-04
   100    1.100428094799e-14
   101   -2.312688662833e-03
   102    1.514609554573e-04
   103    5.384505472535e-04
   104   -1.779059309253e-14
   105    2.784283041630e-05
   106   -2.083570041320e-16
   107   -3.105811547956e-15
   108    1.955715352387e-05
   109    4.438067621347e-06
   110    1.073850902946e-05
   111    1.719236624937e-05
   112    7.083673305594e-05
   113   -2.606115800504e-05
   114   -3.670751602499e-15
   115   -4.202611620773e-05
   116    1.075355197820e-04
   117   -4.042252757733e-05
   118   -4.365949611003e-15
   119   -4.232114999099e-05
   120    5.519315706123e-05
   121   -4.001833516312e-05
   122   -1.042494108740e-14
   123   -7.881442374019e-05
   124    6.376729455493e-05
   125    6.656561117976e-06
   126    4.438257460699e-15
   127    3.195167569168e-06
   128    4.440397540241e-16
   129   -1.095489067079e-16
   130   -5.153263987466e-06
   131   -1.935029451228e-06
   132   -4.697178691105e-04
   133   -3.941778212345e-04
   134   -1.087340136767e-04
   135   -1.193415367227e-04
   136   -6.661179550399e-15
   137   -4.538424736890e-05
   138   -2.233737229061e-04
   139   -1.555741139025e-04
   140   -9.940777127403e-15
   141    4.927792060848e-04
   142    3.235612682754e-05
   143   -5.749091588329e-04
   144   -1.245674751461e-14