[Molden Format]
[Atoms] (Angs)
  C      1    6     -0.13173890     -1.79208980      0.00000000
  H      2    1     -2.14962000     -1.30978739      0.00000000
  H      3    1     -0.31599560     -2.86503115      0.00000000
  H      4    1      0.14407746      2.04280963     -0.00000000
  C      5    6     -1.17258876      0.48030861      0.00000000
  O      6    8     -2.25008207      1.06833796      0.00000000
  C      7    6      1.31158357      0.28308717     -0.00000000
  O      8    8      2.36361668      0.96389345     -0.00000000
  N      9    7      0.07017030      1.03138997     -0.00000000
  N     10    7     -1.19586868     -0.94982644      0.00000000
  C     11    6      1.19165158     -1.13169473     -0.00000000
  H     12    1      2.09970506     -1.73445456     -0.00000000
[GTO]
1    0
S    6    1.000000
   4.56324000E+03    1.96665000E-03 
   6.82024000E+02    1.52306000E-02 
   1.54973000E+02    7.61269000E-02 
   4.44553000E+01    2.60801000E-01 
   1.30290000E+01    6.16462000E-01 
   1.82773000E+00    2.21006000E-01 
SP   3    1.000000
   2.09642000E+01    1.14660000E-01   4.02487000E-02 
   4.80331000E+00    9.19999000E-01   2.37594000E-01 
   1.45933000E+00   -3.03068000E-03   8.15854000E-01 
SP   1    1.000000
   4.83456000E-01    1.00000000E+00   1.00000000E+00 
SP   1    1.000000
   1.45585000E-01    1.00000000E+00   1.00000000E+00 
SP   1    1.000000
   4.38000000E-02    1.00000000E+00   1.00000000E+00 
D    1    1.000000
   6.26000000E-01    1.00000000E+00 

2    0
S    3    1.000000
   3.38650000E+01    2.54938000E-02 
   5.09479000E+00    1.90373000E-01 
   1.15879000E+00    8.52161000E-01 
S    1    1.000000
   3.25840000E-01    1.00000000E+00 
S    1    1.000000
   1.02741000E-01    1.00000000E+00 
S    1    1.000000
   3.60000000E-02    1.00000000E+00 
P    1    1.000000
   7.50000000E-01    1.00000000E+00 

3    0
S    3    1.000000
   3.38650000E+01    2.54938000E-02 
   5.09479000E+00    1.90373000E-01 
   1.15879000E+00    8.52161000E-01 
S    1    1.000000
   3.25840000E-01    1.00000000E+00 
S    1    1.000000
   1.02741000E-01    1.00000000E+00 
S    1    1.000000
   3.60000000E-02    1.00000000E+00 
P    1    1.000000
   7.50000000E-01    1.00000000E+00 

4    0
S    3    1.000000
   3.38650000E+01    2.54938000E-02 
   5.09479000E+00    1.90373000E-01 
   1.15879000E+00    8.52161000E-01 
S    1    1.000000
   3.25840000E-01    1.00000000E+00 
S    1    1.000000
   1.02741000E-01    1.00000000E+00 
S    1    1.000000
   3.60000000E-02    1.00000000E+00 
P    1    1.000000
   7.50000000E-01    1.00000000E+00 

5    0
S    6    1.000000
   4.56324000E+03    1.96665000E-03 
   6.82024000E+02    1.52306000E-02 
   1.54973000E+02    7.61269000E-02 
   4.44553000E+01    2.60801000E-01 
   1.30290000E+01    6.16462000E-01 
   1.82773000E+00    2.21006000E-01 
SP   3    1.000000
   2.09642000E+01    1.14660000E-01   4.02487000E-02 
   4.80331000E+00    9.19999000E-01   2.37594000E-01 
   1.45933000E+00   -3.03068000E-03   8.15854000E-01 
SP   1    1.000000
   4.83456000E-01    1.00000000E+00   1.00000000E+00 
SP   1    1.000000
   1.45585000E-01    1.00000000E+00   1.00000000E+00 
SP   1    1.000000
   4.38000000E-02    1.00000000E+00   1.00000000E+00 
D    1    1.000000
   6.26000000E-01    1.00000000E+00 

6    0
S    6    1.000000
   8.58850000E+03    1.89515000E-03 
   1.29723000E+03    1.43859000E-02 
   2.99296000E+02    7.07320000E-02 
   8.73771000E+01    2.40001000E-01 
   2.56789000E+01    5.94797000E-01 
   3.74004000E+00    2.80802000E-01 
SP   3    1.000000
   4.21175000E+01    1.13889000E-01   3.65114000E-02 
   9.62837000E+00    9.20811000E-01   2.37153000E-01 
   2.85332000E+00   -3.27447000E-03   8.19702000E-01 
SP   1    1.000000
   9.05661000E-01    1.00000000E+00   1.00000000E+00 
SP   1    1.000000
   2.55611000E-01    1.00000000E+00   1.00000000E+00 
SP   1    1.000000
   8.45000000E-02    1.00000000E+00   1.00000000E+00 
D    1    1.000000
   1.29200000E+00    1.00000000E+00 

7    0
S    6    1.000000
   4.56324000E+03    1.96665000E-03 
   6.82024000E+02    1.52306000E-02 
   1.54973000E+02    7.61269000E-02 
   4.44553000E+01    2.60801000E-01 
   1.30290000E+01    6.16462000E-01 
   1.82773000E+00    2.21006000E-01 
SP   3    1.000000
   2.09642000E+01    1.14660000E-01   4.02487000E-02 
   4.80331000E+00    9.19999000E-01   2.37594000E-01 
   1.45933000E+00   -3.03068000E-03   8.15854000E-01 
SP   1    1.000000
   4.83456000E-01    1.00000000E+00   1.00000000E+00 
SP   1    1.000000
   1.45585000E-01    1.00000000E+00   1.00000000E+00 
SP   1    1.000000
   4.38000000E-02    1.00000000E+00   1.00000000E+00 
D    1    1.000000
   6.26000000E-01    1.00000000E+00 

8    0
S    6    1.000000
   8.58850000E+03    1.89515000E-03 
   1.29723000E+03    1.43859000E-02 
   2.99296000E+02    7.07320000E-02 
   8.73771000E+01    2.40001000E-01 
   2.56789000E+01    5.94797000E-01 
   3.74004000E+00    2.80802000E-01 
SP   3    1.000000
   4.21175000E+01    1.13889000E-01   3.65114000E-02 
   9.62837000E+00    9.20811000E-01   2.37153000E-01 
   2.85332000E+00   -3.27447000E-03   8.19702000E-01 
SP   1    1.000000
   9.05661000E-01    1.00000000E+00   1.00000000E+00 
SP   1    1.000000
   2.55611000E-01    1.00000000E+00   1.00000000E+00 
SP   1    1.000000
   8.45000000E-02    1.00000000E+00   1.00000000E+00 
D    1    1.000000
   1.29200000E+00    1.00000000E+00 

9    0
S    6    1.000000
   6.29348000E+03    1.96979000E-03 
   9.49044000E+02    1.49613000E-02 
   2.18776000E+02    7.35006000E-02 
   6.36916000E+01    2.48937000E-01 
   1.88282000E+01    6.02460000E-01 
   2.72023000E+00    2.56202000E-01 
SP   3    1.000000
   3.06331000E+01    1.11906000E-01   3.83119000E-02 
   7.02614000E+00    9.21666000E-01   2.37403000E-01 
   2.11205000E+00   -2.56919000E-03   8.17592000E-01 
SP   1    1.000000
   6.84009000E-01    1.00000000E+00   1.00000000E+00 
SP   1    1.000000
   2.00878000E-01    1.00000000E+00   1.00000000E+00 
SP   1    1.000000
   6.39000000E-02    1.00000000E+00   1.00000000E+00 
D    1    1.000000
   9.13000000E-01    1.00000000E+00 

10    0
S    6    1.000000
   6.29348000E+03    1.96979000E-03 
   9.49044000E+02    1.49613000E-02 
   2.18776000E+02    7.35006000E-02 
   6.36916000E+01    2.48937000E-01 
   1.88282000E+01    6.02460000E-01 
   2.72023000E+00    2.56202000E-01 
SP   3    1.000000
   3.06331000E+01    1.11906000E-01   3.83119000E-02 
   7.02614000E+00    9.21666000E-01   2.37403000E-01 
   2.11205000E+00   -2.56919000E-03   8.17592000E-01 
SP   1    1.000000
   6.84009000E-01    1.00000000E+00   1.00000000E+00 
SP   1    1.000000
   2.00878000E-01    1.00000000E+00   1.00000000E+00 
SP   1    1.000000
   6.39000000E-02    1.00000000E+00   1.00000000E+00 
D    1    1.000000
   9.13000000E-01    1.00000000E+00 

11    0
S    6    1.000000
   4.56324000E+03    1.96665000E-03 
   6.82024000E+02    1.52306000E-02 
   1.54973000E+02    7.61269000E-02 
   4.44553000E+01    2.60801000E-01 
   1.30290000E+01    6.16462000E-01 
   1.82773000E+00    2.21006000E-01 
SP   3    1.000000
   2.09642000E+01    1.14660000E-01   4.02487000E-02 
   4.80331000E+00    9.19999000E-01   2.37594000E-01 
   1.45933000E+00   -3.03068000E-03   8.15854000E-01 
SP   1    1.000000
   4.83456000E-01    1.00000000E+00   1.00000000E+00 
SP   1    1.000000
   1.45585000E-01    1.00000000E+00   1.00000000E+00 
SP   1    1.000000
   4.38000000E-02    1.00000000E+00   1.00000000E+00 
D    1    1.000000
   6.26000000E-01    1.00000000E+00 

12    0
S    3    1.000000
   3.38650000E+01    2.54938000E-02 
   5.09479000E+00    1.90373000E-01 
   1.15879000E+00    8.52161000E-01 
S    1    1.000000
   3.25840000E-01    1.00000000E+00 
S    1    1.000000
   1.02741000E-01    1.00000000E+00 
S    1    1.000000
   3.60000000E-02    1.00000000E+00 
P    1    1.000000
   7.50000000E-01    1.00000000E+00 

[MO]
Sym=X
Ene= 2.000000
Spin=Alpha
Occup=1
     1   -2.625682521296e-07
     2    1.095588444065e-06
     3   -3.471380621660e-06
     4    3.983869997003e-06
     5   -1.131766956360e-15
     6   -1.220323893642e-05
     7    1.398295223313e-05
     8   -1.517499515678e-05
     9   -5.418857938100e-15
    10    1.476093238404e-04
    11    1.235509608295e-04
    12    2.084294962034e-04
    13    2.993246305497e-15
    14    3.716762504096e-04
    15    2.325760470195e-04
    16    5.995202834581e-04
    17   -5.964075871183e-16
    18   -1.090063589710e-06
    19   -6.051130945893e-16
    20    2.010261057780e-16
    21    6.299757097779e-06
    22   -1.391790157441e-06
    23    2.739249126155e-06
    24    1.890870440060e-05
    25    8.951602077906e-05
    26    1.609189026660e-04
    27    9.940214221340e-06
    28   -8.245055970893e-06
    29   -1.071481163888e-16
    30   -2.510560001973e-06
    31    3.288729506557e-05
    32    1.266006147810e-04
    33    3.293393695646e-04
    34   -3.395811201138e-06
    35    4.417340557897e-06
    36    4.378585894436e-16
    37   -3.065813515774e-10
    38   -2.872442375028e-07
    39    2.016552669506e-05
    40    1.385321886083e-04
    41    1.169567169702e-05
    42    1.015802072274e-07
    43   -1.327464532983e-15
    44    3.560127630376e-06
    45   -5.520069315416e-05
    46   -4.356753653776e-05
    47    2.266219316546e-05
    48   -9.491365729514e-15
    49    2.161721927854e-04
    50   -2.510709787526e-04
    51    1.396799642666e-04
    52   -2.248726976844e-14
    53    1.185365603368e-04
    54   -2.280010010193e-04
    55    1.232692509485e-04
    56   -6.885862460528e-15
    57    3.949317881110e-04
    58    4.702199494862e-04
    59   -9.312367039091e-05
    60   -2.583211465575e-15
    61   -4.482302080794e-05
    62   -3.335984103175e-16
    63   -8.137167575705e-16
    64    7.528980092342e-05
    65   -1.280810886265e-04
    66    3.921105024927e-01
    67    3.353658097536e-01
    68    1.140310532911e-03
    69   -6.213905722968e-04
    70   -7.044141481508e-15
    71    3.906651809853e-03
    72   -4.712135965617e-04
    73    2.508020678739e-04
    74   -1.270783228853e-14
    75   -9.146733004572e-04
    76    1.084983566530e-04
    77   -5.498844556507e-05
    78   -4.801239048577e-15
    79    1.208358348820e-03
    80    1.279692197977e-04
    81   -6.357025619578e-05
    82   -1.826602362865e-15
    83   -5.729709185408e-05
    84   -4.942760895774e-16
    85    1.076360108402e-15
    86   -4.126759241550e-05
    87    5.091223419396e-05
    88   -2.846371760290e-06
    89    5.088912099055e-05
    90   -3.223146896507e-05
    91   -2.121434239435e-05
    92   -4.372002021381e-15
    93   -1.942562521265e-04
    94   -2.295277686837e-04
    95   -1.649243751839e-04
    96   -8.895311348985e-15
    97    7.012617272790e-05
    98   -2.292201152974e-04
    99   -3.209564436934e-04
   100   -3.591426565279e-15
   101    2.217369735746e-03
   102    5.413143332444e-04
   103   -8.213471818462e-04
   104    2.539695568077e-15
   105    4.153877418927e-05
   106    1.725036981800e-16
   107   -4.080679362839e-16
   108   -7.613324788830e-05
   109   -1.291404712149e-04
   110   -3.878167664912e-01
   111   -3.316878618339e-01
   112    1.055601227394e-03
   113    6.607879449898e-04
   114    1.349389946807e-15
   115   -3.800392290105e-03
   116   -4.424411478695e-04
   117   -2.827141551172e-04
   118   -3.344023462304e-15
   119    8.507100488495e-04
   120    1.021744396285e-04
   121    7.453002938028e-05
   122    5.673092120164e-15
   123   -1.021556960162e-03
   124    6.455701915091e-05
   125    4.336955017342e-05
   126   -1.744500368283e-15
   127    6.493173431635e-05
   128   -2.409078705557e-16
   129   -7.460021252360e-17
   130    2.925520269215e-05
   131    7.451009058774e-05
   132   -2.380646039298e-07
   133   -5.428569848869e-07
   134    1.642233289282e-05
   135   -4.088498205087e-06
   136   -1.545268267016e-14
   137    2.221652709333e-06
   138   -4.412836557664e-05
   139    1.175537496935e-05
   140   -2.603359752967e-14
   141    5.190145477082e-05
   142    6.537408780088e-05
   143   -1.708084091632e-05
   144   -2.418935444856e-14
   145    1.252571980433e-04
   146    7.141888114683e-04
   147   -5.852989622742e-05
   148    4.037080748510e-16
   149    1.879595087122e-07
   150    5.101489496431e-16
   151    1.193393232669e-15
   152    7.783014598994e-06
   153    1.561403007042e-05
   154    4.206540595854e-07
   155    5.917612113355e-07
   156    1.805609877438e-06
   157   -8.051296651521e-06
   158   -6.787895916472e-15
   159   -8.681062221215e-06
   160   -3.885504578817e-06
   161    1.989280450770e-05
   162   -1.111869307243e-14
   163    2.070462631554e-05
   164    8.808165733832e-05
   165    4.924247786697e-06
   166   -1.263130077385e-14
   167   -2.549975890017e-04
   168    1.951866107791e-04
   169   -3.095028766371e-04
   170    8.896884000230e-16
   171   -5.807732921037e-06
   172   -7.839258084582e-16
   173   -1.471194218237e-15
   174   -1.456779126968e-05
   175   -3.182670517279e-06
   176   -9.316155493222e-07
   177   -6.291794393911e-07
   178    4.300944791567e-06
   179    1.177388087229e-05
   180   -3.741440689832e-15
   181    1.998196249038e-05
   182   -1.466560292995e-05
   183   -6.033202582753e-05
   184   -8.660419268624e-16
   185   -4.598178249998e-04
   186    3.694673962643e-04
   187   -1.334518817598e-04
   188   -5.584451834878e-15
   189   -3.305932920888e-03
   190    2.230432158005e-04
   191   -1.038716838519e-03
   192   -6.281982904956e-16
   193    7.816509236109e-06
   194    6.525084837722e-17
   195   -9.202370228285e-16
   196    2.410329460858e-05
   197   -2.457284842557e-05
   198    2.569849005913e-06
   199   -9.053573813307e-05
   200   -1.142561533385e-04
   201   -3.710611316107e-04
   202    1.512079150630e-05
   203   -7.838831923164e-06
   204    1.000378640757e-15
Sym=X
Ene= 2.000000
Spin=Alpha
Occup=1
     1   -2.163465112146e-07
     2   -1.183455503010e-06
     3   -1.001667394596e-06
     4    3.560589513244e-06
     5   -2.395856202132e-15
     6    1.132104880993e-05
     7    7.688119456569e-06
     8   -1.552253556357e-05
     9   -2.583023546881e-15
    10   -4.766586434218e-04
    11   -3.014126641432e-05
    12   -1.728277154527e-04
    13   -3.958257506785e-15
    14    3.269705439050e-04
    15    5.051068452132e-04
    16   -2.194180924698e-04
    17    8.916171425617e-15
    18    2.784433810054e-06
    19    9.425754158545e-16
    20    3.240094119636e-16
    21   -1.478641302484e-06
    22    5.610426958941e-06
    23    2.807926686395e-06
    24    3.231388180540e-05
    25    3.653687833550e-05
    26    2.623305494622e-04
    27    5.914938430225e-06
    28   -5.301090536684e-06
    29    9.126779969874e-16
    30   -3.007537930328e-06
    31    7.714049381311e-06
    32   -9.029491338433e-05
    33   -1.070943255556e-04
    34    2.276796859732e-06
    35    2.185311594560e-07
    36    8.448818013496e-16
    37    4.100849730157e-06
    38    8.259242863648e-05
    39    1.339957636997e-04
    40    2.641329320660e-04
    41   -4.779621541918e-07
    42   -9.883849851363e-06
    43   -3.051390954701e-16
    44    2.714535622888e-06
    45   -5.287704753716e-05
    46   -3.562360116490e-05
    47    2.229355563198e-05
    48    7.892873941117e-15
    49    1.999442006775e-04
    50   -2.788773807791e-04
    51    1.374552587586e-04
    52    1.463916538877e-14
    53   -2.375177476450e-04
    54   -3.971281322410e-04
    55    1.237140060032e-04
    56    9.908281851772e-15
    57    1.012746404344e-04
    58    4.996752714468e-04
    59   -3.272664953832e-04
    60   -3.076964587929e-15
    61   -3.923856015678e-05
    62   -2.480729446861e-15
    63    1.558318558084e-15
    64    7.021556287872e-05
    65   -1.238641348246e-04
    66    3.878018731804e-01
    67    3.316819493896e-01
    68    1.128121725758e-03
    69   -6.149743899493e-04
    70    1.454869891330e-14
    71    3.852786925997e-03
    72   -4.706277254654e-04
    73    2.491174090421e-04
    74    2.807563130826e-14
    75   -8.655733349401e-04
    76    1.304547005349e-04
    77   -5.557084878335e-05
    78    1.897691373208e-14
    79    8.878542204435e-04
    80   -5.304970570952e-05
    81   -4.254858586075e-06
    82    7.181120012698e-15
    83   -5.635913914124e-05
    84    1.388487084845e-15
    85   -2.171330148819e-15
    86   -3.994003506810e-05
    87    5.023450751095e-05
    88    2.378340353950e-06
    89   -5.077606891787e-05
    90    2.759184788246e-05
    91    2.405441164170e-05
    92   -1.842577794428e-15
    93    1.943370279667e-04
    94    2.524920161536e-04
    95    1.513469200618e-04
    96   -5.900923723495e-15
    97   -3.122228662398e-04
    98    3.402032110671e-04
    99    2.515131551746e-04
   100   -2.469492521684e-15
   101   -8.995151077815e-04
   102   -3.665345424479e-04
   103   -2.015176965156e-04
   104    9.000002554860e-15
   105   -3.753900256412e-05
   106   -4.817564782750e-17
   107   -2.982485315103e-17
   108    6.618588234873e-05
   109    1.345162468454e-04
   110    3.921256617797e-01
   111    3.353742474064e-01
   112   -1.066839456224e-03
   113   -6.689045244763e-04
   114    2.140180636440e-16
   115    3.831964856753e-03
   116    4.486248407170e-04
   117    2.880695494366e-04
   118   -1.053708981093e-15
   119   -8.068707853980e-04
   120   -1.223822365527e-04
   121   -8.666836929326e-05
   122    2.865162451107e-15
   123    8.248640141249e-04
   124    2.952874512285e-05
   125    5.084993846889e-05
   126   -8.789565090913e-16
   127   -6.544603774314e-05
   128    3.604817784927e-16
   129   -2.212987117140e-16
   130   -2.835815067397e-05
   131   -7.485176121715e-05
   132    4.015713931059e-07
   133    2.677829758989e-06
   134    2.160774313291e-08
   135    1.258261962428e-06
   136   -1.826949953981e-15
   137   -4.313541467441e-05
   138   -6.226322270357e-06
   139   -4.718741087836e-07
   140   -6.097497544672e-15
   141    3.944750497807e-04
   142   -6.861947671295e-05
   143   -3.265022149831e-04
   144   -5.310325848815e-15
   145   -1.787274277367e-04
   146   -4.729852575287e-05
   147   -1.350426369150e-04
   148   -4.997440505405e-15
   149   -1.111398427984e-05
   150    5.689814089424e-16
   151    7.440634924291e-16
   152    3.005039151267e-05
   153   -8.612439525366e-06
   154    4.061644715208e-07
   155    1.392194169030e-06
   156    2.183243380207e-06
   157   -7.509748089739e-06
   158    1.681692720286e-16
   159   -2.225700265929e-05
   160   -5.217561003988e-06
   161    1.709118885570e-05
   162    1.621582371723e-15
   163    2.321559383389e-04
   164    1.981181091178e-04
   165    1.235207378125e-05
   166   -1.778838290517e-15
   167    6.067773252503e-05
   168    1.276567075853e-04
   169   -2.743809702849e-04
   170   -3.970400217556e-15
   171   -5.217312924060e-06
   172   -4.765362033178e-16
   173    1.463634818012e-16
   174   -1.504744246036e-05
   175   -5.472288150061e-06
   176    1.163063607894e-06
   177   -4.026375162430e-07
   178   -2.008777331083e-06
   179   -1.270923899061e-05
   180   -2.928827038280e-15
   181   -5.294715518191e-06
   182    4.640436802214e-07
   183    6.582082732547e-05
   184   -7.730389235696e-15
   185    4.006792807047e-04
   186   -3.125840176978e-04
   187    9.955878109195e-05
   188   -2.214961727604e-15
   189   -7.569963261435e-04
   190    3.708023841026e-04
   191    4.536462041301e-04
   192   -1.064805443113e-14
   193   -2.678699780857e-06
   194    1.297546568688e-15
   195   -3.944855512649e-16
   196   -2.307558677734e-05
   197    2.264376063788e-05
   198   -8.652335451465e-07
   199    8.187061944254e-05
   200    8.337517726363e-05
   201    9.008404998581e-05
   202   -1.590999148741e-05
   203    8.507118867312e-06
   204   -7.007055848162e-16
Sym=X
Ene= 1.999997
Spin=Alpha
Occup=1
     1    2.407393001693e-04
     2    2.057140750330e-04
     3    2.087697560960e-05
     4   -1.399513754764e-05
     5    3.303781090279e-15
     6   -6.786921836827e-05
     7    5.766032903104e-06
     8    1.768162881667e-05
     9    7.549643857252e-15
    10    1.291999365766e-03
    11    1.788435979811e-04
    12    6.687171750647e-04
    13    3.761283028406e-15
    14    4.153556167375e-03
    15    7.886961434383e-04
    16    1.639781597698e-03
    17    7.209824155324e-15
    18   -1.752053906063e-05
    19    7.571062876940e-16
    20    1.765013495026e-15
    21   -9.698952041890e-06
    22   -4.853665911152e-06
    23   -4.648370425113e-05
    24   -1.685865219281e-04
    25   -4.854189984957e-04
    26   -1.759204456501e-04
    27   -1.866301715955e-05
    28   -1.061506447730e-05
    29   -5.131362369688e-16
    30    3.041232078735e-06
    31    3.932925141464e-05
    32    3.235923955699e-04
    33    6.684075321710e-04
    34   -2.159453776499e-06
    35   -2.389428943505e-06
    36    1.035699327145e-15
    37   -5.937451550828e-04
    38   -1.378312957702e-03
    39    8.935251506698e-04
    40   -3.851179661513e-06
    41    1.262296491417e-05
    42    2.390830810531e-04
    43    3.334322326768e-16
    44    1.514597615089e-02
    45    1.248140159907e-02
    46    7.860631843023e-05
    47    5.138985953634e-05
    48   -6.332645034706e-15
    49    4.414716813865e-04
    50    1.601205543572e-04
    51    1.172785781301e-04
    52   -7.366475482938e-15
    53    8.999695712744e-04
    54    1.370461596144e-03
    55   -1.746833165764e-04
    56   -9.968444804484e-15
    57   -5.031870699785e-04
    58    1.381389186320e-04
    59    5.384440365307e-04
    60   -3.771069621043e-15
    61   -6.818721969988e-06
    62    4.931069756155e-15
    63   -2.501289981591e-15
    64    3.570519565656e-05
    65   -8.860250321844e-05
    66    4.780652772170e-05
    67    8.349542097664e-05
    68    3.165656471664e-04
    69    2.906232738403e-04
    70   -1.985562668196e-14
    71   -2.763776733264e-04
    72    4.882667627145e-04
    73    4.740088333230e-04
    74   -3.118174501188e-14
    75    1.113079101327e-04
    76    4.697531060083e-04
    77    3.531756731271e-04
    78   -2.911329550090e-14
    79    7.249626546044e-04
    80    2.291236401812e-04
    81   -1.640698881728e-04
    82   -1.042636917152e-15
    83   -4.100860071700e-06
    84   -1.161459514339e-15
    85    2.152066501246e-16
    86    3.528256783445e-05
    87    3.578568259421e-06
    88   -1.320222788053e-03
    89   -1.127442254598e-03
    90   -7.743989296476e-05
    91    4.424957788794e-05
    92    8.203890097424e-16
    93    2.105437955567e-04
    94   -2.015654871569e-04
    95    3.292773036850e-05
    96    6.218461789853e-17
    97    7.145354461335e-04
    98   -1.235382432189e-03
    99   -1.395198480739e-04
   100    3.470860475909e-15
   101   -9.064057432280e-04
   102   -4.450844183707e-05
   103    5.720527530368e-04
   104    8.830900003385e-15
   105    3.831622716241e-06
   106   -2.576994482887e-15
   107   -1.949020950614e-15
   108    7.227947156058e-05
   109    1.185760264483e-05
   110    2.804102427922e-05
   111    4.898598380713e-05
   112   -8.873320724385e-05
   113    6.371313452132e-05
   114   -7.869623828458e-15
   115   -1.669569952676e-04
   116   -1.551662937388e-04
   117    1.235568768135e-04
   118   -1.162452396710e-14
   119    2.503837330565e-04
   120   -1.773025318971e-04
   121   -2.951887335536e-05
   122   -9.872934402456e-15
   123    5.288580087755e-04
   124   -1.677473733006e-04
   125   -1.147452948353e-04
   126   -9.308836435112e-15
   127   -1.770546266496e-06
   128    2.855453578599e-16
   129    1.346967481590e-15
   130    1.203931620842e-05
   131    1.979217370912e-06
   132    5.577570045643e-01
   133    4.686868839189e-01
   134   -3.390804940156e-04
   135   -8.252473086948e-04
   136    8.398851763242e-15
   137    3.853177456612e-03
   138    6.511226261676e-05
   139   -9.763712358827e-04
   140    1.399426355762e-14
   141   -4.052686894217e-03
   142    6.050714776982e-05
   143    1.739494889614e-04
   144    1.657146962521e-14
   145   -2.731551701532e-05
   146   -4.306044037676e-05
   147   -1.277914969163e-03
   148    2.974451782974e-15
   149    4.028957567485e-05
   150   -1.802919302957e-17
   151    3.256791572747e-16
   152    2.182848799209e-05
   153    2.823405137204e-05
   154    1.390761823408e-03
   155    1.173507901827e-03
   156    3.075659644148e-05
   157    3.947917788531e-05
   158    5.618736052238e-15
   159   -5.161028727601e-06
   160    7.436178918687e-05
   161    9.878007382222e-05
   162    8.359555088020e-15
   163   -4.443690573297e-04
   164   -5.842632392240e-04
   165   -4.652321495730e-05
   166    1.228985106221e-14
   167   -1.578938231722e-03
   168   -1.105259695703e-03
   169   -5.816665022116e-04
   170   -4.956708289848e-15
   171   -2.371492674535e-06
   172    1.377364883797e-16
   173   -1.505561185597e-15
   174   -1.120553839760e-05
   175    1.135573813454e-05
   176    4.015560776544e-05
   177    2.933935467435e-05
   178   -2.342718213970e-05
   179    6.502758636190e-07
   180    4.083066824651e-15
   181    3.716964637795e-05
   182   -4.470144262662e-07
   183   -1.846917096189e-05
   184    5.471208399174e-15
   185   -9.216252745326e-04
   186    9.008345090790e-04
   187   -3.023822950965e-04
   188    4.888964175540e-15
   189   -2.631181850812e-03
   190    1.277700866674e-03
   191   -7.368479881326e-06
   192   -6.179052304165e-15
   193   -8.457371269502e-06
   194   -9.525002683967e-17
   195   -4.920771720312e-16
   196    2.357583651554e-06
   197   -2.914558784646e-06
   198    6.897811691179e-06
   199   -1.879253627491e-04
   200   -3.128559622156e-04
   201   -3.808900845780e-04
   202    1.216329045292e-05
   203   -2.163353722065e-05
   204    2.002223297374e-16
Sym=X
Ene= 1.999996
Spin=Alpha
Occup=1
     1   -7.426124866445e-04
     2   -6.351117655535e-04
     3   -1.032537080909e-04
     4   -1.802740477694e-05
     5   -2.669840579812e-15
     6    9.183622293703e-05
     7   -1.412237466889e-04
     8   -7.433286053926e-05
     9   -2.572774096254e-15
    10    7.933836757292e-04
    11   -1.961367410018e-04
    12    2.403559500081e-04
    13   -4.047310606582e-15
    14   -2.800430045349e-03
    15    5.482863182825e-05
    16   -9.190901897517e-04
    17    6.087072719708e-16
    18   -1.005977938170e-05
    19    1.055397522438e-15
    20   -1.277785074908e-15
    21    2.807769604410e-05
    22    2.814896147910e-05
    23    9.393571592078e-05
    24    6.103962582662e-05
    25    1.731593086072e-07
    26    2.778976539394e-05
    27   -3.247165845218e-05
    28   -1.121640900180e-05
    29   -2.273069876255e-15
    30    3.900341526899e-05
    31    6.924156550992e-06
    32    2.609791474407e-05
    33   -2.836047590868e-04
    34    9.523290638355e-06
    35   -6.876850215737e-06
    36    6.149835548795e-16
    37   -1.843041256688e-04
    38   -3.173298700732e-04
    39   -5.809183418965e-05
    40    1.504992678821e-04
    41    8.236757649652e-05
    42    1.190484423454e-04
    43   -1.800280239776e-15
    44   -5.631364863589e-01
    45   -4.661796984528e-01
    46   -8.015469501978e-04
    47    3.423419858887e-04
    48   -3.117417494247e-14
    49   -4.214805410937e-03
    50   -1.631441982118e-04
    51   -1.274874572496e-03
    52   -5.477052460759e-14
    53    4.032710572204e-04
    54   -5.110284799691e-04
    55   -3.475473408771e-04
    56   -3.570264100504e-14
    57    3.350171463082e-03
    58    1.202408823927e-03
    59   -1.099988657832e-03
    60   -7.635774347037e-15
    61    4.139995179067e-04
    62    4.530447103750e-15
    63   -1.927914260138e-15
    64   -1.802470003222e-04
    65    3.689011768428e-04
    66    7.548776482605e-04
    67    1.233194040612e-03
    68   -2.958146627753e-04
    69   -1.204086924816e-03
    70   -3.814921306851e-14
    71   -3.322841654291e-03
    72   -4.776994209259e-04
    73   -1.875397399349e-03
    74   -6.171736728511e-14
    75   -1.985380919776e-03
    76    2.368752079278e-04
    77   -1.975213791749e-03
    78   -4.745850195080e-14
    79   -5.303509292234e-04
    80   -5.427119803072e-04
    81    2.417155337481e-04
    82   -1.716831625060e-15
    83    2.718107182189e-05
    84   -4.321831254587e-15
    85    3.315731549357e-15
    86   -1.620443630047e-04
    87    3.639500085774e-05
    88    3.478694319465e-04
    89    2.791561368360e-04
    90   -1.137563837289e-04
    91    2.292180211000e-05
    92   -1.052746600559e-14
    93    6.534309100002e-05
    94   -1.197662581036e-04
    95    5.270536762317e-05
    96   -1.716608198598e-14
    97    3.793380286733e-04
    98   -2.548703899059e-04
    99    3.448705194017e-04
   100   -1.113269880256e-14
   101   -2.871534083132e-03
   102    8.642103986446e-04
   103   -8.052533105134e-05
   104   -2.511746098636e-15
   105   -6.539100505251e-06
   106    3.602555702285e-16
   107   -1.165798261901e-15
   108    7.884476201686e-06
   109   -4.840946839793e-05
   110    4.950699372615e-06
   111    7.325062364921e-06
   112    1.593455341214e-04
   113   -1.229983068936e-04
   114   -1.038876997655e-14
   115   -7.268173122043e-06
   116    2.534223219508e-04
   117   -1.871068466166e-04
   118   -1.853636119316e-14
   119   -1.124474934395e-04
   120    2.845364028370e-04
   121   -2.269667003465e-04
   122   -1.328437494297e-14
   123    1.058584964728e-04
   124   -1.931780447285e-05
   125   -4.121262888367e-05
   126   -2.359175950230e-15
   127    3.369040296164e-06
   128    1.429476045492e-16
   129    7.034294387351e-16
   130   -1.850142705282e-05
   131   -1.856330913827e-06
   132    1.525010326191e-02
   133    1.301390998876e-02
   134    4.684284835100e-04
   135   -3.288584142498e-05
   136   -2.424510752611e-14
   137   -9.206925088391e-04
   138    1.020614147777e-03
   139    6.846586124222e-05
   140   -3.760570676453e-14
   141    8.947519097726e-05
   142   -3.500834286846e-04
   143   -1.137709778992e-04
   144   -3.127311464260e-14