[Molden Format]
[Atoms] (Angs)
  C      1    6     -0.13173890     -1.79208980      0.00000000
  H      2    1     -2.14962000     -1.30978739      0.00000000
  H      3    1     -0.31599560     -2.86503115      0.00000000
  H      4    1      0.14407746      2.04280963     -0.00000000
  C      5    6     -1.17258876      0.48030861      0.00000000
  O      6    8     -2.25008207      1.06833796      0.00000000
  C      7    6      1.31158357      0.28308717     -0.00000000
  O      8    8      2.36361668      0.96389345     -0.00000000
  N      9    7      0.07017030      1.03138997     -0.00000000
  N     10    7     -1.19586868     -0.94982644      0.00000000
  C     11    6      1.19165158     -1.13169473     -0.00000000
  H     12    1      2.09970506     -1.73445456     -0.00000000
[GTO]
1    0
S    6    1.000000
   4.56324000E+03    1.96665000E-03 
   6.82024000E+02    1.52306000E-02 
   1.54973000E+02    7.61269000E-02 
   4.44553000E+01    2.60801000E-01 
   1.30290000E+01    6.16462000E-01 
   1.82773000E+00    2.21006000E-01 
SP   3    1.000000
   2.09642000E+01    1.14660000E-01   4.02487000E-02 
   4.80331000E+00    9.19999000E-01   2.37594000E-01 
   1.45933000E+00   -3.03068000E-03   8.15854000E-01 
SP   1    1.000000
   4.83456000E-01    1.00000000E+00   1.00000000E+00 
SP   1    1.000000
   1.45585000E-01    1.00000000E+00   1.00000000E+00 
SP   1    1.000000
   4.38000000E-02    1.00000000E+00   1.00000000E+00 
D    1    1.000000
   6.26000000E-01    1.00000000E+00 

2    0
S    3    1.000000
   3.38650000E+01    2.54938000E-02 
   5.09479000E+00    1.90373000E-01 
   1.15879000E+00    8.52161000E-01 
S    1    1.000000
   3.25840000E-01    1.00000000E+00 
S    1    1.000000
   1.02741000E-01    1.00000000E+00 
S    1    1.000000
   3.60000000E-02    1.00000000E+00 
P    1    1.000000
   7.50000000E-01    1.00000000E+00 

3    0
S    3    1.000000
   3.38650000E+01    2.54938000E-02 
   5.09479000E+00    1.90373000E-01 
   1.15879000E+00    8.52161000E-01 
S    1    1.000000
   3.25840000E-01    1.00000000E+00 
S    1    1.000000
   1.02741000E-01    1.00000000E+00 
S    1    1.000000
   3.60000000E-02    1.00000000E+00 
P    1    1.000000
   7.50000000E-01    1.00000000E+00 

4    0
S    3    1.000000
   3.38650000E+01    2.54938000E-02 
   5.09479000E+00    1.90373000E-01 
   1.15879000E+00    8.52161000E-01 
S    1    1.000000
   3.25840000E-01    1.00000000E+00 
S    1    1.000000
   1.02741000E-01    1.00000000E+00 
S    1    1.000000
   3.60000000E-02    1.00000000E+00 
P    1    1.000000
   7.50000000E-01    1.00000000E+00 

5    0
S    6    1.000000
   4.56324000E+03    1.96665000E-03 
   6.82024000E+02    1.52306000E-02 
   1.54973000E+02    7.61269000E-02 
   4.44553000E+01    2.60801000E-01 
   1.30290000E+01    6.16462000E-01 
   1.82773000E+00    2.21006000E-01 
SP   3    1.000000
   2.09642000E+01    1.14660000E-01   4.02487000E-02 
   4.80331000E+00    9.19999000E-01   2.37594000E-01 
   1.45933000E+00   -3.03068000E-03   8.15854000E-01 
SP   1    1.000000
   4.83456000E-01    1.00000000E+00   1.00000000E+00 
SP   1    1.000000
   1.45585000E-01    1.00000000E+00   1.00000000E+00 
SP   1    1.000000
   4.38000000E-02    1.00000000E+00   1.00000000E+00 
D    1    1.000000
   6.26000000E-01    1.00000000E+00 

6    0
S    6    1.000000
   8.58850000E+03    1.89515000E-03 
   1.29723000E+03    1.43859000E-02 
   2.99296000E+02    7.07320000E-02 
   8.73771000E+01    2.40001000E-01 
   2.56789000E+01    5.94797000E-01 
   3.74004000E+00    2.80802000E-01 
SP   3    1.000000
   4.21175000E+01    1.13889000E-01   3.65114000E-02 
   9.62837000E+00    9.20811000E-01   2.37153000E-01 
   2.85332000E+00   -3.27447000E-03   8.19702000E-01 
SP   1    1.000000
   9.05661000E-01    1.00000000E+00   1.00000000E+00 
SP   1    1.000000
   2.55611000E-01    1.00000000E+00   1.00000000E+00 
SP   1    1.000000
   8.45000000E-02    1.00000000E+00   1.00000000E+00 
D    1    1.000000
   1.29200000E+00    1.00000000E+00 

7    0
S    6    1.000000
   4.56324000E+03    1.96665000E-03 
   6.82024000E+02    1.52306000E-02 
   1.54973000E+02    7.61269000E-02 
   4.44553000E+01    2.60801000E-01 
   1.30290000E+01    6.16462000E-01 
   1.82773000E+00    2.21006000E-01 
SP   3    1.000000
   2.09642000E+01    1.14660000E-01   4.02487000E-02 
   4.80331000E+00    9.19999000E-01   2.37594000E-01 
   1.45933000E+00   -3.03068000E-03   8.15854000E-01 
SP   1    1.000000
   4.83456000E-01    1.00000000E+00   1.00000000E+00 
SP   1    1.000000
   1.45585000E-01    1.00000000E+00   1.00000000E+00 
SP   1    1.000000
   4.38000000E-02    1.00000000E+00   1.00000000E+00 
D    1    1.000000
   6.26000000E-01    1.00000000E+00 

8    0
S    6    1.000000
   8.58850000E+03    1.89515000E-03 
   1.29723000E+03    1.43859000E-02 
   2.99296000E+02    7.07320000E-02 
   8.73771000E+01    2.40001000E-01 
   2.56789000E+01    5.94797000E-01 
   3.74004000E+00    2.80802000E-01 
SP   3    1.000000
   4.21175000E+01    1.13889000E-01   3.65114000E-02 
   9.62837000E+00    9.20811000E-01   2.37153000E-01 
   2.85332000E+00   -3.27447000E-03   8.19702000E-01 
SP   1    1.000000
   9.05661000E-01    1.00000000E+00   1.00000000E+00 
SP   1    1.000000
   2.55611000E-01    1.00000000E+00   1.00000000E+00 
SP   1    1.000000
   8.45000000E-02    1.00000000E+00   1.00000000E+00 
D    1    1.000000
   1.29200000E+00    1.00000000E+00 

9    0
S    6    1.000000
   6.29348000E+03    1.96979000E-03 
   9.49044000E+02    1.49613000E-02 
   2.18776000E+02    7.35006000E-02 
   6.36916000E+01    2.48937000E-01 
   1.88282000E+01    6.02460000E-01 
   2.72023000E+00    2.56202000E-01 
SP   3    1.000000
   3.06331000E+01    1.11906000E-01   3.83119000E-02 
   7.02614000E+00    9.21666000E-01   2.37403000E-01 
   2.11205000E+00   -2.56919000E-03   8.17592000E-01 
SP   1    1.000000
   6.84009000E-01    1.00000000E+00   1.00000000E+00 
SP   1    1.000000
   2.00878000E-01    1.00000000E+00   1.00000000E+00 
SP   1    1.000000
   6.39000000E-02    1.00000000E+00   1.00000000E+00 
D    1    1.000000
   9.13000000E-01    1.00000000E+00 

10    0
S    6    1.000000
   6.29348000E+03    1.96979000E-03 
   9.49044000E+02    1.49613000E-02 
   2.18776000E+02    7.35006000E-02 
   6.36916000E+01    2.48937000E-01 
   1.88282000E+01    6.02460000E-01 
   2.72023000E+00    2.56202000E-01 
SP   3    1.000000
   3.06331000E+01    1.11906000E-01   3.83119000E-02 
   7.02614000E+00    9.21666000E-01   2.37403000E-01 
   2.11205000E+00   -2.56919000E-03   8.17592000E-01 
SP   1    1.000000
   6.84009000E-01    1.00000000E+00   1.00000000E+00 
SP   1    1.000000
   2.00878000E-01    1.00000000E+00   1.00000000E+00 
SP   1    1.000000
   6.39000000E-02    1.00000000E+00   1.00000000E+00 
D    1    1.000000
   9.13000000E-01    1.00000000E+00 

11    0
S    6    1.000000
   4.56324000E+03    1.96665000E-03 
   6.82024000E+02    1.52306000E-02 
   1.54973000E+02    7.61269000E-02 
   4.44553000E+01    2.60801000E-01 
   1.30290000E+01    6.16462000E-01 
   1.82773000E+00    2.21006000E-01 
SP   3    1.000000
   2.09642000E+01    1.14660000E-01   4.02487000E-02 
   4.80331000E+00    9.19999000E-01   2.37594000E-01 
   1.45933000E+00   -3.03068000E-03   8.15854000E-01 
SP   1    1.000000
   4.83456000E-01    1.00000000E+00   1.00000000E+00 
SP   1    1.000000
   1.45585000E-01    1.00000000E+00   1.00000000E+00 
SP   1    1.000000
   4.38000000E-02    1.00000000E+00   1.00000000E+00 
D    1    1.000000
   6.26000000E-01    1.00000000E+00 

12    0
S    3    1.000000
   3.38650000E+01    2.54938000E-02 
   5.09479000E+00    1.90373000E-01 
   1.15879000E+00    8.52161000E-01 
S    1    1.000000
   3.25840000E-01    1.00000000E+00 
S    1    1.000000
   1.02741000E-01    1.00000000E+00 
S    1    1.000000
   3.60000000E-02    1.00000000E+00 
P    1    1.000000
   7.50000000E-01    1.00000000E+00 

[MO]
Sym=X
Ene= -0.495599
Spin=Alpha
Occup=1
     1    1.930508157835e-02
     2    3.417781299349e-02
     3    1.513813164235e-02
     4    2.681740947543e-02
     5    5.968460012390e-14
     6   -1.196956960192e-01
     7    2.523176406531e-02
     8    3.496798486650e-02
     9    8.872446104751e-14
    10   -1.314514011992e-01
    11    8.477031201118e-02
    12    1.736089972710e-01
    13    1.788057773069e-13
    14   -2.144215163615e+00
    15   -2.965039104450e-01
    16    2.199243419082e+00
    17    6.966106612211e-13
    18   -1.120363842284e-03
    19   -2.663693115942e-14
    20   -5.294534405708e-15
    21   -6.643673471799e-03
    22    2.361990307635e-03
    23    1.028464070546e-02
    24    3.228887084574e-02
    25   -3.394684141199e-01
    26   -6.360045686276e-01
    27    3.678076205250e-03
    28   -7.704637149353e-03
    29   -6.428800931579e-15
    30   -1.467543842052e-03
    31   -1.158389877936e-02
    32    4.689602787893e-01
    33    3.440339166422e+00
    34   -1.908633355564e-03
    35   -1.349588096415e-02
    36    1.106007618095e-14
    37    1.445058032595e-02
    38    3.721956813214e-02
    39    3.282979130573e-01
    40    1.068302711952e+00
    41   -8.012160248220e-04
    42    9.929031356030e-03
    43    5.325135909569e-15
    44    8.217789616081e-03
    45    1.475945532160e-02
    46    1.941908637010e-02
    47   -4.977480295601e-03
    48   -2.692810498000e-14
    49   -4.696710594101e-02
    50    3.632572768871e-02
    51   -1.176084178358e-02
    52   -5.348415525270e-14
    53   -2.178469465544e-01
    54    3.543855717925e-01
    55   -1.691550509918e-01
    56    6.052186666376e-15
    57   -5.604296666098e-01
    58    1.479339379323e+00
    59    3.058429073012e-01
    60   -6.213367775936e-14
    61   -9.117622474045e-03
    62   -4.430780406263e-14
    63    2.579143128467e-14
    64    1.271129962236e-02
    65   -1.162347419004e-02
    66   -1.656366120428e-02
    67   -2.863396815067e-02
    68   -8.131858136432e-03
    69   -4.044202486754e-02
    70    1.049301669820e-14
    71    9.661489040748e-02
    72   -1.426813736525e-02
    73   -5.653797716219e-02
    74    2.416807968624e-14
    75    2.503469060465e-01
    76    6.600534836902e-02
    77   -8.133293252038e-02
    78   -6.433700132882e-14
    79    9.151775652673e-01
    80    8.569117957043e-02
    81   -8.292953367148e-02
    82    2.516670670586e-13
    83   -3.917938450950e-04
    84    1.434244972532e-15
    85   -2.525004977644e-15
    86   -3.003200850721e-03
    87   -1.692796494454e-04
    88    2.637323216033e-03
    89    4.650069679988e-03
    90    2.174436623716e-03
    91    2.898756469025e-03
    92   -2.575991160993e-14
    93   -1.844026905295e-02
    94    6.462566475001e-03
    95    8.736073148972e-03
    96   -6.239952332478e-14
    97    4.458724313248e-03
    98   -1.203391415711e-01
    99   -5.920821945769e-02
   100   -2.974245780553e-14
   101   -3.024021670918e-01
   102    1.032922013276e+00
   103   -5.367254102546e-01
   104    3.566438547625e-14
   105    1.914196423483e-03
   106   -4.060155182513e-14
   107    1.418944451524e-14
   108    8.658745508087e-03
   109    7.592864208092e-03
   110    1.704073143448e-03
   111    3.001749042442e-03
   112   -5.416474102354e-03
   113   -1.286090587013e-02
   114    2.991375377903e-14
   115   -1.074797717887e-02
   116   -8.877468727006e-03
   117   -1.834060485601e-02
   118    3.461878491396e-14
   119    3.644068153618e-03
   120   -2.883052930809e-03
   121   -2.560106350925e-02
   122    1.608273380172e-13
   123    2.213016564088e-01
   124   -1.872324376051e-01
   125   -7.112934205407e-02
   126   -1.694788351764e-13
   127    5.831059930127e-04
   128    2.729915360126e-15
   129    4.608083164900e-15
   130   -6.273425478886e-04
   131   -3.388748812092e-04
   132    8.572604213055e-03
   133    1.460797207090e-02
   134   -1.248997951093e-02
   135   -2.545819958085e-02
   136    2.626365053059e-14
   137   -3.929922445048e-02
   138   -1.700477855108e-02
   139   -4.105373631078e-02
   140    4.236161105184e-14
   141   -2.584369955026e-01
   142   -2.812135550132e-02
   143   -1.400259022828e-03
   144    5.548316435152e-14
   145   -4.501586244374e-01
   146   -6.627826043215e-02
   147   -3.651808704779e-01
   148    3.004423550591e-14
   149   -2.622203258429e-05
   150    1.569891775387e-14
   151    3.533290854403e-15
   152   -7.744563608527e-03
   153    1.697607532997e-03
   154   -3.216867761967e-03
   155   -5.509801328705e-03
   156   -2.112909610252e-03
   157   -2.675325013560e-03
   158   -1.387278682028e-14
   159    1.279567524672e-02
   160   -2.088012820298e-03
   161    4.206388805981e-04
   162   -3.239717432455e-14
   163    5.801433433484e-02
   164   -4.009483809820e-02
   165   -3.931350155395e-02
   166   -1.047761987177e-14
   167   -4.925122627233e-01
   168   -9.532886211795e-01
   169   -4.051778248188e-01
   170   -5.792162083723e-13
   171    1.003723416286e-03
   172    6.518480000334e-15
   173   -1.825118105538e-14
   174    3.163630816015e-03
   175    1.024290385169e-02
   176    6.031578088465e-03
   177    1.053445207281e-02
   178   -1.788978524484e-02
   179   -3.123426019572e-03
   180   -4.734955358222e-14
   181   -3.326167872597e-02
   182   -2.136489142207e-02
   183   -3.772033291526e-03
   184   -6.532474263606e-14
   185   -1.925076265891e-01
   186    6.744000792479e-04
   187   -4.266635258118e-02
   188   -1.852337394056e-13
   189   -1.026995363183e+00
   190   -8.987788103813e-01
   191   -1.055113740916e+00
   192   -9.334038066148e-14
   193    3.886761531024e-03
   194   -8.773384185865e-15
   195    2.549250147790e-16
   196    6.300210515527e-04
   197   -5.834920045124e-03
   198   -1.204076958844e-03
   199   -5.870194017612e-03
   200    6.094020811544e-02
   201    4.021717824700e-01
   202    2.150646711947e-03
   203   -4.941984765709e-03
   204    3.429006409503e-15
Sym=X
Ene= 0.495599
Spin=Alpha
Occup=0
     1   -4.655880072672e-15
     2   -3.873228359951e-15
     3    5.595856203957e-15
     4   -7.419489277500e-15
     5   -7.743543675520e-02
     6    2.915933673579e-14
     7   -9.462179143704e-16
     8   -4.257267937850e-14
     9   -7.984441977108e-02
    10   -4.332325096694e-13
    11    1.841001697053e-13
    12    1.787924960778e-14
    13   -3.997359027025e-01
    14    1.515303977891e-11
    15    1.330131581464e-12
    16    5.980585923951e-12
    17    1.692923794763e+00
    18    1.167969242240e-14
    19   -1.975255929751e-03
    20   -1.638007679313e-02
    21   -1.311557444904e-14
    22   -7.212997748956e-15
    23    2.000444282829e-14
    24   -1.505758803536e-14
    25    9.896548240298e-13
    26    8.226682553416e-13
    27   -6.069375935674e-15
    28    1.187680921033e-15
    29    6.674649646724e-03
    30   -9.335056506937e-15
    31   -2.275086798390e-14
    32    2.996745328949e-13
    33    2.381097305097e-12
    34    1.915368891917e-15
    35    1.497294083498e-14
    36    8.252282049366e-03
    37    6.106152864272e-15
    38   -2.497095603103e-14
    39    4.387102429078e-13
    40   -1.737444310771e-12
    41    2.058139296941e-15
    42    4.310477879939e-15
    43   -7.497322771685e-03
    44    2.889855078196e-15
    45    1.080959781518e-16
    46   -6.798273540811e-15
    47   -3.577519082264e-15
    48    2.057523168339e-02
    49    8.397988557952e-15
    50   -5.662185947737e-15
    51    3.249340864406e-14
    52    2.337864226341e-02
    53   -1.110703303971e-14
    54   -2.986179596073e-13
    55   -4.902308542846e-14
    56    9.905113777471e-02
    57   -7.224417972553e-12
    58   -1.994089582429e-12
    59    3.129424769563e-12
    60   -9.293745434732e-01
    61   -1.041478887759e-14
    62   -6.664568450058e-03
    63   -3.720542826696e-03
    64    7.047956338608e-15
    65   -1.618689942425e-14
    66    5.644901371185e-15
    67    5.452977880417e-15
    68    9.463009111514e-15
    69   -1.181974733711e-14
    70    2.741113170772e-02
    71   -1.778629489188e-14
    72    6.519050932833e-15
    73   -2.244447594566e-14
    74    3.912940867608e-02
    75   -1.100690013073e-13
    76   -5.576737096619e-14
    77    3.139198079113e-14
    78    3.177000583492e-02
    79   -7.953494235978e-13
    80   -1.796460023464e-13
    81   -2.989935838968e-13
    82   -4.112264857990e-02
    83    3.607842494706e-15
    84    3.116377216871e-03
    85   -4.398251011288e-03
    86   -1.954963124022e-16
    87    3.118576417472e-15
    88   -1.651066684203e-15
    89    7.119718536305e-15
    90    2.326221651290e-14
    91   -1.660463538429e-14
    92    3.334686325913e-02
    93   -3.791920310568e-14
    94    3.518864914355e-15
    95   -2.430878916375e-14
    96    4.880105785739e-02
    97    4.177656495050e-13
    98    2.008473115920e-13
    99   -1.675425015386e-13
   100    1.458559499306e-01
   101    1.566302221361e-11
   102   -2.154419809842e-12
   103   -1.430325823166e-12
   104    3.642070042484e-01
   105   -6.857275117220e-15
   106   -6.047539788039e-03
   107    1.091478215607e-03
   108   -3.716604112005e-15
   109   -3.688111350105e-15
   110   -7.118566610449e-16
   111    1.686082646089e-15
   112   -1.096593955669e-15
   113    6.914520519335e-15
   114   -1.954358237259e-02
   115   -2.408702501594e-14
   116   -1.706637380045e-14
   117    2.356826512036e-14
   118   -2.834652921132e-02
   119    1.316449957261e-13
   120    2.777986354880e-14
   121    1.131791061219e-14
   122   -4.596408999861e-02
   123   -7.336399826530e-13
   124   -8.339954255842e-14
   125    2.900870852931e-13
   126   -7.299093400871e-02
   127   -3.700377931827e-15
   128   -9.373912334665e-04
   129   -1.181833138744e-03
   130   -1.389706273065e-16
   131    3.745178872358e-15
   132    2.105068117158e-15
   133   -1.115740013507e-15
   134    2.058467684523e-14
   135   -2.785171593869e-14
   136    7.936862161108e-03
   137   -1.329186452112e-14
   138    1.179442438764e-14
   139   -4.052148380328e-14
   140    1.067938924359e-02
   141    1.952736489705e-13
   142    1.561492655049e-13
   143   -1.332894141523e-13
   144    2.612051943665e-02
   145   -8.506925846574e-13
   146   -1.590939861283e-12
   147    3.989391245092e-14
   148   -2.153546044119e-01
   149    2.247788549738e-15
   150    3.356273207161e-03
   151   -7.124093973799e-03
   152   -8.734528636592e-15
   153   -3.075818656919e-16
   154    5.083302688628e-15
   155    1.925442449906e-15
   156    2.353722050269e-15
   157   -6.352150344705e-15
   158   -1.543090029713e-02
   159   -3.091378635954e-14
   160   -2.195079149151e-14
   161    6.416406716335e-15
   162   -2.644299606213e-02
   163   -2.481242407995e-14
   164    1.942177232322e-13
   165   -1.449667931344e-13
   166   -1.880930961133e-02
   167   -3.256507717616e-13
   168    1.180334570391e-12
   169    1.017040201847e-12
   170    1.987625915645e-01
   171    6.347203653867e-16
   172   -8.848363972546e-03
   173    1.947955865036e-03
   174    8.290175728118e-15
   175    3.502017791748e-15
   176   -2.676934049550e-15
   177    2.105443547361e-15
   178    4.252361914993e-14
   179   -1.297506658335e-14
   180   -3.773510390968e-02
   181   -2.388064545789e-14
   182    1.296733547015e-14
   183    4.365360895685e-15
   184   -4.318299993304e-02
   185    1.523267726755e-13
   186    3.493209017548e-13
   187   -3.063945846013e-13
   188   -1.475427128520e-01
   189   -2.059365002341e-11
   190    5.778857818212e-12
   191   -3.918308674407e-12
   192   -5.432767581114e-01
   193   -5.281216528557e-15
   194    8.327509287850e-03
   195    2.425735355444e-03
   196    6.267632748407e-15
   197    4.096345049543e-15
   198   -9.931937394171e-16
   199   -7.272858663115e-14
   200   -8.863047878783e-13
   201   -2.886097572235e-12
   202   -4.293475758126e-15
   203   -1.468485807259e-15
   204    1.134524826687e-03
[5D]
