[Molden Format]
[Atoms] (Angs)
  C      1    6     -0.13173890     -1.79208980      0.00000000
  H      2    1     -2.14962000     -1.30978739      0.00000000
  H      3    1     -0.31599560     -2.86503115      0.00000000
  H      4    1      0.14407746      2.04280963     -0.00000000
  C      5    6     -1.17258876      0.48030861      0.00000000
  O      6    8     -2.25008207      1.06833796      0.00000000
  C      7    6      1.31158357      0.28308717     -0.00000000
  O      8    8      2.36361668      0.96389345     -0.00000000
  N      9    7      0.07017030      1.03138997     -0.00000000
  N     10    7     -1.19586868     -0.94982644      0.00000000
  C     11    6      1.19165158     -1.13169473     -0.00000000
  H     12    1      2.09970506     -1.73445456     -0.00000000
[GTO]
1    0
S    6    1.000000
   4.56324000E+03    1.96665000E-03 
   6.82024000E+02    1.52306000E-02 
   1.54973000E+02    7.61269000E-02 
   4.44553000E+01    2.60801000E-01 
   1.30290000E+01    6.16462000E-01 
   1.82773000E+00    2.21006000E-01 
SP   3    1.000000
   2.09642000E+01    1.14660000E-01   4.02487000E-02 
   4.80331000E+00    9.19999000E-01   2.37594000E-01 
   1.45933000E+00   -3.03068000E-03   8.15854000E-01 
SP   1    1.000000
   4.83456000E-01    1.00000000E+00   1.00000000E+00 
SP   1    1.000000
   1.45585000E-01    1.00000000E+00   1.00000000E+00 
SP   1    1.000000
   4.38000000E-02    1.00000000E+00   1.00000000E+00 
D    1    1.000000
   6.26000000E-01    1.00000000E+00 

2    0
S    3    1.000000
   3.38650000E+01    2.54938000E-02 
   5.09479000E+00    1.90373000E-01 
   1.15879000E+00    8.52161000E-01 
S    1    1.000000
   3.25840000E-01    1.00000000E+00 
S    1    1.000000
   1.02741000E-01    1.00000000E+00 
S    1    1.000000
   3.60000000E-02    1.00000000E+00 
P    1    1.000000
   7.50000000E-01    1.00000000E+00 

3    0
S    3    1.000000
   3.38650000E+01    2.54938000E-02 
   5.09479000E+00    1.90373000E-01 
   1.15879000E+00    8.52161000E-01 
S    1    1.000000
   3.25840000E-01    1.00000000E+00 
S    1    1.000000
   1.02741000E-01    1.00000000E+00 
S    1    1.000000
   3.60000000E-02    1.00000000E+00 
P    1    1.000000
   7.50000000E-01    1.00000000E+00 

4    0
S    3    1.000000
   3.38650000E+01    2.54938000E-02 
   5.09479000E+00    1.90373000E-01 
   1.15879000E+00    8.52161000E-01 
S    1    1.000000
   3.25840000E-01    1.00000000E+00 
S    1    1.000000
   1.02741000E-01    1.00000000E+00 
S    1    1.000000
   3.60000000E-02    1.00000000E+00 
P    1    1.000000
   7.50000000E-01    1.00000000E+00 

5    0
S    6    1.000000
   4.56324000E+03    1.96665000E-03 
   6.82024000E+02    1.52306000E-02 
   1.54973000E+02    7.61269000E-02 
   4.44553000E+01    2.60801000E-01 
   1.30290000E+01    6.16462000E-01 
   1.82773000E+00    2.21006000E-01 
SP   3    1.000000
   2.09642000E+01    1.14660000E-01   4.02487000E-02 
   4.80331000E+00    9.19999000E-01   2.37594000E-01 
   1.45933000E+00   -3.03068000E-03   8.15854000E-01 
SP   1    1.000000
   4.83456000E-01    1.00000000E+00   1.00000000E+00 
SP   1    1.000000
   1.45585000E-01    1.00000000E+00   1.00000000E+00 
SP   1    1.000000
   4.38000000E-02    1.00000000E+00   1.00000000E+00 
D    1    1.000000
   6.26000000E-01    1.00000000E+00 

6    0
S    6    1.000000
   8.58850000E+03    1.89515000E-03 
   1.29723000E+03    1.43859000E-02 
   2.99296000E+02    7.07320000E-02 
   8.73771000E+01    2.40001000E-01 
   2.56789000E+01    5.94797000E-01 
   3.74004000E+00    2.80802000E-01 
SP   3    1.000000
   4.21175000E+01    1.13889000E-01   3.65114000E-02 
   9.62837000E+00    9.20811000E-01   2.37153000E-01 
   2.85332000E+00   -3.27447000E-03   8.19702000E-01 
SP   1    1.000000
   9.05661000E-01    1.00000000E+00   1.00000000E+00 
SP   1    1.000000
   2.55611000E-01    1.00000000E+00   1.00000000E+00 
SP   1    1.000000
   8.45000000E-02    1.00000000E+00   1.00000000E+00 
D    1    1.000000
   1.29200000E+00    1.00000000E+00 

7    0
S    6    1.000000
   4.56324000E+03    1.96665000E-03 
   6.82024000E+02    1.52306000E-02 
   1.54973000E+02    7.61269000E-02 
   4.44553000E+01    2.60801000E-01 
   1.30290000E+01    6.16462000E-01 
   1.82773000E+00    2.21006000E-01 
SP   3    1.000000
   2.09642000E+01    1.14660000E-01   4.02487000E-02 
   4.80331000E+00    9.19999000E-01   2.37594000E-01 
   1.45933000E+00   -3.03068000E-03   8.15854000E-01 
SP   1    1.000000
   4.83456000E-01    1.00000000E+00   1.00000000E+00 
SP   1    1.000000
   1.45585000E-01    1.00000000E+00   1.00000000E+00 
SP   1    1.000000
   4.38000000E-02    1.00000000E+00   1.00000000E+00 
D    1    1.000000
   6.26000000E-01    1.00000000E+00 

8    0
S    6    1.000000
   8.58850000E+03    1.89515000E-03 
   1.29723000E+03    1.43859000E-02 
   2.99296000E+02    7.07320000E-02 
   8.73771000E+01    2.40001000E-01 
   2.56789000E+01    5.94797000E-01 
   3.74004000E+00    2.80802000E-01 
SP   3    1.000000
   4.21175000E+01    1.13889000E-01   3.65114000E-02 
   9.62837000E+00    9.20811000E-01   2.37153000E-01 
   2.85332000E+00   -3.27447000E-03   8.19702000E-01 
SP   1    1.000000
   9.05661000E-01    1.00000000E+00   1.00000000E+00 
SP   1    1.000000
   2.55611000E-01    1.00000000E+00   1.00000000E+00 
SP   1    1.000000
   8.45000000E-02    1.00000000E+00   1.00000000E+00 
D    1    1.000000
   1.29200000E+00    1.00000000E+00 

9    0
S    6    1.000000
   6.29348000E+03    1.96979000E-03 
   9.49044000E+02    1.49613000E-02 
   2.18776000E+02    7.35006000E-02 
   6.36916000E+01    2.48937000E-01 
   1.88282000E+01    6.02460000E-01 
   2.72023000E+00    2.56202000E-01 
SP   3    1.000000
   3.06331000E+01    1.11906000E-01   3.83119000E-02 
   7.02614000E+00    9.21666000E-01   2.37403000E-01 
   2.11205000E+00   -2.56919000E-03   8.17592000E-01 
SP   1    1.000000
   6.84009000E-01    1.00000000E+00   1.00000000E+00 
SP   1    1.000000
   2.00878000E-01    1.00000000E+00   1.00000000E+00 
SP   1    1.000000
   6.39000000E-02    1.00000000E+00   1.00000000E+00 
D    1    1.000000
   9.13000000E-01    1.00000000E+00 

10    0
S    6    1.000000
   6.29348000E+03    1.96979000E-03 
   9.49044000E+02    1.49613000E-02 
   2.18776000E+02    7.35006000E-02 
   6.36916000E+01    2.48937000E-01 
   1.88282000E+01    6.02460000E-01 
   2.72023000E+00    2.56202000E-01 
SP   3    1.000000
   3.06331000E+01    1.11906000E-01   3.83119000E-02 
   7.02614000E+00    9.21666000E-01   2.37403000E-01 
   2.11205000E+00   -2.56919000E-03   8.17592000E-01 
SP   1    1.000000
   6.84009000E-01    1.00000000E+00   1.00000000E+00 
SP   1    1.000000
   2.00878000E-01    1.00000000E+00   1.00000000E+00 
SP   1    1.000000
   6.39000000E-02    1.00000000E+00   1.00000000E+00 
D    1    1.000000
   9.13000000E-01    1.00000000E+00 

11    0
S    6    1.000000
   4.56324000E+03    1.96665000E-03 
   6.82024000E+02    1.52306000E-02 
   1.54973000E+02    7.61269000E-02 
   4.44553000E+01    2.60801000E-01 
   1.30290000E+01    6.16462000E-01 
   1.82773000E+00    2.21006000E-01 
SP   3    1.000000
   2.09642000E+01    1.14660000E-01   4.02487000E-02 
   4.80331000E+00    9.19999000E-01   2.37594000E-01 
   1.45933000E+00   -3.03068000E-03   8.15854000E-01 
SP   1    1.000000
   4.83456000E-01    1.00000000E+00   1.00000000E+00 
SP   1    1.000000
   1.45585000E-01    1.00000000E+00   1.00000000E+00 
SP   1    1.000000
   4.38000000E-02    1.00000000E+00   1.00000000E+00 
D    1    1.000000
   6.26000000E-01    1.00000000E+00 

12    0
S    3    1.000000
   3.38650000E+01    2.54938000E-02 
   5.09479000E+00    1.90373000E-01 
   1.15879000E+00    8.52161000E-01 
S    1    1.000000
   3.25840000E-01    1.00000000E+00 
S    1    1.000000
   1.02741000E-01    1.00000000E+00 
S    1    1.000000
   3.60000000E-02    1.00000000E+00 
P    1    1.000000
   7.50000000E-01    1.00000000E+00 

[MO]
Sym=X
Ene= -0.485533
Spin=Alpha
Occup=1
     1    5.210222057720e-15
     2    8.703785692598e-15
     3    3.628324551203e-14
     4    7.387529769072e-15
     5   -1.027758696563e-01
     6   -5.256033603519e-14
     7    3.039210760832e-14
     8    2.282414560195e-14
     9   -1.686576165465e-01
    10    2.662136530656e-13
    11    7.660248687364e-13
    12    2.879115682124e-13
    13   -2.590968070069e-01
    14   -1.035777507451e-11
    15    3.810827411712e-13
    16   -2.349710632084e-12
    17   -1.164794561008e-01
    18    3.279707329185e-15
    19   -1.288379074249e-02
    20    4.120250683120e-03
    21    9.768328954473e-15
    22   -1.798646321490e-14
    23    1.983803689913e-14
    24    4.722292049337e-14
    25    9.124430661705e-13
    26   -1.601041900150e-12
    27    8.813848039637e-15
    28    7.550617845915e-15
    29    9.210391922457e-03
    30    1.406220838138e-14
    31    2.832692225463e-14
    32    6.392167771535e-13
    33    1.456138523528e-12
    34   -4.458485485429e-15
    35   -2.098153082520e-14
    36   -1.066966263395e-02
    37    3.508308633356e-15
    38    6.059036400292e-14
    39    1.027102051602e-12
    40   -7.959642838378e-13
    41   -5.209065346267e-15
    42   -2.174902942740e-15
    43   -1.074052926119e-02
    44    1.180307231687e-14
    45    2.472493049536e-14
    46   -1.004945452472e-14
    47   -6.345052560412e-17
    48   -1.639332618672e-02
    49   -8.179414670936e-14
    50    2.709293407853e-14
    51   -2.290467598185e-14
    52   -2.787732032479e-02
    53   -2.030752640668e-13
    54   -3.534100555223e-13
    55   -5.011873763348e-14
    56   -2.344923933246e-02
    57    6.723292167899e-12
    58    1.528818164536e-12
    59   -1.115020691292e-12
    60    4.083430131247e-03
    61    1.672012881195e-14
    62   -1.730606473739e-02
    63   -1.902313133301e-02
    64    1.045421800686e-14
    65   -1.499543586821e-14
    66   -1.894068779254e-15
    67   -4.121215620885e-15
    68    1.770767149987e-14
    69   -1.447204445313e-14
    70    1.154899623615e-02
    71    1.303492987160e-14
    72    2.975856972526e-14
    73   -4.704435734861e-14
    74    1.709423336181e-02
    75    2.133554614569e-14
    76    4.781083915868e-14
    77    2.581573420609e-14
    78    2.340845820890e-02
    79   -1.046374359293e-12
    80   -8.589880404998e-13
    81   -1.409461994005e-13
    82    9.087201955694e-03
    83    2.704832618756e-16
    84   -8.985716709147e-04
    85   -9.336087243487e-04
    86    4.567974667982e-15
    87   -3.159133011175e-15
    88    1.068170587519e-14
    89    1.027567422237e-14
    90    1.627226191934e-14
    91   -9.430393642147e-15
    92    2.165135463024e-01
    93   -1.676928733991e-14
    94    1.067924054683e-13
    95   -5.437734790090e-14
    96    3.703986632904e-01
    97   -2.834567160875e-13
    98   -1.590109327583e-13
    99    1.951369265957e-13
   100    5.229825874239e-01
   101   -3.407728498471e-11
   102    7.492843106285e-13
   103    1.076659319631e-11
   104    1.706576997900e-01
   105   -1.524197620308e-14
   106    2.746142968709e-04
   107   -9.139774222640e-03
   108    6.070992277904e-15
   109   -1.547595492438e-14
   110   -7.968607739720e-15
   111   -1.677227072436e-14
   112   -1.250046648166e-14
   113    1.453567719915e-14
   114   -2.050018615037e-01
   115    7.080120762785e-14
   116   -6.323744395018e-15
   117   -1.099252738948e-15
   118   -2.765922628914e-01
   119   -2.081195550209e-15
   120   -2.462045555595e-14
   121    9.566791769529e-14
   122   -2.772800196830e-01
   123    1.809178445214e-12
   124   -7.462355045591e-13
   125   -3.355588472436e-13
   126   -7.719911686580e-02
   127   -5.560927383311e-16
   128   -6.903106541208e-03
   129   -5.799919109239e-03
   130   -5.130696903862e-15
   131   -3.240600856673e-16
   132   -1.232326880376e-14
   133   -2.112402122939e-14
   134    2.769276667003e-14
   135   -7.830072313794e-15
   136   -7.954268128330e-02
   137    7.792431455233e-14
   138    7.642285679988e-14
   139   -5.596774694257e-15
   140   -1.218464859387e-01
   141    8.930317605265e-14
   142   -2.426107779365e-14
   143   -1.745733857241e-13
   144   -2.106965158077e-01
   145   -1.050956461257e-12
   146   -2.690913763025e-12
   147   -2.116991290482e-12
   148   -1.522650999727e-01
   149    5.957966382807e-15
   150    1.768754466573e-02
   151   -8.610657635473e-03
   152   -2.736038425277e-15
   153    3.774612942835e-15
   154   -8.297290787781e-15
   155   -1.205437164407e-14
   156    2.712913797938e-14
   157   -8.752367053000e-15
   158    7.333143592328e-02
   159    8.173139286095e-14
   160    5.610638842509e-14
   161    6.681475381409e-15
   162    1.132864650251e-01
   163   -1.076257608100e-13
   164    1.188424015832e-14
   165   -1.104800555352e-13
   166    1.860755585826e-01
   167   -8.732746693445e-13
   168    3.723269061091e-13
   169   -2.099968680855e-12
   170    1.352912670118e-01
   171    5.775507018256e-15
   172   -8.200751331808e-03
   173    6.149170631199e-03
   174    4.779622129640e-15
   175    2.156802458109e-15
   176    1.038942221245e-15
   177   -4.569217410637e-15
   178    2.967912015420e-14
   179    1.474947979298e-14
   180   -9.747259443652e-03
   181    4.882368904552e-14
   182    5.154125699283e-14
   183    3.634370561621e-14
   184   -1.651506580561e-02
   185   -4.533579292282e-13
   186    7.084525536169e-13
   187    2.042248344927e-13
   188   -9.947518324552e-02
   189    3.583261589277e-11
   190   -9.051523437130e-13
   191    1.007328065054e-11
   192   -7.162449542921e-02
   193    3.667871042408e-14
   194    1.593746493827e-02
   195    3.307610311166e-02
   196   -8.950476487169e-15
   197    4.620805068520e-14
   198   -4.579414951087e-14
   199    4.509287285537e-14
   200   -1.265240187805e-12
   201    3.299598307877e-12
   202   -2.589806094405e-14
   203    2.371683492377e-14
   204   -2.552086789697e-03
Sym=X
Ene= 0.485533
Spin=Alpha
Occup=0
     1   -4.413080782421e-17
     2    3.372485728214e-15
     3   -2.346101838903e-14
     4    1.214981908149e-14
     5    1.287147618159e-02
     6   -4.588532955690e-14
     7   -5.435645074152e-14
     8    2.936495943448e-14
     9    1.859337442947e-02
    10    9.096572418766e-13
    11   -4.115748527904e-13
    12    5.337719989294e-13
    13    2.871704327814e-02
    14    1.879483508938e-12
    15    3.288066898248e-12
    16   -8.387746380902e-13
    17   -6.646224921007e-01
    18   -1.027624663950e-14
    19    4.565181292726e-03
    20    6.274942576114e-03
    21    1.316826198356e-14
    22    5.660895489831e-16
    23   -5.545795742642e-16
    24   -1.259449241874e-15
    25   -1.799469188963e-12
    26    2.123439037837e-13
    27    7.257372042850e-15
    28    7.698377064076e-16
    29   -1.116152171081e-03
    30    9.718284756161e-15
    31    8.336177857011e-14
    32    2.178701351531e-13
    33    1.495868130406e-13
    34   -3.468897455519e-15
    35   -5.716227776873e-15
    36   -2.131933729002e-03
    37   -5.105930608853e-15
    38   -4.705716204708e-14
    39   -1.546372713747e-13
    40    3.575151134318e-14
    41   -3.831932611038e-15
    42   -5.261625761518e-15
    43   -3.760290361294e-03
    44   -1.786745913259e-15
    45   -7.073857957155e-15
    46    1.135946731673e-14
    47    2.577376485582e-15
    48    3.811411792715e-02
    49    1.472473819654e-14
    50    6.012761601972e-15
    51    1.021539970934e-14
    52    7.313537233817e-02
    53    3.059839310896e-13
    54    5.243721745486e-13
    55   -3.236681614305e-13
    56    6.953804847479e-02
    57    2.123716103512e-12
    58    1.478637711793e-12
    59    7.257165952364e-13
    60   -5.989290566139e-01
    61   -9.479737353078e-15
    62    7.279229756519e-03
    63   -1.930436941452e-03
    64   -1.439065607929e-14
    65    1.814963270420e-14
    66   -1.380123062377e-15
    67   -2.922341626182e-15
    68   -1.555196772691e-14
    69    2.311486460286e-15
    70   -4.784108315400e-03
    71    1.433883278496e-14
    72   -3.476268102265e-14
    73   -4.271231108873e-15
    74   -2.973612122691e-03
    75    7.399658343669e-14
    76    5.888071666107e-14
    77    3.940232651515e-14
    78   -3.046580945520e-02
    79    9.665933379263e-13
    80    5.723680890411e-13
    81   -2.169549772674e-14
    82    6.544663373649e-02
    83    3.072169948701e-15
    84    2.442838579288e-03
    85   -1.492709923611e-03
    86   -1.705828190670e-15
    87    1.183498297644e-15
    88   -6.829761257401e-15
    89   -2.989044481175e-15
    90   -1.827904474454e-14
    91    1.688752783722e-14
    92    3.945054270023e-02
    93    9.877644134364e-15
    94   -8.697949902056e-14
    95    4.900445279493e-14
    96    5.940403716572e-02
    97    1.413433855788e-13
    98   -4.654193648307e-13
    99   -1.692842642329e-13
   100    1.007328770428e-01
   101   -2.303474362770e-11
   102    1.466769998092e-12
   103    4.820164690453e-12
   104   -1.721366344998e+00
   105    1.773350100127e-14
   106    3.124997841663e-03
   107   -3.242946880295e-03
   108   -6.885785014503e-15
   109    1.650047738673e-15
   110    1.811978485802e-16
   111    3.036408452074e-15
   112    6.356652045616e-15
   113   -1.995848373786e-14
   114    3.974869700828e-02
   115   -1.987619720924e-15
   116    1.223247908781e-14
   117   -1.382426433346e-14
   118    6.196978905694e-02
   119    4.357549141543e-14
   120   -8.010727400774e-14
   121   -1.226679249147e-13
   122    2.378631603761e-02
   123    5.281359228567e-13
   124    2.061029312877e-13
   125   -1.847484011442e-13
   126    1.076169012374e-01
   127   -2.899205801240e-16
   128   -5.122327616992e-03
   129   -3.803946261665e-03
   130    2.105893958416e-15
   131    2.485676354532e-15
   132    1.802237191513e-15
   133    2.789988241279e-15
   134   -2.250384428082e-14
   135    1.930250080374e-14
   136    2.026923615921e-02
   137    3.256131272949e-14
   138   -3.594658872389e-14
   139    7.487834465693e-15
   140    4.797533961771e-02
   141   -4.498247984859e-13
   142   -1.503090144235e-13
   143    3.820274631572e-13
   144   -2.563518072380e-02
   145    6.481603922168e-13
   146    1.818573935708e-12
   147   -9.598723656442e-13
   148    5.885209116618e-01
   149   -4.211261439303e-15
   150   -3.950292961852e-03
   151   -4.987857670526e-03
   152    1.063709635873e-14
   153   -1.614014840882e-15
   154   -6.266285536062e-15
   155   -1.358415437556e-14
   156   -1.736443783426e-14
   157    6.341166614894e-15
   158    7.605996550918e-03
   159    1.103444098643e-13
   160   -1.556590531071e-14
   161    1.380607619522e-14
   162    2.507938194174e-02
   163   -4.630492131654e-13
   164   -3.923131849027e-13
   165    2.282653603186e-14
   166   -4.359645283636e-02
   167    2.994050315913e-13
   168   -3.375283092970e-12
   169   -7.538889550998e-13
   170    4.660919727737e-01
   171   -1.131039309330e-15
   172    1.189954219062e-03
   173    3.404856461913e-03
   174   -1.260587600066e-15
   175   -7.880370126385e-15
   176    5.242830115898e-15
   177    1.671213434422e-15
   178   -4.159883070722e-14
   179    6.775367884751e-15
   180    5.225118433581e-02
   181    1.974362446171e-14
   182   -3.955381510108e-14
   183    1.138589190060e-14
   184    7.166031079734e-02
   185   -6.877915957848e-13
   186   -1.377009804298e-13
   187   -1.053270381398e-13
   188    1.809394171817e-01
   189    1.468551181757e-11
   190   -1.590438296177e-12
   191    8.368916063290e-12
   192    7.785872831791e-01
   193    9.540941014633e-15
   194   -3.563058213443e-03
   195    4.579843055939e-03
   196   -6.889547421996e-15
   197   -1.108863307624e-14
   198    1.850761687157e-14
   199   -2.688997519484e-14
   200    9.702960175767e-13
   201    2.374499506557e-12
   202    1.496117248437e-14
   203   -1.068051694052e-14
   204    1.803358450053e-04
[5D]
