[Molden Format]
[Atoms] (Angs)
  C      1    6     -0.13173890     -1.79208980      0.00000000
  H      2    1     -2.14962000     -1.30978739      0.00000000
  H      3    1     -0.31599560     -2.86503115      0.00000000
  H      4    1      0.14407746      2.04280963     -0.00000000
  C      5    6     -1.17258876      0.48030861      0.00000000
  O      6    8     -2.25008207      1.06833796      0.00000000
  C      7    6      1.31158357      0.28308717     -0.00000000
  O      8    8      2.36361668      0.96389345     -0.00000000
  N      9    7      0.07017030      1.03138997     -0.00000000
  N     10    7     -1.19586868     -0.94982644      0.00000000
  C     11    6      1.19165158     -1.13169473     -0.00000000
  H     12    1      2.09970506     -1.73445456     -0.00000000
[GTO]
1    0
S    6    1.000000
   4.56324000E+03    1.96665000E-03 
   6.82024000E+02    1.52306000E-02 
   1.54973000E+02    7.61269000E-02 
   4.44553000E+01    2.60801000E-01 
   1.30290000E+01    6.16462000E-01 
   1.82773000E+00    2.21006000E-01 
SP   3    1.000000
   2.09642000E+01    1.14660000E-01   4.02487000E-02 
   4.80331000E+00    9.19999000E-01   2.37594000E-01 
   1.45933000E+00   -3.03068000E-03   8.15854000E-01 
SP   1    1.000000
   4.83456000E-01    1.00000000E+00   1.00000000E+00 
SP   1    1.000000
   1.45585000E-01    1.00000000E+00   1.00000000E+00 
SP   1    1.000000
   4.38000000E-02    1.00000000E+00   1.00000000E+00 
D    1    1.000000
   6.26000000E-01    1.00000000E+00 

2    0
S    3    1.000000
   3.38650000E+01    2.54938000E-02 
   5.09479000E+00    1.90373000E-01 
   1.15879000E+00    8.52161000E-01 
S    1    1.000000
   3.25840000E-01    1.00000000E+00 
S    1    1.000000
   1.02741000E-01    1.00000000E+00 
S    1    1.000000
   3.60000000E-02    1.00000000E+00 
P    1    1.000000
   7.50000000E-01    1.00000000E+00 

3    0
S    3    1.000000
   3.38650000E+01    2.54938000E-02 
   5.09479000E+00    1.90373000E-01 
   1.15879000E+00    8.52161000E-01 
S    1    1.000000
   3.25840000E-01    1.00000000E+00 
S    1    1.000000
   1.02741000E-01    1.00000000E+00 
S    1    1.000000
   3.60000000E-02    1.00000000E+00 
P    1    1.000000
   7.50000000E-01    1.00000000E+00 

4    0
S    3    1.000000
   3.38650000E+01    2.54938000E-02 
   5.09479000E+00    1.90373000E-01 
   1.15879000E+00    8.52161000E-01 
S    1    1.000000
   3.25840000E-01    1.00000000E+00 
S    1    1.000000
   1.02741000E-01    1.00000000E+00 
S    1    1.000000
   3.60000000E-02    1.00000000E+00 
P    1    1.000000
   7.50000000E-01    1.00000000E+00 

5    0
S    6    1.000000
   4.56324000E+03    1.96665000E-03 
   6.82024000E+02    1.52306000E-02 
   1.54973000E+02    7.61269000E-02 
   4.44553000E+01    2.60801000E-01 
   1.30290000E+01    6.16462000E-01 
   1.82773000E+00    2.21006000E-01 
SP   3    1.000000
   2.09642000E+01    1.14660000E-01   4.02487000E-02 
   4.80331000E+00    9.19999000E-01   2.37594000E-01 
   1.45933000E+00   -3.03068000E-03   8.15854000E-01 
SP   1    1.000000
   4.83456000E-01    1.00000000E+00   1.00000000E+00 
SP   1    1.000000
   1.45585000E-01    1.00000000E+00   1.00000000E+00 
SP   1    1.000000
   4.38000000E-02    1.00000000E+00   1.00000000E+00 
D    1    1.000000
   6.26000000E-01    1.00000000E+00 

6    0
S    6    1.000000
   8.58850000E+03    1.89515000E-03 
   1.29723000E+03    1.43859000E-02 
   2.99296000E+02    7.07320000E-02 
   8.73771000E+01    2.40001000E-01 
   2.56789000E+01    5.94797000E-01 
   3.74004000E+00    2.80802000E-01 
SP   3    1.000000
   4.21175000E+01    1.13889000E-01   3.65114000E-02 
   9.62837000E+00    9.20811000E-01   2.37153000E-01 
   2.85332000E+00   -3.27447000E-03   8.19702000E-01 
SP   1    1.000000
   9.05661000E-01    1.00000000E+00   1.00000000E+00 
SP   1    1.000000
   2.55611000E-01    1.00000000E+00   1.00000000E+00 
SP   1    1.000000
   8.45000000E-02    1.00000000E+00   1.00000000E+00 
D    1    1.000000
   1.29200000E+00    1.00000000E+00 

7    0
S    6    1.000000
   4.56324000E+03    1.96665000E-03 
   6.82024000E+02    1.52306000E-02 
   1.54973000E+02    7.61269000E-02 
   4.44553000E+01    2.60801000E-01 
   1.30290000E+01    6.16462000E-01 
   1.82773000E+00    2.21006000E-01 
SP   3    1.000000
   2.09642000E+01    1.14660000E-01   4.02487000E-02 
   4.80331000E+00    9.19999000E-01   2.37594000E-01 
   1.45933000E+00   -3.03068000E-03   8.15854000E-01 
SP   1    1.000000
   4.83456000E-01    1.00000000E+00   1.00000000E+00 
SP   1    1.000000
   1.45585000E-01    1.00000000E+00   1.00000000E+00 
SP   1    1.000000
   4.38000000E-02    1.00000000E+00   1.00000000E+00 
D    1    1.000000
   6.26000000E-01    1.00000000E+00 

8    0
S    6    1.000000
   8.58850000E+03    1.89515000E-03 
   1.29723000E+03    1.43859000E-02 
   2.99296000E+02    7.07320000E-02 
   8.73771000E+01    2.40001000E-01 
   2.56789000E+01    5.94797000E-01 
   3.74004000E+00    2.80802000E-01 
SP   3    1.000000
   4.21175000E+01    1.13889000E-01   3.65114000E-02 
   9.62837000E+00    9.20811000E-01   2.37153000E-01 
   2.85332000E+00   -3.27447000E-03   8.19702000E-01 
SP   1    1.000000
   9.05661000E-01    1.00000000E+00   1.00000000E+00 
SP   1    1.000000
   2.55611000E-01    1.00000000E+00   1.00000000E+00 
SP   1    1.000000
   8.45000000E-02    1.00000000E+00   1.00000000E+00 
D    1    1.000000
   1.29200000E+00    1.00000000E+00 

9    0
S    6    1.000000
   6.29348000E+03    1.96979000E-03 
   9.49044000E+02    1.49613000E-02 
   2.18776000E+02    7.35006000E-02 
   6.36916000E+01    2.48937000E-01 
   1.88282000E+01    6.02460000E-01 
   2.72023000E+00    2.56202000E-01 
SP   3    1.000000
   3.06331000E+01    1.11906000E-01   3.83119000E-02 
   7.02614000E+00    9.21666000E-01   2.37403000E-01 
   2.11205000E+00   -2.56919000E-03   8.17592000E-01 
SP   1    1.000000
   6.84009000E-01    1.00000000E+00   1.00000000E+00 
SP   1    1.000000
   2.00878000E-01    1.00000000E+00   1.00000000E+00 
SP   1    1.000000
   6.39000000E-02    1.00000000E+00   1.00000000E+00 
D    1    1.000000
   9.13000000E-01    1.00000000E+00 

10    0
S    6    1.000000
   6.29348000E+03    1.96979000E-03 
   9.49044000E+02    1.49613000E-02 
   2.18776000E+02    7.35006000E-02 
   6.36916000E+01    2.48937000E-01 
   1.88282000E+01    6.02460000E-01 
   2.72023000E+00    2.56202000E-01 
SP   3    1.000000
   3.06331000E+01    1.11906000E-01   3.83119000E-02 
   7.02614000E+00    9.21666000E-01   2.37403000E-01 
   2.11205000E+00   -2.56919000E-03   8.17592000E-01 
SP   1    1.000000
   6.84009000E-01    1.00000000E+00   1.00000000E+00 
SP   1    1.000000
   2.00878000E-01    1.00000000E+00   1.00000000E+00 
SP   1    1.000000
   6.39000000E-02    1.00000000E+00   1.00000000E+00 
D    1    1.000000
   9.13000000E-01    1.00000000E+00 

11    0
S    6    1.000000
   4.56324000E+03    1.96665000E-03 
   6.82024000E+02    1.52306000E-02 
   1.54973000E+02    7.61269000E-02 
   4.44553000E+01    2.60801000E-01 
   1.30290000E+01    6.16462000E-01 
   1.82773000E+00    2.21006000E-01 
SP   3    1.000000
   2.09642000E+01    1.14660000E-01   4.02487000E-02 
   4.80331000E+00    9.19999000E-01   2.37594000E-01 
   1.45933000E+00   -3.03068000E-03   8.15854000E-01 
SP   1    1.000000
   4.83456000E-01    1.00000000E+00   1.00000000E+00 
SP   1    1.000000
   1.45585000E-01    1.00000000E+00   1.00000000E+00 
SP   1    1.000000
   4.38000000E-02    1.00000000E+00   1.00000000E+00 
D    1    1.000000
   6.26000000E-01    1.00000000E+00 

12    0
S    3    1.000000
   3.38650000E+01    2.54938000E-02 
   5.09479000E+00    1.90373000E-01 
   1.15879000E+00    8.52161000E-01 
S    1    1.000000
   3.25840000E-01    1.00000000E+00 
S    1    1.000000
   1.02741000E-01    1.00000000E+00 
S    1    1.000000
   3.60000000E-02    1.00000000E+00 
P    1    1.000000
   7.50000000E-01    1.00000000E+00 

[MO]
Sym=X
Ene= -0.495159
Spin=Alpha
Occup=1
     1    1.410669744942e-02
     2    2.450463277986e-02
     3   -1.574537733946e-02
     4    1.902173817127e-02
     5   -9.651935522697e-14
     6   -7.263664472482e-02
     7   -2.048024099054e-02
     8    2.592001171361e-02
     9   -1.634859383335e-13
    10   -2.520750277939e-01
    11   -7.726142664755e-02
    12    1.267864923015e-01
    13   -2.983149575870e-13
    14    3.669146567224e+00
    15    3.809776397938e-01
    16    2.810974274125e+00
    17    4.797969504499e-15
    18   -1.279046776431e-03
    19   -4.270574894685e-15
    20    1.269022600283e-14
    21   -3.707061210136e-03
    22    4.693670785260e-03
    23    4.015684514274e-03
    24    1.235947637474e-02
    25    3.511819493358e-01
    26    4.881369877008e-01
    27   -6.969703024302e-03
    28   -6.991933293341e-03
    29    2.387770379904e-15
    30    1.655457563396e-03
    31    7.059764809642e-03
    32    3.509948076691e-01
    33    2.683251289363e+00
    34   -5.693469651749e-03
    35   -6.114175997848e-03
    36   -1.194806977953e-14
    37    1.666104313362e-02
    38    3.669164454005e-02
    39    5.374376953706e-01
    40    1.062755539796e+00
    41    1.462397003444e-03
    42    1.120808014977e-02
    43   -1.689388857909e-15
    44   -1.061793409785e-03
    45   -1.617679799008e-03
    46    4.541297525494e-04
    47   -7.862954961243e-03
    48    5.351966111545e-14
    49   -6.609504161958e-03
    50   -2.110123993483e-03
    51   -7.044299005707e-03
    52    1.062177148384e-13
    53    1.015138406759e-01
    54    6.115735880687e-02
    55   -5.814435759614e-02
    56    1.047284870367e-13
    57   -1.830047633617e+00
    58   -5.016774370950e-01
    59    1.613317329351e-01
    60   -5.260335987122e-13
    61    3.242581953418e-03
    62   -3.082628413196e-14
    63   -4.723301266448e-15
    64    6.603239548070e-03
    65   -1.333072575600e-02
    66    3.703271998174e-03
    67    6.369751913687e-03
    68    8.245714736510e-03
    69   -5.457222156916e-03
    70   -4.087995492804e-14
    71   -1.883416004465e-02
    72    9.836507441459e-03
    73   -7.504416152514e-03
    74   -3.486922996794e-14
    75   -5.583760183274e-02
    76    4.468218278603e-03
    77   -1.888112642906e-03
    78   -1.265826379024e-13
    79    3.169263396917e-01
    80    1.721155537204e-01
    81   -1.131154376216e-01
    82    5.856518123792e-14
    83    1.057882087585e-03
    84    6.838760280055e-15
    85   -1.460160152682e-15
    86   -1.177308214657e-03
    87    1.215947431411e-03
    88    7.130401804341e-03
    89    1.269586720473e-02
    90   -2.093296905252e-02
    91    1.029630238127e-03
    92    2.718151859872e-14
    93   -3.299972700168e-02
    94   -3.824535180641e-02
    95   -4.501593918368e-03
    96    4.683539884665e-14
    97   -1.945280107326e-01
    98   -2.126600427446e-01
    99   -1.213906535150e-01
   100    4.257319625737e-14
   101    5.311009422386e+00
   102   -2.015482515485e+00
   103   -7.605464766577e-01
   104    4.676497565985e-13
   105   -7.648844961546e-03
   106   -3.317387838289e-14
   107   -1.816146466528e-14
   108    1.161400301711e-02
   109    1.073052500601e-02
   110   -1.430195942290e-02
   111   -2.479891287822e-02
   112    1.274485438226e-02
   113   -5.196558775185e-02
   114   -2.817090942243e-14
   115    8.427596745928e-02
   116    1.922719564541e-02
   117   -7.087102077634e-02
   118   -6.680253324569e-14
   119    1.976767847484e-01
   120   -4.220233695554e-02
   121   -9.108229815743e-02
   122    2.888539930686e-14
   123    5.533886525260e-01
   124   -6.458603441908e-03
   125   -9.094039174709e-04
   126   -2.972426182412e-13
   127   -6.384178604937e-04
   128   -6.920827331454e-16
   129   -6.902869310876e-16
   130   -2.264820626120e-03
   131    5.114336285093e-04
   132    1.147922020844e-02
   133    1.984547752938e-02
   134    1.047476316489e-02
   135   -2.707243022516e-02
   136   -6.117062062641e-14
   137   -6.123986143377e-02
   138    1.519733110465e-02
   139   -4.223058206522e-02
   140   -7.503006570158e-14
   141   -2.078222171332e-01
   142    4.645800870705e-02
   143   -4.176639848378e-02
   144   -2.199256082263e-13
   145   -1.128127317618e+00
   146   -5.443467674030e-02
   147   -5.115437256002e-01
   148    4.287020979525e-13
   149   -1.325091084514e-03
   150    7.483082637759e-15
   151   -2.156790769247e-15
   152   -8.102730816902e-03
   153    7.598311438720e-05
   154    1.148476124941e-02
   155    1.979618348942e-02
   156    2.292419685998e-02
   157   -1.632309890361e-03
   158    2.638156991023e-14
   159   -6.097548330133e-02
   160    3.594655344419e-02
   161   -3.303844736045e-03
   162    4.521893870356e-14
   163   -1.947192300392e-01
   164    3.698922255132e-02
   165   -1.908037981440e-02
   166    7.461177318146e-14
   167   -1.217337940304e+00
   168    4.199470137360e-01
   169   -1.476343882189e-01
   170    2.445467618912e-13
   171    4.646405464219e-04
   172   -7.749373014458e-15
   173    4.010757111704e-15
   174    9.227656509074e-04
   175    4.362682702217e-03
   176   -9.735826941530e-03
   177   -1.695702276894e-02
   178    1.112253353622e-02
   179   -1.141562141886e-02
   180    7.069018935040e-14
   181    4.691797474508e-02
   182    1.101182153248e-02
   183   -7.843816703648e-03
   184    7.898843575260e-14
   185    1.680607979076e-01
   186    1.080023680192e-01
   187   -1.303579045022e-01
   188    2.881418285295e-13
   189   -6.497188414551e+00
   190    3.584135279609e+00
   191   -2.635597643279e+00
   192   -4.879576405538e-13
   193   -2.968319083669e-04
   194    7.362639969724e-15
   195    1.727970549849e-14
   196   -9.130273715827e-04
   197   -1.266794179861e-02
   198    1.726714734342e-02
   199    5.274311982263e-02
   200   -3.992306962837e-01
   201   -3.569133906360e+00
   202   -5.954098140152e-03
   203   -3.804060499068e-04
   204    7.100580144873e-15
Sym=X
Ene= 0.495159
Spin=Alpha
Occup=0
     1   -2.989788317016e-15
     2   -3.441768245826e-16
     3    2.081594203630e-14
     4    1.625740921711e-14
     5    3.041336726903e-03
     6    1.885311886371e-14
     7   -2.650237230125e-15
     8    2.007345650443e-14
     9    2.307937464410e-02
    10   -4.013137686552e-13
    11    5.846326931142e-13
    12    1.997790538701e-13
    13   -2.913526003219e-02
    14   -1.514632303674e-11
    15   -8.180417740588e-13
    16   -2.865136242730e-12
    17   -3.694765521945e-01
    18   -1.317439625647e-14
    19   -1.040694375482e-02
    20   -7.504850599242e-03
    21   -1.571838904153e-14
    22    7.113395135945e-15
    23    3.791679524344e-14
    24    1.083979700706e-14
    25    2.044359070207e-12
    26   -1.082875788904e-12
    27   -8.335793444360e-15
    28    2.553478805036e-15
    29    1.923102166113e-04
    30    2.116826330327e-14
    31    5.856608560097e-14
    32    1.161743091567e-12
    33    1.676022837501e-12
    34   -5.838060794967e-15
    35    3.204734004380e-15
    36    6.260118041104e-03
    37    8.117942645110e-15
    38    1.028220316657e-14
    39    5.893108526886e-13
    40   -1.294085493480e-12
    41    8.672942364332e-15
    42    6.421914531389e-15
    43   -2.116103126885e-03
    44    8.725860985458e-15
    45    1.187354027083e-14
    46    6.272303827618e-17
    47   -5.727073471617e-15
    48    9.529249620088e-05
    49   -5.373244878934e-14
    50   -2.978983229367e-15
    51    2.741346382027e-14
    52   -4.074100717271e-03
    53   -1.424683760566e-13
    54   -3.364940802461e-13
    55   -1.645713542514e-13
    56   -5.558829862515e-03
    57    1.046801260440e-11
    58    1.021020490441e-12
    59   -3.437675407769e-12
    60   -1.706150358076e+00
    61    1.394519649286e-14
    62   -6.755638549717e-03
    63    3.130843672785e-03
    64    3.028543397951e-15
    65   -3.073472023836e-14
    66    7.183519166470e-15
    67    6.941504154542e-15
    68    1.516854716814e-14
    69   -5.866573689876e-16
    70    3.762091494345e-02
    71   -2.789597941623e-14
    72    1.721285676892e-14
    73   -6.764911669161e-16
    74    6.919327137974e-02
    75   -9.449416512000e-14
    76    4.338279187023e-16
    77   -2.212988488896e-16
    78    1.099073786467e-02
    79   -6.155716417496e-13
    80   -3.529445497954e-13
    81   -1.162831355123e-13
    82    4.633599935822e-01
    83    4.781609963034e-15
    84    1.558966408528e-03
    85   -1.392913705646e-03
    86    1.232833483955e-15
    87    5.432922430522e-15
    88    3.691838051546e-15
    89    1.651653271774e-14
    90    2.034642037220e-14
    91   -9.154713785584e-15
    92    6.751089617965e-03
    93   -5.370051201310e-14
    94    6.016210312132e-14
    95   -3.380438637824e-14
    96    2.565912256470e-02
    97    2.117536586765e-13
    98   -9.376539134687e-14
    99    5.077833065182e-14
   100    9.314800222043e-03
   101   -1.808801546181e-11
   102   -1.375563638362e-13
   103    6.521424705412e-12
   104   -5.008243173281e-01
   105   -1.770480336095e-14
   106   -9.418884108828e-04
   107    1.389192216251e-02
   108    6.751379074733e-15
   109   -1.610928222188e-15
   110   -6.883420823717e-15
   111   -1.065763553698e-14
   112   -7.218268745632e-15
   113   -5.211210281309e-15
   114   -2.897145116082e-02
   115    2.962662521938e-14
   116   -1.504459538061e-14
   117    2.105166075691e-15
   118   -3.625710848607e-02
   119    1.043531394922e-13
   120    9.108332471369e-15
   121   -1.211266521904e-15
   122   -6.361010930762e-02
   123    9.403848910236e-13
   124   -3.754573244638e-13
   125   -1.891663553011e-13
   126    1.592123059270e-01
   127   -4.127484551424e-15
   128    1.746690270636e-03
   129   -9.995945743623e-04
   130   -2.778170983798e-15
   131    1.980802144822e-15
   132    1.418532925817e-15
   133    4.923569747755e-15
   134    3.986402074345e-14
   135   -2.639052691574e-14
   136    3.456967807050e-02
   137   -5.095119252903e-14
   138    5.454534160904e-14
   139   -2.846329238033e-14
   140    5.925328948130e-02
   141    3.146036690775e-13
   142    6.114758397808e-14
   143   -2.237063389135e-13
   144    6.416141575775e-02
   145   -2.946497728573e-12
   146   -1.901753724430e-12
   147    2.632206279520e-13
   148    2.288793811367e-01
   149    6.655744670586e-16
   150    5.097834045863e-03
   151   -2.410284914017e-03
   152   -8.728087789210e-15
   153    2.977700163730e-15
   154    1.186818584558e-14
   155    1.400476109280e-14
   156    3.110295682304e-14
   157   -1.283956200262e-15
   158    1.835007317685e-02
   159   -7.117840634227e-14
   160    3.472541182097e-14
   161   -4.200373643640e-15
   162    3.734923679531e-02
   163   -3.395272742816e-14
   164    2.595957684064e-13
   165   -1.381779000705e-14
   166    5.490426492679e-03
   167   -2.370999404609e-12
   168    2.780299884249e-12
   169   -2.175931942871e-12
   170    4.411342586520e-01
   171   -2.842721432811e-15
   172    1.270275604586e-03
   173   -3.536208384297e-03
   174    1.020627539926e-14
   175    1.050298422519e-14
   176   -9.394352638180e-15
   177   -2.566670122689e-14
   178    3.564330083896e-14
   179   -1.888329873656e-14
   180   -7.653257955997e-02
   181    4.738935450545e-14
   182    6.947615365345e-14
   183   -1.747313878861e-15
   184   -8.973024959368e-02
   185    2.357232483451e-13
   186    4.694453379234e-13
   187   -1.266715487191e-13
   188   -3.752863726578e-01
   189    2.310202602550e-11
   190   -1.160164903396e-12
   191    5.817584519828e-12
   192    1.724282397673e+00
   193   -2.178416330173e-14
   194    8.872767422204e-03
   195   -8.799666706183e-03
   196    1.777145302702e-14
   197   -1.116339675127e-14
   198    2.001021587296e-14
   199   -1.319184718429e-13
   200   -2.286784930120e-13
   201    2.066622441852e-12
   202    4.692015818085e-15
   203   -5.147750361866e-15
   204    5.310019737700e-03
[5D]
