[Molden Format]
[Atoms] (Angs)
  C      1    6     -0.13173890     -1.79208980      0.00000000
  H      2    1     -2.14962000     -1.30978739      0.00000000
  H      3    1     -0.31599560     -2.86503115      0.00000000
  H      4    1      0.14407746      2.04280963     -0.00000000
  C      5    6     -1.17258876      0.48030861      0.00000000
  O      6    8     -2.25008207      1.06833796      0.00000000
  C      7    6      1.31158357      0.28308717     -0.00000000
  O      8    8      2.36361668      0.96389345     -0.00000000
  N      9    7      0.07017030      1.03138997     -0.00000000
  N     10    7     -1.19586868     -0.94982644      0.00000000
  C     11    6      1.19165158     -1.13169473     -0.00000000
  H     12    1      2.09970506     -1.73445456     -0.00000000
[GTO]
1    0
S    6    1.000000
   4.56324000E+03    1.96665000E-03 
   6.82024000E+02    1.52306000E-02 
   1.54973000E+02    7.61269000E-02 
   4.44553000E+01    2.60801000E-01 
   1.30290000E+01    6.16462000E-01 
   1.82773000E+00    2.21006000E-01 
SP   3    1.000000
   2.09642000E+01    1.14660000E-01   4.02487000E-02 
   4.80331000E+00    9.19999000E-01   2.37594000E-01 
   1.45933000E+00   -3.03068000E-03   8.15854000E-01 
SP   1    1.000000
   4.83456000E-01    1.00000000E+00   1.00000000E+00 
SP   1    1.000000
   1.45585000E-01    1.00000000E+00   1.00000000E+00 
SP   1    1.000000
   4.38000000E-02    1.00000000E+00   1.00000000E+00 
D    1    1.000000
   6.26000000E-01    1.00000000E+00 

2    0
S    3    1.000000
   3.38650000E+01    2.54938000E-02 
   5.09479000E+00    1.90373000E-01 
   1.15879000E+00    8.52161000E-01 
S    1    1.000000
   3.25840000E-01    1.00000000E+00 
S    1    1.000000
   1.02741000E-01    1.00000000E+00 
S    1    1.000000
   3.60000000E-02    1.00000000E+00 
P    1    1.000000
   7.50000000E-01    1.00000000E+00 

3    0
S    3    1.000000
   3.38650000E+01    2.54938000E-02 
   5.09479000E+00    1.90373000E-01 
   1.15879000E+00    8.52161000E-01 
S    1    1.000000
   3.25840000E-01    1.00000000E+00 
S    1    1.000000
   1.02741000E-01    1.00000000E+00 
S    1    1.000000
   3.60000000E-02    1.00000000E+00 
P    1    1.000000
   7.50000000E-01    1.00000000E+00 

4    0
S    3    1.000000
   3.38650000E+01    2.54938000E-02 
   5.09479000E+00    1.90373000E-01 
   1.15879000E+00    8.52161000E-01 
S    1    1.000000
   3.25840000E-01    1.00000000E+00 
S    1    1.000000
   1.02741000E-01    1.00000000E+00 
S    1    1.000000
   3.60000000E-02    1.00000000E+00 
P    1    1.000000
   7.50000000E-01    1.00000000E+00 

5    0
S    6    1.000000
   4.56324000E+03    1.96665000E-03 
   6.82024000E+02    1.52306000E-02 
   1.54973000E+02    7.61269000E-02 
   4.44553000E+01    2.60801000E-01 
   1.30290000E+01    6.16462000E-01 
   1.82773000E+00    2.21006000E-01 
SP   3    1.000000
   2.09642000E+01    1.14660000E-01   4.02487000E-02 
   4.80331000E+00    9.19999000E-01   2.37594000E-01 
   1.45933000E+00   -3.03068000E-03   8.15854000E-01 
SP   1    1.000000
   4.83456000E-01    1.00000000E+00   1.00000000E+00 
SP   1    1.000000
   1.45585000E-01    1.00000000E+00   1.00000000E+00 
SP   1    1.000000
   4.38000000E-02    1.00000000E+00   1.00000000E+00 
D    1    1.000000
   6.26000000E-01    1.00000000E+00 

6    0
S    6    1.000000
   8.58850000E+03    1.89515000E-03 
   1.29723000E+03    1.43859000E-02 
   2.99296000E+02    7.07320000E-02 
   8.73771000E+01    2.40001000E-01 
   2.56789000E+01    5.94797000E-01 
   3.74004000E+00    2.80802000E-01 
SP   3    1.000000
   4.21175000E+01    1.13889000E-01   3.65114000E-02 
   9.62837000E+00    9.20811000E-01   2.37153000E-01 
   2.85332000E+00   -3.27447000E-03   8.19702000E-01 
SP   1    1.000000
   9.05661000E-01    1.00000000E+00   1.00000000E+00 
SP   1    1.000000
   2.55611000E-01    1.00000000E+00   1.00000000E+00 
SP   1    1.000000
   8.45000000E-02    1.00000000E+00   1.00000000E+00 
D    1    1.000000
   1.29200000E+00    1.00000000E+00 

7    0
S    6    1.000000
   4.56324000E+03    1.96665000E-03 
   6.82024000E+02    1.52306000E-02 
   1.54973000E+02    7.61269000E-02 
   4.44553000E+01    2.60801000E-01 
   1.30290000E+01    6.16462000E-01 
   1.82773000E+00    2.21006000E-01 
SP   3    1.000000
   2.09642000E+01    1.14660000E-01   4.02487000E-02 
   4.80331000E+00    9.19999000E-01   2.37594000E-01 
   1.45933000E+00   -3.03068000E-03   8.15854000E-01 
SP   1    1.000000
   4.83456000E-01    1.00000000E+00   1.00000000E+00 
SP   1    1.000000
   1.45585000E-01    1.00000000E+00   1.00000000E+00 
SP   1    1.000000
   4.38000000E-02    1.00000000E+00   1.00000000E+00 
D    1    1.000000
   6.26000000E-01    1.00000000E+00 

8    0
S    6    1.000000
   8.58850000E+03    1.89515000E-03 
   1.29723000E+03    1.43859000E-02 
   2.99296000E+02    7.07320000E-02 
   8.73771000E+01    2.40001000E-01 
   2.56789000E+01    5.94797000E-01 
   3.74004000E+00    2.80802000E-01 
SP   3    1.000000
   4.21175000E+01    1.13889000E-01   3.65114000E-02 
   9.62837000E+00    9.20811000E-01   2.37153000E-01 
   2.85332000E+00   -3.27447000E-03   8.19702000E-01 
SP   1    1.000000
   9.05661000E-01    1.00000000E+00   1.00000000E+00 
SP   1    1.000000
   2.55611000E-01    1.00000000E+00   1.00000000E+00 
SP   1    1.000000
   8.45000000E-02    1.00000000E+00   1.00000000E+00 
D    1    1.000000
   1.29200000E+00    1.00000000E+00 

9    0
S    6    1.000000
   6.29348000E+03    1.96979000E-03 
   9.49044000E+02    1.49613000E-02 
   2.18776000E+02    7.35006000E-02 
   6.36916000E+01    2.48937000E-01 
   1.88282000E+01    6.02460000E-01 
   2.72023000E+00    2.56202000E-01 
SP   3    1.000000
   3.06331000E+01    1.11906000E-01   3.83119000E-02 
   7.02614000E+00    9.21666000E-01   2.37403000E-01 
   2.11205000E+00   -2.56919000E-03   8.17592000E-01 
SP   1    1.000000
   6.84009000E-01    1.00000000E+00   1.00000000E+00 
SP   1    1.000000
   2.00878000E-01    1.00000000E+00   1.00000000E+00 
SP   1    1.000000
   6.39000000E-02    1.00000000E+00   1.00000000E+00 
D    1    1.000000
   9.13000000E-01    1.00000000E+00 

10    0
S    6    1.000000
   6.29348000E+03    1.96979000E-03 
   9.49044000E+02    1.49613000E-02 
   2.18776000E+02    7.35006000E-02 
   6.36916000E+01    2.48937000E-01 
   1.88282000E+01    6.02460000E-01 
   2.72023000E+00    2.56202000E-01 
SP   3    1.000000
   3.06331000E+01    1.11906000E-01   3.83119000E-02 
   7.02614000E+00    9.21666000E-01   2.37403000E-01 
   2.11205000E+00   -2.56919000E-03   8.17592000E-01 
SP   1    1.000000
   6.84009000E-01    1.00000000E+00   1.00000000E+00 
SP   1    1.000000
   2.00878000E-01    1.00000000E+00   1.00000000E+00 
SP   1    1.000000
   6.39000000E-02    1.00000000E+00   1.00000000E+00 
D    1    1.000000
   9.13000000E-01    1.00000000E+00 

11    0
S    6    1.000000
   4.56324000E+03    1.96665000E-03 
   6.82024000E+02    1.52306000E-02 
   1.54973000E+02    7.61269000E-02 
   4.44553000E+01    2.60801000E-01 
   1.30290000E+01    6.16462000E-01 
   1.82773000E+00    2.21006000E-01 
SP   3    1.000000
   2.09642000E+01    1.14660000E-01   4.02487000E-02 
   4.80331000E+00    9.19999000E-01   2.37594000E-01 
   1.45933000E+00   -3.03068000E-03   8.15854000E-01 
SP   1    1.000000
   4.83456000E-01    1.00000000E+00   1.00000000E+00 
SP   1    1.000000
   1.45585000E-01    1.00000000E+00   1.00000000E+00 
SP   1    1.000000
   4.38000000E-02    1.00000000E+00   1.00000000E+00 
D    1    1.000000
   6.26000000E-01    1.00000000E+00 

12    0
S    3    1.000000
   3.38650000E+01    2.54938000E-02 
   5.09479000E+00    1.90373000E-01 
   1.15879000E+00    8.52161000E-01 
S    1    1.000000
   3.25840000E-01    1.00000000E+00 
S    1    1.000000
   1.02741000E-01    1.00000000E+00 
S    1    1.000000
   3.60000000E-02    1.00000000E+00 
P    1    1.000000
   7.50000000E-01    1.00000000E+00 

[MO]
Sym=X
Ene= -0.494315
Spin=Alpha
Occup=1
     1   -2.351162735945e-03
     2   -4.046563772169e-03
     3    1.133869082891e-02
     4   -1.812748146635e-02
     5    5.430899036532e-14
     6    1.292585046767e-02
     7    1.171415271342e-02
     8   -2.690139181381e-02
     9    9.219383793092e-14
    10    1.024855481334e-01
    11    3.513669572622e-02
    12   -6.859243486750e-02
    13    1.831164236551e-13
    14   -1.994731853294e+00
    15   -4.244768947807e-01
    16   -9.827227536314e-01
    17    3.185991338085e-14
    18   -5.474709679896e-03
    19   -2.608253732378e-14
    20   -3.743098661495e-15
    21    4.653277001231e-03
    22   -1.392773305597e-03
    23   -3.662994271871e-03
    24   -2.780130031483e-02
    25   -3.824007597874e-01
    26   -9.707219917060e-01
    27    1.512564021432e-02
    28    4.263199713528e-03
    29    4.709634344780e-16
    30    5.108801071763e-03
    31    3.723979223212e-03
    32   -9.652027785080e-02
    33   -5.987619066191e-01
    34    3.534077391916e-03
    35    1.591263929792e-03
    36    9.038410048724e-15
    37   -1.132173626915e-03
    38   -5.765286934698e-03
    39   -2.048732139023e-01
    40   -3.700817536472e-01
    41    1.622890499706e-03
    42   -8.015683477640e-03
    43    5.360209299529e-15
    44    4.988365923472e-03
    45    7.791155918339e-03
    46    5.974186805329e-03
    47    3.943439839863e-04
    48   -3.927248453661e-14
    49    1.172764950437e-02
    50    1.452806942897e-02
    51   -4.619501381955e-03
    52   -7.471680801689e-14
    53   -2.674615861106e-01
    54    1.184441583444e-01
    55   -3.861214595991e-02
    56   -8.731351183659e-14
    57   -2.943329860357e-01
    58    6.416581334877e-01
    59   -4.208228807270e-01
    60    3.780955490491e-13
    61   -2.441212992232e-02
    62   -3.769628095952e-14
    63    2.410538829663e-14
    64    2.329743589513e-03
    65    8.884747359703e-03
    66   -2.352707437760e-02
    67   -4.077645971130e-02
    68   -9.883341414604e-03
    69   -5.611042289466e-03
    70    3.440068628161e-14
    71    1.408551943910e-01
    72   -9.990663052026e-03
    73   -8.047806490984e-03
    74    4.472415834346e-14
    75    2.775969289115e-01
    76    3.468451215894e-02
    77   -3.908229972080e-02
    78    3.882496917036e-14
    79    3.952266187576e-01
    80   -7.217645608817e-02
    81    9.306050802942e-02
    82   -1.985720187705e-14
    83   -3.855995123945e-03
    84    8.450701083374e-16
    85   -1.575390339019e-15
    86    9.048894771811e-04
    87   -3.312464544619e-03
    88   -2.791616090299e-04
    89   -5.794835132153e-04
    90    6.862537667671e-03
    91   -1.218544534154e-02
    92   -1.563706779214e-14
    93    5.107843331738e-03
    94    1.150478852286e-02
    95   -1.580555742590e-02
    96   -2.528467094709e-14
    97   -7.962441927271e-03
    98   -3.890564949591e-03
    99   -2.000288019663e-03
   100   -1.337567541628e-14
   101   -2.459554329130e+00
   102    3.308728467953e-01
   103    5.205649442733e-01
   104   -5.852380953781e-13
   105   -4.767779840330e-03
   106   -2.991889191826e-14
   107    1.574967149255e-14
   108   -2.749908709537e-03
   109    8.880375262232e-05
   110   -1.801078733473e-03
   111   -3.122852152892e-03
   112   -5.965607686823e-03
   113    9.224585401634e-03
   114    7.389695249951e-15
   115    1.096438509853e-02
   116   -8.098335398204e-03
   117    1.407967739625e-02
   118    1.755846122774e-14
   119    3.307862324001e-03
   120   -1.349941168384e-02
   121    1.677996187509e-02
   122    4.312885882018e-15
   123    1.016770220294e-01
   124   -2.321084180643e-02
   125   -2.284725095403e-02
   126    2.523634154172e-13
   127   -2.864884589811e-04
   128    5.571877075638e-15
   129    4.773025832456e-15
   130   -1.128865760155e-04
   131    2.282788431109e-04
   132   -1.581597799672e-02
   133   -2.740268686856e-02
   134   -2.028752730871e-02
   135    8.831538707751e-03
   136    4.198717143732e-14
   137    8.788015174666e-02
   138   -3.226271928461e-02
   139    1.219190215957e-02
   140    5.275424018518e-14
   141    1.867042467108e-01
   142   -6.572672205522e-02
   143    2.632520478450e-02
   144    1.407169344515e-13
   145    5.151172258380e-01
   146   -3.515233637707e-02
   147    2.505048012730e-01
   148   -2.224872263006e-13
   149   -3.697815095413e-03
   150    1.398277281650e-14
   151    2.330080123740e-15
   152    9.153791371673e-04
   153    8.157830815974e-04
   154   -2.170309272340e-02
   155   -3.749893894084e-02
   156   -3.678140961651e-02
   157    7.026167004009e-04
   158   -1.198661603120e-14
   159    1.163744113541e-01
   160   -5.723372421236e-02
   161    3.958213792265e-03
   162   -1.741098576552e-14
   163    3.216698379746e-01
   164   -1.055748988384e-01
   165    2.789358030570e-02
   166   -3.212557085542e-14
   167    9.569135657215e-01
   168   -4.005261077947e-01
   169    2.271733353618e-02
   170   -2.505205493645e-13
   171   -4.064096717596e-03
   172    4.718898047271e-15
   173   -1.609740912596e-14
   174   -3.373584264932e-03
   175   -1.411413339883e-03
   176   -5.097077664548e-03
   177   -8.662523449761e-03
   178   -3.076928614498e-03
   179    4.571419532357e-03
   180   -5.709538392177e-14
   181    2.341417512185e-02
   182   -9.842547963672e-04
   183    5.819645862908e-03
   184   -6.778481191303e-14
   185    8.460299122578e-02
   186   -4.462264729555e-02
   187    5.013577440584e-02
   188   -2.316258302033e-13
   189    4.088319735988e+00
   190   -7.981591108172e-01
   191    5.648614918176e-01
   192    6.090639341000e-13
   193   -2.666001639098e-03
   194   -4.170536198869e-15
   195   -3.407220589501e-16
   196   -3.663210249740e-03
   197    5.030923122383e-03
   198   -6.588633833990e-03
   199   -6.100750735560e-03
   200    2.789651297811e-03
   201    1.890137009728e-01
   202   -1.529517485378e-03
   203    4.295619834710e-04
   204    3.779262575633e-15
Sym=X
Ene= 0.494315
Spin=Alpha
Occup=0
     1    1.253098036882e-15
     2    1.883128872322e-15
     3   -1.903814647622e-14
     4    3.156910092719e-15
     5    2.201028282540e-02
     6   -9.563320936616e-15
     7   -1.016298101926e-14
     8    2.492470775780e-14
     9    4.982268279023e-02
    10    2.382934168090e-13
    11   -4.785833160542e-13
    12    3.667672306347e-14
    13    1.802183896456e-03
    14    7.096984765469e-12
    15    2.024697596843e-12
    16    3.458341744649e-13
    17    1.794990055174e-01
    18   -8.097584247337e-15
    19   -6.254662397524e-04
    20   -5.578682860260e-03
    21   -2.961838238572e-15
    22    8.880910855271e-15
    23   -5.444994981951e-15
    24   -2.962477737886e-15
    25   -6.683874500476e-13
    26    6.053454831611e-13
    27   -3.327621030542e-15
    28    4.243397665694e-15
    29    5.630365603937e-03
    30    9.747503845367e-15
    31    2.431417436420e-14
    32   -2.978120326975e-14
    33   -7.302913361205e-13
    34    2.150014311350e-15
    35   -7.268673792357e-15
    36    6.903935649844e-03
    37   -3.841048825380e-15
    38    1.051287747788e-13
    39   -8.170836362502e-13
    40   -3.829847627152e-13
    41    4.231970117865e-16
    42    2.640848464019e-15
    43   -7.850853628126e-03
    44   -2.456939454935e-15
    45   -1.007980319420e-16
    46    8.665707249576e-15
    47    5.850785750364e-15
    48    7.820301443848e-03
    49   -1.365750750077e-14
    50    1.720465984517e-14
    51    2.585325664342e-15
    52    3.049397897982e-02
    53   -5.203754692100e-14
    54    4.472959077977e-13
    55    8.588753267209e-14
    56   -5.359889822539e-02
    57   -6.729968418717e-13
    58    7.122617151169e-13
    59    4.808430863712e-13
    60    4.706709969673e-01
    61    4.170969332196e-15
    62   -1.425199510446e-04
    63    2.075981702350e-03
    64   -8.162310976141e-15
    65    8.222142786055e-15
    66   -6.694643583608e-16
    67    2.278891272826e-15
    68   -4.503948892890e-15
    69    3.805804523893e-15
    70   -3.393284614833e-02
    71   -1.811241616903e-14
    72   -2.737082802033e-15
    73    1.753783071138e-14
    74   -4.508567943034e-02
    75    1.240082245327e-13
    76    4.918479597813e-14
    77   -8.042861412600e-14
    78   -5.674576733849e-02
    79    6.430114482253e-13
    80    2.829890067907e-13
    81    1.077445047949e-13
    82    1.239443501434e-01
    83   -8.100653820580e-16
    84   -2.830193903554e-03
    85   -7.884566298120e-04
    86    2.056311522516e-15
    87   -2.605339976416e-16
    88   -5.678232326428e-15
    89   -1.202322825280e-14
    90   -2.222346713120e-14
    91    1.146332136308e-14
    92    8.062637676742e-02
    93    3.917775926863e-14
    94   -2.843183864864e-14
    95    3.481261694205e-14
    96    1.015881922104e-01
    97    1.301622737579e-13
    98   -1.059178501420e-14
    99   -7.545045275805e-14
   100    3.444417440386e-01
   101   -5.399317247293e-12
   102    7.548377651435e-13
   103    3.985554402335e-13
   104   -1.603383713447e+00
   105   -6.790251166176e-15
   106   -3.861732072381e-03
   107    2.058999378515e-03
   108   -2.860036564357e-16
   109    1.448683641084e-14
   110    2.072818427917e-15
   111    5.746127159137e-15
   112    7.039790023455e-16
   113   -1.489196485806e-14
   114    3.151134095310e-03
   115   -1.684494355852e-14
   116    1.237368698607e-14
   117   -3.330123874202e-14
   118    2.182449566984e-02
   119   -4.743914511525e-14
   120    3.820739724236e-15
   121    5.061958395251e-16
   122   -8.513471821129e-02
   123   -2.808542968443e-13
   124    3.091992873188e-13
   125   -1.413133018752e-13
   126    4.050403280570e-01
   127    6.232800535038e-16
   128   -5.006615476417e-03
   129   -3.257670893184e-03
   130    2.121390034890e-15
   131   -3.008236887695e-15
   132    8.369251236542e-15
   133    1.589176739802e-14
   134   -1.995151218675e-14
   135    2.481477153070e-15
   136    1.242436145498e-02
   137   -4.332620325416e-14
   138   -2.674544965444e-14
   139   -1.350254151355e-17
   140    1.861088683387e-02
   141   -2.740177830248e-13
   142   -4.358203150035e-14
   143   -5.348433050799e-15
   144    3.201258882893e-02
   145    1.113795641264e-12
   146    1.568309236688e-12
   147    9.756058036523e-13
   148   -1.669474237057e-01
   149   -2.991121187065e-15
   150    2.194388894790e-03
   151   -7.130235020264e-03
   152    4.063743616405e-15
   153   -1.087699841550e-16
   154   -2.184683663922e-15
   155    3.641766883389e-15
   156   -1.107942859080e-15
   157    4.923000454140e-15
   158   -4.441665956980e-02
   159   -1.845994946795e-14
   160    9.865917145811e-15
   161    1.405341138250e-16
   162   -6.076800801789e-02
   163    1.114711735773e-13
   164   -1.616486715727e-13
   165    1.455405003289e-13
   166   -1.520710023464e-01
   167   -3.370490235803e-13
   168   -1.774147126096e-12
   169    9.120516066806e-13
   170    4.311677141356e-01
   171   -1.393284746661e-15
   172   -2.884070172229e-03
   173   -3.335110795271e-03
   174    4.689285206074e-15
   175   -7.519337331845e-15
   176    3.398707713491e-15
   177   -4.547998501633e-16
   178   -3.062952617870e-14
   179    9.759786821090e-16
   180    1.304468847743e-02
   181    7.137830822487e-16
   182   -1.633157821805e-14
   183   -1.440226999008e-14
   184   -1.426653673419e-03
   185   -5.822361124546e-14
   186   -5.348049561108e-13
   187    3.364077924309e-14
   188    8.594699885676e-02
   189   -2.651148419002e-12
   190   -3.838165315557e-13
   191    2.990310583132e-12
   192   -1.112467828626e-01
   193    4.790850569442e-15
   194   -8.332567406867e-03
   195    7.216065132630e-03
   196   -2.527751090247e-15
   197   -1.291950804889e-14
   198    1.697077290507e-14
   199    4.665645682517e-14
   200    1.197579191693e-12
   201    1.192903165344e-12
   202    1.297264889437e-15
   203    8.591456427775e-15
   204   -6.486731131813e-03
[5D]
