[Molden Format]
[Atoms] (Angs)
  C      1    6     -0.13173890     -1.79208980      0.00000000
  H      2    1     -2.14962000     -1.30978739      0.00000000
  H      3    1     -0.31599560     -2.86503115      0.00000000
  H      4    1      0.14407746      2.04280963     -0.00000000
  C      5    6     -1.17258876      0.48030861      0.00000000
  O      6    8     -2.25008207      1.06833796      0.00000000
  C      7    6      1.31158357      0.28308717     -0.00000000
  O      8    8      2.36361668      0.96389345     -0.00000000
  N      9    7      0.07017030      1.03138997     -0.00000000
  N     10    7     -1.19586868     -0.94982644      0.00000000
  C     11    6      1.19165158     -1.13169473     -0.00000000
  H     12    1      2.09970506     -1.73445456     -0.00000000
[GTO]
1    0
S    6    1.000000
   4.56324000E+03    1.96665000E-03 
   6.82024000E+02    1.52306000E-02 
   1.54973000E+02    7.61269000E-02 
   4.44553000E+01    2.60801000E-01 
   1.30290000E+01    6.16462000E-01 
   1.82773000E+00    2.21006000E-01 
SP   3    1.000000
   2.09642000E+01    1.14660000E-01   4.02487000E-02 
   4.80331000E+00    9.19999000E-01   2.37594000E-01 
   1.45933000E+00   -3.03068000E-03   8.15854000E-01 
SP   1    1.000000
   4.83456000E-01    1.00000000E+00   1.00000000E+00 
SP   1    1.000000
   1.45585000E-01    1.00000000E+00   1.00000000E+00 
SP   1    1.000000
   4.38000000E-02    1.00000000E+00   1.00000000E+00 
D    1    1.000000
   6.26000000E-01    1.00000000E+00 

2    0
S    3    1.000000
   3.38650000E+01    2.54938000E-02 
   5.09479000E+00    1.90373000E-01 
   1.15879000E+00    8.52161000E-01 
S    1    1.000000
   3.25840000E-01    1.00000000E+00 
S    1    1.000000
   1.02741000E-01    1.00000000E+00 
S    1    1.000000
   3.60000000E-02    1.00000000E+00 
P    1    1.000000
   7.50000000E-01    1.00000000E+00 

3    0
S    3    1.000000
   3.38650000E+01    2.54938000E-02 
   5.09479000E+00    1.90373000E-01 
   1.15879000E+00    8.52161000E-01 
S    1    1.000000
   3.25840000E-01    1.00000000E+00 
S    1    1.000000
   1.02741000E-01    1.00000000E+00 
S    1    1.000000
   3.60000000E-02    1.00000000E+00 
P    1    1.000000
   7.50000000E-01    1.00000000E+00 

4    0
S    3    1.000000
   3.38650000E+01    2.54938000E-02 
   5.09479000E+00    1.90373000E-01 
   1.15879000E+00    8.52161000E-01 
S    1    1.000000
   3.25840000E-01    1.00000000E+00 
S    1    1.000000
   1.02741000E-01    1.00000000E+00 
S    1    1.000000
   3.60000000E-02    1.00000000E+00 
P    1    1.000000
   7.50000000E-01    1.00000000E+00 

5    0
S    6    1.000000
   4.56324000E+03    1.96665000E-03 
   6.82024000E+02    1.52306000E-02 
   1.54973000E+02    7.61269000E-02 
   4.44553000E+01    2.60801000E-01 
   1.30290000E+01    6.16462000E-01 
   1.82773000E+00    2.21006000E-01 
SP   3    1.000000
   2.09642000E+01    1.14660000E-01   4.02487000E-02 
   4.80331000E+00    9.19999000E-01   2.37594000E-01 
   1.45933000E+00   -3.03068000E-03   8.15854000E-01 
SP   1    1.000000
   4.83456000E-01    1.00000000E+00   1.00000000E+00 
SP   1    1.000000
   1.45585000E-01    1.00000000E+00   1.00000000E+00 
SP   1    1.000000
   4.38000000E-02    1.00000000E+00   1.00000000E+00 
D    1    1.000000
   6.26000000E-01    1.00000000E+00 

6    0
S    6    1.000000
   8.58850000E+03    1.89515000E-03 
   1.29723000E+03    1.43859000E-02 
   2.99296000E+02    7.07320000E-02 
   8.73771000E+01    2.40001000E-01 
   2.56789000E+01    5.94797000E-01 
   3.74004000E+00    2.80802000E-01 
SP   3    1.000000
   4.21175000E+01    1.13889000E-01   3.65114000E-02 
   9.62837000E+00    9.20811000E-01   2.37153000E-01 
   2.85332000E+00   -3.27447000E-03   8.19702000E-01 
SP   1    1.000000
   9.05661000E-01    1.00000000E+00   1.00000000E+00 
SP   1    1.000000
   2.55611000E-01    1.00000000E+00   1.00000000E+00 
SP   1    1.000000
   8.45000000E-02    1.00000000E+00   1.00000000E+00 
D    1    1.000000
   1.29200000E+00    1.00000000E+00 

7    0
S    6    1.000000
   4.56324000E+03    1.96665000E-03 
   6.82024000E+02    1.52306000E-02 
   1.54973000E+02    7.61269000E-02 
   4.44553000E+01    2.60801000E-01 
   1.30290000E+01    6.16462000E-01 
   1.82773000E+00    2.21006000E-01 
SP   3    1.000000
   2.09642000E+01    1.14660000E-01   4.02487000E-02 
   4.80331000E+00    9.19999000E-01   2.37594000E-01 
   1.45933000E+00   -3.03068000E-03   8.15854000E-01 
SP   1    1.000000
   4.83456000E-01    1.00000000E+00   1.00000000E+00 
SP   1    1.000000
   1.45585000E-01    1.00000000E+00   1.00000000E+00 
SP   1    1.000000
   4.38000000E-02    1.00000000E+00   1.00000000E+00 
D    1    1.000000
   6.26000000E-01    1.00000000E+00 

8    0
S    6    1.000000
   8.58850000E+03    1.89515000E-03 
   1.29723000E+03    1.43859000E-02 
   2.99296000E+02    7.07320000E-02 
   8.73771000E+01    2.40001000E-01 
   2.56789000E+01    5.94797000E-01 
   3.74004000E+00    2.80802000E-01 
SP   3    1.000000
   4.21175000E+01    1.13889000E-01   3.65114000E-02 
   9.62837000E+00    9.20811000E-01   2.37153000E-01 
   2.85332000E+00   -3.27447000E-03   8.19702000E-01 
SP   1    1.000000
   9.05661000E-01    1.00000000E+00   1.00000000E+00 
SP   1    1.000000
   2.55611000E-01    1.00000000E+00   1.00000000E+00 
SP   1    1.000000
   8.45000000E-02    1.00000000E+00   1.00000000E+00 
D    1    1.000000
   1.29200000E+00    1.00000000E+00 

9    0
S    6    1.000000
   6.29348000E+03    1.96979000E-03 
   9.49044000E+02    1.49613000E-02 
   2.18776000E+02    7.35006000E-02 
   6.36916000E+01    2.48937000E-01 
   1.88282000E+01    6.02460000E-01 
   2.72023000E+00    2.56202000E-01 
SP   3    1.000000
   3.06331000E+01    1.11906000E-01   3.83119000E-02 
   7.02614000E+00    9.21666000E-01   2.37403000E-01 
   2.11205000E+00   -2.56919000E-03   8.17592000E-01 
SP   1    1.000000
   6.84009000E-01    1.00000000E+00   1.00000000E+00 
SP   1    1.000000
   2.00878000E-01    1.00000000E+00   1.00000000E+00 
SP   1    1.000000
   6.39000000E-02    1.00000000E+00   1.00000000E+00 
D    1    1.000000
   9.13000000E-01    1.00000000E+00 

10    0
S    6    1.000000
   6.29348000E+03    1.96979000E-03 
   9.49044000E+02    1.49613000E-02 
   2.18776000E+02    7.35006000E-02 
   6.36916000E+01    2.48937000E-01 
   1.88282000E+01    6.02460000E-01 
   2.72023000E+00    2.56202000E-01 
SP   3    1.000000
   3.06331000E+01    1.11906000E-01   3.83119000E-02 
   7.02614000E+00    9.21666000E-01   2.37403000E-01 
   2.11205000E+00   -2.56919000E-03   8.17592000E-01 
SP   1    1.000000
   6.84009000E-01    1.00000000E+00   1.00000000E+00 
SP   1    1.000000
   2.00878000E-01    1.00000000E+00   1.00000000E+00 
SP   1    1.000000
   6.39000000E-02    1.00000000E+00   1.00000000E+00 
D    1    1.000000
   9.13000000E-01    1.00000000E+00 

11    0
S    6    1.000000
   4.56324000E+03    1.96665000E-03 
   6.82024000E+02    1.52306000E-02 
   1.54973000E+02    7.61269000E-02 
   4.44553000E+01    2.60801000E-01 
   1.30290000E+01    6.16462000E-01 
   1.82773000E+00    2.21006000E-01 
SP   3    1.000000
   2.09642000E+01    1.14660000E-01   4.02487000E-02 
   4.80331000E+00    9.19999000E-01   2.37594000E-01 
   1.45933000E+00   -3.03068000E-03   8.15854000E-01 
SP   1    1.000000
   4.83456000E-01    1.00000000E+00   1.00000000E+00 
SP   1    1.000000
   1.45585000E-01    1.00000000E+00   1.00000000E+00 
SP   1    1.000000
   4.38000000E-02    1.00000000E+00   1.00000000E+00 
D    1    1.000000
   6.26000000E-01    1.00000000E+00 

12    0
S    3    1.000000
   3.38650000E+01    2.54938000E-02 
   5.09479000E+00    1.90373000E-01 
   1.15879000E+00    8.52161000E-01 
S    1    1.000000
   3.25840000E-01    1.00000000E+00 
S    1    1.000000
   1.02741000E-01    1.00000000E+00 
S    1    1.000000
   3.60000000E-02    1.00000000E+00 
P    1    1.000000
   7.50000000E-01    1.00000000E+00 

[MO]
Sym=X
Ene= -0.494971
Spin=Alpha
Occup=1
     1    1.411781010514e-02
     2    2.451794814748e-02
     3   -1.575570345694e-02
     4    1.916937316018e-02
     5   -9.651114886293e-14
     6   -7.265495192009e-02
     7   -2.044681760049e-02
     8    2.615998353533e-02
     9   -1.634664556602e-13
    10   -2.522477480777e-01
    11   -7.719102372928e-02
    12    1.268604065049e-01
    13   -2.983970876059e-13
    14    3.666505510117e+00
    15    3.805420233084e-01
    16    2.810249632490e+00
    17    4.891430795143e-15
    18   -1.281637343736e-03
    19   -4.345158635320e-15
    20    1.269874000665e-14
    21   -3.711440761753e-03
    22    4.658374566529e-03
    23    3.816080306931e-03
    24    1.216530336530e-02
    25    3.513645975444e-01
    26    4.880256433083e-01
    27   -7.014494721951e-03
    28   -7.014514573228e-03
    29    2.397533238355e-15
    30    1.547288397921e-03
    31    6.923609704377e-03
    32    3.510217041857e-01
    33    2.683066737867e+00
    34   -5.715175037439e-03
    35   -6.133807448728e-03
    36   -1.194153050201e-14
    37    1.673407270217e-02
    38    3.675699253414e-02
    39    5.374432069328e-01
    40    1.062693617230e+00
    41    1.464337352558e-03
    42    1.120627933888e-02
    43   -1.704018156538e-15
    44   -1.067580615910e-03
    45   -1.628099736502e-03
    46    4.121327940077e-04
    47   -7.930911065217e-03
    48    5.356355333843e-14
    49   -6.591176630973e-03
    50   -2.192911158152e-03
    51   -7.154010415145e-03
    52    1.063546174729e-13
    53    1.018896366294e-01
    54    6.097205859346e-02
    55   -5.822489185668e-02
    56    1.045981126940e-13
    57   -1.828886668646e+00
    58   -5.015248384244e-01
    59    1.610053087765e-01
    60   -5.265251983253e-13
    61    3.243520713194e-03
    62   -3.102661392112e-14
    63   -4.662095824867e-15
    64    6.580385778030e-03
    65   -1.335277992388e-02
    66    3.699704347461e-03
    67    6.364070323217e-03
    68    8.238714097252e-03
    69   -5.487404121127e-03
    70   -4.086196116553e-14
    71   -1.880227726985e-02
    72    9.824121145181e-03
    73   -7.553884767263e-03
    74   -3.484834412593e-14
    75   -5.596035921863e-02
    76    4.421294175081e-03
    77   -1.891376249145e-03
    78   -1.267988983478e-13
    79    3.168927208633e-01
    80    1.721085465384e-01
    81   -1.130908434959e-01
    82    5.886503799441e-14
    83    1.070081912540e-03
    84    6.884871432201e-15
    85   -1.459674387967e-15
    86   -1.178972294745e-03
    87    1.204967748526e-03
    88    7.150688172745e-03
    89    1.272942169034e-02
    90   -2.092939022262e-02
    91    9.997923505590e-04
    92    2.718862627843e-14
    93   -3.309248018017e-02
    94   -3.825390178116e-02
    95   -4.556243037456e-03
    96    4.683569138655e-14
    97   -1.948857985578e-01
    98   -2.126332060116e-01
    99   -1.215204058262e-01
   100    4.253366781349e-14
   101    5.307880549698e+00
   102   -2.015105597243e+00
   103   -7.599102869391e-01
   104    4.681485122405e-13
   105   -7.641596163148e-03
   106   -3.333346890223e-14
   107   -1.818563686083e-14
   108    1.161792721622e-02
   109    1.072239440152e-02
   110   -1.435825655764e-02
   111   -2.487596051400e-02
   112    1.289963294300e-02
   113   -5.204432553610e-02
   114   -2.825340861430e-14
   115    8.456940442445e-02
   116    1.940348957708e-02
   117   -7.097390461236e-02
   118   -6.691128515687e-14
   119    1.978627732832e-01
   120   -4.211866480596e-02
   121   -9.114778672740e-02
   122    2.907398463340e-14
   123    5.534041722379e-01
   124   -6.586916731077e-03
   125   -9.130074934683e-04
   126   -2.974577096308e-13
   127   -6.325525477008e-04
   128   -6.654107507411e-16
   129   -6.819666161737e-16
   130   -2.261934253405e-03
   131    5.009082212347e-04
   132    1.147753746619e-02
   133    1.984436662411e-02
   134    1.050602002109e-02
   135   -2.697395652477e-02
   136   -6.118048220232e-14
   137   -6.124622808329e-02
   138    1.522038689984e-02
   139   -4.206406717578e-02
   140   -7.504428934522e-14
   141   -2.076958875972e-01
   142    4.656831722307e-02
   143   -4.165618277969e-02
   144   -2.199332892822e-13
   145   -1.127814394049e+00
   146   -5.424281926699e-02
   147   -5.116240431763e-01
   148    4.287136685495e-13
   149   -1.317312531217e-03
   150    7.533248721283e-15
   151   -2.163987477222e-15
   152   -8.111211353721e-03
   153    6.834664399789e-05
   154    1.151098041934e-02
   155    1.983692132862e-02
   156    2.316934136933e-02
   157   -1.528050831294e-03
   158    2.633059680948e-14
   159   -6.108037757203e-02
   160    3.633126642392e-02
   161   -3.102106852709e-03
   162    4.514593300263e-14
   163   -1.948612725764e-01
   164    3.736998541894e-02
   165   -1.906218832814e-02
   166    7.446160529223e-14
   167   -1.217488261314e+00
   168    4.201477400819e-01
   169   -1.480253347164e-01
   170    2.449360421375e-13
   171    4.714534540860e-04
   172   -7.764985974718e-15
   173    3.970486627256e-15
   174    9.155687471312e-04
   175    4.342807525457e-03
   176   -9.705492001565e-03
   177   -1.691757602191e-02
   178    1.108935063865e-02
   179   -1.137795966541e-02
   180    7.078689036610e-14
   181    4.679415894191e-02
   182    1.094900171449e-02
   183   -7.790919131613e-03
   184    7.905872585257e-14
   185    1.679463311356e-01
   186    1.080737823805e-01
   187   -1.302946586279e-01
   188    2.883871486274e-13
   189   -6.492777502855e+00
   190    3.583515697821e+00
   191   -2.634847608661e+00
   192   -4.883393714649e-13
   193   -3.096300646830e-04
   194    7.352666567754e-15
   195    1.733779705244e-14
   196   -9.076714850214e-04
   197   -1.263374760891e-02
   198    1.724460523895e-02
   199    5.270663849456e-02
   200   -3.992018592301e-01
   201   -3.568729937194e+00
   202   -5.945153946748e-03
   203   -3.763100973887e-04
   204    7.117571989270e-15
Sym=X
Ene= 0.494971
Spin=Alpha
Occup=0
     1   -3.844580129547e-03
     2   -7.473664382274e-03
     3    1.265448164818e-02
     4    2.017241849736e-02
     5   -7.839688443346e-14
     6    4.585214463260e-02
     7    2.062524539881e-02
     8    2.613617202007e-02
     9   -1.377768117018e-13
    10   -3.499592074821e-01
    11   -6.393632956565e-02
    12   -2.183674100810e-01
    13   -1.896884012484e-13
    14   -8.244153367365e+00
    15   -1.243000859168e+00
    16   -1.705017506005e+00
    17    1.623353601968e-13
    18   -5.703881535056e-03
    19    2.400605853199e-14
    20    4.883440733951e-15
    21   -7.787239586113e-03
    22    6.789980797880e-03
    23    8.852808825796e-03
    24    6.946059042642e-02
    25    4.113496074644e-01
    26    1.671131530401e+00
    27   -2.851766859794e-03
    28   -4.887173774297e-03
    29    9.413203303155e-15
    30    9.018846838252e-03
    31   -2.745517723205e-02
    32    8.794923156477e-02
    33    9.932407132911e-02
    34   -6.667163696568e-03
    35   -5.352464274179e-03
    36   -1.585664683759e-14
    37   -2.938429246252e-03
    38    4.235434236682e-02
    39   -6.936058403304e-03
    40   -5.066863899215e-01
    41    5.897618301040e-03
    42   -9.871855784210e-03
    43   -2.742462364211e-15
    44   -5.166477343052e-03
    45   -1.010904194026e-02
    46    9.917360751885e-03
    47   -5.367014632240e-03
    48    2.164641999987e-14
    49    6.454456456753e-02
    50    1.799955339559e-02
    51   -1.260677274839e-02
    52   -8.207525891375e-15
    53   -3.902700339834e-01
    54   -1.471581634449e-01
    55    1.238665721498e-01
    56    1.898440757321e-13
    57    1.520369647074e+00
    58    1.334646679565e+00
    59    1.785638790452e-01
    60    3.042498679374e-13
    61   -6.995852347583e-03
    62    3.213621681401e-14
    63   -2.258969504698e-14
    64   -1.277363079929e-03
    65   -8.250637785876e-03
    66   -4.433600239625e-03
    67   -7.752186226652e-03
    68    1.302556217286e-02
    69    1.104262527852e-02
    70   -9.500781369195e-16
    71    2.865152151130e-02
    72    1.489641587017e-02
    73    1.855926118140e-02
    74   -5.111921305217e-14
    75   -1.111717240654e-02
    76    4.664989649161e-02
    77    3.734796800714e-03
    78    8.120444942470e-15
    79    3.084687361364e-01
    80   -9.815073006202e-02
    81    3.154561585685e-02
    82   -1.164266391592e-13
    83   -1.397616264931e-03
    84   -1.339921250399e-15
    85    3.147000050787e-15
    86    1.288370052824e-03
    87   -4.479236599929e-04
    88    2.690072054529e-03
    89    4.184790909673e-03
    90    2.734974105985e-02
    91    6.071004784521e-03
    92    5.171822161509e-14
    93    5.615324013527e-03
    94    4.483956476345e-02
    95    1.418356820630e-02
    96    6.272730422039e-14
    97   -3.060348011674e-01
    98    5.502234582942e-01
    99    2.667868642981e-01
   100    1.951400406331e-13
   101   -1.495594803577e+01
   102    4.270687267580e+00
   103    3.876536606898e+00
   104    5.458742287758e-13
   105   -1.576238543303e-02
   106    4.101083085931e-14
   107   -1.110969634192e-14
   108   -3.489224366286e-03
   109   -7.158419603536e-03
   110    1.274331208796e-02
   111    2.191118724838e-02
   112   -2.109409593631e-02
   113   -3.071093448031e-03
   114   -3.859961778879e-14
   115   -7.459390573815e-02
   116   -3.093271968811e-02
   117   -7.987976353691e-03
   118   -2.359694039291e-14
   119   -2.211813124499e-01
   120    5.072577978067e-02
   121    6.066847269646e-02
   122   -1.705716541925e-13
   123   -9.757934680931e-01
   124   -1.615076143389e-02
   125   -7.131913581307e-02
   126   -7.489247947018e-14
   127   -2.805957045868e-03
   128    5.752268111207e-16
   129   -1.706436709978e-15
   130   -4.842159449731e-04
   131    2.162471454543e-04
   132   -9.671075645404e-03
   133   -1.658053279478e-02
   134    1.452649916335e-02
   135   -7.607173551057e-04
   136   -2.327414821214e-14
   137    4.918928692049e-02
   138    1.798189002365e-02
   139    3.094691026441e-03
   140   -8.495053112413e-14
   141    2.719938033967e-01
   142    5.188142969069e-02
   143   -1.865106946446e-01
   144   -2.477369214186e-14
   145    2.421151069927e+00
   146    4.987612014287e-01
   147   -5.950764820561e-01
   148   -4.663161324218e-13
   149   -6.403373881684e-03
   150   -1.514228342577e-14
   151   -5.284685691576e-15
   152    4.865367796364e-03
   153    7.604275081036e-03
   154    5.367596145749e-03
   155    9.300272681820e-03
   156    2.248313036446e-02
   157    1.945014460811e-02
   158    3.120852095159e-14
   159   -3.074838854443e-02
   160    3.308419845049e-02
   161    2.981884393076e-02
   162    6.457220328287e-14
   163    2.172206038499e-02
   164    1.714535656497e-01
   165    1.091759267554e-01
   166    1.234955695340e-13
   167    1.053937614928e+00
   168    7.465499433928e-01
   169    2.629232580106e-01
   170   -2.568787592610e-13
   171   -6.690050970607e-03
   172   -4.435631476488e-15
   173    2.270257180818e-14
   174    9.499406667463e-04
   175    2.178788620790e-03
   176   -9.733478324665e-03
   177   -1.666999105572e-02
   178    4.906675641911e-03
   179    3.849492650876e-04
   180    5.016669254113e-14
   181    4.107400513411e-02
   182    3.671523320765e-03
   183   -3.505571772026e-03
   184    6.463364414090e-14
   185    5.712888597791e-01
   186   -2.588501902668e-01
   187    2.382271691998e-01
   188    1.134397226146e-13
   189    1.806185320903e+01
   190   -2.843086183957e+00
   191    2.711240472423e+00
   192   -4.218168210635e-13
   193   -1.218208879862e-02
   194    1.068205383929e-14
   195    1.238745552859e-14
   196    9.561734671885e-03
   197    7.613504147583e-03
   198   -1.050451228449e-03
   199    2.336739265928e-02
   200    2.060878708335e-01
   201   -8.489696014483e-02
   202   -8.619848214633e-04
   203    8.157373557623e-03
   204    2.304064748101e-15
[5D]
