[Molden Format]
[Atoms] (Angs)
  C      1    6     -0.13173890     -1.79208980      0.00000000
  H      2    1     -2.14962000     -1.30978739      0.00000000
  H      3    1     -0.31599560     -2.86503115      0.00000000
  H      4    1      0.14407746      2.04280963     -0.00000000
  C      5    6     -1.17258876      0.48030861      0.00000000
  O      6    8     -2.25008207      1.06833796      0.00000000
  C      7    6      1.31158357      0.28308717     -0.00000000
  O      8    8      2.36361668      0.96389345     -0.00000000
  N      9    7      0.07017030      1.03138997     -0.00000000
  N     10    7     -1.19586868     -0.94982644      0.00000000
  C     11    6      1.19165158     -1.13169473     -0.00000000
  H     12    1      2.09970506     -1.73445456     -0.00000000
[GTO]
1    0
S    6    1.000000
   4.56324000E+03    1.96665000E-03 
   6.82024000E+02    1.52306000E-02 
   1.54973000E+02    7.61269000E-02 
   4.44553000E+01    2.60801000E-01 
   1.30290000E+01    6.16462000E-01 
   1.82773000E+00    2.21006000E-01 
SP   3    1.000000
   2.09642000E+01    1.14660000E-01   4.02487000E-02 
   4.80331000E+00    9.19999000E-01   2.37594000E-01 
   1.45933000E+00   -3.03068000E-03   8.15854000E-01 
SP   1    1.000000
   4.83456000E-01    1.00000000E+00   1.00000000E+00 
SP   1    1.000000
   1.45585000E-01    1.00000000E+00   1.00000000E+00 
SP   1    1.000000
   4.38000000E-02    1.00000000E+00   1.00000000E+00 
D    1    1.000000
   6.26000000E-01    1.00000000E+00 

2    0
S    3    1.000000
   3.38650000E+01    2.54938000E-02 
   5.09479000E+00    1.90373000E-01 
   1.15879000E+00    8.52161000E-01 
S    1    1.000000
   3.25840000E-01    1.00000000E+00 
S    1    1.000000
   1.02741000E-01    1.00000000E+00 
S    1    1.000000
   3.60000000E-02    1.00000000E+00 
P    1    1.000000
   7.50000000E-01    1.00000000E+00 

3    0
S    3    1.000000
   3.38650000E+01    2.54938000E-02 
   5.09479000E+00    1.90373000E-01 
   1.15879000E+00    8.52161000E-01 
S    1    1.000000
   3.25840000E-01    1.00000000E+00 
S    1    1.000000
   1.02741000E-01    1.00000000E+00 
S    1    1.000000
   3.60000000E-02    1.00000000E+00 
P    1    1.000000
   7.50000000E-01    1.00000000E+00 

4    0
S    3    1.000000
   3.38650000E+01    2.54938000E-02 
   5.09479000E+00    1.90373000E-01 
   1.15879000E+00    8.52161000E-01 
S    1    1.000000
   3.25840000E-01    1.00000000E+00 
S    1    1.000000
   1.02741000E-01    1.00000000E+00 
S    1    1.000000
   3.60000000E-02    1.00000000E+00 
P    1    1.000000
   7.50000000E-01    1.00000000E+00 

5    0
S    6    1.000000
   4.56324000E+03    1.96665000E-03 
   6.82024000E+02    1.52306000E-02 
   1.54973000E+02    7.61269000E-02 
   4.44553000E+01    2.60801000E-01 
   1.30290000E+01    6.16462000E-01 
   1.82773000E+00    2.21006000E-01 
SP   3    1.000000
   2.09642000E+01    1.14660000E-01   4.02487000E-02 
   4.80331000E+00    9.19999000E-01   2.37594000E-01 
   1.45933000E+00   -3.03068000E-03   8.15854000E-01 
SP   1    1.000000
   4.83456000E-01    1.00000000E+00   1.00000000E+00 
SP   1    1.000000
   1.45585000E-01    1.00000000E+00   1.00000000E+00 
SP   1    1.000000
   4.38000000E-02    1.00000000E+00   1.00000000E+00 
D    1    1.000000
   6.26000000E-01    1.00000000E+00 

6    0
S    6    1.000000
   8.58850000E+03    1.89515000E-03 
   1.29723000E+03    1.43859000E-02 
   2.99296000E+02    7.07320000E-02 
   8.73771000E+01    2.40001000E-01 
   2.56789000E+01    5.94797000E-01 
   3.74004000E+00    2.80802000E-01 
SP   3    1.000000
   4.21175000E+01    1.13889000E-01   3.65114000E-02 
   9.62837000E+00    9.20811000E-01   2.37153000E-01 
   2.85332000E+00   -3.27447000E-03   8.19702000E-01 
SP   1    1.000000
   9.05661000E-01    1.00000000E+00   1.00000000E+00 
SP   1    1.000000
   2.55611000E-01    1.00000000E+00   1.00000000E+00 
SP   1    1.000000
   8.45000000E-02    1.00000000E+00   1.00000000E+00 
D    1    1.000000
   1.29200000E+00    1.00000000E+00 

7    0
S    6    1.000000
   4.56324000E+03    1.96665000E-03 
   6.82024000E+02    1.52306000E-02 
   1.54973000E+02    7.61269000E-02 
   4.44553000E+01    2.60801000E-01 
   1.30290000E+01    6.16462000E-01 
   1.82773000E+00    2.21006000E-01 
SP   3    1.000000
   2.09642000E+01    1.14660000E-01   4.02487000E-02 
   4.80331000E+00    9.19999000E-01   2.37594000E-01 
   1.45933000E+00   -3.03068000E-03   8.15854000E-01 
SP   1    1.000000
   4.83456000E-01    1.00000000E+00   1.00000000E+00 
SP   1    1.000000
   1.45585000E-01    1.00000000E+00   1.00000000E+00 
SP   1    1.000000
   4.38000000E-02    1.00000000E+00   1.00000000E+00 
D    1    1.000000
   6.26000000E-01    1.00000000E+00 

8    0
S    6    1.000000
   8.58850000E+03    1.89515000E-03 
   1.29723000E+03    1.43859000E-02 
   2.99296000E+02    7.07320000E-02 
   8.73771000E+01    2.40001000E-01 
   2.56789000E+01    5.94797000E-01 
   3.74004000E+00    2.80802000E-01 
SP   3    1.000000
   4.21175000E+01    1.13889000E-01   3.65114000E-02 
   9.62837000E+00    9.20811000E-01   2.37153000E-01 
   2.85332000E+00   -3.27447000E-03   8.19702000E-01 
SP   1    1.000000
   9.05661000E-01    1.00000000E+00   1.00000000E+00 
SP   1    1.000000
   2.55611000E-01    1.00000000E+00   1.00000000E+00 
SP   1    1.000000
   8.45000000E-02    1.00000000E+00   1.00000000E+00 
D    1    1.000000
   1.29200000E+00    1.00000000E+00 

9    0
S    6    1.000000
   6.29348000E+03    1.96979000E-03 
   9.49044000E+02    1.49613000E-02 
   2.18776000E+02    7.35006000E-02 
   6.36916000E+01    2.48937000E-01 
   1.88282000E+01    6.02460000E-01 
   2.72023000E+00    2.56202000E-01 
SP   3    1.000000
   3.06331000E+01    1.11906000E-01   3.83119000E-02 
   7.02614000E+00    9.21666000E-01   2.37403000E-01 
   2.11205000E+00   -2.56919000E-03   8.17592000E-01 
SP   1    1.000000
   6.84009000E-01    1.00000000E+00   1.00000000E+00 
SP   1    1.000000
   2.00878000E-01    1.00000000E+00   1.00000000E+00 
SP   1    1.000000
   6.39000000E-02    1.00000000E+00   1.00000000E+00 
D    1    1.000000
   9.13000000E-01    1.00000000E+00 

10    0
S    6    1.000000
   6.29348000E+03    1.96979000E-03 
   9.49044000E+02    1.49613000E-02 
   2.18776000E+02    7.35006000E-02 
   6.36916000E+01    2.48937000E-01 
   1.88282000E+01    6.02460000E-01 
   2.72023000E+00    2.56202000E-01 
SP   3    1.000000
   3.06331000E+01    1.11906000E-01   3.83119000E-02 
   7.02614000E+00    9.21666000E-01   2.37403000E-01 
   2.11205000E+00   -2.56919000E-03   8.17592000E-01 
SP   1    1.000000
   6.84009000E-01    1.00000000E+00   1.00000000E+00 
SP   1    1.000000
   2.00878000E-01    1.00000000E+00   1.00000000E+00 
SP   1    1.000000
   6.39000000E-02    1.00000000E+00   1.00000000E+00 
D    1    1.000000
   9.13000000E-01    1.00000000E+00 

11    0
S    6    1.000000
   4.56324000E+03    1.96665000E-03 
   6.82024000E+02    1.52306000E-02 
   1.54973000E+02    7.61269000E-02 
   4.44553000E+01    2.60801000E-01 
   1.30290000E+01    6.16462000E-01 
   1.82773000E+00    2.21006000E-01 
SP   3    1.000000
   2.09642000E+01    1.14660000E-01   4.02487000E-02 
   4.80331000E+00    9.19999000E-01   2.37594000E-01 
   1.45933000E+00   -3.03068000E-03   8.15854000E-01 
SP   1    1.000000
   4.83456000E-01    1.00000000E+00   1.00000000E+00 
SP   1    1.000000
   1.45585000E-01    1.00000000E+00   1.00000000E+00 
SP   1    1.000000
   4.38000000E-02    1.00000000E+00   1.00000000E+00 
D    1    1.000000
   6.26000000E-01    1.00000000E+00 

12    0
S    3    1.000000
   3.38650000E+01    2.54938000E-02 
   5.09479000E+00    1.90373000E-01 
   1.15879000E+00    8.52161000E-01 
S    1    1.000000
   3.25840000E-01    1.00000000E+00 
S    1    1.000000
   1.02741000E-01    1.00000000E+00 
S    1    1.000000
   3.60000000E-02    1.00000000E+00 
P    1    1.000000
   7.50000000E-01    1.00000000E+00 

[MO]
Sym=X
Ene= -0.488868
Spin=Alpha
Occup=1
     1   -2.770991905376e-15
     2   -2.693011116536e-15
     3   -2.003114159977e-14
     4    6.336699417876e-15
     5    1.662310334371e-01
     6    3.074762948156e-14
     7   -5.590564360633e-14
     8   -2.330634539174e-16
     9    2.700871099640e-01
    10   -2.794866797303e-13
    11   -3.148073041782e-13
    12   -3.024608901011e-14
    13    5.050412293733e-01
    14    1.877947523860e-11
    15    1.452309945303e-12
    16    4.870865787262e-12
    17    5.184443017409e-01
    18    6.270905334751e-15
    19   -5.379958643084e-03
    20   -1.189293055977e-02
    21   -2.013624314783e-14
    22   -9.527193066285e-15
    23    1.628733204414e-14
    24   -6.274763517814e-15
    25    4.700149893550e-13
    26    2.927285244063e-12
    27   -1.705317215480e-14
    28   -2.369477121051e-15
    29   -1.674094763897e-02
    30   -3.957434453908e-15
    31   -1.101575650525e-14
    32   -1.906516431054e-14
    33   -4.945544850878e-14
    34    4.708622070570e-15
    35    9.419899436054e-15
    36    2.044029609964e-02
    37    2.618626273523e-15
    38    1.240682647138e-14
    39    5.117272742055e-13
    40   -2.357542170617e-13
    41    3.063094626544e-15
    42   -6.254029711264e-15
    43    7.558112472911e-03
    44   -1.692581805836e-15
    45   -8.991449223599e-15
    46    8.431146484435e-15
    47    8.382166881893e-16
    48    5.604713979552e-02
    49    4.798469304208e-14
    50   -1.791678592542e-14
    51    3.438997816672e-14
    52    9.851899454389e-02
    53   -3.363347885550e-13
    54   -3.719837860780e-14
    55    1.368335753720e-13
    56    1.449530798338e-01
    57   -7.434398882632e-12
    58   -5.362709605814e-13
    59    2.656690263665e-12
    60   -2.982312121600e-03
    61   -1.156879714176e-14
    62    1.282489811472e-02
    63    3.671786701061e-02
    64    3.578948686248e-16
    65   -1.726647487335e-14
    66    1.433285630832e-15
    67    2.700798292372e-15
    68    9.250590665319e-15
    69    3.884131687808e-15
    70   -2.658282086303e-02
    71    2.063109963135e-15
    72    7.001061405398e-15
    73    1.285143913548e-14
    74   -3.485270094508e-02
    75   -1.123859637044e-13
    76   -3.782389115033e-14
    77    1.408708221905e-16
    78   -4.894555415166e-02
    79    4.450415991616e-13
    80    1.401599377602e-13
    81   -1.646706314909e-13
    82   -3.971979411930e-03
    83    1.712726985973e-15
    84    5.104042074464e-03
    85    5.829774049740e-04
    86   -1.254161027512e-15
    87    4.133496816070e-15
    88   -1.313962643586e-15
    89    7.610984041477e-15
    90    1.757025761035e-14
    91   -2.531027083886e-16
    92   -1.196254858223e-01
    93   -3.393848081344e-14
    94   -2.372706885768e-14
    95   -5.518528230417e-15
    96   -1.954949481613e-01
    97    2.380153212426e-13
    98    4.935539166611e-13
    99    2.234734086600e-13
   100   -3.241129801330e-01
   101    1.577867156399e-11
   102   -1.961379407105e-12
   103   -2.721335940568e-12
   104   -7.793747621575e-02
   105    2.871204873711e-15
   106    2.851230618344e-02
   107    2.929498662518e-02
   108   -3.410462743833e-15
   109   -1.413996926663e-15
   110    5.138346009545e-16
   111    3.770609443696e-15
   112    6.764341194942e-15
   113   -3.128279209343e-15
   114    1.140236391293e-01
   115   -1.869256897849e-14
   116   -1.057273936431e-14
   117    1.182099823703e-14
   118    1.710563778160e-01
   119   -5.765728568476e-14
   120    8.838225043336e-14
   121   -2.857144225488e-14
   122    2.290869866755e-01
   123   -1.257001814412e-12
   124    2.818866048010e-13
   125    5.166863959736e-13
   126    1.692808398533e-01
   127   -1.632547558853e-15
   128    6.133520357353e-04
   129    2.278156243015e-03
   130    3.749997515490e-16
   131    3.785654339135e-15
   132   -7.818428070819e-17
   133   -1.931230211147e-15
   134    1.397304376611e-14
   135    5.891236169553e-16
   136    3.661866694835e-02
   137   -3.047019602478e-15
   138   -1.963676616500e-15
   139    1.805222045719e-14
   140    5.683736155928e-02
   141    7.518772487185e-14
   142    8.896545122774e-14
   143   -1.747911356067e-13
   144    7.497712834111e-02
   145   -2.003091806228e-13
   146   -2.076740317567e-13
   147   -8.968728612725e-13
   148    1.280819542269e-01
   149   -2.069020924854e-15
   150   -1.798981719258e-02
   151    8.224569025773e-03
   152    4.926204055440e-16
   153    3.515267170776e-15
   154    8.269463375763e-15
   155    1.084102441982e-14
   156    1.284973267941e-14
   157    1.410131016069e-14
   158   -1.072729968879e-01
   159   -5.610982197734e-14
   160    2.048551870130e-14
   161    2.602534234703e-14
   162   -1.659187368911e-01
   163    4.234382816146e-14
   164   -3.575546564316e-14
   165    1.042207509397e-13
   166   -2.822357065876e-01
   167   -1.122370224069e-12
   168    5.006324422041e-13
   169    1.626565414479e-12
   170   -3.766148550451e-01
   171   -7.749257468539e-15
   172    1.718593965220e-02
   173   -1.319876710631e-02
   174    8.242294317870e-15
   175    3.805814207637e-15
   176   -3.340936062358e-15
   177    2.786324474823e-15
   178    3.015916146740e-14
   179   -5.622985550803e-15
   180   -7.418782398617e-02
   181   -5.578632687643e-14
   182    9.972618672394e-15
   183    2.715702937718e-14
   184   -1.151793666319e-01
   185    7.282863935686e-13
   186   -5.148599419008e-14
   187   -2.338603372870e-13
   188   -2.157229926851e-01
   189   -2.068732372223e-11
   190    8.235986745748e-12
   191   -5.345683707977e-12
   192   -2.408681424000e-01
   193   -1.145864883335e-14
   194   -1.505392149181e-02
   195   -3.074841174758e-02
   196    4.353384486518e-15
   197   -7.990545602114e-15
   198    1.853949511527e-15
   199   -1.309672787933e-14
   200   -1.048654426884e-12
   201   -7.306752163238e-12
   202    6.878826423365e-15
   203   -9.376509245522e-15
   204   -5.791606915298e-03
Sym=X
Ene= 0.488868
Spin=Alpha
Occup=0
     1    4.604774685939e-15
     2    3.804999375157e-15
     3   -5.598415844157e-15
     4    7.192333916683e-15
     5    7.936604342824e-02
     6   -2.902283467274e-14
     7    3.455466355004e-16
     8    4.224881211105e-14
     9    8.305132249772e-02
    10    4.325957417346e-13
    11   -1.792633326746e-13
    12   -1.844057413034e-14
    13    3.999470494047e-01
    14   -1.512827627419e-11
    15   -1.335591939634e-12
    16   -5.967902378726e-12
    17   -1.690421033891e+00
    18   -1.170630488560e-14
    19    2.229717762561e-03
    20    1.685610432826e-02
    21    1.284416569556e-14
    22    7.204214478635e-15
    23   -1.952894597502e-14
    24    1.385864065130e-14
    25   -9.837825737793e-13
    26   -8.179584368953e-13
    27    5.474596735326e-15
    28   -1.384561522014e-15
    29   -6.702436145874e-03
    30    9.485194365010e-15
    31    2.279188619649e-14
    32   -2.987334728863e-13
    33   -2.378949029347e-12
    34   -1.950469726911e-15
    35   -1.513438919606e-14
    36   -8.170692384648e-03
    37   -6.364261749336e-15
    38    2.624246175381e-14
    39   -4.392734052490e-13
    40    1.736985011255e-12
    41   -2.134440350605e-15
    42   -4.579751929074e-15
    43    7.453999532516e-03
    44   -2.883414515054e-15
    45   -1.337314333376e-16
    46    6.794686718996e-15
    47    3.485895435518e-15
    48   -2.086477038701e-02
    49   -8.066866218883e-15
    50    5.629470172119e-15
    51   -3.279338789981e-14
    52   -2.396333169335e-02
    53    8.709527228497e-15
    54    2.952147063359e-13
    55    4.617710782532e-14
    56   -9.899431244282e-02
    57    7.200907855436e-12
    58    1.987902553308e-12
    59   -3.127153179780e-12
    60    9.284028594070e-01
    61    1.045596081848e-14
    62    6.641676578265e-03
    63    3.784842850702e-03
    64   -7.084437474947e-15
    65    1.610046085745e-14
    66   -5.638860706609e-15
    67   -5.448827131330e-15
    68   -9.406810684914e-15
    69    1.184205778824e-14
    70   -2.722627075965e-02
    71    1.779413035377e-14
    72   -6.482942345972e-15
    73    2.236195026526e-14
    74   -3.894682681125e-02
    75    1.097094269686e-13
    76    5.609489082440e-14
    77   -3.073974257862e-14
    78   -3.175749057376e-02
    79    7.938508708170e-13
    80    1.784120237857e-13
    81    2.979532624406e-13
    82    4.073140316911e-02
    83   -3.670912068028e-15
    84   -3.120272494479e-03
    85    4.432230418320e-03
    86    1.869991860604e-16
    87   -3.060620489770e-15
    88    1.672871037926e-15
    89   -7.053880871343e-15
    90   -2.323710800421e-14
    91    1.667365115536e-14
    92   -3.374452852716e-02
    93    3.755271583165e-14
    94   -3.643854345312e-15
    95    2.448053025001e-14
    96   -4.953107423282e-02
    97   -4.179309413590e-13
    98   -2.016876422547e-13
    99    1.709052754705e-13
   100   -1.459946098700e-01
   101   -1.559399708573e-11
   102    2.146912834446e-12
   103    1.419983185243e-12
   104   -3.636363480520e-01
   105    6.906843677877e-15
   106    6.005781241384e-03
   107   -1.264316896772e-03
   108    3.639642551120e-15
   109    3.574223772448e-15
   110    6.975209063042e-16
   111   -1.710234118504e-15
   112    1.101777124093e-15
   113   -6.971081885264e-15
   114    1.911864997865e-02
   115    2.419581318536e-14
   116    1.700534346089e-14
   117   -2.359418643750e-14
   118    2.767988260280e-02
   119   -1.314611917982e-13
   120   -2.751879535316e-14
   121   -1.194410529802e-14
   122    4.527279456813e-02
   123    7.329374670740e-13
   124    8.226983488331e-14
   125   -2.878566993156e-13
   126    7.292074270757e-02
   127    3.792387919221e-15
   128    9.809204211481e-04
   129    1.201033630804e-03
   130    1.582106332427e-16
   131   -3.684415188421e-15
   132   -1.798903532873e-15
   133    1.370398420598e-15
   134   -2.062297312689e-14
   135    2.780372279491e-14
   136   -8.094879133681e-03
   137    1.317370362471e-14
   138   -1.177742139783e-14
   139    4.012871143853e-14
   140   -1.098142836225e-02
   141   -1.940628944959e-13
   142   -1.579457746305e-13
   143    1.325390445345e-13
   144   -2.616165298199e-02
   145    8.511921169250e-13
   146    1.578942634751e-12
   147   -3.850961345282e-14
   148    2.153242590689e-01
   149   -2.285737300181e-15
   150   -3.355590368517e-03
   151    7.164985646578e-03
   152    8.810066517705e-15
   153    3.676470307303e-16
   154   -5.060657005532e-15
   155   -1.910183595319e-15
   156   -2.293961799917e-15
   157    6.289881154962e-15
   158    1.529471548828e-02
   159    3.114735266312e-14
   160    2.163301609326e-14
   161   -6.557575574088e-15
   162    2.619314279765e-02
   163    2.497876595629e-14
   164   -1.934524646314e-13
   165    1.429631523411e-13
   166    1.811092427593e-02
   167    3.199022467562e-13
   168   -1.170527348466e-12
   169   -1.015305417110e-12
   170   -1.990286693306e-01
   171   -8.435589794398e-16
   172    9.028739918094e-03
   173   -2.030262541836e-03
   174   -8.191222889701e-15
   175   -3.417813544452e-15
   176    2.659774067261e-15
   177   -2.116286586503e-15
   178   -4.225322799486e-14
   179    1.305830470814e-14
   180    3.870200847250e-02
   181    2.366162012571e-14
   182   -1.272969498295e-14
   183   -4.161191721447e-15
   184    4.490808972684e-02
   185   -1.506361356603e-13
   186   -3.463768219073e-13
   187    3.095248388707e-13
   188    1.488367478995e-01
   189    2.054265309184e-11
   190   -5.759749050908e-12
   191    3.893788582586e-12
   192    5.418025552279e-01
   193    5.352702945736e-15
   194   -8.581636562482e-03
   195   -2.416119964275e-03
   196   -6.395102197630e-15
   197   -4.015831404532e-15
   198    7.950630326176e-16
   199    7.288735069003e-14
   200    8.818178855158e-13
   201    2.866268906439e-12
   202    4.181700160459e-15
   203    1.533431357638e-15
   204   -1.064505870080e-03
[5D]
