[Molden Format]
[Atoms] (Angs)
  C      1    6     -0.13173890     -1.79208980      0.00000000
  H      2    1     -2.14962000     -1.30978739      0.00000000
  H      3    1     -0.31599560     -2.86503115      0.00000000
  H      4    1      0.14407746      2.04280963     -0.00000000
  C      5    6     -1.17258876      0.48030861      0.00000000
  O      6    8     -2.25008207      1.06833796      0.00000000
  C      7    6      1.31158357      0.28308717     -0.00000000
  O      8    8      2.36361668      0.96389345     -0.00000000
  N      9    7      0.07017030      1.03138997     -0.00000000
  N     10    7     -1.19586868     -0.94982644      0.00000000
  C     11    6      1.19165158     -1.13169473     -0.00000000
  H     12    1      2.09970506     -1.73445456     -0.00000000
[GTO]
1    0
S    6    1.000000
   4.56324000E+03    1.96665000E-03 
   6.82024000E+02    1.52306000E-02 
   1.54973000E+02    7.61269000E-02 
   4.44553000E+01    2.60801000E-01 
   1.30290000E+01    6.16462000E-01 
   1.82773000E+00    2.21006000E-01 
SP   3    1.000000
   2.09642000E+01    1.14660000E-01   4.02487000E-02 
   4.80331000E+00    9.19999000E-01   2.37594000E-01 
   1.45933000E+00   -3.03068000E-03   8.15854000E-01 
SP   1    1.000000
   4.83456000E-01    1.00000000E+00   1.00000000E+00 
SP   1    1.000000
   1.45585000E-01    1.00000000E+00   1.00000000E+00 
SP   1    1.000000
   4.38000000E-02    1.00000000E+00   1.00000000E+00 
D    1    1.000000
   6.26000000E-01    1.00000000E+00 

2    0
S    3    1.000000
   3.38650000E+01    2.54938000E-02 
   5.09479000E+00    1.90373000E-01 
   1.15879000E+00    8.52161000E-01 
S    1    1.000000
   3.25840000E-01    1.00000000E+00 
S    1    1.000000
   1.02741000E-01    1.00000000E+00 
S    1    1.000000
   3.60000000E-02    1.00000000E+00 
P    1    1.000000
   7.50000000E-01    1.00000000E+00 

3    0
S    3    1.000000
   3.38650000E+01    2.54938000E-02 
   5.09479000E+00    1.90373000E-01 
   1.15879000E+00    8.52161000E-01 
S    1    1.000000
   3.25840000E-01    1.00000000E+00 
S    1    1.000000
   1.02741000E-01    1.00000000E+00 
S    1    1.000000
   3.60000000E-02    1.00000000E+00 
P    1    1.000000
   7.50000000E-01    1.00000000E+00 

4    0
S    3    1.000000
   3.38650000E+01    2.54938000E-02 
   5.09479000E+00    1.90373000E-01 
   1.15879000E+00    8.52161000E-01 
S    1    1.000000
   3.25840000E-01    1.00000000E+00 
S    1    1.000000
   1.02741000E-01    1.00000000E+00 
S    1    1.000000
   3.60000000E-02    1.00000000E+00 
P    1    1.000000
   7.50000000E-01    1.00000000E+00 

5    0
S    6    1.000000
   4.56324000E+03    1.96665000E-03 
   6.82024000E+02    1.52306000E-02 
   1.54973000E+02    7.61269000E-02 
   4.44553000E+01    2.60801000E-01 
   1.30290000E+01    6.16462000E-01 
   1.82773000E+00    2.21006000E-01 
SP   3    1.000000
   2.09642000E+01    1.14660000E-01   4.02487000E-02 
   4.80331000E+00    9.19999000E-01   2.37594000E-01 
   1.45933000E+00   -3.03068000E-03   8.15854000E-01 
SP   1    1.000000
   4.83456000E-01    1.00000000E+00   1.00000000E+00 
SP   1    1.000000
   1.45585000E-01    1.00000000E+00   1.00000000E+00 
SP   1    1.000000
   4.38000000E-02    1.00000000E+00   1.00000000E+00 
D    1    1.000000
   6.26000000E-01    1.00000000E+00 

6    0
S    6    1.000000
   8.58850000E+03    1.89515000E-03 
   1.29723000E+03    1.43859000E-02 
   2.99296000E+02    7.07320000E-02 
   8.73771000E+01    2.40001000E-01 
   2.56789000E+01    5.94797000E-01 
   3.74004000E+00    2.80802000E-01 
SP   3    1.000000
   4.21175000E+01    1.13889000E-01   3.65114000E-02 
   9.62837000E+00    9.20811000E-01   2.37153000E-01 
   2.85332000E+00   -3.27447000E-03   8.19702000E-01 
SP   1    1.000000
   9.05661000E-01    1.00000000E+00   1.00000000E+00 
SP   1    1.000000
   2.55611000E-01    1.00000000E+00   1.00000000E+00 
SP   1    1.000000
   8.45000000E-02    1.00000000E+00   1.00000000E+00 
D    1    1.000000
   1.29200000E+00    1.00000000E+00 

7    0
S    6    1.000000
   4.56324000E+03    1.96665000E-03 
   6.82024000E+02    1.52306000E-02 
   1.54973000E+02    7.61269000E-02 
   4.44553000E+01    2.60801000E-01 
   1.30290000E+01    6.16462000E-01 
   1.82773000E+00    2.21006000E-01 
SP   3    1.000000
   2.09642000E+01    1.14660000E-01   4.02487000E-02 
   4.80331000E+00    9.19999000E-01   2.37594000E-01 
   1.45933000E+00   -3.03068000E-03   8.15854000E-01 
SP   1    1.000000
   4.83456000E-01    1.00000000E+00   1.00000000E+00 
SP   1    1.000000
   1.45585000E-01    1.00000000E+00   1.00000000E+00 
SP   1    1.000000
   4.38000000E-02    1.00000000E+00   1.00000000E+00 
D    1    1.000000
   6.26000000E-01    1.00000000E+00 

8    0
S    6    1.000000
   8.58850000E+03    1.89515000E-03 
   1.29723000E+03    1.43859000E-02 
   2.99296000E+02    7.07320000E-02 
   8.73771000E+01    2.40001000E-01 
   2.56789000E+01    5.94797000E-01 
   3.74004000E+00    2.80802000E-01 
SP   3    1.000000
   4.21175000E+01    1.13889000E-01   3.65114000E-02 
   9.62837000E+00    9.20811000E-01   2.37153000E-01 
   2.85332000E+00   -3.27447000E-03   8.19702000E-01 
SP   1    1.000000
   9.05661000E-01    1.00000000E+00   1.00000000E+00 
SP   1    1.000000
   2.55611000E-01    1.00000000E+00   1.00000000E+00 
SP   1    1.000000
   8.45000000E-02    1.00000000E+00   1.00000000E+00 
D    1    1.000000
   1.29200000E+00    1.00000000E+00 

9    0
S    6    1.000000
   6.29348000E+03    1.96979000E-03 
   9.49044000E+02    1.49613000E-02 
   2.18776000E+02    7.35006000E-02 
   6.36916000E+01    2.48937000E-01 
   1.88282000E+01    6.02460000E-01 
   2.72023000E+00    2.56202000E-01 
SP   3    1.000000
   3.06331000E+01    1.11906000E-01   3.83119000E-02 
   7.02614000E+00    9.21666000E-01   2.37403000E-01 
   2.11205000E+00   -2.56919000E-03   8.17592000E-01 
SP   1    1.000000
   6.84009000E-01    1.00000000E+00   1.00000000E+00 
SP   1    1.000000
   2.00878000E-01    1.00000000E+00   1.00000000E+00 
SP   1    1.000000
   6.39000000E-02    1.00000000E+00   1.00000000E+00 
D    1    1.000000
   9.13000000E-01    1.00000000E+00 

10    0
S    6    1.000000
   6.29348000E+03    1.96979000E-03 
   9.49044000E+02    1.49613000E-02 
   2.18776000E+02    7.35006000E-02 
   6.36916000E+01    2.48937000E-01 
   1.88282000E+01    6.02460000E-01 
   2.72023000E+00    2.56202000E-01 
SP   3    1.000000
   3.06331000E+01    1.11906000E-01   3.83119000E-02 
   7.02614000E+00    9.21666000E-01   2.37403000E-01 
   2.11205000E+00   -2.56919000E-03   8.17592000E-01 
SP   1    1.000000
   6.84009000E-01    1.00000000E+00   1.00000000E+00 
SP   1    1.000000
   2.00878000E-01    1.00000000E+00   1.00000000E+00 
SP   1    1.000000
   6.39000000E-02    1.00000000E+00   1.00000000E+00 
D    1    1.000000
   9.13000000E-01    1.00000000E+00 

11    0
S    6    1.000000
   4.56324000E+03    1.96665000E-03 
   6.82024000E+02    1.52306000E-02 
   1.54973000E+02    7.61269000E-02 
   4.44553000E+01    2.60801000E-01 
   1.30290000E+01    6.16462000E-01 
   1.82773000E+00    2.21006000E-01 
SP   3    1.000000
   2.09642000E+01    1.14660000E-01   4.02487000E-02 
   4.80331000E+00    9.19999000E-01   2.37594000E-01 
   1.45933000E+00   -3.03068000E-03   8.15854000E-01 
SP   1    1.000000
   4.83456000E-01    1.00000000E+00   1.00000000E+00 
SP   1    1.000000
   1.45585000E-01    1.00000000E+00   1.00000000E+00 
SP   1    1.000000
   4.38000000E-02    1.00000000E+00   1.00000000E+00 
D    1    1.000000
   6.26000000E-01    1.00000000E+00 

12    0
S    3    1.000000
   3.38650000E+01    2.54938000E-02 
   5.09479000E+00    1.90373000E-01 
   1.15879000E+00    8.52161000E-01 
S    1    1.000000
   3.25840000E-01    1.00000000E+00 
S    1    1.000000
   1.02741000E-01    1.00000000E+00 
S    1    1.000000
   3.60000000E-02    1.00000000E+00 
P    1    1.000000
   7.50000000E-01    1.00000000E+00 

[MO]
Sym=X
Ene= -0.495586
Spin=Alpha
Occup=1
     1   -4.812094558741e-16
     2    5.130753868926e-15
     3   -1.668447580316e-15
     4    1.644074186015e-14
     5    2.392269192506e-02
     6   -4.984163958576e-15
     7   -5.135055301657e-14
     8   -2.121360212589e-14
     9    3.771929610325e-02
    10   -4.542613112477e-13
    11    2.476215908702e-13
    12    1.234176716422e-13
    13    6.976515359372e-02
    14    6.175565458085e-12
    15    1.339123500908e-12
    16    3.551476536772e-12
    17   -4.873670650744e-01
    18    3.714219309184e-15
    19   -2.696337447115e-03
    20    5.609444222760e-03
    21   -3.024192054680e-14
    22   -7.180761773744e-15
    23    3.701344176675e-14
    24    1.134091648853e-13
    25    5.289847911091e-13
    26    4.951514618843e-13
    27   -5.109962935663e-15
    28    2.311400771265e-15
    29   -4.306438387350e-03
    30    4.815184068572e-15
    31   -3.973337778578e-14
    32    8.068180412353e-13
    33    2.565614067986e-12
    34    5.934274388371e-15
    35    5.353256358748e-15
    36   -4.187411285606e-04
    37    6.310768036768e-15
    38   -9.525239772491e-14
    39    1.648391836766e-12
    40   -7.905715478573e-13
    41    4.098365866604e-15
    42   -4.780736170072e-15
    43   -1.931033967714e-03
    44    8.816026507448e-15
    45    4.686959717397e-15
    46   -3.263778236726e-15
    47    6.065903201866e-16
    48    5.030941074030e-02
    49    2.748410683072e-14
    50   -1.852764477917e-14
    51    7.297851598020e-14
    52    9.181129558253e-02
    53   -7.288715054236e-13
    54   -4.933695326180e-13
    55   -1.616069884819e-13
    56    1.059705452789e-01
    57   -3.855669003582e-12
    58   -2.679977374808e-13
    59    2.261077510983e-12
    60   -1.726262091956e+00
    61   -1.288774346868e-14
    62   -2.479149766753e-03
    63    1.947242505860e-03
    64    6.971155948997e-15
    65   -2.164995863171e-14
    66    2.515111077978e-15
    67    1.889792427794e-16
    68    9.669733346267e-15
    69   -1.282198279285e-14
    70    4.630447236848e-02
    71   -1.433505554526e-16
    72   -2.548798516348e-15
    73   -2.419692301790e-14
    74    7.099098471400e-02
    75   -1.007921363263e-13
    76   -1.959892751973e-14
    77    2.042693085772e-14
    78    2.438196625390e-02
    79   -5.639681398041e-13
    80   -3.560041915045e-13
    81   -2.934250887110e-13
    82    9.394568131422e-02
    83    4.238315909927e-15
    84    7.667181924643e-03
    85   -4.063142457158e-03
    86   -7.831380946213e-16
    87    5.026566849042e-15
    88   -3.380608636875e-16
    89    1.500102622523e-14
    90    3.716733355077e-14
    91   -1.019429560254e-14
    92    9.070894617948e-03
    93   -3.114647782783e-14
    94    1.336210752457e-14
    95   -4.216609035499e-14
    96    2.000685746853e-02
    97    9.365189921544e-14
    98    3.507354788446e-13
    99    3.563160778254e-13
   100   -6.205844343341e-04
   101   -1.300350346376e-11
   102   -4.416177432549e-13
   103    6.539683656042e-12
   104   -3.621415070828e-01
   105   -4.007884476044e-15
   106   -2.384845612682e-03
   107    1.226532344574e-03
   108    1.791823223423e-15
   109   -6.563899279132e-16
   110   -3.316393259469e-15
   111   -3.122884622222e-15
   112   -4.275247471729e-15
   113    2.419306584763e-15
   114    5.508437194217e-03
   115    2.303487160126e-15
   116   -3.994944715383e-14
   117    3.419255428935e-14
   118    8.342780094965e-03
   119   -4.089859103205e-15
   120    1.015087325266e-13
   121   -2.269753113093e-14
   122    1.012621521801e-02
   123    1.499344230457e-13
   124   -4.821462108885e-13
   125    2.515695777572e-13
   126    6.172618426974e-03
   127   -5.351677403162e-15
   128   -8.499714414177e-04
   129   -6.927433439292e-04
   130   -2.389940452909e-15
   131    7.400010333782e-15
   132   -7.555684543177e-15
   133   -1.424752103920e-14
   134    2.838369400638e-14
   135   -1.626887414578e-14
   136    2.175067697306e-02
   137    1.761391669550e-14
   138    1.786954720965e-14
   139   -2.062970117716e-14
   140    5.206129244768e-02
   141    4.188811901904e-13
   142    5.251951261053e-14
   143   -1.755283544665e-13
   144   -2.392848997186e-02
   145   -7.332649749857e-13
   146   -3.076733283646e-12
   147   -2.804474184437e-12
   148    6.421691124747e-01
   149   -2.377893050861e-15
   150   -2.195208097103e-03
   151   -3.586884553050e-03
   152   -6.088840086196e-15
   153    9.020417469744e-16
   154    2.854756041208e-15
   155   -2.512825595584e-15
   156    1.663281447364e-15
   157   -7.114095921780e-16
   158    2.397846600783e-02
   159   -3.857151574210e-14
   160   -2.107058890501e-14
   161    1.285383514402e-14
   162    5.299528173996e-02
   163    1.599115940286e-13
   164    2.254066045854e-13
   165   -2.410828462207e-14
   166   -8.892857797730e-03
   167   -1.145715086485e-12
   168   -1.222568662663e-13
   169   -3.496807180834e-13
   170    5.266140131800e-01
   171   -4.652640337986e-15
   172    4.641727615893e-03
   173    1.739803015192e-03
   174    1.343078589850e-14
   175    5.496516609764e-15
   176    3.625300428771e-15
   177    5.296566919139e-15
   178    4.131630703589e-14
   179   -2.073577766890e-16
   180    1.118129038573e-02
   181   -5.928859411786e-14
   182    3.276364481276e-14
   183    5.491740248183e-14
   184    1.691776357969e-02
   185    4.957391280738e-13
   186    4.091753300781e-13
   187   -1.621879643249e-13
   188    2.131295298020e-02
   189    1.169992422122e-11
   190    4.177633670910e-12
   191    3.608399479371e-12
   192    4.535138477889e-01
   193   -1.553661111483e-14
   194   -1.338707625052e-03
   195   -1.035574315761e-04
   196    1.152712265442e-14
   197   -1.195683945732e-14
   198   -1.106850440323e-14
   199   -1.370025458680e-13
   200   -1.565039383324e-12
   201   -2.053807845972e-12
   202    8.608165149903e-15
   203   -2.512090300027e-14
   204    1.592659526356e-04
Sym=X
Ene= 0.495586
Spin=Alpha
Occup=0
     1   -1.248768736426e-15
     2   -1.878998542024e-15
     3    1.900294821950e-14
     4   -3.172229198674e-15
     5   -2.207384340167e-02
     6    9.570089233100e-15
     7    1.002076580599e-14
     8   -2.485556508614e-14
     9   -4.988516960165e-02
    10   -2.377738482802e-13
    11    4.786870383292e-13
    12   -3.613589516068e-14
    13   -1.997175793247e-03
    14   -7.087876380320e-12
    15   -2.025518736375e-12
    16   -3.438220814480e-13
    17   -1.795900109545e-01
    18    8.164232190257e-15
    19    6.605906795171e-04
    20    5.539336146687e-03
    21    2.974420553989e-15
    22   -8.913137469026e-15
    23    5.401745372336e-15
    24    2.090782856416e-15
    25    6.666863985331e-13
    26   -6.055589689079e-13
    27    3.205240521178e-15
    28   -4.286428431552e-15
    29   -5.624251379145e-03
    30   -9.761274321865e-15
    31   -2.399258236732e-14
    32    2.897441042749e-14
    33    7.291129949777e-13
    34   -2.169040455777e-15
    35    7.268378355017e-15
    36   -6.889736931961e-03
    37    3.835496277696e-15
    38   -1.048389304037e-13
    39    8.152520413976e-13
    40    3.828073189762e-13
    41   -4.313799891684e-16
    42   -2.660351372277e-15
    43    7.861518397446e-03
    44    2.450720088822e-15
    45    9.425476388877e-17
    46   -8.640006205219e-15
    47   -5.815175827935e-15
    48   -7.952888320811e-03
    49    1.351181588185e-14
    50   -1.722208770020e-14
    51   -2.450253413433e-15
    52   -3.065672699154e-02
    53    5.369931950199e-14
    54   -4.461046715350e-13
    55   -8.603694826226e-14
    56    5.320495989972e-02
    57    6.633183669819e-13
    58   -7.147175354848e-13
    59   -4.793451062621e-13
    60   -4.709817354947e-01
    61   -4.117320643077e-15
    62    2.107324201901e-04
    63   -2.010723594117e-03
    64    8.151644082292e-15
    65   -8.242839774206e-15
    66    6.691719492648e-16
    67   -2.285057405742e-15
    68    4.476818507697e-15
    69   -3.825313252400e-15
    70    3.355693677269e-02
    71    1.816864172430e-14
    72    2.708181955223e-15
    73   -1.758524874630e-14
    74    4.472595831498e-02
    75   -1.239391145596e-13
    76   -4.914905385508e-14
    77    8.061668395857e-14
    78    5.656218785246e-02
    79   -6.430848496719e-13
    80   -2.830057649497e-13
    81   -1.076492587078e-13
    82   -1.236417538451e-01
    83    7.942924183630e-16
    84    2.802067496027e-03
    85    8.074031991997e-04
    86   -2.052166233403e-15
    87    2.711906533385e-16
    88    5.673402297592e-15
    89    1.201598839028e-14
    90    2.224483049292e-14
    91   -1.145739927272e-14
    92   -8.054746037504e-02
    93   -3.920978809051e-14
    94    2.838174491273e-14
    95   -3.475828662017e-14
    96   -1.015009913885e-01
    97   -1.291085158359e-13
    98    1.057327018969e-14
    99    7.489299395811e-14
   100   -3.443779523565e-01
   101    5.437446123404e-12
   102   -7.567844400415e-13
   103   -4.094013642592e-13
   104    1.603624125440e+00
   105    6.819815867469e-15
   106    3.852657859509e-03
   107   -2.066770972114e-03
   108    2.847438097645e-16
   109   -1.451926824521e-14
   110   -2.065375066405e-15
   111   -5.736378075783e-15
   112   -6.958584002430e-16
   113    1.488671926218e-14
   114   -3.149683892474e-03
   115    1.683967955931e-14
   116   -1.231575408797e-14
   117    3.325842130311e-14
   118   -2.181062379643e-02
   119    4.730102406953e-14
   120   -3.938517123767e-15
   121   -4.449747942254e-16
   122    8.508938995964e-02
   123    2.795992222598e-13
   124   -3.085179888123e-13
   125    1.413534505123e-13
   126   -4.049763637478e-01
   127   -6.090206492409e-16
   128    5.003429603757e-03
   129    3.253833406644e-03
   130   -2.111791869304e-15
   131    3.007446948539e-15
   132   -8.175962445764e-15
   133   -1.572990366130e-14
   134    1.996774223457e-14
   135   -2.478052930272e-15
   136   -1.225987555224e-02
   137    4.345471746872e-14
   138    2.669275440565e-14
   139    1.051809491118e-18
   140   -1.837774990243e-02
   141    2.726272691536e-13
   142    4.397405671243e-14
   143    5.471839166780e-15
   144   -3.166181481388e-02
   145   -1.112278529262e-12
   146   -1.567288205635e-12
   147   -9.718924843747e-13
   148    1.669508172636e-01
   149    2.998918322711e-15
   150   -2.198915369228e-03
   151    7.128075473450e-03
   152   -4.037399827086e-15
   153    1.366715005998e-16
   154    2.194399086782e-15
   155   -3.630758517174e-15
   156    1.150664189390e-15
   157   -4.870121942660e-15
   158    4.395642892425e-02
   159    1.844396462840e-14
   160   -9.731958027632e-15
   161   -7.303123664750e-17
   162    6.002127417991e-02
   163   -1.119087769169e-13
   164    1.602095436898e-13
   165   -1.459266204912e-13
   166    1.515235649634e-01
   167    3.415712735884e-13
   168    1.773483149605e-12
   169   -9.099137337802e-13
   170   -4.306293235608e-01
   171    1.500217944787e-15
   172    2.897348418752e-03
   173    3.320439410991e-03
   174   -4.655074098849e-15
   175    7.526897864338e-15
   176   -3.393242934808e-15
   177    4.573208949600e-16
   178    3.061514538827e-14
   179   -9.648967775544e-16
   180   -1.294231749205e-02
   181   -7.118318265046e-16
   182    1.637441362586e-14
   183    1.446095962713e-14
   184    1.581849105397e-03
   185    5.721054382384e-14
   186    5.344637727935e-13
   187   -3.423881685599e-14
   188   -8.572616244868e-02
   189    2.612361521501e-12
   190    3.829724249303e-13
   191   -2.999801896341e-12
   192    1.112355174967e-01
   193   -4.736518181964e-15
   194    8.335702960489e-03
   195   -7.208817225881e-03
   196    2.499722385943e-15
   197    1.297035946380e-14
   198   -1.698014334061e-14
   199   -4.658240799756e-14
   200   -1.196349241964e-12
   201   -1.192311319948e-12
   202   -1.300344429492e-15
   203   -8.580963137426e-15
   204    6.499232590182e-03
[5D]
