[Molden Format]
[Atoms] (Angs)
  C      1    6     -0.13173890     -1.79208980      0.00000000
  H      2    1     -2.14962000     -1.30978739      0.00000000
  H      3    1     -0.31599560     -2.86503115      0.00000000
  H      4    1      0.14407746      2.04280963     -0.00000000
  C      5    6     -1.17258876      0.48030861      0.00000000
  O      6    8     -2.25008207      1.06833796      0.00000000
  C      7    6      1.31158357      0.28308717     -0.00000000
  O      8    8      2.36361668      0.96389345     -0.00000000
  N      9    7      0.07017030      1.03138997     -0.00000000
  N     10    7     -1.19586868     -0.94982644      0.00000000
  C     11    6      1.19165158     -1.13169473     -0.00000000
  H     12    1      2.09970506     -1.73445456     -0.00000000
[GTO]
1    0
S    6    1.000000
   4.56324000E+03    1.96665000E-03 
   6.82024000E+02    1.52306000E-02 
   1.54973000E+02    7.61269000E-02 
   4.44553000E+01    2.60801000E-01 
   1.30290000E+01    6.16462000E-01 
   1.82773000E+00    2.21006000E-01 
SP   3    1.000000
   2.09642000E+01    1.14660000E-01   4.02487000E-02 
   4.80331000E+00    9.19999000E-01   2.37594000E-01 
   1.45933000E+00   -3.03068000E-03   8.15854000E-01 
SP   1    1.000000
   4.83456000E-01    1.00000000E+00   1.00000000E+00 
SP   1    1.000000
   1.45585000E-01    1.00000000E+00   1.00000000E+00 
SP   1    1.000000
   4.38000000E-02    1.00000000E+00   1.00000000E+00 
D    1    1.000000
   6.26000000E-01    1.00000000E+00 

2    0
S    3    1.000000
   3.38650000E+01    2.54938000E-02 
   5.09479000E+00    1.90373000E-01 
   1.15879000E+00    8.52161000E-01 
S    1    1.000000
   3.25840000E-01    1.00000000E+00 
S    1    1.000000
   1.02741000E-01    1.00000000E+00 
S    1    1.000000
   3.60000000E-02    1.00000000E+00 
P    1    1.000000
   7.50000000E-01    1.00000000E+00 

3    0
S    3    1.000000
   3.38650000E+01    2.54938000E-02 
   5.09479000E+00    1.90373000E-01 
   1.15879000E+00    8.52161000E-01 
S    1    1.000000
   3.25840000E-01    1.00000000E+00 
S    1    1.000000
   1.02741000E-01    1.00000000E+00 
S    1    1.000000
   3.60000000E-02    1.00000000E+00 
P    1    1.000000
   7.50000000E-01    1.00000000E+00 

4    0
S    3    1.000000
   3.38650000E+01    2.54938000E-02 
   5.09479000E+00    1.90373000E-01 
   1.15879000E+00    8.52161000E-01 
S    1    1.000000
   3.25840000E-01    1.00000000E+00 
S    1    1.000000
   1.02741000E-01    1.00000000E+00 
S    1    1.000000
   3.60000000E-02    1.00000000E+00 
P    1    1.000000
   7.50000000E-01    1.00000000E+00 

5    0
S    6    1.000000
   4.56324000E+03    1.96665000E-03 
   6.82024000E+02    1.52306000E-02 
   1.54973000E+02    7.61269000E-02 
   4.44553000E+01    2.60801000E-01 
   1.30290000E+01    6.16462000E-01 
   1.82773000E+00    2.21006000E-01 
SP   3    1.000000
   2.09642000E+01    1.14660000E-01   4.02487000E-02 
   4.80331000E+00    9.19999000E-01   2.37594000E-01 
   1.45933000E+00   -3.03068000E-03   8.15854000E-01 
SP   1    1.000000
   4.83456000E-01    1.00000000E+00   1.00000000E+00 
SP   1    1.000000
   1.45585000E-01    1.00000000E+00   1.00000000E+00 
SP   1    1.000000
   4.38000000E-02    1.00000000E+00   1.00000000E+00 
D    1    1.000000
   6.26000000E-01    1.00000000E+00 

6    0
S    6    1.000000
   8.58850000E+03    1.89515000E-03 
   1.29723000E+03    1.43859000E-02 
   2.99296000E+02    7.07320000E-02 
   8.73771000E+01    2.40001000E-01 
   2.56789000E+01    5.94797000E-01 
   3.74004000E+00    2.80802000E-01 
SP   3    1.000000
   4.21175000E+01    1.13889000E-01   3.65114000E-02 
   9.62837000E+00    9.20811000E-01   2.37153000E-01 
   2.85332000E+00   -3.27447000E-03   8.19702000E-01 
SP   1    1.000000
   9.05661000E-01    1.00000000E+00   1.00000000E+00 
SP   1    1.000000
   2.55611000E-01    1.00000000E+00   1.00000000E+00 
SP   1    1.000000
   8.45000000E-02    1.00000000E+00   1.00000000E+00 
D    1    1.000000
   1.29200000E+00    1.00000000E+00 

7    0
S    6    1.000000
   4.56324000E+03    1.96665000E-03 
   6.82024000E+02    1.52306000E-02 
   1.54973000E+02    7.61269000E-02 
   4.44553000E+01    2.60801000E-01 
   1.30290000E+01    6.16462000E-01 
   1.82773000E+00    2.21006000E-01 
SP   3    1.000000
   2.09642000E+01    1.14660000E-01   4.02487000E-02 
   4.80331000E+00    9.19999000E-01   2.37594000E-01 
   1.45933000E+00   -3.03068000E-03   8.15854000E-01 
SP   1    1.000000
   4.83456000E-01    1.00000000E+00   1.00000000E+00 
SP   1    1.000000
   1.45585000E-01    1.00000000E+00   1.00000000E+00 
SP   1    1.000000
   4.38000000E-02    1.00000000E+00   1.00000000E+00 
D    1    1.000000
   6.26000000E-01    1.00000000E+00 

8    0
S    6    1.000000
   8.58850000E+03    1.89515000E-03 
   1.29723000E+03    1.43859000E-02 
   2.99296000E+02    7.07320000E-02 
   8.73771000E+01    2.40001000E-01 
   2.56789000E+01    5.94797000E-01 
   3.74004000E+00    2.80802000E-01 
SP   3    1.000000
   4.21175000E+01    1.13889000E-01   3.65114000E-02 
   9.62837000E+00    9.20811000E-01   2.37153000E-01 
   2.85332000E+00   -3.27447000E-03   8.19702000E-01 
SP   1    1.000000
   9.05661000E-01    1.00000000E+00   1.00000000E+00 
SP   1    1.000000
   2.55611000E-01    1.00000000E+00   1.00000000E+00 
SP   1    1.000000
   8.45000000E-02    1.00000000E+00   1.00000000E+00 
D    1    1.000000
   1.29200000E+00    1.00000000E+00 

9    0
S    6    1.000000
   6.29348000E+03    1.96979000E-03 
   9.49044000E+02    1.49613000E-02 
   2.18776000E+02    7.35006000E-02 
   6.36916000E+01    2.48937000E-01 
   1.88282000E+01    6.02460000E-01 
   2.72023000E+00    2.56202000E-01 
SP   3    1.000000
   3.06331000E+01    1.11906000E-01   3.83119000E-02 
   7.02614000E+00    9.21666000E-01   2.37403000E-01 
   2.11205000E+00   -2.56919000E-03   8.17592000E-01 
SP   1    1.000000
   6.84009000E-01    1.00000000E+00   1.00000000E+00 
SP   1    1.000000
   2.00878000E-01    1.00000000E+00   1.00000000E+00 
SP   1    1.000000
   6.39000000E-02    1.00000000E+00   1.00000000E+00 
D    1    1.000000
   9.13000000E-01    1.00000000E+00 

10    0
S    6    1.000000
   6.29348000E+03    1.96979000E-03 
   9.49044000E+02    1.49613000E-02 
   2.18776000E+02    7.35006000E-02 
   6.36916000E+01    2.48937000E-01 
   1.88282000E+01    6.02460000E-01 
   2.72023000E+00    2.56202000E-01 
SP   3    1.000000
   3.06331000E+01    1.11906000E-01   3.83119000E-02 
   7.02614000E+00    9.21666000E-01   2.37403000E-01 
   2.11205000E+00   -2.56919000E-03   8.17592000E-01 
SP   1    1.000000
   6.84009000E-01    1.00000000E+00   1.00000000E+00 
SP   1    1.000000
   2.00878000E-01    1.00000000E+00   1.00000000E+00 
SP   1    1.000000
   6.39000000E-02    1.00000000E+00   1.00000000E+00 
D    1    1.000000
   9.13000000E-01    1.00000000E+00 

11    0
S    6    1.000000
   4.56324000E+03    1.96665000E-03 
   6.82024000E+02    1.52306000E-02 
   1.54973000E+02    7.61269000E-02 
   4.44553000E+01    2.60801000E-01 
   1.30290000E+01    6.16462000E-01 
   1.82773000E+00    2.21006000E-01 
SP   3    1.000000
   2.09642000E+01    1.14660000E-01   4.02487000E-02 
   4.80331000E+00    9.19999000E-01   2.37594000E-01 
   1.45933000E+00   -3.03068000E-03   8.15854000E-01 
SP   1    1.000000
   4.83456000E-01    1.00000000E+00   1.00000000E+00 
SP   1    1.000000
   1.45585000E-01    1.00000000E+00   1.00000000E+00 
SP   1    1.000000
   4.38000000E-02    1.00000000E+00   1.00000000E+00 
D    1    1.000000
   6.26000000E-01    1.00000000E+00 

12    0
S    3    1.000000
   3.38650000E+01    2.54938000E-02 
   5.09479000E+00    1.90373000E-01 
   1.15879000E+00    8.52161000E-01 
S    1    1.000000
   3.25840000E-01    1.00000000E+00 
S    1    1.000000
   1.02741000E-01    1.00000000E+00 
S    1    1.000000
   3.60000000E-02    1.00000000E+00 
P    1    1.000000
   7.50000000E-01    1.00000000E+00 

[MO]
Sym=X
Ene= -0.495981
Spin=Alpha
Occup=1
     1   -4.825672516128e-16
     2    5.127810687558e-15
     3   -1.679682776228e-15
     4    1.646820254133e-14
     5    2.398362267373e-02
     6   -4.920603839943e-15
     7   -5.143621179786e-14
     8   -2.122115961646e-14
     9    3.784453623232e-02
    10   -4.558085435178e-13
    11    2.480328769528e-13
    12    1.226890215454e-13
    13    6.968197094844e-02
    14    6.172090030767e-12
    15    1.339953890350e-12
    16    3.551202355920e-12
    17   -4.874776489410e-01
    18    3.721820998105e-15
    19   -2.721949862922e-03
    20    5.623411342244e-03
    21   -3.030681743874e-14
    22   -7.164906703692e-15
    23    3.707113830390e-14
    24    1.136997713618e-13
    25    5.287998924406e-13
    26    4.950247497308e-13
    27   -5.129294730365e-15
    28    2.310398621214e-15
    29   -4.312779454541e-03
    30    4.822612756838e-15
    31   -3.991473454196e-14
    32    8.069918621249e-13
    33    2.567003992766e-12
    34    5.948894612144e-15
    35    5.348170172471e-15
    36   -4.248435016849e-04
    37    6.278701321685e-15
    38   -9.526753611225e-14
    39    1.650302338059e-12
    40   -7.894651481464e-13
    41    4.114387766422e-15
    42   -4.811188081986e-15
    43   -1.925989750484e-03
    44    8.818395824937e-15
    45    4.685517456639e-15
    46   -3.275185098773e-15
    47    6.176565451238e-16
    48    5.040425859408e-02
    49    2.758320969707e-14
    50   -1.854948310394e-14
    51    7.305848985528e-14
    52    9.196768801194e-02
    53   -7.302174658166e-13
    54   -4.946844652002e-13
    55   -1.610411774783e-13
    56    1.060731790678e-01
    57   -3.854350019625e-12
    58   -2.676407366122e-13
    59    2.260475760168e-12
    60   -1.725853363357e+00
    61   -1.288485011537e-14
    62   -2.492884784045e-03
    63    1.937862251297e-03
    64    6.991275949564e-15
    65   -2.169164610679e-14
    66    2.515122916406e-15
    67    1.906355091959e-16
    68    9.673776359628e-15
    69   -1.282572067710e-14
    70    4.635394112126e-02
    71   -1.509919673853e-16
    72   -2.529878994875e-15
    73   -2.416486939713e-14
    74    7.105597913762e-02
    75   -1.010581867528e-13
    76   -1.974856533839e-14
    77    2.037823387682e-14
    78    2.441844868419e-02
    79   -5.650857283515e-13
    80   -3.565914473802e-13
    81   -2.933698708942e-13
    82    9.374844682178e-02
    83    4.246228743076e-15
    84    7.675196216654e-03
    85   -4.077847819695e-03
    86   -7.798819416460e-16
    87    5.023620175005e-15
    88   -3.278874519928e-16
    89    1.502069851887e-14
    90    3.720043004815e-14
    91   -1.020289947268e-14
    92    8.976445373050e-03
    93   -3.117127405861e-14
    94    1.345316184726e-14
    95   -4.225736754209e-14
    96    1.980340815829e-02
    97    9.285276220429e-14
    98    3.517156890490e-13
    99    3.571851315744e-13
   100   -6.085306614571e-04
   101   -1.302127890932e-11
   102   -4.425206150859e-13
   103    6.546324308597e-12
   104   -3.617165859362e-01
   105   -4.031442975171e-15
   106   -2.415507133147e-03
   107    1.195115822657e-03
   108    1.782893610186e-15
   109   -6.627995274586e-16
   110   -3.320590411991e-15
   111   -3.120295192313e-15
   112   -4.285791536562e-15
   113    2.432669646612e-15
   114    5.344649844284e-03
   115    2.295381390659e-15
   116   -3.999964320156e-14
   117    3.422000734241e-14
   118    8.083719418588e-03
   119   -4.375381147113e-15
   120    1.017086915616e-13
   121   -2.262190861020e-14
   122    9.892996359278e-03
   123    1.505124203046e-13
   124   -4.826097401147e-13
   125    2.518329663376e-13
   126    5.996657393408e-03
   127   -5.360959341455e-15
   128   -8.294801458881e-04
   129   -6.864328260477e-04
   130   -2.394808380731e-15
   131    7.398577999243e-15
   132   -7.568605039408e-15
   133   -1.426660768129e-14
   134    2.842361060372e-14
   135   -1.626150926024e-14
   136    2.174836503530e-02
   137    1.757423429080e-14
   138    1.790504162223e-14
   139   -2.061737871841e-14
   140    5.205381172065e-02
   141    4.200214839222e-13
   142    5.256043917431e-14
   143   -1.760511505460e-13
   144   -2.390179413332e-02
   145   -7.332415576278e-13
   146   -3.079777740923e-12
   147   -2.808727414685e-12
   148    6.424823540173e-01
   149   -2.373775667375e-15
   150   -2.216630378938e-03
   151   -3.583043799498e-03
   152   -6.091163537584e-15
   153    9.023930164544e-16
   154    2.877436501424e-15
   155   -2.479078679999e-15
   156    1.677738242964e-15
   157   -7.077609742906e-16
   158    2.405363338730e-02
   159   -3.881911475732e-14
   160   -2.109444009188e-14
   161    1.284139954429e-14
   162    5.313330067544e-02
   163    1.612220020531e-13
   164    2.260866539749e-13
   165   -2.378871784322e-14
   166   -8.735588641111e-03
   167   -1.145245179214e-12
   168   -1.219395130942e-13
   169   -3.518932844000e-13
   170    5.258115147415e-01
   171   -4.660145022323e-15
   172    4.655999773322e-03
   173    1.733877537388e-03
   174    1.345063680444e-14
   175    5.494822099353e-15
   176    3.629751463161e-15
   177    5.315324225680e-15
   178    4.136827233707e-14
   179   -1.943176093893e-16
   180    1.113684095768e-02
   181   -5.944809928164e-14
   182    3.280804836151e-14
   183    5.503623591956e-14
   184    1.681108905677e-02
   185    4.972799480931e-13
   186    4.089978446064e-13
   187   -1.621066924175e-13
   188    2.131790382033e-02
   189    1.172086611299e-11
   190    4.181957426684e-12
   191    3.612517086864e-12
   192    4.533937313642e-01
   193   -1.556062057917e-14
   194   -1.342227836013e-03
   195   -1.169366851751e-04
   196    1.155345414029e-14
   197   -1.199025600922e-14
   198   -1.111434027281e-14
   199   -1.370397163774e-13
   200   -1.567115133480e-12
   201   -2.056674631151e-12
   202    8.599777014515e-15
   203   -2.513472667482e-14
   204    1.503409915773e-04
Sym=X
Ene= 0.495981
Spin=Alpha
Occup=0
     1   -4.657825200689e-15
     2   -3.875529941207e-15
     3    5.558831657904e-15
     4   -7.344812780519e-15
     5   -7.698460599210e-02
     6    2.922899724112e-14
     7   -1.139881541995e-15
     8   -4.254427799375e-14
     9   -7.894595352250e-02
    10   -4.354594506147e-13
    11    1.847591970991e-13
    12    1.639501147078e-14
    13   -3.995643763807e-01
    14    1.516011981174e-11
    15    1.331547243955e-12
    16    5.982719400099e-12
    17    1.692150411208e+00
    18    1.168325335278e-14
    19   -1.936244814504e-03
    20   -1.637995384864e-02
    21   -1.316084506073e-14
    22   -7.192230256949e-15
    23    2.016386135683e-14
    24   -1.412688281661e-14
    25    9.894147940531e-13
    26    8.232282741759e-13
    27   -5.968764259528e-15
    28    1.222145571344e-15
    29    6.666302924976e-03
    30   -9.313420087429e-15
    31   -2.316283080870e-14
    32    2.994073386489e-13
    33    2.382200595704e-12
    34    1.935457972187e-15
    35    1.493889080046e-14
    36    8.233918538078e-03
    37    6.072348134288e-15
    38   -2.457389131346e-14
    39    4.395578427283e-13
    40   -1.738984652324e-12
    41    2.085460616127e-15
    42    4.229944975545e-15
    43   -7.507054298773e-03
    44    2.890750390861e-15
    45    1.114374397319e-16
    46   -6.795188828864e-15
    47   -3.531289113867e-15
    48    2.063118693966e-02
    49    8.469152659695e-15
    50   -5.616450841822e-15
    51    3.263626537023e-14
    52    2.349396191320e-02
    53   -1.242549569088e-14
    54   -3.005963247804e-13
    55   -4.867863131702e-14
    56    9.896058654506e-02
    57   -7.231830948523e-12
    58   -1.995529018571e-12
    59    3.130660996200e-12
    60   -9.294700344525e-01
    61   -1.045846217686e-14
    62   -6.713232908949e-03
    63   -3.795846585839e-03
    64    7.098227176249e-15
    65   -1.623174238426e-14
    66    5.660851652063e-15
    67    5.481999455272e-15
    68    9.468140791509e-15
    69   -1.188967230003e-14
    70    2.747171858729e-02
    71   -1.789988262799e-14
    72    6.532492596616e-15
    73   -2.249798784015e-14
    74    3.922278715321e-02
    75   -1.104012069139e-13
    76   -5.591576404700e-14
    77    3.126526856753e-14
    78    3.187667068699e-02
    79   -7.983602222769e-13
    80   -1.810299690005e-13
    81   -2.986628957086e-13
    82   -4.164265344634e-02
    83    3.658768409533e-15
    84    3.110931116610e-03
    85   -4.454036368322e-03
    86   -1.768666711153e-16
    87    3.089061321301e-15
    88   -1.641550988192e-15
    89    7.129460667925e-15
    90    2.328437414976e-14
    91   -1.661532100132e-14
    92    3.350942863904e-02
    93   -3.792494996841e-14
    94    3.707273709176e-15
    95   -2.441777481868e-14
    96    4.903446441598e-02
    97    4.175483807056e-13
    98    2.019104278494e-13
    99   -1.664858434637e-13
   100    1.461120891355e-01
   101    1.566047695757e-11
   102   -2.155820593128e-12
   103   -1.425455443052e-12
   104    3.646812251830e-01
   105   -6.915067196731e-15
   106   -6.075946344194e-03
   107    1.034768423355e-03
   108   -3.751464567300e-15
   109   -3.727676307142e-15
   110   -7.453078181334e-16
   111    1.649896166834e-15
   112   -1.127258928752e-15
   113    6.924979773376e-15
   114   -1.955964727158e-02
   115   -2.402733176071e-14
   116   -1.714230303305e-14
   117    2.357812100863e-14
   118   -2.837770802908e-02
   119    1.311362869368e-13
   120    2.806195621091e-14
   121    1.148130115804e-14
   122   -4.598666645278e-02
   123   -7.332431907231e-13
   124   -8.424010153741e-14
   125    2.901907909389e-13
   126   -7.324117653713e-02
   127   -3.747445720234e-15
   128   -9.406028121815e-04
   129   -1.188196148626e-03
   130   -1.557560006683e-16
   131    3.720028228687e-15
   132    1.860875997408e-15
   133   -1.314329976075e-15
   134    2.059481474237e-14
   135   -2.792538202098e-14
   136    7.854889829653e-03
   137   -1.346347161067e-14
   138    1.176284695071e-14
   139   -4.067055870847e-14
   140    1.055744152571e-02
   141    1.965019761107e-13
   142    1.560541414570e-13
   143   -1.342879387603e-13
   144    2.602629650296e-02
   145   -8.502110719631e-13
   146   -1.596954601812e-12
   147    3.930107034919e-14
   148   -2.158753087640e-01
   149    2.281080672617e-15
   150    3.363750757910e-03
   151   -7.145297496993e-03
   152   -8.742238386534e-15
   153   -3.355188198340e-16
   154    5.089004524007e-15
   155    1.967819281640e-15
   156    2.372629811097e-15
   157   -6.398381592959e-15
   158   -1.524339984384e-02
   159   -3.126379203011e-14
   160   -2.200471041304e-14
   161    6.324531267755e-15
   162   -2.617375323362e-02
   163   -2.384808185309e-14
   164    1.955895949821e-13
   165   -1.447834327672e-13
   166   -1.853748324926e-02
   167   -3.224850688231e-13
   168    1.180965574350e-12
   169    1.017303221876e-12
   170    1.996365250255e-01
   171    6.905539027548e-16
   172   -8.831209976097e-03
   173    1.922190085899e-03
   174    8.310067972399e-15
   175    3.430552187062e-15
   176   -2.678224747199e-15
   177    2.103980397159e-15
   178    4.262526449460e-14
   179   -1.298473894707e-14
   180   -3.734621218769e-02
   181   -2.402305634560e-14
   182    1.305531630131e-14
   183    4.472987647635e-15
   184   -4.254373157748e-02
   185    1.542949103672e-13
   186    3.485460735083e-13
   187   -3.059940372644e-13
   188   -1.469069651807e-01
   189   -2.059084669202e-11
   190    5.782419247826e-12
   191   -3.915665786854e-12
   192   -5.431138713963e-01
   193   -5.301096446319e-15
   194    8.273559100710e-03
   195    2.386424499662e-03
   196    6.307464696430e-15
   197    4.013398310664e-15
   198   -1.102356715420e-15
   199   -7.269668553870e-14
   200   -8.870148825338e-13
   201   -2.886818580508e-12
   202   -4.341732864753e-15
   203   -1.467216144569e-15
   204    1.151824793879e-03
[5D]
