[Molden Format]
[Atoms] (Angs)
  C      1    6     -0.13173890     -1.79208980      0.00000000
  H      2    1     -2.14962000     -1.30978739      0.00000000
  H      3    1     -0.31599560     -2.86503115      0.00000000
  H      4    1      0.14407746      2.04280963     -0.00000000
  C      5    6     -1.17258876      0.48030861      0.00000000
  O      6    8     -2.25008207      1.06833796      0.00000000
  C      7    6      1.31158357      0.28308717     -0.00000000
  O      8    8      2.36361668      0.96389345     -0.00000000
  N      9    7      0.07017030      1.03138997     -0.00000000
  N     10    7     -1.19586868     -0.94982644      0.00000000
  C     11    6      1.19165158     -1.13169473     -0.00000000
  H     12    1      2.09970506     -1.73445456     -0.00000000
[GTO]
1    0
S    6    1.000000
   4.56324000E+03    1.96665000E-03 
   6.82024000E+02    1.52306000E-02 
   1.54973000E+02    7.61269000E-02 
   4.44553000E+01    2.60801000E-01 
   1.30290000E+01    6.16462000E-01 
   1.82773000E+00    2.21006000E-01 
SP   3    1.000000
   2.09642000E+01    1.14660000E-01   4.02487000E-02 
   4.80331000E+00    9.19999000E-01   2.37594000E-01 
   1.45933000E+00   -3.03068000E-03   8.15854000E-01 
SP   1    1.000000
   4.83456000E-01    1.00000000E+00   1.00000000E+00 
SP   1    1.000000
   1.45585000E-01    1.00000000E+00   1.00000000E+00 
SP   1    1.000000
   4.38000000E-02    1.00000000E+00   1.00000000E+00 
D    1    1.000000
   6.26000000E-01    1.00000000E+00 

2    0
S    3    1.000000
   3.38650000E+01    2.54938000E-02 
   5.09479000E+00    1.90373000E-01 
   1.15879000E+00    8.52161000E-01 
S    1    1.000000
   3.25840000E-01    1.00000000E+00 
S    1    1.000000
   1.02741000E-01    1.00000000E+00 
S    1    1.000000
   3.60000000E-02    1.00000000E+00 
P    1    1.000000
   7.50000000E-01    1.00000000E+00 

3    0
S    3    1.000000
   3.38650000E+01    2.54938000E-02 
   5.09479000E+00    1.90373000E-01 
   1.15879000E+00    8.52161000E-01 
S    1    1.000000
   3.25840000E-01    1.00000000E+00 
S    1    1.000000
   1.02741000E-01    1.00000000E+00 
S    1    1.000000
   3.60000000E-02    1.00000000E+00 
P    1    1.000000
   7.50000000E-01    1.00000000E+00 

4    0
S    3    1.000000
   3.38650000E+01    2.54938000E-02 
   5.09479000E+00    1.90373000E-01 
   1.15879000E+00    8.52161000E-01 
S    1    1.000000
   3.25840000E-01    1.00000000E+00 
S    1    1.000000
   1.02741000E-01    1.00000000E+00 
S    1    1.000000
   3.60000000E-02    1.00000000E+00 
P    1    1.000000
   7.50000000E-01    1.00000000E+00 

5    0
S    6    1.000000
   4.56324000E+03    1.96665000E-03 
   6.82024000E+02    1.52306000E-02 
   1.54973000E+02    7.61269000E-02 
   4.44553000E+01    2.60801000E-01 
   1.30290000E+01    6.16462000E-01 
   1.82773000E+00    2.21006000E-01 
SP   3    1.000000
   2.09642000E+01    1.14660000E-01   4.02487000E-02 
   4.80331000E+00    9.19999000E-01   2.37594000E-01 
   1.45933000E+00   -3.03068000E-03   8.15854000E-01 
SP   1    1.000000
   4.83456000E-01    1.00000000E+00   1.00000000E+00 
SP   1    1.000000
   1.45585000E-01    1.00000000E+00   1.00000000E+00 
SP   1    1.000000
   4.38000000E-02    1.00000000E+00   1.00000000E+00 
D    1    1.000000
   6.26000000E-01    1.00000000E+00 

6    0
S    6    1.000000
   8.58850000E+03    1.89515000E-03 
   1.29723000E+03    1.43859000E-02 
   2.99296000E+02    7.07320000E-02 
   8.73771000E+01    2.40001000E-01 
   2.56789000E+01    5.94797000E-01 
   3.74004000E+00    2.80802000E-01 
SP   3    1.000000
   4.21175000E+01    1.13889000E-01   3.65114000E-02 
   9.62837000E+00    9.20811000E-01   2.37153000E-01 
   2.85332000E+00   -3.27447000E-03   8.19702000E-01 
SP   1    1.000000
   9.05661000E-01    1.00000000E+00   1.00000000E+00 
SP   1    1.000000
   2.55611000E-01    1.00000000E+00   1.00000000E+00 
SP   1    1.000000
   8.45000000E-02    1.00000000E+00   1.00000000E+00 
D    1    1.000000
   1.29200000E+00    1.00000000E+00 

7    0
S    6    1.000000
   4.56324000E+03    1.96665000E-03 
   6.82024000E+02    1.52306000E-02 
   1.54973000E+02    7.61269000E-02 
   4.44553000E+01    2.60801000E-01 
   1.30290000E+01    6.16462000E-01 
   1.82773000E+00    2.21006000E-01 
SP   3    1.000000
   2.09642000E+01    1.14660000E-01   4.02487000E-02 
   4.80331000E+00    9.19999000E-01   2.37594000E-01 
   1.45933000E+00   -3.03068000E-03   8.15854000E-01 
SP   1    1.000000
   4.83456000E-01    1.00000000E+00   1.00000000E+00 
SP   1    1.000000
   1.45585000E-01    1.00000000E+00   1.00000000E+00 
SP   1    1.000000
   4.38000000E-02    1.00000000E+00   1.00000000E+00 
D    1    1.000000
   6.26000000E-01    1.00000000E+00 

8    0
S    6    1.000000
   8.58850000E+03    1.89515000E-03 
   1.29723000E+03    1.43859000E-02 
   2.99296000E+02    7.07320000E-02 
   8.73771000E+01    2.40001000E-01 
   2.56789000E+01    5.94797000E-01 
   3.74004000E+00    2.80802000E-01 
SP   3    1.000000
   4.21175000E+01    1.13889000E-01   3.65114000E-02 
   9.62837000E+00    9.20811000E-01   2.37153000E-01 
   2.85332000E+00   -3.27447000E-03   8.19702000E-01 
SP   1    1.000000
   9.05661000E-01    1.00000000E+00   1.00000000E+00 
SP   1    1.000000
   2.55611000E-01    1.00000000E+00   1.00000000E+00 
SP   1    1.000000
   8.45000000E-02    1.00000000E+00   1.00000000E+00 
D    1    1.000000
   1.29200000E+00    1.00000000E+00 

9    0
S    6    1.000000
   6.29348000E+03    1.96979000E-03 
   9.49044000E+02    1.49613000E-02 
   2.18776000E+02    7.35006000E-02 
   6.36916000E+01    2.48937000E-01 
   1.88282000E+01    6.02460000E-01 
   2.72023000E+00    2.56202000E-01 
SP   3    1.000000
   3.06331000E+01    1.11906000E-01   3.83119000E-02 
   7.02614000E+00    9.21666000E-01   2.37403000E-01 
   2.11205000E+00   -2.56919000E-03   8.17592000E-01 
SP   1    1.000000
   6.84009000E-01    1.00000000E+00   1.00000000E+00 
SP   1    1.000000
   2.00878000E-01    1.00000000E+00   1.00000000E+00 
SP   1    1.000000
   6.39000000E-02    1.00000000E+00   1.00000000E+00 
D    1    1.000000
   9.13000000E-01    1.00000000E+00 

10    0
S    6    1.000000
   6.29348000E+03    1.96979000E-03 
   9.49044000E+02    1.49613000E-02 
   2.18776000E+02    7.35006000E-02 
   6.36916000E+01    2.48937000E-01 
   1.88282000E+01    6.02460000E-01 
   2.72023000E+00    2.56202000E-01 
SP   3    1.000000
   3.06331000E+01    1.11906000E-01   3.83119000E-02 
   7.02614000E+00    9.21666000E-01   2.37403000E-01 
   2.11205000E+00   -2.56919000E-03   8.17592000E-01 
SP   1    1.000000
   6.84009000E-01    1.00000000E+00   1.00000000E+00 
SP   1    1.000000
   2.00878000E-01    1.00000000E+00   1.00000000E+00 
SP   1    1.000000
   6.39000000E-02    1.00000000E+00   1.00000000E+00 
D    1    1.000000
   9.13000000E-01    1.00000000E+00 

11    0
S    6    1.000000
   4.56324000E+03    1.96665000E-03 
   6.82024000E+02    1.52306000E-02 
   1.54973000E+02    7.61269000E-02 
   4.44553000E+01    2.60801000E-01 
   1.30290000E+01    6.16462000E-01 
   1.82773000E+00    2.21006000E-01 
SP   3    1.000000
   2.09642000E+01    1.14660000E-01   4.02487000E-02 
   4.80331000E+00    9.19999000E-01   2.37594000E-01 
   1.45933000E+00   -3.03068000E-03   8.15854000E-01 
SP   1    1.000000
   4.83456000E-01    1.00000000E+00   1.00000000E+00 
SP   1    1.000000
   1.45585000E-01    1.00000000E+00   1.00000000E+00 
SP   1    1.000000
   4.38000000E-02    1.00000000E+00   1.00000000E+00 
D    1    1.000000
   6.26000000E-01    1.00000000E+00 

12    0
S    3    1.000000
   3.38650000E+01    2.54938000E-02 
   5.09479000E+00    1.90373000E-01 
   1.15879000E+00    8.52161000E-01 
S    1    1.000000
   3.25840000E-01    1.00000000E+00 
S    1    1.000000
   1.02741000E-01    1.00000000E+00 
S    1    1.000000
   3.60000000E-02    1.00000000E+00 
P    1    1.000000
   7.50000000E-01    1.00000000E+00 

[MO]
Sym=X
Ene= -0.495293
Spin=Alpha
Occup=1
     1    1.245671604258e-16
     2   -3.227211370942e-15
     3    2.429411410098e-14
     4   -1.201179303382e-14
     5   -1.223755707158e-02
     6    4.505846171345e-14
     7    5.253975967835e-14
     8   -2.919972152524e-14
     9   -1.762328377619e-02
    10   -8.933585882059e-13
    11    4.310668252099e-13
    12   -5.262210360089e-13
    13   -3.008837410841e-02
    14   -1.819136369196e-12
    15   -3.286538835368e-12
    16    8.959313265799e-13
    17    6.589954462055e-01
    18    1.009088411393e-14
    19   -4.151541799466e-03
    20   -5.960732958630e-03
    21   -1.328967572368e-14
    22   -9.919380056298e-16
    23    1.905804963844e-15
    24    1.114516623974e-15
    25    1.827089448906e-12
    26   -2.396141117262e-13
    27   -6.861758386976e-15
    28   -5.421723461934e-16
    29    1.052860937394e-03
    30   -8.616428330741e-15
    31   -8.655168385854e-14
    32   -2.064176954027e-13
    33   -1.042002037490e-13
    34    3.334135006467e-15
    35    3.997555798529e-15
    36    2.041443299774e-03
    37    5.105921140243e-15
    38    4.856663698793e-14
    39    1.763420455616e-13
    40   -2.067672623856e-14
    41    3.168534591657e-15
    42    5.417779258489e-15
    43    3.635752030966e-03
    44    2.018814281883e-15
    45    7.454422278349e-15
    46   -1.140806033737e-14
    47   -3.148451340561e-15
    48   -3.686204592312e-02
    49   -1.622214736328e-14
    50   -4.476623685366e-15
    51   -9.691759771512e-15
    52   -7.113718854583e-02
    53   -3.138626391700e-13
    54   -5.355802563841e-13
    55    3.139515097105e-13
    56   -7.123550893822e-02
    57   -2.158486207943e-12
    58   -1.500769019506e-12
    59   -7.486237814900e-13
    60    6.017879719758e-01
    61    9.768942232692e-15
    62   -7.614016788727e-03
    63    2.048938900488e-03
    64    1.420294739713e-14
    65   -1.909086439030e-14
    66    1.277896341464e-15
    67    2.708453179157e-15
    68    1.620656626599e-14
    69   -2.512658079105e-15
    70    6.731802329620e-03
    71   -1.332604102312e-14
    72    3.567660875969e-14
    73    3.137676872623e-15
    74    5.894040755840e-03
    75   -7.461412095797e-14
    76   -5.821494048911e-14
    77   -3.809068202787e-14
    78    3.463141285410e-02
    79   -9.760409583316e-13
    80   -5.846988336098e-13
    81    1.758055240928e-14
    82   -6.748465169154e-02
    83   -2.994340537862e-15
    84   -2.232112998157e-03
    85    1.378421292183e-03
    86    2.090406626808e-15
    87   -9.004777268367e-16
    88    7.050504826056e-15
    89    3.405717855940e-15
    90    1.846196287572e-14
    91   -1.696808058878e-14
    92   -3.623003823451e-02
    93   -1.129914471031e-14
    94    8.976610927335e-14
    95   -4.970346383424e-14
    96   -5.410202345568e-02
    97   -1.432202258748e-13
    98    4.563013718203e-13
    99    1.790201369733e-13
   100   -1.003974786331e-01
   101    2.316588968179e-11
   102   -1.504511789923e-12
   103   -4.813582971493e-12
   104    1.721457084650e+00
   105   -1.768447512284e-14
   106   -3.329766322301e-03
   107    2.293966616026e-03
   108    7.010879239715e-15
   109   -2.057476665486e-15
   110   -3.576819054045e-16
   111   -3.335458038552e-15
   112   -6.460813942956e-15
   113    2.001278142699e-14
   114   -4.748502208156e-02
   115    3.109757294545e-15
   116   -1.244959709981e-14
   117    1.365956912929e-14
   118   -7.179147355427e-02
   119   -4.087280639489e-14
   120    8.045926130119e-14
   121    1.226087123899e-13
   122   -2.937154955747e-02
   123   -5.113098602958e-13
   124   -2.196494439551e-13
   125    1.926690735628e-13
   126   -1.089764382431e-01
   127    5.535636477912e-16
   128    5.195302406877e-03
   129    3.845895101887e-03
   130   -2.481163753377e-15
   131   -2.040582623344e-15
   132   -2.013701095811e-15
   133   -3.178465878616e-15
   134    2.312146469621e-14
   135   -1.929271969930e-14
   136   -2.053949994799e-02
   137   -3.124449920490e-14
   138    3.822781078681e-14
   139   -6.699648979140e-15
   140   -4.870518478887e-02
   141    4.505962703671e-13
   142    1.459711116941e-13
   143   -3.878153633704e-13
   144    2.133977034357e-02
   145   -6.559568864500e-13
   146   -1.899602418302e-12
   147    9.301740571357e-13
   148   -5.845436816189e-01
   149    3.808917105997e-15
   150    3.927122185679e-03
   151    4.767855918069e-03
   152   -1.029475458002e-14
   153    2.837692714410e-15
   154    6.131579746474e-15
   155    1.331376005844e-14
   156    1.831262783683e-14
   157   -6.669368408008e-15
   158   -7.710249689262e-03
   159   -1.078300399782e-13
   160    1.724037263323e-14
   161   -1.355575331783e-14
   162   -2.544626657043e-02
   163    4.534419416230e-13
   164    3.879050292231e-13
   165   -2.540335081216e-14
   166    4.262723963494e-02
   167   -3.533898976989e-13
   168    3.408978316932e-12
   169    7.240882682947e-13
   170   -4.626969654288e-01
   171    1.526901225265e-15
   172   -1.180746222596e-03
   173   -3.289059912248e-03
   174    1.942328367331e-15
   175    7.291887298894e-15
   176   -5.181717010401e-15
   177   -1.528068356052e-15
   178    4.270722151257e-14
   179   -6.050625677475e-15
   180   -4.930134301902e-02
   181   -2.169407498516e-14
   182    3.949503594784e-14
   183   -9.578935081452e-15
   184   -6.751146054674e-02
   185    6.891292467509e-13
   186    1.630468458914e-13
   187    1.112548658244e-13
   188   -1.786164371992e-01
   189   -1.481350923407e-11
   190    1.681353258461e-12
   191   -8.417336510994e-12
   192   -7.782158975206e-01
   193   -8.429791974096e-15
   194    3.488992543288e-03
   195   -4.006563918349e-03
   196    6.296752615347e-15
   197    1.275316707118e-14
   198   -2.041913719561e-14
   199    2.730684003790e-14
   200   -1.007963480616e-12
   201   -2.403384142307e-12
   202   -1.655298962296e-14
   203    1.158354730462e-14
   204   -1.352783461564e-04
Sym=X
Ene= 0.495293
Spin=Alpha
Occup=0
     1   -4.304586221578e-15
     2   -6.441665083795e-15
     3   -2.307932883651e-14
     4   -3.046640635208e-16
     5   -5.995205563576e-02
     6   -1.417987963542e-14
     7   -2.131450052183e-14
     8    4.474952581820e-14
     9   -7.257047961625e-02
    10    9.227999227262e-13
    11   -4.879574790419e-13
    12    4.259869382324e-13
    13   -2.593984702344e-01
    14    1.797004614489e-12
    15    4.464622049024e-12
    16   -2.278043697040e-12
    17    1.277623219511e+00
    18   -6.873384071630e-15
    19    3.742896431565e-03
    20   -1.535441324573e-02
    21    2.666383438414e-14
    22    4.961467239119e-15
    23   -1.268747518796e-14
    24    2.531338285297e-14
    25   -1.739894674512e-12
    26    8.410972374764e-13
    27    1.018776621249e-14
    28    5.294659173729e-16
    29    1.638697545391e-03
    30    4.777411764529e-15
    31    1.176021122703e-13
    32   -1.984423672012e-13
    33   -5.262066311978e-13
    34   -6.894450613608e-15
    35   -1.002491222159e-15
    36    6.529706741397e-03
    37   -8.010940749649e-15
    38   -6.236997962549e-14
    39   -5.955904503718e-13
    40   -7.890417888244e-13
    41   -1.387135153685e-15
    42    5.997125448063e-15
    43   -8.387154415368e-03
    44   -6.229664651810e-15
    45   -6.616949476114e-15
    46    7.021820961466e-15
    47    6.127996508935e-15
    48    3.979206662946e-02
    49   -1.422174424351e-14
    50    3.264351508008e-14
    51   -2.032952176363e-14
    52    5.871210058540e-02
    53    9.050345187929e-13
    54    5.223682573151e-13
    55   -9.159903550752e-14
    56    1.651301617831e-01
    57    6.267753619487e-12
    58    1.889164471821e-12
    59    2.485619952695e-14
    60    8.029218645447e-01
    61    3.355158519600e-15
    62    9.073497508727e-03
    63   -3.578318928253e-03
    64   -1.394702429604e-14
    65    1.938771070973e-14
    66    9.927677794167e-16
    67    2.277938357901e-15
    68   -1.500256000947e-14
    69    8.285430291319e-15
    70   -3.574090251613e-02
    71   -1.318538688002e-15
    72   -1.892254093392e-14
    73    6.398321502494e-15
    74   -5.776876387800e-02
    75    4.046552186241e-14
    76    1.592473315369e-14
    77    5.183555791869e-14
    78   -5.338137970642e-02
    79    4.910245278078e-13
    80    5.702266658602e-13
    81    9.510595043412e-14
    82   -2.450462319306e-01
    83    2.202938281500e-15
    84    6.316593450774e-04
    85   -9.598911446371e-04
    86   -3.615439078327e-16
    87   -2.217516444056e-15
    88   -2.273050634949e-15
    89   -3.254015719445e-15
    90   -2.517881907769e-14
    91    1.006097461103e-14
    92    4.775780685956e-02
    93   -1.169290885313e-14
    94   -4.548007025239e-14
    95    3.836239662220e-14
    96    5.996588532564e-02
    97    2.553361087797e-13
    98   -6.863559141964e-13
    99   -6.421603247309e-13
   100    2.361926977132e-01
   101   -2.204629104073e-11
   102    4.148379065964e-13
   103    4.300546844597e-12
   104   -1.398076718822e+00
   105    8.487069257168e-15
   106    9.226936178842e-03
   107    2.247774940181e-03
   108   -8.973722087709e-15
   109   -5.609537437153e-15
   110    1.862799088669e-16
   111    2.601266742828e-15
   112    7.168405352829e-15
   113   -9.625656332140e-15
   114    2.697728176226e-02
   115   -1.272279677174e-15
   116    3.777999342823e-14
   117   -1.944294868365e-14
   118    4.319133147170e-02
   119    1.070397146335e-13
   120   -1.740837679534e-13
   121   -6.310963639822e-14
   122    2.951130535189e-03
   123    8.606920724002e-13
   124    3.845480121851e-13
   125   -4.176138897623e-13
   126    2.593898823740e-02
   127    1.423843994845e-15
   128   -5.821726897151e-03
   129   -5.059009712562e-03
   130    2.659280025976e-15
   131   -2.185735419747e-15
   132    3.814526336560e-15
   133    4.618141698907e-15
   134   -1.449106231182e-14
   135    2.216279789783e-14
   136   -1.290053872563e-02
   137    2.748140499329e-14
   138   -1.149798314501e-14
   139    9.764773783774e-15
   140   -1.983885524551e-02
   141   -4.734272165095e-13
   142   -4.337289091470e-14
   143    4.948799128054e-13
   144   -4.558981908258e-02
   145   -7.035266327859e-13
   146    3.072315576187e-12
   147   -3.488177306971e-14
   148   -1.603631883031e-01
   149   -1.111443448396e-15
   150   -4.796806020971e-03
   151   -6.851003448854e-03
   152    8.615307993687e-15
   153    5.313964088074e-16
   154   -2.253513921958e-15
   155   -2.942330534745e-15
   156   -8.572706191858e-15
   157    1.431634488437e-14
   158   -3.122684806983e-02
   159    9.857916383293e-14
   160    4.554407687824e-15
   161    1.697758123509e-14
   162   -5.884799411939e-02
   163   -6.294699242564e-13
   164   -3.588733835588e-13
   165    9.222312525482e-14
   166   -2.020930647282e-02
   167    1.482685383389e-12
   168   -2.536612821804e-12
   169   -1.169591757036e-12
   170   -5.003901105420e-01
   171    1.922359884330e-15
   172   -6.557270650273e-03
   173    6.201656831593e-03
   174   -5.582657910278e-15
   175   -9.092587498433e-15
   176   -2.148130083056e-15
   177   -4.432187271121e-15
   178   -3.709571436514e-14
   179    3.346752742841e-16
   180   -2.185962523791e-02
   181    7.730841195887e-14
   182   -3.459972638764e-14
   183   -5.875629504805e-16
   184   -3.131774206910e-02
   185   -1.104232662897e-12
   186   -2.251318939822e-13
   187   -3.669658218442e-13
   188   -8.458172795839e-02
   189    1.145660585094e-11
   190   -2.933338595223e-13
   191    8.961259417107e-12
   192    4.015731682170e-01
   193    2.496053947672e-14
   194    5.454724451268e-03
   195    1.838066223550e-04
   196   -1.048566551927e-14
   197    9.623285552768e-15
   198    2.082181514150e-14
   199    6.905544027038e-14
   200    1.150744108630e-12
   201    1.879097863412e-12
   202   -4.436775592343e-15
   203    1.581384439703e-14
   204    1.299757124740e-03
[5D]
