[Molden Format]
[Atoms] (Angs)
  C      1    6     -0.13173890     -1.79208980      0.00000000
  H      2    1     -2.14962000     -1.30978739      0.00000000
  H      3    1     -0.31599560     -2.86503115      0.00000000
  H      4    1      0.14407746      2.04280963     -0.00000000
  C      5    6     -1.17258876      0.48030861      0.00000000
  O      6    8     -2.25008207      1.06833796      0.00000000
  C      7    6      1.31158357      0.28308717     -0.00000000
  O      8    8      2.36361668      0.96389345     -0.00000000
  N      9    7      0.07017030      1.03138997     -0.00000000
  N     10    7     -1.19586868     -0.94982644      0.00000000
  C     11    6      1.19165158     -1.13169473     -0.00000000
  H     12    1      2.09970506     -1.73445456     -0.00000000
[GTO]
1    0
S    6    1.000000
   4.56324000E+03    1.96665000E-03 
   6.82024000E+02    1.52306000E-02 
   1.54973000E+02    7.61269000E-02 
   4.44553000E+01    2.60801000E-01 
   1.30290000E+01    6.16462000E-01 
   1.82773000E+00    2.21006000E-01 
SP   3    1.000000
   2.09642000E+01    1.14660000E-01   4.02487000E-02 
   4.80331000E+00    9.19999000E-01   2.37594000E-01 
   1.45933000E+00   -3.03068000E-03   8.15854000E-01 
SP   1    1.000000
   4.83456000E-01    1.00000000E+00   1.00000000E+00 
SP   1    1.000000
   1.45585000E-01    1.00000000E+00   1.00000000E+00 
SP   1    1.000000
   4.38000000E-02    1.00000000E+00   1.00000000E+00 
D    1    1.000000
   6.26000000E-01    1.00000000E+00 

2    0
S    3    1.000000
   3.38650000E+01    2.54938000E-02 
   5.09479000E+00    1.90373000E-01 
   1.15879000E+00    8.52161000E-01 
S    1    1.000000
   3.25840000E-01    1.00000000E+00 
S    1    1.000000
   1.02741000E-01    1.00000000E+00 
S    1    1.000000
   3.60000000E-02    1.00000000E+00 
P    1    1.000000
   7.50000000E-01    1.00000000E+00 

3    0
S    3    1.000000
   3.38650000E+01    2.54938000E-02 
   5.09479000E+00    1.90373000E-01 
   1.15879000E+00    8.52161000E-01 
S    1    1.000000
   3.25840000E-01    1.00000000E+00 
S    1    1.000000
   1.02741000E-01    1.00000000E+00 
S    1    1.000000
   3.60000000E-02    1.00000000E+00 
P    1    1.000000
   7.50000000E-01    1.00000000E+00 

4    0
S    3    1.000000
   3.38650000E+01    2.54938000E-02 
   5.09479000E+00    1.90373000E-01 
   1.15879000E+00    8.52161000E-01 
S    1    1.000000
   3.25840000E-01    1.00000000E+00 
S    1    1.000000
   1.02741000E-01    1.00000000E+00 
S    1    1.000000
   3.60000000E-02    1.00000000E+00 
P    1    1.000000
   7.50000000E-01    1.00000000E+00 

5    0
S    6    1.000000
   4.56324000E+03    1.96665000E-03 
   6.82024000E+02    1.52306000E-02 
   1.54973000E+02    7.61269000E-02 
   4.44553000E+01    2.60801000E-01 
   1.30290000E+01    6.16462000E-01 
   1.82773000E+00    2.21006000E-01 
SP   3    1.000000
   2.09642000E+01    1.14660000E-01   4.02487000E-02 
   4.80331000E+00    9.19999000E-01   2.37594000E-01 
   1.45933000E+00   -3.03068000E-03   8.15854000E-01 
SP   1    1.000000
   4.83456000E-01    1.00000000E+00   1.00000000E+00 
SP   1    1.000000
   1.45585000E-01    1.00000000E+00   1.00000000E+00 
SP   1    1.000000
   4.38000000E-02    1.00000000E+00   1.00000000E+00 
D    1    1.000000
   6.26000000E-01    1.00000000E+00 

6    0
S    6    1.000000
   8.58850000E+03    1.89515000E-03 
   1.29723000E+03    1.43859000E-02 
   2.99296000E+02    7.07320000E-02 
   8.73771000E+01    2.40001000E-01 
   2.56789000E+01    5.94797000E-01 
   3.74004000E+00    2.80802000E-01 
SP   3    1.000000
   4.21175000E+01    1.13889000E-01   3.65114000E-02 
   9.62837000E+00    9.20811000E-01   2.37153000E-01 
   2.85332000E+00   -3.27447000E-03   8.19702000E-01 
SP   1    1.000000
   9.05661000E-01    1.00000000E+00   1.00000000E+00 
SP   1    1.000000
   2.55611000E-01    1.00000000E+00   1.00000000E+00 
SP   1    1.000000
   8.45000000E-02    1.00000000E+00   1.00000000E+00 
D    1    1.000000
   1.29200000E+00    1.00000000E+00 

7    0
S    6    1.000000
   4.56324000E+03    1.96665000E-03 
   6.82024000E+02    1.52306000E-02 
   1.54973000E+02    7.61269000E-02 
   4.44553000E+01    2.60801000E-01 
   1.30290000E+01    6.16462000E-01 
   1.82773000E+00    2.21006000E-01 
SP   3    1.000000
   2.09642000E+01    1.14660000E-01   4.02487000E-02 
   4.80331000E+00    9.19999000E-01   2.37594000E-01 
   1.45933000E+00   -3.03068000E-03   8.15854000E-01 
SP   1    1.000000
   4.83456000E-01    1.00000000E+00   1.00000000E+00 
SP   1    1.000000
   1.45585000E-01    1.00000000E+00   1.00000000E+00 
SP   1    1.000000
   4.38000000E-02    1.00000000E+00   1.00000000E+00 
D    1    1.000000
   6.26000000E-01    1.00000000E+00 

8    0
S    6    1.000000
   8.58850000E+03    1.89515000E-03 
   1.29723000E+03    1.43859000E-02 
   2.99296000E+02    7.07320000E-02 
   8.73771000E+01    2.40001000E-01 
   2.56789000E+01    5.94797000E-01 
   3.74004000E+00    2.80802000E-01 
SP   3    1.000000
   4.21175000E+01    1.13889000E-01   3.65114000E-02 
   9.62837000E+00    9.20811000E-01   2.37153000E-01 
   2.85332000E+00   -3.27447000E-03   8.19702000E-01 
SP   1    1.000000
   9.05661000E-01    1.00000000E+00   1.00000000E+00 
SP   1    1.000000
   2.55611000E-01    1.00000000E+00   1.00000000E+00 
SP   1    1.000000
   8.45000000E-02    1.00000000E+00   1.00000000E+00 
D    1    1.000000
   1.29200000E+00    1.00000000E+00 

9    0
S    6    1.000000
   6.29348000E+03    1.96979000E-03 
   9.49044000E+02    1.49613000E-02 
   2.18776000E+02    7.35006000E-02 
   6.36916000E+01    2.48937000E-01 
   1.88282000E+01    6.02460000E-01 
   2.72023000E+00    2.56202000E-01 
SP   3    1.000000
   3.06331000E+01    1.11906000E-01   3.83119000E-02 
   7.02614000E+00    9.21666000E-01   2.37403000E-01 
   2.11205000E+00   -2.56919000E-03   8.17592000E-01 
SP   1    1.000000
   6.84009000E-01    1.00000000E+00   1.00000000E+00 
SP   1    1.000000
   2.00878000E-01    1.00000000E+00   1.00000000E+00 
SP   1    1.000000
   6.39000000E-02    1.00000000E+00   1.00000000E+00 
D    1    1.000000
   9.13000000E-01    1.00000000E+00 

10    0
S    6    1.000000
   6.29348000E+03    1.96979000E-03 
   9.49044000E+02    1.49613000E-02 
   2.18776000E+02    7.35006000E-02 
   6.36916000E+01    2.48937000E-01 
   1.88282000E+01    6.02460000E-01 
   2.72023000E+00    2.56202000E-01 
SP   3    1.000000
   3.06331000E+01    1.11906000E-01   3.83119000E-02 
   7.02614000E+00    9.21666000E-01   2.37403000E-01 
   2.11205000E+00   -2.56919000E-03   8.17592000E-01 
SP   1    1.000000
   6.84009000E-01    1.00000000E+00   1.00000000E+00 
SP   1    1.000000
   2.00878000E-01    1.00000000E+00   1.00000000E+00 
SP   1    1.000000
   6.39000000E-02    1.00000000E+00   1.00000000E+00 
D    1    1.000000
   9.13000000E-01    1.00000000E+00 

11    0
S    6    1.000000
   4.56324000E+03    1.96665000E-03 
   6.82024000E+02    1.52306000E-02 
   1.54973000E+02    7.61269000E-02 
   4.44553000E+01    2.60801000E-01 
   1.30290000E+01    6.16462000E-01 
   1.82773000E+00    2.21006000E-01 
SP   3    1.000000
   2.09642000E+01    1.14660000E-01   4.02487000E-02 
   4.80331000E+00    9.19999000E-01   2.37594000E-01 
   1.45933000E+00   -3.03068000E-03   8.15854000E-01 
SP   1    1.000000
   4.83456000E-01    1.00000000E+00   1.00000000E+00 
SP   1    1.000000
   1.45585000E-01    1.00000000E+00   1.00000000E+00 
SP   1    1.000000
   4.38000000E-02    1.00000000E+00   1.00000000E+00 
D    1    1.000000
   6.26000000E-01    1.00000000E+00 

12    0
S    3    1.000000
   3.38650000E+01    2.54938000E-02 
   5.09479000E+00    1.90373000E-01 
   1.15879000E+00    8.52161000E-01 
S    1    1.000000
   3.25840000E-01    1.00000000E+00 
S    1    1.000000
   1.02741000E-01    1.00000000E+00 
S    1    1.000000
   3.60000000E-02    1.00000000E+00 
P    1    1.000000
   7.50000000E-01    1.00000000E+00 

[MO]
Sym=X
Ene= -0.494331
Spin=Alpha
Occup=1
     1    5.627165998109e-03
     2    9.507880348770e-03
     3   -1.780608195131e-03
     4    9.709380395742e-03
     5    4.980332895795e-14
     6   -1.785610450408e-02
     7   -9.537591902914e-03
     8    1.038121717818e-02
     9    8.630134976936e-14
    10   -2.998587020704e-01
    11    8.473273247818e-02
    12   -1.294322339618e-01
    13    1.758855339771e-13
    14   -6.972522273951e+00
    15    9.833700503694e-02
    16   -1.858677429600e+00
    17    9.609995343014e-13
    18   -1.220479025681e-02
    19   -1.154331691189e-15
    20   -6.999875076218e-15
    21   -3.736237497584e-03
    22    4.758272230354e-03
    23    6.326272043615e-03
    24    6.774429025524e-02
    25   -2.980455944697e-01
    26   -7.190820848241e-01
    27    8.834370355597e-03
    28    3.183334618636e-03
    29   -1.222547682922e-15
    30    1.148281278492e-02
    31    1.551503884169e-02
    32    6.639611773741e-02
    33    2.657693357299e-01
    34    1.215239160433e-03
    35   -6.756424296120e-03
    36    5.909498142989e-15
    37    2.332906973710e-02
    38    1.303926281226e-01
    39    3.840923006878e-01
    40    1.893784731836e+00
    41   -1.131147017374e-03
    42    3.843334680140e-03
    43    1.055617242290e-14
    44    1.967753511670e-03
    45    2.715721295651e-03
    46   -1.739944105562e-03
    47   -2.508535844731e-03
    48    7.748628405204e-15
    49    1.264419349892e-02
    50   -1.625509615542e-03
    51   -5.735750738614e-04
    52    5.824424938528e-15
    53   -3.004113308161e-01
    54   -1.922449404903e-01
    55    7.566270398923e-02
    56   -9.605940702276e-14
    57    5.753183627738e-02
    58   -2.234162396417e-01
    59   -8.880761083976e-01
    60   -3.774823544519e-13
    61   -1.326941979962e-02
    62   -1.008398194085e-14
    63    1.864062897933e-14
    64    1.006634807216e-02
    65   -3.281540996098e-03
    66   -4.062672517677e-03
    67   -7.085223423603e-03
    68    4.787843415002e-03
    69   -1.578038072695e-02
    70    1.482588479693e-14
    71    2.611961692737e-02
    72    4.386072648104e-03
    73   -2.019174411855e-02
    74   -2.659186469151e-15
    75   -2.585990993788e-02
    76    7.642804388709e-03
    77   -3.563854955903e-02
    78    1.594754284222e-14
    79    1.416233415028e-01
    80    4.585140839701e-03
    81    7.410211528207e-02
    82    8.040662961718e-14
    83   -1.276756053974e-03
    84    7.662297610472e-15
    85    7.272414758549e-15
    86   -1.092788153940e-03
    87   -6.044516341358e-04
    88    1.132414481067e-04
    89   -7.924245982746e-04
    90   -3.155672806571e-02
    91   -2.507636691936e-02
    92   -5.266385468724e-14
    93    4.811621580542e-02
    94   -5.874023601096e-02
    95   -3.838451966759e-02
    96   -9.658136309694e-14
    97   -6.075335705989e-01
    98   -1.280601879053e-01
    99   -2.054170469453e-01
   100   -1.188715048850e-13
   101   -1.167608324605e+01
   102    1.459808728121e+00
   103    1.806827994612e+00
   104   -5.173356926444e-14
   105   -2.305995741489e-02
   106    1.128913698965e-14
   107    1.952801548247e-14
   108    1.508965391020e-02
   109    2.267229456935e-02
   110   -1.175168032364e-02
   111   -2.035125410664e-02
   112   -3.758394295260e-02
   113   -4.248816036581e-02
   114    3.795036772285e-14
   115    6.871273604871e-02
   116   -4.696869885846e-02
   117   -5.888635255169e-02
   118    7.342323361740e-14
   119    1.863572028504e-01
   120   -1.185046584382e-01
   121   -7.497925280850e-02
   122    6.138838367065e-14
   123    9.632027876045e-01
   124   -2.009340204699e-01
   125   -1.949493484003e-01
   126    2.295949069819e-14
   127   -3.243394072258e-03
   128    1.280446202599e-15
   129    4.240979963814e-15
   130   -1.633510402370e-03
   131   -3.940839505150e-04
   132    1.631693766360e-03
   133    2.733018370080e-03
   134   -8.948957668748e-03
   135   -3.722371452554e-02
   136   -1.715156151951e-16
   137   -4.656219298108e-03
   138   -1.394081399170e-02
   139   -5.701939108356e-02
   140   -1.656116855077e-14
   141    9.351574022972e-03
   142   -9.555711621802e-03
   143   -2.377979781413e-01
   144   -2.966639784901e-14
   145    2.232909546525e+00
   146    7.091500060292e-02
   147   -6.675977491729e-01
   148    6.719658976810e-13
   149   -9.724260233583e-03
   150   -8.599324643193e-15
   151    6.258868584582e-15
   152   -9.558971510801e-03
   153   -3.751415497990e-03
   154   -7.357345070411e-03
   155   -1.244698753035e-02
   156   -7.744108668840e-03
   157   -1.040921706065e-02
   158   -4.419637408084e-14
   159    3.315214484943e-02
   160   -1.689162346749e-02
   161   -1.924278501013e-02
   162   -8.003887730733e-14
   163    2.205382397221e-01
   164    1.128989480194e-01
   165    2.214254047805e-02
   166   -4.539770932563e-14
   167    1.763675012287e+00
   168   -1.582014319705e-01
   169   -5.590758875539e-01
   170   -3.291077843155e-13
   171   -6.577030029631e-03
   172    4.442528327460e-15
   173   -3.792436512553e-15
   174   -5.746941775363e-04
   175    1.810044194793e-05
   176   -3.948123528604e-04
   177   -9.760025732102e-04
   178   -2.925883354725e-02
   179    1.886892935683e-02
   180   -2.509791971391e-14
   181    4.809314288227e-03
   182   -4.182033230621e-02
   183    3.333107425704e-02
   184   -5.123755350301e-14
   185    2.152851930084e-02
   186   -2.087160175726e-01
   187    1.362419721582e-01
   188   -1.426416662600e-13
   189    1.002771579899e+01
   190   -2.867754709411e+00
   191    2.768149077745e+00
   192   -5.518907856558e-13
   193   -1.664116237186e-02
   194   -8.455873066705e-15
   195   -9.887946165403e-15
   196   -4.894478490216e-03
   197   -1.710200135582e-02
   198    1.648299598322e-02
   199    4.346153704747e-02
   200    6.048928156303e-01
   201    2.944089838348e+00
   202    3.940607569277e-03
   203   -8.373840980027e-03
   204    5.523972435363e-16
Sym=X
Ene= 0.494331
Spin=Alpha
Occup=0
     1    3.865409635022e-03
     2    7.508121036147e-03
     3   -1.233055842518e-02
     4   -1.975949583126e-02
     5    7.836058180749e-14
     6   -4.591114426288e-02
     7   -2.011601836152e-02
     8   -2.549681299647e-02
     9    1.377416752004e-13
    10    3.494570462036e-01
    11    6.402123125583e-02
    12    2.185953615990e-01
    13    1.896723895347e-13
    14    8.240247943538e+00
    15    1.242384702277e+00
    16    1.704061326374e+00
    17   -1.627700130152e-13
    18    5.726135636162e-03
    19   -2.395524843268e-14
    20   -4.889856134966e-15
    21    7.782791686760e-03
    22   -6.766127341152e-03
    23   -8.933889261252e-03
    24   -6.945684500805e-02
    25   -4.109854964340e-01
    26   -1.670786600947e+00
    27    2.819890339213e-03
    28    4.873261494723e-03
    29   -9.419026428327e-15
    30   -9.341390806530e-03
    31    2.701804276477e-02
    32   -8.793193509352e-02
    33   -9.947800749186e-02
    34    6.654620683750e-03
    35    5.304442576365e-03
    36    1.585230011468e-14
    37    3.010033683505e-03
    38   -4.230329509261e-02
    39    7.091487771388e-03
    40    5.066547367928e-01
    41   -5.909432366234e-03
    42    9.878199335685e-03
    43    2.757277175226e-15
    44    5.169893781728e-03
    45    1.011640956235e-02
    46   -9.928798103382e-03
    47    5.284650456095e-03
    48   -2.162695574328e-14
    49   -6.459027692967e-02
    50   -1.802443319470e-02
    51    1.247529976291e-02
    52    8.158612257198e-15
    53    3.903203619946e-01
    54    1.471328703352e-01
    55   -1.238628478121e-01
    56   -1.896347781149e-13
    57   -1.519837181038e+00
    58   -1.334377299041e+00
    59   -1.785315036460e-01
    60   -3.032236269775e-13
    61    7.008913138041e-03
    62   -3.205801960337e-14
    63    2.255034689081e-14
    64    1.188390593744e-03
    65    8.234933211123e-03
    66    4.433009953005e-03
    67    7.750392614725e-03
    68   -1.300267577588e-02
    69   -1.088262288549e-02
    70    9.616862363066e-16
    71   -2.863325073967e-02
    72   -1.485455611321e-02
    73   -1.832517530313e-02
    74    5.108619994015e-14
    75    1.109778061034e-02
    76   -4.662656804920e-02
    77   -3.517723194692e-03
    78   -7.870938902232e-15
    79   -3.083983502631e-01
    80    9.815281041119e-02
    81   -3.154011003969e-02
    82    1.153902723046e-13
    83    1.400579865226e-03
    84    1.400933421564e-15
    85   -3.087374308574e-15
    86   -1.286401419285e-03
    87    4.529285015765e-04
    88   -2.657391362233e-03
    89   -4.130919539295e-03
    90   -2.737351638929e-02
    91   -6.053571034837e-03
    92   -5.171817834035e-14
    93   -5.774543515374e-03
    94   -4.487384833410e-02
    95   -1.413724879861e-02
    96   -6.265082472611e-14
    97    3.059927994470e-01
    98   -5.506861885440e-01
    99   -2.665138591940e-01
   100   -1.951958279385e-13
   101    1.495252630211e+01
   102   -4.270811161765e+00
   103   -3.875740348816e+00
   104   -5.476842904167e-13
   105    1.579628314548e-02
   106   -4.096437387918e-14
   107    1.109738091152e-14
   108    3.471532962763e-03
   109    7.301923792516e-03
   110   -1.272690105046e-02
   111   -2.189818161102e-02
   112    2.086932397763e-02
   113    3.001183632800e-03
   114    3.857645982110e-14
   115    7.450235123695e-02
   116    3.072730580748e-02
   117    7.928010990664e-03
   118    2.362653229329e-14
   119    2.213373202159e-01
   120   -5.073603094144e-02
   121   -6.084558115879e-02
   122    1.701516599486e-13
   123    9.760531089470e-01
   124    1.629479536496e-02
   125    7.108030415837e-02
   126    7.612939318827e-14
   127    2.792732211747e-03
   128   -5.888072415930e-16
   129    1.699859269158e-15
   130    5.108551664994e-04
   131   -2.615906524970e-04
   132    9.764818129797e-03
   133    1.673652030383e-02
   134   -1.457209698555e-02
   135    9.144540232124e-04
   136    2.324517911332e-14
   137   -4.962986943521e-02
   138   -1.806075106245e-02
   139   -2.847222373178e-03
   140    8.491209544325e-14
   141   -2.728653931513e-01
   142   -5.208585440090e-02
   143    1.868609036462e-01
   144    2.460703446807e-14
   145   -2.421023236022e+00
   146   -4.986910372618e-01
   147    5.948179005333e-01
   148    4.666111179857e-13
   149    6.419092040050e-03
   150    1.510438059396e-14
   151    5.295116781711e-15
   152   -4.880171538262e-03
   153   -7.606095062506e-03
   154   -5.359423263080e-03
   155   -9.287285705943e-03
   156   -2.236953770792e-02
   157   -1.921517137172e-02
   158   -3.121248289896e-14
   159    3.073136842440e-02
   160   -3.290994385036e-02
   161   -2.945157074525e-02
   162   -6.457791308364e-14
   163   -2.189288905038e-02
   164   -1.712683408212e-01
   165   -1.088935000026e-01
   166   -1.234540924857e-13
   167   -1.054057652363e+00
   168   -7.464129254658e-01
   169   -2.632685040437e-01
   170    2.568922935874e-13
   171    6.699275870245e-03
   172    4.428128335386e-15
   173   -2.269792692082e-14
   174   -9.234207792138e-04
   175   -2.180542307099e-03
   176    9.804104956426e-03
   177    1.678438593536e-02
   178   -5.492980763587e-03
   179   -2.798671708456e-04
   180   -5.012220138884e-14
   181   -4.139195358236e-02
   182   -4.546478023405e-03
   183    3.641920200096e-03
   184   -6.472466955480e-14
   185   -5.712564470452e-01
   186    2.581716149381e-01
   187   -2.381633223575e-01
   188   -1.134681293169e-13
   189   -1.805576173244e+01
   190    2.842026921742e+00
   191   -2.710309537442e+00
   192    4.226685770066e-13
   193    1.220806669358e-02
   194   -1.068172265685e-14
   195   -1.240281153219e-14
   196   -9.546731510498e-03
   197   -7.585012047747e-03
   198    5.940387553684e-04
   199   -2.403251601879e-02
   200   -2.061289264014e-01
   201    8.529182070068e-02
   202    9.050307784129e-04
   203   -8.212567201760e-03
   204   -2.305351636827e-15
[5D]
