[Molden Format]
[Atoms] (Angs)
  C      1    6     -0.13173890     -1.79208980      0.00000000
  H      2    1     -2.14962000     -1.30978739      0.00000000
  H      3    1     -0.31599560     -2.86503115      0.00000000
  H      4    1      0.14407746      2.04280963     -0.00000000
  C      5    6     -1.17258876      0.48030861      0.00000000
  O      6    8     -2.25008207      1.06833796      0.00000000
  C      7    6      1.31158357      0.28308717     -0.00000000
  O      8    8      2.36361668      0.96389345     -0.00000000
  N      9    7      0.07017030      1.03138997     -0.00000000
  N     10    7     -1.19586868     -0.94982644      0.00000000
  C     11    6      1.19165158     -1.13169473     -0.00000000
  H     12    1      2.09970506     -1.73445456     -0.00000000
[GTO]
1    0
S    6    1.000000
   4.56324000E+03    1.96665000E-03 
   6.82024000E+02    1.52306000E-02 
   1.54973000E+02    7.61269000E-02 
   4.44553000E+01    2.60801000E-01 
   1.30290000E+01    6.16462000E-01 
   1.82773000E+00    2.21006000E-01 
SP   3    1.000000
   2.09642000E+01    1.14660000E-01   4.02487000E-02 
   4.80331000E+00    9.19999000E-01   2.37594000E-01 
   1.45933000E+00   -3.03068000E-03   8.15854000E-01 
SP   1    1.000000
   4.83456000E-01    1.00000000E+00   1.00000000E+00 
SP   1    1.000000
   1.45585000E-01    1.00000000E+00   1.00000000E+00 
SP   1    1.000000
   4.38000000E-02    1.00000000E+00   1.00000000E+00 
D    1    1.000000
   6.26000000E-01    1.00000000E+00 

2    0
S    3    1.000000
   3.38650000E+01    2.54938000E-02 
   5.09479000E+00    1.90373000E-01 
   1.15879000E+00    8.52161000E-01 
S    1    1.000000
   3.25840000E-01    1.00000000E+00 
S    1    1.000000
   1.02741000E-01    1.00000000E+00 
S    1    1.000000
   3.60000000E-02    1.00000000E+00 
P    1    1.000000
   7.50000000E-01    1.00000000E+00 

3    0
S    3    1.000000
   3.38650000E+01    2.54938000E-02 
   5.09479000E+00    1.90373000E-01 
   1.15879000E+00    8.52161000E-01 
S    1    1.000000
   3.25840000E-01    1.00000000E+00 
S    1    1.000000
   1.02741000E-01    1.00000000E+00 
S    1    1.000000
   3.60000000E-02    1.00000000E+00 
P    1    1.000000
   7.50000000E-01    1.00000000E+00 

4    0
S    3    1.000000
   3.38650000E+01    2.54938000E-02 
   5.09479000E+00    1.90373000E-01 
   1.15879000E+00    8.52161000E-01 
S    1    1.000000
   3.25840000E-01    1.00000000E+00 
S    1    1.000000
   1.02741000E-01    1.00000000E+00 
S    1    1.000000
   3.60000000E-02    1.00000000E+00 
P    1    1.000000
   7.50000000E-01    1.00000000E+00 

5    0
S    6    1.000000
   4.56324000E+03    1.96665000E-03 
   6.82024000E+02    1.52306000E-02 
   1.54973000E+02    7.61269000E-02 
   4.44553000E+01    2.60801000E-01 
   1.30290000E+01    6.16462000E-01 
   1.82773000E+00    2.21006000E-01 
SP   3    1.000000
   2.09642000E+01    1.14660000E-01   4.02487000E-02 
   4.80331000E+00    9.19999000E-01   2.37594000E-01 
   1.45933000E+00   -3.03068000E-03   8.15854000E-01 
SP   1    1.000000
   4.83456000E-01    1.00000000E+00   1.00000000E+00 
SP   1    1.000000
   1.45585000E-01    1.00000000E+00   1.00000000E+00 
SP   1    1.000000
   4.38000000E-02    1.00000000E+00   1.00000000E+00 
D    1    1.000000
   6.26000000E-01    1.00000000E+00 

6    0
S    6    1.000000
   8.58850000E+03    1.89515000E-03 
   1.29723000E+03    1.43859000E-02 
   2.99296000E+02    7.07320000E-02 
   8.73771000E+01    2.40001000E-01 
   2.56789000E+01    5.94797000E-01 
   3.74004000E+00    2.80802000E-01 
SP   3    1.000000
   4.21175000E+01    1.13889000E-01   3.65114000E-02 
   9.62837000E+00    9.20811000E-01   2.37153000E-01 
   2.85332000E+00   -3.27447000E-03   8.19702000E-01 
SP   1    1.000000
   9.05661000E-01    1.00000000E+00   1.00000000E+00 
SP   1    1.000000
   2.55611000E-01    1.00000000E+00   1.00000000E+00 
SP   1    1.000000
   8.45000000E-02    1.00000000E+00   1.00000000E+00 
D    1    1.000000
   1.29200000E+00    1.00000000E+00 

7    0
S    6    1.000000
   4.56324000E+03    1.96665000E-03 
   6.82024000E+02    1.52306000E-02 
   1.54973000E+02    7.61269000E-02 
   4.44553000E+01    2.60801000E-01 
   1.30290000E+01    6.16462000E-01 
   1.82773000E+00    2.21006000E-01 
SP   3    1.000000
   2.09642000E+01    1.14660000E-01   4.02487000E-02 
   4.80331000E+00    9.19999000E-01   2.37594000E-01 
   1.45933000E+00   -3.03068000E-03   8.15854000E-01 
SP   1    1.000000
   4.83456000E-01    1.00000000E+00   1.00000000E+00 
SP   1    1.000000
   1.45585000E-01    1.00000000E+00   1.00000000E+00 
SP   1    1.000000
   4.38000000E-02    1.00000000E+00   1.00000000E+00 
D    1    1.000000
   6.26000000E-01    1.00000000E+00 

8    0
S    6    1.000000
   8.58850000E+03    1.89515000E-03 
   1.29723000E+03    1.43859000E-02 
   2.99296000E+02    7.07320000E-02 
   8.73771000E+01    2.40001000E-01 
   2.56789000E+01    5.94797000E-01 
   3.74004000E+00    2.80802000E-01 
SP   3    1.000000
   4.21175000E+01    1.13889000E-01   3.65114000E-02 
   9.62837000E+00    9.20811000E-01   2.37153000E-01 
   2.85332000E+00   -3.27447000E-03   8.19702000E-01 
SP   1    1.000000
   9.05661000E-01    1.00000000E+00   1.00000000E+00 
SP   1    1.000000
   2.55611000E-01    1.00000000E+00   1.00000000E+00 
SP   1    1.000000
   8.45000000E-02    1.00000000E+00   1.00000000E+00 
D    1    1.000000
   1.29200000E+00    1.00000000E+00 

9    0
S    6    1.000000
   6.29348000E+03    1.96979000E-03 
   9.49044000E+02    1.49613000E-02 
   2.18776000E+02    7.35006000E-02 
   6.36916000E+01    2.48937000E-01 
   1.88282000E+01    6.02460000E-01 
   2.72023000E+00    2.56202000E-01 
SP   3    1.000000
   3.06331000E+01    1.11906000E-01   3.83119000E-02 
   7.02614000E+00    9.21666000E-01   2.37403000E-01 
   2.11205000E+00   -2.56919000E-03   8.17592000E-01 
SP   1    1.000000
   6.84009000E-01    1.00000000E+00   1.00000000E+00 
SP   1    1.000000
   2.00878000E-01    1.00000000E+00   1.00000000E+00 
SP   1    1.000000
   6.39000000E-02    1.00000000E+00   1.00000000E+00 
D    1    1.000000
   9.13000000E-01    1.00000000E+00 

10    0
S    6    1.000000
   6.29348000E+03    1.96979000E-03 
   9.49044000E+02    1.49613000E-02 
   2.18776000E+02    7.35006000E-02 
   6.36916000E+01    2.48937000E-01 
   1.88282000E+01    6.02460000E-01 
   2.72023000E+00    2.56202000E-01 
SP   3    1.000000
   3.06331000E+01    1.11906000E-01   3.83119000E-02 
   7.02614000E+00    9.21666000E-01   2.37403000E-01 
   2.11205000E+00   -2.56919000E-03   8.17592000E-01 
SP   1    1.000000
   6.84009000E-01    1.00000000E+00   1.00000000E+00 
SP   1    1.000000
   2.00878000E-01    1.00000000E+00   1.00000000E+00 
SP   1    1.000000
   6.39000000E-02    1.00000000E+00   1.00000000E+00 
D    1    1.000000
   9.13000000E-01    1.00000000E+00 

11    0
S    6    1.000000
   4.56324000E+03    1.96665000E-03 
   6.82024000E+02    1.52306000E-02 
   1.54973000E+02    7.61269000E-02 
   4.44553000E+01    2.60801000E-01 
   1.30290000E+01    6.16462000E-01 
   1.82773000E+00    2.21006000E-01 
SP   3    1.000000
   2.09642000E+01    1.14660000E-01   4.02487000E-02 
   4.80331000E+00    9.19999000E-01   2.37594000E-01 
   1.45933000E+00   -3.03068000E-03   8.15854000E-01 
SP   1    1.000000
   4.83456000E-01    1.00000000E+00   1.00000000E+00 
SP   1    1.000000
   1.45585000E-01    1.00000000E+00   1.00000000E+00 
SP   1    1.000000
   4.38000000E-02    1.00000000E+00   1.00000000E+00 
D    1    1.000000
   6.26000000E-01    1.00000000E+00 

12    0
S    3    1.000000
   3.38650000E+01    2.54938000E-02 
   5.09479000E+00    1.90373000E-01 
   1.15879000E+00    8.52161000E-01 
S    1    1.000000
   3.25840000E-01    1.00000000E+00 
S    1    1.000000
   1.02741000E-01    1.00000000E+00 
S    1    1.000000
   3.60000000E-02    1.00000000E+00 
P    1    1.000000
   7.50000000E-01    1.00000000E+00 

[MO]
Sym=X
Ene= -0.494868
Spin=Alpha
Occup=1
     1    1.415250254495e-02
     2    2.457535549995e-02
     3   -1.579762877532e-02
     4    1.915280384826e-02
     5   -9.651638138940e-14
     6   -7.290464344390e-02
     7   -2.053627760741e-02
     8    2.613630277842e-02
     9   -1.634836022593e-13
    10   -2.522144118078e-01
    11   -7.739179734651e-02
    12    1.269488792147e-01
    13   -2.984441008582e-13
    14    3.668129952977e+00
    15    3.807636373307e-01
    16    2.810796669056e+00
    17    4.619892698831e-15
    18   -1.289602323474e-03
    19   -4.289066883964e-15
    20    1.273637061292e-14
    21   -3.707761631880e-03
    22    4.697667632063e-03
    23    4.044110435337e-03
    24    1.246858883508e-02
    25    3.512999606902e-01
    26    4.881634233981e-01
    27   -6.962711106124e-03
    28   -7.001554291416e-03
    29    2.385933427599e-15
    30    1.587871808204e-03
    31    6.953884810236e-03
    32    3.512451967326e-01
    33    2.683553916545e+00
    34   -5.712852307242e-03
    35   -6.143094137899e-03
    36   -1.197948602453e-14
    37    1.667316156351e-02
    38    3.663811943317e-02
    39    5.372497113129e-01
    40    1.062444050126e+00
    41    1.458958663328e-03
    42    1.120061216150e-02
    43   -1.694810895362e-15
    44   -1.046544368235e-03
    45   -1.590157055893e-03
    46    4.959378584165e-04
    47   -7.808923135271e-03
    48    5.351547190102e-14
    49   -6.703470628568e-03
    50   -2.044518832416e-03
    51   -6.954128156304e-03
    52    1.062069094489e-13
    53    1.016075940388e-01
    54    6.111081286273e-02
    55   -5.814755990722e-02
    56    1.047884476725e-13
    57   -1.829101326466e+00
    58   -5.013869099377e-01
    59    1.612462693304e-01
    60   -5.260324857546e-13
    61    3.236209801513e-03
    62   -3.090319675472e-14
    63   -4.708519312489e-15
    64    6.611839562248e-03
    65   -1.331153378910e-02
    66    3.688041587328e-03
    67    6.344382005049e-03
    68    8.192133548656e-03
    69   -5.449627641717e-03
    70   -4.087603377341e-14
    71   -1.875410967004e-02
    72    9.753166157071e-03
    73   -7.491376250579e-03
    74   -3.481537542119e-14
    75   -5.577542125189e-02
    76    4.409063862916e-03
    77   -1.889075820897e-03
    78   -1.266526533608e-13
    79    3.170468792748e-01
    80    1.721066632643e-01
    81   -1.131381821732e-01
    82    5.854468598023e-14
    83    1.060400608852e-03
    84    6.853773147459e-15
    85   -1.447504145224e-15
    86   -1.178643862339e-03
    87    1.219001462592e-03
    88    7.117370073153e-03
    89    1.267348153178e-02
    90   -2.089621243908e-02
    91    9.248376439125e-04
    92    2.718768702633e-14
    93   -3.293512794436e-02
    94   -3.817568411526e-02
    95   -4.662962364728e-03
    96    4.686805143158e-14
    97   -1.945371043275e-01
    98   -2.124957088995e-01
    99   -1.215046825189e-01
   100    4.248765433435e-14
   101    5.308212303079e+00
   102   -2.014939224056e+00
   103   -7.599300851262e-01
   104    4.675788256368e-13
   105   -7.641626692478e-03
   106   -3.324589578016e-14
   107   -1.816246824062e-14
   108    1.161536376604e-02
   109    1.074095816190e-02
   110   -1.431839012746e-02
   111   -2.481861750157e-02
   112    1.280615683878e-02
   113   -5.199426626315e-02
   114   -2.821837653214e-14
   115    8.436786796514e-02
   116    1.929631587822e-02
   117   -7.090200975612e-02
   118   -6.685719562684e-14
   119    1.975923914363e-01
   120   -4.215945822403e-02
   121   -9.105270970894e-02
   122    2.887217869526e-14
   123    5.532553787359e-01
   124   -6.467886094313e-03
   125   -9.410961019909e-04
   126   -2.970241869838e-13
   127   -6.434825810847e-04
   128   -6.807973131588e-16
   129   -6.853345783593e-16
   130   -2.268414306666e-03
   131    5.136353496604e-04
   132    1.145901700164e-02
   133    1.981352947676e-02
   134    1.038214054327e-02
   135   -2.700521018952e-02
   136   -6.116002666481e-14
   137   -6.114595484022e-02
   138    1.504059411200e-02
   139   -4.211562061357e-02
   140   -7.504095622881e-14
   141   -2.075898963317e-01
   142    4.639384469829e-02
   143   -4.165417908680e-02
   144   -2.198553172192e-13
   145   -1.127730539795e+00
   146   -5.417768615187e-02
   147   -5.116356125852e-01
   148    4.284696020650e-13
   149   -1.323277939262e-03
   150    7.524575119182e-15
   151   -2.157628898747e-15
   152   -8.104054613769e-03
   153    6.884024816204e-05
   154    1.149822232627e-02
   155    1.981773022628e-02
   156    2.295964595972e-02
   157   -1.706524113754e-03
   158    2.636842835485e-14
   159   -6.104575666101e-02
   160    3.599986808197e-02
   161   -3.400847268058e-03
   162    4.522405716471e-14
   163   -1.949809485862e-01
   164    3.701810693519e-02
   165   -1.911182630056e-02
   166    7.455045798941e-14
   167   -1.217594334302e+00
   168    4.200456058279e-01
   169   -1.480133965028e-01
   170    2.448890977150e-13
   171    4.589323929860e-04
   172   -7.743237075637e-15
   173    3.991924154259e-15
   174    9.380889203892e-04
   175    4.357944656256e-03
   176   -9.686736955658e-03
   177   -1.688537252917e-02
   178    1.100452565282e-02
   179   -1.127575332187e-02
   180    7.073059233359e-14
   181    4.668867579943e-02
   182    1.081358160321e-02
   183   -7.656141555694e-03
   184    7.901614453373e-14
   185    1.680266483313e-01
   186    1.078651268244e-01
   187   -1.302720191203e-01
   188    2.882605469400e-13
   189   -6.494404074532e+00
   190    3.583967791820e+00
   191   -2.634808455804e+00
   192   -4.878467908043e-13
   193   -3.037722575258e-04
   194    7.338769070105e-15
   195    1.729992138262e-14
   196   -9.406596270789e-04
   197   -1.262701534528e-02
   198    1.710626250606e-02
   199    5.246996570666e-02
   200   -3.991844419214e-01
   201   -3.569007429880e+00
   202   -5.932685867478e-03
   203   -3.951931618358e-04
   204    7.100122720198e-15
Sym=X
Ene= 0.494868
Spin=Alpha
Occup=0
     1    4.288751384190e-15
     2    6.415333733988e-15
     3    2.308325788146e-14
     4    3.287254903202e-16
     5    6.003797121532e-02
     6    1.415721022208e-14
     7    2.122444657796e-14
     8   -4.463528624205e-14
     9    7.275352258478e-02
    10   -9.202594642826e-13
    11    4.881251759841e-13
    12   -4.244624210532e-13
    13    2.593713505695e-01
    14   -1.800292017018e-12
    15   -4.456998048008e-12
    16    2.273780390478e-12
    17   -1.278467596467e+00
    18    6.839615341352e-15
    19   -3.761283993456e-03
    20    1.534301162201e-02
    21   -2.660112477829e-14
    22   -4.991988824528e-15
    23    1.269661398837e-14
    24   -2.501382423214e-14
    25    1.736906291925e-12
    26   -8.414174814606e-13
    27   -1.015313319508e-14
    28   -5.237539382176e-16
    29   -1.649258585620e-03
    30   -4.697947019523e-15
    31   -1.172625426297e-13
    32    1.993145483214e-13
    33    5.271360650761e-13
    34    6.868383532175e-15
    35    9.534418379118e-16
    36   -6.556543862918e-03
    37    8.015282276490e-15
    38    6.237042625440e-14
    39    5.960584348275e-13
    40    7.879743996566e-13
    41    1.362406725046e-15
    42   -6.002170949527e-15
    43    8.401793817819e-03
    44    6.228727188488e-15
    45    6.623028433691e-15
    46   -7.010452058149e-15
    47   -6.130108285295e-15
    48   -3.967246314062e-02
    49    1.409789273194e-14
    50   -3.253312406213e-14
    51    2.024155340700e-14
    52   -5.857091921459e-02
    53   -9.035071068367e-13
    54   -5.217587914395e-13
    55    9.039688544817e-14
    56   -1.649623143738e-01
    57   -6.253926103088e-12
    58   -1.884091016504e-12
    59   -2.566141726258e-14
    60   -8.024937943838e-01
    61   -3.358806263401e-15
    62   -9.031171960121e-03
    63    3.592676331301e-03
    64    1.391992590762e-14
    65   -1.935529117751e-14
    66   -9.936043677771e-16
    67   -2.285286410669e-15
    68    1.498614535160e-14
    69   -8.302770498044e-15
    70    3.581178822649e-02
    71    1.368470330415e-15
    72    1.885771709826e-14
    73   -6.501002554488e-15
    74    5.787110802853e-02
    75   -4.039167838919e-14
    76   -1.562369832287e-14
    77   -5.155274103886e-14
    78    5.347968746168e-02
    79   -4.901239880711e-13
    80   -5.700971795999e-13
    81   -9.529295447513e-14
    82    2.448300123216e-01
    83   -2.199180595772e-15
    84   -6.293857502103e-04
    85    9.584518102365e-04
    86    3.637843405957e-16
    87    2.220911685338e-15
    88    2.289246630316e-15
    89    3.278233611185e-15
    90    2.513403943678e-14
    91   -1.004168633599e-14
    92   -4.743633346153e-02
    93    1.157603384562e-14
    94    4.539761284317e-14
    95   -3.832056354511e-14
    96   -5.937122732183e-02
    97   -2.547779496874e-13
    98    6.845544662066e-13
    99    6.413493664496e-13
   100   -2.359213306540e-01
   101    2.197917693634e-11
   102   -4.135549186818e-13
   103   -4.283638008594e-12
   104    1.397720214203e+00
   105   -8.484654821022e-15
   106   -9.209045784863e-03
   107   -2.254207076727e-03
   108    8.969684415316e-15
   109    5.573152628462e-15
   110   -1.953656401086e-16
   111   -2.648569728358e-15
   112   -7.153773864108e-15
   113    9.608121357139e-15
   114   -2.696518763428e-02
   115    1.460315150623e-15
   116   -3.770449868683e-14
   117    1.941483815865e-14
   118   -4.312269422706e-02
   119   -1.068297545612e-13
   120    1.736902133928e-13
   121    6.290970643741e-14
   122   -2.902389709519e-03
   123   -8.569986953851e-13
   124   -3.848065224674e-13
   125    4.169078902141e-13
   126   -2.632454388863e-02
   127   -1.419536196575e-15
   128    5.811554193622e-03
   129    4.996654578324e-03
   130   -2.667269132443e-15
   131    2.189715898096e-15
   132   -3.637670070908e-15
   133   -4.486431684918e-15
   134    1.449097585496e-14
   135   -2.215058766882e-14
   136    1.304095461516e-02
   137   -2.726194355944e-14
   138    1.158780772860e-14
   139   -9.804409437397e-15
   140    2.006958520250e-02
   141    4.722724646317e-13
   142    4.289368666398e-14
   143   -4.939574437910e-13
   144    4.576133511957e-02
   145    7.020168681382e-13
   146   -3.070961655615e-12
   147    3.169546968176e-14
   148    1.602032096166e-01
   149    1.103758416207e-15
   150    4.799469895706e-03
   151    6.830497182377e-03
   152   -8.591285850359e-15
   153   -5.051388722186e-16
   154    2.238688381003e-15
   155    2.910723132430e-15
   156    8.602334303823e-15
   157   -1.431025729456e-14
   158    3.129147660353e-02
   159   -9.812117600935e-14
   160   -4.442228380677e-15
   161   -1.692954501909e-14
   162    5.895338988123e-02
   163    6.272496562154e-13
   164    3.581048995441e-13
   165   -9.253791305530e-14
   166    2.025197644138e-02
   167   -1.482639209689e-12
   168    2.531168456185e-12
   169    1.165131624719e-12
   170    5.004377595517e-01
   171   -1.921854506907e-15
   172    6.555344732327e-03
   173   -6.231920148058e-03
   174    5.580458145738e-15
   175    9.071191224272e-15
   176    2.141169584669e-15
   177    4.409383065718e-15
   178    3.704518215591e-14
   179   -3.125176184516e-16
   180    2.192249233246e-02
   181   -7.708281549865e-14
   182    3.458182592169e-14
   183    6.142057938972e-16
   184    3.136766306381e-02
   185    1.101588035612e-12
   186    2.257452050628e-13
   187    3.665308536396e-13
   188    8.482069307478e-02
   189   -1.140688756679e-11
   190    2.932221226000e-13
   191   -8.937857261814e-12
   192   -4.008605154842e-01
   193   -2.487627666283e-14
   194   -5.433845865949e-03
   195   -1.660356588005e-04
   196    1.044252522754e-14
   197   -9.530826685510e-15
   198   -2.085959304010e-14
   199   -6.888078946818e-14
   200   -1.150187291273e-12
   201   -1.873670597487e-12
   202    4.402711834874e-15
   203   -1.575805510677e-14
   204   -1.304727771072e-03
[5D]
