[Molden Format]
[Atoms] (Angs)
  C      1    6     -0.13173890     -1.79208980      0.00000000
  H      2    1     -2.14962000     -1.30978739      0.00000000
  H      3    1     -0.31599560     -2.86503115      0.00000000
  H      4    1      0.14407746      2.04280963     -0.00000000
  C      5    6     -1.17258876      0.48030861      0.00000000
  O      6    8     -2.25008207      1.06833796      0.00000000
  C      7    6      1.31158357      0.28308717     -0.00000000
  O      8    8      2.36361668      0.96389345     -0.00000000
  N      9    7      0.07017030      1.03138997     -0.00000000
  N     10    7     -1.19586868     -0.94982644      0.00000000
  C     11    6      1.19165158     -1.13169473     -0.00000000
  H     12    1      2.09970506     -1.73445456     -0.00000000
[GTO]
1    0
S    6    1.000000
   4.56324000E+03    1.96665000E-03 
   6.82024000E+02    1.52306000E-02 
   1.54973000E+02    7.61269000E-02 
   4.44553000E+01    2.60801000E-01 
   1.30290000E+01    6.16462000E-01 
   1.82773000E+00    2.21006000E-01 
SP   3    1.000000
   2.09642000E+01    1.14660000E-01   4.02487000E-02 
   4.80331000E+00    9.19999000E-01   2.37594000E-01 
   1.45933000E+00   -3.03068000E-03   8.15854000E-01 
SP   1    1.000000
   4.83456000E-01    1.00000000E+00   1.00000000E+00 
SP   1    1.000000
   1.45585000E-01    1.00000000E+00   1.00000000E+00 
SP   1    1.000000
   4.38000000E-02    1.00000000E+00   1.00000000E+00 
D    1    1.000000
   6.26000000E-01    1.00000000E+00 

2    0
S    3    1.000000
   3.38650000E+01    2.54938000E-02 
   5.09479000E+00    1.90373000E-01 
   1.15879000E+00    8.52161000E-01 
S    1    1.000000
   3.25840000E-01    1.00000000E+00 
S    1    1.000000
   1.02741000E-01    1.00000000E+00 
S    1    1.000000
   3.60000000E-02    1.00000000E+00 
P    1    1.000000
   7.50000000E-01    1.00000000E+00 

3    0
S    3    1.000000
   3.38650000E+01    2.54938000E-02 
   5.09479000E+00    1.90373000E-01 
   1.15879000E+00    8.52161000E-01 
S    1    1.000000
   3.25840000E-01    1.00000000E+00 
S    1    1.000000
   1.02741000E-01    1.00000000E+00 
S    1    1.000000
   3.60000000E-02    1.00000000E+00 
P    1    1.000000
   7.50000000E-01    1.00000000E+00 

4    0
S    3    1.000000
   3.38650000E+01    2.54938000E-02 
   5.09479000E+00    1.90373000E-01 
   1.15879000E+00    8.52161000E-01 
S    1    1.000000
   3.25840000E-01    1.00000000E+00 
S    1    1.000000
   1.02741000E-01    1.00000000E+00 
S    1    1.000000
   3.60000000E-02    1.00000000E+00 
P    1    1.000000
   7.50000000E-01    1.00000000E+00 

5    0
S    6    1.000000
   4.56324000E+03    1.96665000E-03 
   6.82024000E+02    1.52306000E-02 
   1.54973000E+02    7.61269000E-02 
   4.44553000E+01    2.60801000E-01 
   1.30290000E+01    6.16462000E-01 
   1.82773000E+00    2.21006000E-01 
SP   3    1.000000
   2.09642000E+01    1.14660000E-01   4.02487000E-02 
   4.80331000E+00    9.19999000E-01   2.37594000E-01 
   1.45933000E+00   -3.03068000E-03   8.15854000E-01 
SP   1    1.000000
   4.83456000E-01    1.00000000E+00   1.00000000E+00 
SP   1    1.000000
   1.45585000E-01    1.00000000E+00   1.00000000E+00 
SP   1    1.000000
   4.38000000E-02    1.00000000E+00   1.00000000E+00 
D    1    1.000000
   6.26000000E-01    1.00000000E+00 

6    0
S    6    1.000000
   8.58850000E+03    1.89515000E-03 
   1.29723000E+03    1.43859000E-02 
   2.99296000E+02    7.07320000E-02 
   8.73771000E+01    2.40001000E-01 
   2.56789000E+01    5.94797000E-01 
   3.74004000E+00    2.80802000E-01 
SP   3    1.000000
   4.21175000E+01    1.13889000E-01   3.65114000E-02 
   9.62837000E+00    9.20811000E-01   2.37153000E-01 
   2.85332000E+00   -3.27447000E-03   8.19702000E-01 
SP   1    1.000000
   9.05661000E-01    1.00000000E+00   1.00000000E+00 
SP   1    1.000000
   2.55611000E-01    1.00000000E+00   1.00000000E+00 
SP   1    1.000000
   8.45000000E-02    1.00000000E+00   1.00000000E+00 
D    1    1.000000
   1.29200000E+00    1.00000000E+00 

7    0
S    6    1.000000
   4.56324000E+03    1.96665000E-03 
   6.82024000E+02    1.52306000E-02 
   1.54973000E+02    7.61269000E-02 
   4.44553000E+01    2.60801000E-01 
   1.30290000E+01    6.16462000E-01 
   1.82773000E+00    2.21006000E-01 
SP   3    1.000000
   2.09642000E+01    1.14660000E-01   4.02487000E-02 
   4.80331000E+00    9.19999000E-01   2.37594000E-01 
   1.45933000E+00   -3.03068000E-03   8.15854000E-01 
SP   1    1.000000
   4.83456000E-01    1.00000000E+00   1.00000000E+00 
SP   1    1.000000
   1.45585000E-01    1.00000000E+00   1.00000000E+00 
SP   1    1.000000
   4.38000000E-02    1.00000000E+00   1.00000000E+00 
D    1    1.000000
   6.26000000E-01    1.00000000E+00 

8    0
S    6    1.000000
   8.58850000E+03    1.89515000E-03 
   1.29723000E+03    1.43859000E-02 
   2.99296000E+02    7.07320000E-02 
   8.73771000E+01    2.40001000E-01 
   2.56789000E+01    5.94797000E-01 
   3.74004000E+00    2.80802000E-01 
SP   3    1.000000
   4.21175000E+01    1.13889000E-01   3.65114000E-02 
   9.62837000E+00    9.20811000E-01   2.37153000E-01 
   2.85332000E+00   -3.27447000E-03   8.19702000E-01 
SP   1    1.000000
   9.05661000E-01    1.00000000E+00   1.00000000E+00 
SP   1    1.000000
   2.55611000E-01    1.00000000E+00   1.00000000E+00 
SP   1    1.000000
   8.45000000E-02    1.00000000E+00   1.00000000E+00 
D    1    1.000000
   1.29200000E+00    1.00000000E+00 

9    0
S    6    1.000000
   6.29348000E+03    1.96979000E-03 
   9.49044000E+02    1.49613000E-02 
   2.18776000E+02    7.35006000E-02 
   6.36916000E+01    2.48937000E-01 
   1.88282000E+01    6.02460000E-01 
   2.72023000E+00    2.56202000E-01 
SP   3    1.000000
   3.06331000E+01    1.11906000E-01   3.83119000E-02 
   7.02614000E+00    9.21666000E-01   2.37403000E-01 
   2.11205000E+00   -2.56919000E-03   8.17592000E-01 
SP   1    1.000000
   6.84009000E-01    1.00000000E+00   1.00000000E+00 
SP   1    1.000000
   2.00878000E-01    1.00000000E+00   1.00000000E+00 
SP   1    1.000000
   6.39000000E-02    1.00000000E+00   1.00000000E+00 
D    1    1.000000
   9.13000000E-01    1.00000000E+00 

10    0
S    6    1.000000
   6.29348000E+03    1.96979000E-03 
   9.49044000E+02    1.49613000E-02 
   2.18776000E+02    7.35006000E-02 
   6.36916000E+01    2.48937000E-01 
   1.88282000E+01    6.02460000E-01 
   2.72023000E+00    2.56202000E-01 
SP   3    1.000000
   3.06331000E+01    1.11906000E-01   3.83119000E-02 
   7.02614000E+00    9.21666000E-01   2.37403000E-01 
   2.11205000E+00   -2.56919000E-03   8.17592000E-01 
SP   1    1.000000
   6.84009000E-01    1.00000000E+00   1.00000000E+00 
SP   1    1.000000
   2.00878000E-01    1.00000000E+00   1.00000000E+00 
SP   1    1.000000
   6.39000000E-02    1.00000000E+00   1.00000000E+00 
D    1    1.000000
   9.13000000E-01    1.00000000E+00 

11    0
S    6    1.000000
   4.56324000E+03    1.96665000E-03 
   6.82024000E+02    1.52306000E-02 
   1.54973000E+02    7.61269000E-02 
   4.44553000E+01    2.60801000E-01 
   1.30290000E+01    6.16462000E-01 
   1.82773000E+00    2.21006000E-01 
SP   3    1.000000
   2.09642000E+01    1.14660000E-01   4.02487000E-02 
   4.80331000E+00    9.19999000E-01   2.37594000E-01 
   1.45933000E+00   -3.03068000E-03   8.15854000E-01 
SP   1    1.000000
   4.83456000E-01    1.00000000E+00   1.00000000E+00 
SP   1    1.000000
   1.45585000E-01    1.00000000E+00   1.00000000E+00 
SP   1    1.000000
   4.38000000E-02    1.00000000E+00   1.00000000E+00 
D    1    1.000000
   6.26000000E-01    1.00000000E+00 

12    0
S    3    1.000000
   3.38650000E+01    2.54938000E-02 
   5.09479000E+00    1.90373000E-01 
   1.15879000E+00    8.52161000E-01 
S    1    1.000000
   3.25840000E-01    1.00000000E+00 
S    1    1.000000
   1.02741000E-01    1.00000000E+00 
S    1    1.000000
   3.60000000E-02    1.00000000E+00 
P    1    1.000000
   7.50000000E-01    1.00000000E+00 

[MO]
Sym=X
Ene= -0.484402
Spin=Alpha
Occup=1
     1    5.197953194428e-15
     2    8.673332555834e-15
     3    3.620195832178e-14
     4    7.316761685587e-15
     5   -1.038914560710e-01
     6   -5.226645107041e-14
     7    3.050217201167e-14
     8    2.255280017133e-14
     9   -1.705562243338e-01
    10    2.622752523447e-13
    11    7.645909478641e-13
    12    2.856003135156e-13
    13   -2.613229573004e-01
    14   -1.034596966843e-11
    15    3.779784160625e-13
    16   -2.342819625185e-12
    17   -1.169584803143e-01
    18    3.244118027397e-15
    19   -1.320602750868e-02
    20    4.176217155283e-03
    21    9.629261451552e-15
    22   -1.786469242571e-14
    23    1.967711274141e-14
    24    4.671445347916e-14
    25    9.111424985731e-13
    26   -1.603979016025e-12
    27    8.736192481275e-15
    28    7.555804974114e-15
    29    9.322608011372e-03
    30    1.400133805375e-14
    31    2.792739690172e-14
    32    6.381328191324e-13
    33    1.456899676175e-12
    34   -4.403115000022e-15
    35   -2.082782293140e-14
    36   -1.078030030203e-02
    37    3.536842613299e-15
    38    6.007004035503e-14
    39    1.026462228764e-12
    40   -7.926497751243e-13
    41   -5.166615238061e-15
    42   -2.106399629181e-15
    43   -1.072701338851e-02
    44    1.177272554530e-14
    45    2.468068768444e-14
    46   -1.007076405165e-14
    47   -5.037973308636e-17
    48   -1.609643258170e-02
    49   -8.152225391680e-14
    50    2.692546609813e-14
    51   -2.265980425741e-14
    52   -2.734415364215e-02
    53   -2.046020005017e-13
    54   -3.537297685751e-13
    55   -4.768084308615e-14
    56   -2.344122519618e-02
    57    6.708237561662e-12
    58    1.521947976057e-12
    59   -1.114748572196e-12
    60    3.859031409876e-03
    61    1.672024434628e-14
    62   -1.727916528923e-02
    63   -1.916310484234e-02
    64    1.051413944996e-14
    65   -1.500611785635e-14
    66   -1.886281934050e-15
    67   -4.075526223594e-15
    68    1.770366963270e-14
    69   -1.437663979830e-14
    70    1.138514184049e-02
    71    1.291958455773e-14
    72    2.978709248206e-14
    73   -4.677800377982e-14
    74    1.683504734282e-02
    75    2.098083722302e-14
    76    4.704818928779e-14
    77    2.527340131763e-14
    78    2.309342536315e-02
    79   -1.045693180191e-12
    80   -8.571463413418e-13
    81   -1.403004918430e-13
    82    8.968449311895e-03
    83    2.541498224782e-16
    84   -8.948292270822e-04
    85   -9.452589610083e-04
    86    4.550337895334e-15
    87   -3.144458748979e-15
    88    1.063671715835e-14
    89    1.020715163370e-14
    90    1.625004567421e-14
    91   -9.447182757573e-15
    92    2.155940302919e-01
    93   -1.644429785069e-14
    94    1.068253688062e-13
    95   -5.435740679778e-14
    96    3.687561022686e-01
    97   -2.853284127005e-13
    98   -1.568853541490e-13
    99    1.958629574514e-13
   100    5.222941276646e-01
   101   -3.398230372906e-11
   102    7.488482488667e-13
   103    1.073742469269e-11
   104    1.710818320479e-01
   105   -1.524979245527e-14
   106    3.037956844647e-04
   107   -8.891007090854e-03
   108    6.063536157497e-15
   109   -1.530789977476e-14
   110   -7.934270953880e-15
   111   -1.668512875082e-14
   112   -1.249497317846e-14
   113    1.456183890218e-14
   114   -2.045690535292e-01
   115    7.033501065053e-14
   116   -6.421473139598e-15
   117   -1.018199599120e-15
   118   -2.758462310646e-01
   119   -2.280419312489e-15
   120   -2.399147202678e-14
   121    9.563525732815e-14
   122   -2.765122234799e-01
   123    1.803759312324e-12
   124   -7.450937558983e-13
   125   -3.348191700319e-13
   126   -7.707572773902e-02
   127   -5.723203752608e-16
   128   -6.907098370880e-03
   129   -5.789011949843e-03
   130   -5.119430614639e-15
   131   -3.297029693872e-16
   132   -1.226967135668e-14
   133   -2.101647624501e-14
   134    2.761806589540e-14
   135   -7.799470655513e-15
   136   -7.942711157148e-02
   137    7.728840159397e-14
   138    7.618047795341e-14
   139   -5.371545273571e-15
   140   -1.216775555613e-01
   141    9.113125908904e-14
   142   -2.356965436595e-14
   143   -1.756337307391e-13
   144   -2.104608889005e-01
   145   -1.048102388045e-12
   146   -2.686441475693e-12
   147   -2.112596820945e-12
   148   -1.522668163735e-01
   149    5.935915438127e-15
   150    1.763006873233e-02
   151   -8.582196747547e-03
   152   -2.772619528826e-15
   153    3.723884915777e-15
   154   -8.435953813133e-15
   155   -1.211830077400e-14
   156    2.697990196539e-14
   157   -8.807629263583e-15
   158    7.445745152550e-02
   159    8.056292869948e-14
   160    5.578096879558e-14
   161    6.510483742896e-15
   162    1.150574748515e-01
   163   -1.024179115426e-13
   164    1.289480782733e-14
   165   -1.094931603143e-13
   166    1.884491098192e-01
   167   -8.714730244891e-13
   168    3.719537700456e-13
   169   -2.096495135790e-12
   170    1.362572902164e-01
   171    5.748618307233e-15
   172   -8.281966160522e-03
   173    6.200077495317e-03
   174    4.783708228174e-15
   175    2.204862492002e-15
   176    1.049807476864e-15
   177   -4.499726939666e-15
   178    2.955311616808e-14
   179    1.471231951937e-14
   180   -1.109516335085e-02
   181    4.833165247333e-14
   182    5.136222730130e-14
   183    3.620807847148e-14
   184   -1.874951852830e-02
   185   -4.488763326146e-13
   186    7.058414016304e-13
   187    2.048378853093e-13
   188   -1.018103352496e-01
   189    3.573566573056e-11
   190   -9.111896940364e-13
   191    1.004604573673e-11
   192   -7.212188983057e-02
   193    3.641890529536e-14
   194    1.602029068487e-02
   195    3.308010912338e-02
   196   -8.849484406132e-15
   197    4.592817991964e-14
   198   -4.561692111410e-14
   199    4.447079088983e-14
   200   -1.261010078933e-12
   201    3.301962302544e-12
   202   -2.577964354456e-14
   203    2.356883793146e-14
   204   -2.672629546566e-03
Sym=X
Ene= 0.484402
Spin=Alpha
Occup=0
     1    4.252560521932e-15
     2    6.361172973204e-15
     3    2.313703533371e-14
     4   -5.469443572064e-17
     5    6.144396351356e-02
     6    1.583301381210e-14
     7    2.206052170380e-14
     8   -4.584752415203e-14
     9    7.490286307524e-02
    10   -9.516424168000e-13
    11    4.904742956235e-13
    12   -4.429500255916e-13
    13    2.604918972228e-01
    14   -1.763500347654e-12
    15   -4.499058534398e-12
    16    2.307667517869e-12
    17   -1.273367236212e+00
    18    6.731836005997e-15
    19   -3.342951374510e-03
    20    1.562111669758e-02
    21   -2.793251775964e-14
    22   -4.417536145572e-15
    23    1.282330082842e-14
    24   -2.763037048405e-14
    25    1.767366126263e-12
    26   -8.423942621238e-13
    27   -1.132489255359e-14
    28   -7.544026274457e-16
    29   -1.734145472411e-03
    30   -5.151270493883e-15
    31   -1.208214884659e-13
    32    1.965481710237e-13
    33    5.306587988225e-13
    34    7.210635713186e-15
    35    1.330885209307e-15
    36   -6.432100203024e-03
    37    7.809332177075e-15
    38    6.392065245304e-14
    39    6.010105598039e-13
    40    7.962853541256e-13
    41    1.570531942356e-15
    42   -6.156507055798e-15
    43    8.451106679067e-03
    44    6.236123722575e-15
    45    6.633991804148e-15
    46   -7.147142773624e-15
    47   -6.143149913913e-15
    48   -4.020145643567e-02
    49    1.505573206542e-14
    50   -3.336133460860e-14
    51    2.130154426214e-14
    52   -5.940201030720e-02
    53   -9.269321451986e-13
    54   -5.344451811405e-13
    55    1.055213084820e-13
    56   -1.654473542662e-01
    57   -6.335220053269e-12
    58   -1.920453148897e-12
    59   -3.354968402404e-14
    60   -8.023072347539e-01
    61   -3.105730353408e-15
    62   -9.003570746850e-03
    63    3.767654549289e-03
    64    1.428926671139e-14
    65   -2.000033243315e-14
    66   -9.102099325393e-16
    67   -2.111780305266e-15
    68    1.523194491713e-14
    69   -8.081391838705e-15
    70    3.539568738566e-02
    71    3.143451221863e-16
    72    1.976029033652e-14
    73   -5.184917741886e-15
    74    5.723047477133e-02
    75   -4.215140313447e-14
    76   -1.930000753496e-14
    77   -5.551489208272e-14
    78    5.283999774163e-02
    79   -5.036902996272e-13
    80   -5.741292672853e-13
    81   -9.267676199684e-14
    82    2.452302741384e-01
    83   -2.383701367295e-15
    84   -6.492027965818e-04
    85    9.798032299591e-04
    86    3.162245522345e-16
    87    2.326635768497e-15
    88    2.283606649414e-15
    89    3.256584103729e-15
    90    2.560368469849e-14
    91   -1.044954726268e-14
    92   -4.832470435475e-02
    93    1.251586497535e-14
    94    4.673605059718e-14
    95   -3.936522881036e-14
    96   -6.057366444361e-02
    97   -2.670859058517e-13
    98    7.065213225566e-13
    99    6.536993839600e-13
   100   -2.347036852098e-01
   101    2.238525848089e-11
   102   -4.316073040045e-13
   103   -4.369938801611e-12
   104    1.397475637583e+00
   105   -8.954856437253e-15
   106   -9.862324039696e-03
   107   -2.684422734336e-03
   108    9.091619916792e-15
   109    6.192342141067e-15
   110   -9.892424763339e-17
   111   -2.429159418787e-15
   112   -7.399158063562e-15
   113    9.716261113406e-15
   114   -2.750161104656e-02
   115    1.659427219792e-16
   116   -3.857909752699e-14
   117    1.962014309873e-14
   118   -4.437328547331e-02
   119   -1.096507122307e-13
   120    1.786762355261e-13
   121    6.541305891792e-14
   122   -4.137771898690e-03
   123   -8.848598159864e-13
   124   -3.851502997298e-13
   125    4.237108788885e-13
   126   -2.348058797355e-02
   127   -1.385898995785e-15
   128    5.991961890781e-03
   129    5.143672950853e-03
   130   -2.615419502478e-15
   131    2.172088655163e-15
   132   -3.869591171882e-15
   133   -4.546626757772e-15
   134    1.446374405292e-14
   135   -2.221568353662e-14
   136    1.379618966508e-02
   137   -3.024924759524e-14
   138    1.074783271559e-14
   139   -9.393489900826e-15
   140    2.123961568582e-02
   141    4.901961650462e-13
   142    4.737580914062e-14
   143   -5.078686010546e-13
   144    4.679098008220e-02
   145    7.122795617136e-13
   146   -3.099987508615e-12
   147    4.039023169730e-14
   148    1.599757742007e-01
   149    1.071660035821e-15
   150    4.943774747712e-03
   151    6.846295738425e-03
   152   -8.889067255377e-15
   153   -5.823602634784e-16
   154    2.492564007378e-15
   155    3.518656121739e-15
   156    8.513046349781e-15
   157   -1.455704540919e-14
   158    3.031561602023e-02
   159   -1.048776523488e-13
   160   -5.436204890527e-15
   161   -1.809823395355e-14
   162    5.728062027255e-02
   163    6.601837361834e-13
   164    3.689935016819e-13
   165   -8.726600852771e-14
   166    1.831646279489e-02
   167   -1.496128028399e-12
   168    2.579155094157e-12
   169    1.186874214950e-12
   170    4.988591626028e-01
   171   -2.301816761767e-15
   172    6.644829414059e-03
   173   -6.271654807456e-03
   174    5.812200970055e-15
   175    9.517788061687e-15
   176    2.190159506929e-15
   177    4.519551741240e-15
   178    3.751432276458e-14
   179   -5.136531663596e-16
   180    2.369411564787e-02
   181   -7.930761846729e-14
   182    3.507930945892e-14
   183    4.234845565406e-16
   184    3.458978417546e-02
   185    1.135358979955e-12
   186    2.182435460353e-13
   187    3.737564341422e-13
   188    8.678976209642e-02
   189   -1.171467497227e-11
   190    3.248525807635e-13
   191   -9.076424360918e-12
   192   -4.030189663982e-01
   193   -2.599807482831e-14
   194   -5.648513494615e-03
   195    2.753869456565e-05
   196    1.096176792726e-14
   197   -1.063662646925e-14
   198   -2.056842040597e-14
   199   -7.124698933030e-14
   200   -1.158096859587e-12
   201   -1.917644533618e-12
   202    4.694084606189e-15
   203   -1.618949184221e-14
   204   -1.148987429266e-03
[5D]
