[Molden Format]
[Atoms] (Angs)
  C      1    6     -0.13173890     -1.79208980      0.00000000
  H      2    1     -2.14962000     -1.30978739      0.00000000
  H      3    1     -0.31599560     -2.86503115      0.00000000
  H      4    1      0.14407746      2.04280963     -0.00000000
  C      5    6     -1.17258876      0.48030861      0.00000000
  O      6    8     -2.25008207      1.06833796      0.00000000
  C      7    6      1.31158357      0.28308717     -0.00000000
  O      8    8      2.36361668      0.96389345     -0.00000000
  N      9    7      0.07017030      1.03138997     -0.00000000
  N     10    7     -1.19586868     -0.94982644      0.00000000
  C     11    6      1.19165158     -1.13169473     -0.00000000
  H     12    1      2.09970506     -1.73445456     -0.00000000
[GTO]
1    0
S    6    1.000000
   4.56324000E+03    1.96665000E-03 
   6.82024000E+02    1.52306000E-02 
   1.54973000E+02    7.61269000E-02 
   4.44553000E+01    2.60801000E-01 
   1.30290000E+01    6.16462000E-01 
   1.82773000E+00    2.21006000E-01 
SP   3    1.000000
   2.09642000E+01    1.14660000E-01   4.02487000E-02 
   4.80331000E+00    9.19999000E-01   2.37594000E-01 
   1.45933000E+00   -3.03068000E-03   8.15854000E-01 
SP   1    1.000000
   4.83456000E-01    1.00000000E+00   1.00000000E+00 
SP   1    1.000000
   1.45585000E-01    1.00000000E+00   1.00000000E+00 
SP   1    1.000000
   4.38000000E-02    1.00000000E+00   1.00000000E+00 
D    1    1.000000
   6.26000000E-01    1.00000000E+00 

2    0
S    3    1.000000
   3.38650000E+01    2.54938000E-02 
   5.09479000E+00    1.90373000E-01 
   1.15879000E+00    8.52161000E-01 
S    1    1.000000
   3.25840000E-01    1.00000000E+00 
S    1    1.000000
   1.02741000E-01    1.00000000E+00 
S    1    1.000000
   3.60000000E-02    1.00000000E+00 
P    1    1.000000
   7.50000000E-01    1.00000000E+00 

3    0
S    3    1.000000
   3.38650000E+01    2.54938000E-02 
   5.09479000E+00    1.90373000E-01 
   1.15879000E+00    8.52161000E-01 
S    1    1.000000
   3.25840000E-01    1.00000000E+00 
S    1    1.000000
   1.02741000E-01    1.00000000E+00 
S    1    1.000000
   3.60000000E-02    1.00000000E+00 
P    1    1.000000
   7.50000000E-01    1.00000000E+00 

4    0
S    3    1.000000
   3.38650000E+01    2.54938000E-02 
   5.09479000E+00    1.90373000E-01 
   1.15879000E+00    8.52161000E-01 
S    1    1.000000
   3.25840000E-01    1.00000000E+00 
S    1    1.000000
   1.02741000E-01    1.00000000E+00 
S    1    1.000000
   3.60000000E-02    1.00000000E+00 
P    1    1.000000
   7.50000000E-01    1.00000000E+00 

5    0
S    6    1.000000
   4.56324000E+03    1.96665000E-03 
   6.82024000E+02    1.52306000E-02 
   1.54973000E+02    7.61269000E-02 
   4.44553000E+01    2.60801000E-01 
   1.30290000E+01    6.16462000E-01 
   1.82773000E+00    2.21006000E-01 
SP   3    1.000000
   2.09642000E+01    1.14660000E-01   4.02487000E-02 
   4.80331000E+00    9.19999000E-01   2.37594000E-01 
   1.45933000E+00   -3.03068000E-03   8.15854000E-01 
SP   1    1.000000
   4.83456000E-01    1.00000000E+00   1.00000000E+00 
SP   1    1.000000
   1.45585000E-01    1.00000000E+00   1.00000000E+00 
SP   1    1.000000
   4.38000000E-02    1.00000000E+00   1.00000000E+00 
D    1    1.000000
   6.26000000E-01    1.00000000E+00 

6    0
S    6    1.000000
   8.58850000E+03    1.89515000E-03 
   1.29723000E+03    1.43859000E-02 
   2.99296000E+02    7.07320000E-02 
   8.73771000E+01    2.40001000E-01 
   2.56789000E+01    5.94797000E-01 
   3.74004000E+00    2.80802000E-01 
SP   3    1.000000
   4.21175000E+01    1.13889000E-01   3.65114000E-02 
   9.62837000E+00    9.20811000E-01   2.37153000E-01 
   2.85332000E+00   -3.27447000E-03   8.19702000E-01 
SP   1    1.000000
   9.05661000E-01    1.00000000E+00   1.00000000E+00 
SP   1    1.000000
   2.55611000E-01    1.00000000E+00   1.00000000E+00 
SP   1    1.000000
   8.45000000E-02    1.00000000E+00   1.00000000E+00 
D    1    1.000000
   1.29200000E+00    1.00000000E+00 

7    0
S    6    1.000000
   4.56324000E+03    1.96665000E-03 
   6.82024000E+02    1.52306000E-02 
   1.54973000E+02    7.61269000E-02 
   4.44553000E+01    2.60801000E-01 
   1.30290000E+01    6.16462000E-01 
   1.82773000E+00    2.21006000E-01 
SP   3    1.000000
   2.09642000E+01    1.14660000E-01   4.02487000E-02 
   4.80331000E+00    9.19999000E-01   2.37594000E-01 
   1.45933000E+00   -3.03068000E-03   8.15854000E-01 
SP   1    1.000000
   4.83456000E-01    1.00000000E+00   1.00000000E+00 
SP   1    1.000000
   1.45585000E-01    1.00000000E+00   1.00000000E+00 
SP   1    1.000000
   4.38000000E-02    1.00000000E+00   1.00000000E+00 
D    1    1.000000
   6.26000000E-01    1.00000000E+00 

8    0
S    6    1.000000
   8.58850000E+03    1.89515000E-03 
   1.29723000E+03    1.43859000E-02 
   2.99296000E+02    7.07320000E-02 
   8.73771000E+01    2.40001000E-01 
   2.56789000E+01    5.94797000E-01 
   3.74004000E+00    2.80802000E-01 
SP   3    1.000000
   4.21175000E+01    1.13889000E-01   3.65114000E-02 
   9.62837000E+00    9.20811000E-01   2.37153000E-01 
   2.85332000E+00   -3.27447000E-03   8.19702000E-01 
SP   1    1.000000
   9.05661000E-01    1.00000000E+00   1.00000000E+00 
SP   1    1.000000
   2.55611000E-01    1.00000000E+00   1.00000000E+00 
SP   1    1.000000
   8.45000000E-02    1.00000000E+00   1.00000000E+00 
D    1    1.000000
   1.29200000E+00    1.00000000E+00 

9    0
S    6    1.000000
   6.29348000E+03    1.96979000E-03 
   9.49044000E+02    1.49613000E-02 
   2.18776000E+02    7.35006000E-02 
   6.36916000E+01    2.48937000E-01 
   1.88282000E+01    6.02460000E-01 
   2.72023000E+00    2.56202000E-01 
SP   3    1.000000
   3.06331000E+01    1.11906000E-01   3.83119000E-02 
   7.02614000E+00    9.21666000E-01   2.37403000E-01 
   2.11205000E+00   -2.56919000E-03   8.17592000E-01 
SP   1    1.000000
   6.84009000E-01    1.00000000E+00   1.00000000E+00 
SP   1    1.000000
   2.00878000E-01    1.00000000E+00   1.00000000E+00 
SP   1    1.000000
   6.39000000E-02    1.00000000E+00   1.00000000E+00 
D    1    1.000000
   9.13000000E-01    1.00000000E+00 

10    0
S    6    1.000000
   6.29348000E+03    1.96979000E-03 
   9.49044000E+02    1.49613000E-02 
   2.18776000E+02    7.35006000E-02 
   6.36916000E+01    2.48937000E-01 
   1.88282000E+01    6.02460000E-01 
   2.72023000E+00    2.56202000E-01 
SP   3    1.000000
   3.06331000E+01    1.11906000E-01   3.83119000E-02 
   7.02614000E+00    9.21666000E-01   2.37403000E-01 
   2.11205000E+00   -2.56919000E-03   8.17592000E-01 
SP   1    1.000000
   6.84009000E-01    1.00000000E+00   1.00000000E+00 
SP   1    1.000000
   2.00878000E-01    1.00000000E+00   1.00000000E+00 
SP   1    1.000000
   6.39000000E-02    1.00000000E+00   1.00000000E+00 
D    1    1.000000
   9.13000000E-01    1.00000000E+00 

11    0
S    6    1.000000
   4.56324000E+03    1.96665000E-03 
   6.82024000E+02    1.52306000E-02 
   1.54973000E+02    7.61269000E-02 
   4.44553000E+01    2.60801000E-01 
   1.30290000E+01    6.16462000E-01 
   1.82773000E+00    2.21006000E-01 
SP   3    1.000000
   2.09642000E+01    1.14660000E-01   4.02487000E-02 
   4.80331000E+00    9.19999000E-01   2.37594000E-01 
   1.45933000E+00   -3.03068000E-03   8.15854000E-01 
SP   1    1.000000
   4.83456000E-01    1.00000000E+00   1.00000000E+00 
SP   1    1.000000
   1.45585000E-01    1.00000000E+00   1.00000000E+00 
SP   1    1.000000
   4.38000000E-02    1.00000000E+00   1.00000000E+00 
D    1    1.000000
   6.26000000E-01    1.00000000E+00 

12    0
S    3    1.000000
   3.38650000E+01    2.54938000E-02 
   5.09479000E+00    1.90373000E-01 
   1.15879000E+00    8.52161000E-01 
S    1    1.000000
   3.25840000E-01    1.00000000E+00 
S    1    1.000000
   1.02741000E-01    1.00000000E+00 
S    1    1.000000
   3.60000000E-02    1.00000000E+00 
P    1    1.000000
   7.50000000E-01    1.00000000E+00 

[MO]
Sym=X
Ene= -0.003325
Spin=Alpha
Occup=1
     1    5.911016912379e-07
     2   -6.879919078984e-07
     3    4.699090888918e-06
     4   -7.435130128066e-06
     5   -1.492256638759e-16
     6    2.694944444302e-06
     7   -2.767836458341e-05
     8    3.410031093164e-05
     9    1.204961873238e-15
    10    2.500770090996e-04
    11   -8.996285950200e-05
    12   -5.546762172821e-05
    13   -1.825769080181e-15
    14   -5.824531255309e-04
    15   -6.020060159083e-04
    16   -3.463533504035e-04
    17   -6.012642361109e-15
    18    1.498432809500e-06
    19   -1.648066615841e-17
    20   -1.057853612295e-15
    21   -5.250559404407e-06
    22   -8.781155170162e-06
    23   -2.861726521357e-06
    24   -3.202188191187e-05
    25   -1.108695135615e-04
    26   -3.153353074183e-04
    27   -8.844329308876e-06
    28    1.819143387401e-05
    29   -7.640713087372e-16
    30    5.372127856480e-06
    31   -3.639132130130e-05
    32   -4.777755198016e-05
    33   -2.118192149225e-04
    34    8.371238085375e-07
    35   -2.812541249789e-06
    36   -1.010215249831e-15
    37   -2.113748770066e-06
    38   -7.756379774666e-05
    39   -1.609563396985e-04
    40   -3.181281667530e-04
    41   -6.077462681770e-06
    42    9.051161850077e-06
    43    1.898430814904e-16
    44   -3.383723040591e-06
    45    7.125132688677e-05
    46    6.490257735903e-05
    47   -4.626228610715e-05
    48   -1.180121137718e-15
    49   -3.122088095361e-04
    50    3.317924400642e-04
    51   -1.732562573023e-04
    52    1.475038482390e-15
    53   -5.825549947613e-05
    54    7.708896588825e-04
    55   -2.574988627414e-04
    56   -3.515474534899e-15
    57   -3.440469166092e-04
    58   -6.694246942993e-04
    59    3.031024103721e-04
    60    3.258857085785e-15
    61    6.640567514123e-05
    62   -1.032783707647e-15
    63    7.681345436241e-17
    64   -7.790443434668e-05
    65    1.466377264610e-04
    66   -5.513924142486e-01
    67   -4.717269710313e-01
    68   -1.509682835770e-03
    69    8.282052407576e-04
    70    1.094470115922e-15
    71   -5.753431239400e-03
    72    5.549281923199e-04
    73   -2.941268330679e-04
    74   -9.798099179499e-16
    75    1.718234547785e-03
    76   -8.260285137816e-05
    77    3.907319732429e-06
    78    3.772663172161e-16
    79   -1.431425024188e-03
    80   -5.439415535562e-05
    81    4.649157203978e-05
    82   -1.181845803264e-15
    83   -1.927516032044e-06
    84   -4.278177552203e-16
    85    4.947714176707e-16
    86    5.115610172385e-05
    87   -6.024403915373e-05
    88    4.520916140891e-07
    89   -2.283441597180e-06
    90    5.309609313465e-06
    91   -2.860037570953e-06
    92   -4.447225268152e-16
    93    2.082172372029e-05
    94   -2.932480256981e-05
    95    1.653443199428e-05
    96    1.842937779387e-15
    97    1.595550144273e-04
    98    3.465247680436e-05
    99    1.140767414393e-04
   100   -2.444673249553e-16
   101   -1.058947543581e-03
   102   -1.116070642853e-04
   103    7.776303547009e-04
   104   -1.068203068107e-14
   105   -5.939057680923e-06
   106    1.468068077522e-15
   107    1.722953679012e-16
   108    1.305158423588e-05
   109   -2.564451914036e-06
   110    1.760027515032e-05
   111    1.560241183934e-05
   112   -2.434744336682e-07
   113    2.805296488883e-07
   114   -1.093265091560e-15
   115    1.435654110940e-05
   116   -2.652376672409e-06
   117   -3.412810447428e-06
   118    3.010662050629e-15
   119   -8.858722056905e-05
   120    2.850859003518e-05
   121    2.054138669460e-05
   122   -5.222955542885e-15
   123    8.271530247034e-05
   124   -5.448351418071e-05
   125   -5.887659348345e-05
   126    4.393439514560e-15
   127    1.980476903096e-06
   128    2.537573161506e-16
   129    3.854768716283e-16
   130   -4.454980525306e-07
   131   -6.018810693264e-07
   132    9.433823038450e-07
   133   -2.309948828742e-06
   134   -5.026085638223e-06
   135    9.675230569373e-07
   136   -6.588574812494e-16
   137    3.327900186823e-05
   138    2.888718850136e-05
   139   -1.127724086687e-05
   140    1.830749990475e-15
   141   -3.766668649851e-04
   142    1.925545998863e-05
   143    2.966948515203e-04
   144   -4.839903022911e-16
   145    1.146566669246e-06
   146   -4.935072233602e-04
   147    2.037463967922e-04
   148    2.790975879994e-15
   149    1.207439142875e-05
   150   -6.340472989494e-16
   151   -7.332745275734e-16
   152   -2.088132122268e-05
   153   -4.996082067304e-06
   154   -3.782184162756e-07
   155   -3.792205650264e-06
   156   -2.297637534914e-06
   157    4.861610369358e-06
   158   -1.617319599042e-16
   159    3.959037334043e-05
   160    6.756685488686e-06
   161    2.598874176419e-06
   162   -1.158366844491e-15
   163   -2.175657203596e-04
   164   -2.617672816615e-04
   165   -2.637161138522e-05
   166    2.934471517983e-15
   167    1.451475714720e-04
   168   -2.676400463436e-04
   169    4.938032908246e-04
   170    2.443725037637e-15
   171    1.059985720301e-06
   172    5.467510662979e-16
   173    9.137645506204e-16
   174    9.276258644915e-06
   175    2.356685614498e-06
   176   -8.696356410926e-08
   177    3.303919216976e-07
   178   -5.469064639378e-07
   179   -1.724643302224e-07
   180    9.741372661278e-16
   181   -1.263663027281e-05
   182    6.629919138404e-06
   183    5.113926252298e-06
   184   -1.034936713373e-16
   185    1.397143770131e-04
   186   -9.650651825250e-05
   187    5.643522743217e-05
   188   -1.609013428742e-16
   189    3.245655398409e-03
   190   -4.822534412747e-04
   191    4.541684696523e-04
   192    9.061739151456e-15
   193   -4.278530703349e-06
   194   -3.287506571427e-16
   195    2.985519432162e-16
   196   -3.179176865375e-06
   197    4.011213718239e-06
   198   -1.265219365075e-06
   199    2.089952552722e-05
   200    2.960254010396e-05
   201    2.113036007064e-04
   202   -1.625221519524e-06
   203    7.395328569773e-07
   204   -6.165832493476e-16
Sym=X
Ene= 0.003325
Spin=Alpha
Occup=0
     1    6.375987682264e-08
     2   -6.202079331539e-06
     3   -1.227679791940e-05
     4   -4.411569209083e-06
     5    1.313426001143e-15
     6    3.615985742506e-05
     7    9.453762369068e-05
     8    5.988886499457e-05
     9   -2.367471380934e-15
    10    8.665060062143e-04
    11    2.017815559454e-04
    12    5.045953900050e-04
    13    3.668737174955e-15
    14    1.205881157307e-03
    15   -3.981546271378e-04
    16    1.292456202639e-03
    17   -7.213400434237e-15
    18   -8.716870710924e-06
    19   -5.697193757460e-16
    20    2.725929064152e-16
    21    4.523548347271e-06
    22    1.664021858519e-05
    23    3.471376667843e-06
    24    9.105988372069e-06
    25   -6.495879211256e-05
    26   -3.019568476184e-04
    27    5.846190962636e-06
    28   -4.066567561393e-06
    29   -3.046233343165e-16
    30   -6.468796678295e-06
    31    6.864655501598e-05
    32    1.354851273969e-04
    33    6.247520732814e-04
    34   -4.543802144424e-06
    35    1.083749270056e-05
    36   -7.267080083594e-17
    37    6.023538569808e-06
    38   -1.114346891329e-04
    39    1.173218716306e-04
    40    7.729907815042e-05
    41    4.815079303293e-05
    42   -1.664773430116e-05
    43    1.544831630088e-16
    44    1.087531192734e-06
    45   -1.209464980943e-05
    46   -1.303779585105e-05
    47    2.367992674402e-06
    48    3.019171235524e-16
    49    6.902533333678e-05
    50    9.466772895821e-05
    51    8.666248795148e-06
    52   -2.342892365066e-15
    53    6.217824940087e-04
    54   -1.610069203828e-04
    55   -2.450600973576e-06
    56    1.430431714845e-15
    57   -1.046081315748e-03
    58   -6.050010675788e-04
    59    3.255213651319e-04
    60    6.319185010417e-15
    61   -1.157827486097e-06
    62    7.990207664253e-16
    63   -9.199341126088e-16
    64    3.195604921394e-05
    65   -2.315597669878e-06
    66   -1.765550332609e-05
    67   -2.323828934015e-05
    68   -6.058259686191e-06
    69   -3.028439389592e-07
    70    1.073484219453e-15
    71    5.038562898488e-05
    72    1.573472562971e-05
    73   -5.722728741323e-06
    74   -3.132257758314e-15
    75   -2.619865840558e-04
    76   -1.036012649748e-04
    77    6.033536523802e-05
    78    6.336942708183e-15
    79    3.789340868445e-04
    80    3.273094377715e-04
    81   -4.366556237266e-06
    82   -7.800626119425e-15
    83    2.439586721029e-06
    84    4.822271193632e-16
    85    1.973588346186e-15
    86    2.122819469622e-06
    87    4.295025170001e-06
    88   -1.547172835307e-05
    89    7.774502878573e-05
    90   -9.733580979253e-05
    91   -8.589585449154e-05
    92   -3.509203970358e-16
    93   -5.955426262822e-04
    94   -2.447668967323e-04
    95   -5.938774867432e-05
    96    3.931351224287e-16
    97    3.133561461860e-04
    98   -2.079874167189e-03
    99   -1.857132901428e-03
   100    3.681265928156e-17
   101    5.399132732739e-03
   102    4.711840764031e-04
   103   -1.376599648863e-03
   104   -7.196661927373e-15
   105    1.940074119385e-04
   106    4.682171019887e-16
   107    6.343635569273e-17
   108   -3.717888552743e-05
   109   -4.092914324726e-05
   110   -5.509021935772e-01
   111   -4.719335892955e-01
   112    1.411608661446e-03
   113    8.827991371119e-04
   114    1.012106470521e-15
   115   -7.269715382368e-03
   116   -3.580188943010e-04
   117   -2.321583228812e-04
   118   -8.770380869306e-16
   119    4.445589903129e-03
   120   -4.574459532963e-04
   121   -2.203867701152e-04
   122    1.493120550865e-16
   123   -1.521766958854e-03
   124    1.203967651694e-04
   125    1.054977330564e-04
   126    1.698516363244e-15
   127   -8.082921340824e-04
   128   -3.940988228618e-16
   129    6.534640034358e-17
   130    6.504708901016e-05
   131    1.557014020124e-04
   132    3.935332808409e-06
   133   -8.488566364215e-06
   134   -3.598686303527e-05
   135    9.841583505118e-06
   136   -4.752263137595e-16
   137    8.577121694973e-05
   138    7.229373814190e-05
   139   -4.597021293809e-05
   140    9.224742292519e-16
   141   -4.845383367375e-04
   142    1.626367750725e-05
   143    6.150456212768e-04
   144   -1.110461673385e-15
   145   -1.260293196502e-04
   146    9.480015583181e-04
   147    7.806407548852e-05
   148    1.627675985696e-15
   149    1.175236745508e-05
   150   -1.398154271565e-15
   151   -3.317088158496e-16
   152    2.175771392776e-05
   153   -1.158769434726e-05
   154    9.902650266035e-07
   155   -3.811376022633e-06
   156   -2.648466039263e-06
   157   -4.514262094196e-06
   158    1.764582257590e-16
   159    3.465124381097e-05
   160    1.324183614136e-05
   161    1.593883196585e-05
   162   -1.852004305661e-16
   163   -2.803777249524e-04
   164   -6.758373285540e-05
   165   -8.630607022144e-05
   166   -1.103069167139e-15
   167   -5.290850742259e-04
   168   -9.830637598717e-05
   169    6.082175983746e-05
   170    1.138547297509e-15
   171   -4.552781286858e-06
   172    2.411378007274e-17
   173   -2.496843965932e-16
   174   -5.665596134890e-06
   175   -3.225986200302e-06
   176    7.751095831121e-06
   177   -1.372043615130e-05
   178   -1.630210508626e-05
   179   -3.660177208731e-06
   180   -6.019859116240e-16
   181    1.737409063836e-04
   182   -3.660042180880e-06
   183   -1.123650178584e-05
   184    2.348337749821e-15
   185   -2.265706081484e-03
   186    1.294356378332e-03
   187   -8.074304943695e-04
   188   -3.815291512843e-15
   189   -4.147302557390e-03
   190   -9.752383882991e-07
   191   -1.839041400918e-03
   192    7.947155402698e-15
   193   -1.314272255386e-05
   194   -5.583933695535e-16
   195   -6.922040062314e-16
   196   -2.283160421755e-05
   197    3.057320930676e-05
   198    1.884267046793e-05
   199   -1.901039020616e-04
   200   -6.013702936548e-04
   201   -5.466767965664e-04
   202    8.965362175865e-06
   203    1.093182446665e-05
   204    8.091076099745e-16
[5D]
