[Molden Format]
[Atoms] (Angs)
  C      1    6     -0.13173890     -1.79208980      0.00000000
  H      2    1     -2.14962000     -1.30978739      0.00000000
  H      3    1     -0.31599560     -2.86503115      0.00000000
  H      4    1      0.14407746      2.04280963     -0.00000000
  C      5    6     -1.17258876      0.48030861      0.00000000
  O      6    8     -2.25008207      1.06833796      0.00000000
  C      7    6      1.31158357      0.28308717     -0.00000000
  O      8    8      2.36361668      0.96389345     -0.00000000
  N      9    7      0.07017030      1.03138997     -0.00000000
  N     10    7     -1.19586868     -0.94982644      0.00000000
  C     11    6      1.19165158     -1.13169473     -0.00000000
  H     12    1      2.09970506     -1.73445456     -0.00000000
[GTO]
1    0
S    6    1.000000
   4.56324000E+03    1.96665000E-03 
   6.82024000E+02    1.52306000E-02 
   1.54973000E+02    7.61269000E-02 
   4.44553000E+01    2.60801000E-01 
   1.30290000E+01    6.16462000E-01 
   1.82773000E+00    2.21006000E-01 
SP   3    1.000000
   2.09642000E+01    1.14660000E-01   4.02487000E-02 
   4.80331000E+00    9.19999000E-01   2.37594000E-01 
   1.45933000E+00   -3.03068000E-03   8.15854000E-01 
SP   1    1.000000
   4.83456000E-01    1.00000000E+00   1.00000000E+00 
SP   1    1.000000
   1.45585000E-01    1.00000000E+00   1.00000000E+00 
SP   1    1.000000
   4.38000000E-02    1.00000000E+00   1.00000000E+00 
D    1    1.000000
   6.26000000E-01    1.00000000E+00 

2    0
S    3    1.000000
   3.38650000E+01    2.54938000E-02 
   5.09479000E+00    1.90373000E-01 
   1.15879000E+00    8.52161000E-01 
S    1    1.000000
   3.25840000E-01    1.00000000E+00 
S    1    1.000000
   1.02741000E-01    1.00000000E+00 
S    1    1.000000
   3.60000000E-02    1.00000000E+00 
P    1    1.000000
   7.50000000E-01    1.00000000E+00 

3    0
S    3    1.000000
   3.38650000E+01    2.54938000E-02 
   5.09479000E+00    1.90373000E-01 
   1.15879000E+00    8.52161000E-01 
S    1    1.000000
   3.25840000E-01    1.00000000E+00 
S    1    1.000000
   1.02741000E-01    1.00000000E+00 
S    1    1.000000
   3.60000000E-02    1.00000000E+00 
P    1    1.000000
   7.50000000E-01    1.00000000E+00 

4    0
S    3    1.000000
   3.38650000E+01    2.54938000E-02 
   5.09479000E+00    1.90373000E-01 
   1.15879000E+00    8.52161000E-01 
S    1    1.000000
   3.25840000E-01    1.00000000E+00 
S    1    1.000000
   1.02741000E-01    1.00000000E+00 
S    1    1.000000
   3.60000000E-02    1.00000000E+00 
P    1    1.000000
   7.50000000E-01    1.00000000E+00 

5    0
S    6    1.000000
   4.56324000E+03    1.96665000E-03 
   6.82024000E+02    1.52306000E-02 
   1.54973000E+02    7.61269000E-02 
   4.44553000E+01    2.60801000E-01 
   1.30290000E+01    6.16462000E-01 
   1.82773000E+00    2.21006000E-01 
SP   3    1.000000
   2.09642000E+01    1.14660000E-01   4.02487000E-02 
   4.80331000E+00    9.19999000E-01   2.37594000E-01 
   1.45933000E+00   -3.03068000E-03   8.15854000E-01 
SP   1    1.000000
   4.83456000E-01    1.00000000E+00   1.00000000E+00 
SP   1    1.000000
   1.45585000E-01    1.00000000E+00   1.00000000E+00 
SP   1    1.000000
   4.38000000E-02    1.00000000E+00   1.00000000E+00 
D    1    1.000000
   6.26000000E-01    1.00000000E+00 

6    0
S    6    1.000000
   8.58850000E+03    1.89515000E-03 
   1.29723000E+03    1.43859000E-02 
   2.99296000E+02    7.07320000E-02 
   8.73771000E+01    2.40001000E-01 
   2.56789000E+01    5.94797000E-01 
   3.74004000E+00    2.80802000E-01 
SP   3    1.000000
   4.21175000E+01    1.13889000E-01   3.65114000E-02 
   9.62837000E+00    9.20811000E-01   2.37153000E-01 
   2.85332000E+00   -3.27447000E-03   8.19702000E-01 
SP   1    1.000000
   9.05661000E-01    1.00000000E+00   1.00000000E+00 
SP   1    1.000000
   2.55611000E-01    1.00000000E+00   1.00000000E+00 
SP   1    1.000000
   8.45000000E-02    1.00000000E+00   1.00000000E+00 
D    1    1.000000
   1.29200000E+00    1.00000000E+00 

7    0
S    6    1.000000
   4.56324000E+03    1.96665000E-03 
   6.82024000E+02    1.52306000E-02 
   1.54973000E+02    7.61269000E-02 
   4.44553000E+01    2.60801000E-01 
   1.30290000E+01    6.16462000E-01 
   1.82773000E+00    2.21006000E-01 
SP   3    1.000000
   2.09642000E+01    1.14660000E-01   4.02487000E-02 
   4.80331000E+00    9.19999000E-01   2.37594000E-01 
   1.45933000E+00   -3.03068000E-03   8.15854000E-01 
SP   1    1.000000
   4.83456000E-01    1.00000000E+00   1.00000000E+00 
SP   1    1.000000
   1.45585000E-01    1.00000000E+00   1.00000000E+00 
SP   1    1.000000
   4.38000000E-02    1.00000000E+00   1.00000000E+00 
D    1    1.000000
   6.26000000E-01    1.00000000E+00 

8    0
S    6    1.000000
   8.58850000E+03    1.89515000E-03 
   1.29723000E+03    1.43859000E-02 
   2.99296000E+02    7.07320000E-02 
   8.73771000E+01    2.40001000E-01 
   2.56789000E+01    5.94797000E-01 
   3.74004000E+00    2.80802000E-01 
SP   3    1.000000
   4.21175000E+01    1.13889000E-01   3.65114000E-02 
   9.62837000E+00    9.20811000E-01   2.37153000E-01 
   2.85332000E+00   -3.27447000E-03   8.19702000E-01 
SP   1    1.000000
   9.05661000E-01    1.00000000E+00   1.00000000E+00 
SP   1    1.000000
   2.55611000E-01    1.00000000E+00   1.00000000E+00 
SP   1    1.000000
   8.45000000E-02    1.00000000E+00   1.00000000E+00 
D    1    1.000000
   1.29200000E+00    1.00000000E+00 

9    0
S    6    1.000000
   6.29348000E+03    1.96979000E-03 
   9.49044000E+02    1.49613000E-02 
   2.18776000E+02    7.35006000E-02 
   6.36916000E+01    2.48937000E-01 
   1.88282000E+01    6.02460000E-01 
   2.72023000E+00    2.56202000E-01 
SP   3    1.000000
   3.06331000E+01    1.11906000E-01   3.83119000E-02 
   7.02614000E+00    9.21666000E-01   2.37403000E-01 
   2.11205000E+00   -2.56919000E-03   8.17592000E-01 
SP   1    1.000000
   6.84009000E-01    1.00000000E+00   1.00000000E+00 
SP   1    1.000000
   2.00878000E-01    1.00000000E+00   1.00000000E+00 
SP   1    1.000000
   6.39000000E-02    1.00000000E+00   1.00000000E+00 
D    1    1.000000
   9.13000000E-01    1.00000000E+00 

10    0
S    6    1.000000
   6.29348000E+03    1.96979000E-03 
   9.49044000E+02    1.49613000E-02 
   2.18776000E+02    7.35006000E-02 
   6.36916000E+01    2.48937000E-01 
   1.88282000E+01    6.02460000E-01 
   2.72023000E+00    2.56202000E-01 
SP   3    1.000000
   3.06331000E+01    1.11906000E-01   3.83119000E-02 
   7.02614000E+00    9.21666000E-01   2.37403000E-01 
   2.11205000E+00   -2.56919000E-03   8.17592000E-01 
SP   1    1.000000
   6.84009000E-01    1.00000000E+00   1.00000000E+00 
SP   1    1.000000
   2.00878000E-01    1.00000000E+00   1.00000000E+00 
SP   1    1.000000
   6.39000000E-02    1.00000000E+00   1.00000000E+00 
D    1    1.000000
   9.13000000E-01    1.00000000E+00 

11    0
S    6    1.000000
   4.56324000E+03    1.96665000E-03 
   6.82024000E+02    1.52306000E-02 
   1.54973000E+02    7.61269000E-02 
   4.44553000E+01    2.60801000E-01 
   1.30290000E+01    6.16462000E-01 
   1.82773000E+00    2.21006000E-01 
SP   3    1.000000
   2.09642000E+01    1.14660000E-01   4.02487000E-02 
   4.80331000E+00    9.19999000E-01   2.37594000E-01 
   1.45933000E+00   -3.03068000E-03   8.15854000E-01 
SP   1    1.000000
   4.83456000E-01    1.00000000E+00   1.00000000E+00 
SP   1    1.000000
   1.45585000E-01    1.00000000E+00   1.00000000E+00 
SP   1    1.000000
   4.38000000E-02    1.00000000E+00   1.00000000E+00 
D    1    1.000000
   6.26000000E-01    1.00000000E+00 

12    0
S    3    1.000000
   3.38650000E+01    2.54938000E-02 
   5.09479000E+00    1.90373000E-01 
   1.15879000E+00    8.52161000E-01 
S    1    1.000000
   3.25840000E-01    1.00000000E+00 
S    1    1.000000
   1.02741000E-01    1.00000000E+00 
S    1    1.000000
   3.60000000E-02    1.00000000E+00 
P    1    1.000000
   7.50000000E-01    1.00000000E+00 

[MO]
Sym=X
Ene= -0.002809
Spin=Alpha
Occup=1
     1    3.401596311109e-05
     2    5.603169500423e-05
     3    2.293730229557e-05
     4    1.125868881895e-04
     5   -1.195170678212e-15
     6   -1.304143001469e-04
     7    3.761307629521e-05
     8    1.883431105785e-04
     9    1.539913972398e-15
    10   -1.353607053152e-03
    11   -2.706781238924e-04
    12   -2.433250941968e-04
    13   -4.425314317458e-15
    14   -1.235348520492e-02
    15    7.824376600711e-04
    16   -1.694504749135e-03
    17    6.183053324550e-15
    18   -4.646086833408e-06
    19    1.516796230553e-15
    20   -3.959678930392e-16
    21   -6.984492186045e-05
    22    1.159271146994e-05
    23    6.841123016643e-05
    24    3.607822156758e-04
    25    2.244359743352e-03
    26    8.079282484078e-03
    27   -5.182213144434e-05
    28   -2.230543259517e-05
    29    3.040516630498e-16
    30    2.728178343024e-05
    31   -1.505432372728e-05
    32    7.237717609282e-04
    33    3.062974198930e-03
    34   -1.754890238075e-05
    35   -3.800264292336e-05
    36    5.883814225699e-17
    37    3.605158821351e-05
    38    9.321755935060e-05
    39   -1.885908979373e-03
    40   -6.027287021087e-03
    41    1.331507571574e-05
    42   -5.849885893077e-05
    43   -4.806258180282e-18
    44    2.102629696188e-05
    45    3.601486295318e-05
    46    5.816772734098e-05
    47   -3.644947335294e-05
    48   -9.867703200063e-16
    49   -1.270047973734e-05
    50    1.078288955438e-04
    51   -4.378159112002e-05
    52    3.042638257963e-15
    53   -1.519570349413e-03
    54    7.036637459178e-04
    55   -4.076357916334e-04
    56   -1.988503753105e-15
    57   -4.348636502472e-03
    58    2.500740707384e-03
    59   -2.086844412394e-03
    60   -5.934810050189e-15
    61   -7.417384042242e-05
    62    5.673656587122e-16
    63    3.865863659262e-16
    64   -2.442143463552e-05
    65   -7.442823081315e-05
    66   -4.139113318330e-04
    67   -4.598347534989e-04
    68    2.402816788891e-04
    69    2.276940661654e-04
    70   -1.037561050152e-15
    71    4.583822652155e-04
    72    3.049614769932e-04
    73    2.977886417628e-04
    74    2.955101829431e-15
    75    9.366024991566e-04
    76    4.904422970341e-04
    77    8.785565432054e-05
    78   -4.754045599641e-15
    79    2.872922739031e-03
    80   -1.161639816243e-04
    81   -3.164935077491e-04
    82    6.421314415084e-15
    83   -1.062755923906e-05
    84   -7.401023536310e-16
    85   -1.338126520051e-15
    86    2.014998514578e-05
    87    7.863595030706e-06
    88    2.874568996744e-05
    89   -2.195432915832e-05
    90    1.202384712537e-04
    91    1.181678187275e-05
    92    7.324829945084e-16
    93    9.092275392147e-05
    94    4.323120580458e-04
    95    1.780150706031e-04
    96    8.466082537495e-17
    97   -5.566731619356e-04
    98    3.359508038104e-04
    99    2.750710467547e-04
   100    9.494336421758e-16
   101   -1.999925789908e-02
   102    1.204171115049e-04
   103    7.347179123972e-03
   104    6.650842429198e-15
   105   -9.202735936755e-05
   106    9.339508072384e-16
   107   -1.645031455587e-16
   108    6.624803947734e-05
   109    1.621709872620e-04
   110    5.516255497770e-01
   111    4.715683581804e-01
   112   -1.518707062846e-03
   113   -7.657961037481e-04
   114   -1.091755394742e-15
   115    5.271415038864e-03
   116    5.738741789626e-04
   117    3.067767583340e-04
   118    1.177169195477e-15
   119   -7.083981971345e-04
   120   -2.838930109595e-04
   121   -3.381457121112e-06
   122   -2.777528519868e-15
   123    1.387580926616e-03
   124   -2.914186698942e-05
   125   -4.406978247238e-04
   126    1.285151209161e-16
   127   -6.091984260213e-05
   128    4.895336916278e-16
   129   -8.918159247953e-17
   130    1.258810330283e-05
   131   -9.373344780710e-06
   132   -6.488197275893e-05
   133   -1.112712985906e-04
   134   -2.859440070642e-06
   135    1.518444819886e-04
   136    5.561342493813e-16
   137    3.341159751324e-04
   138   -9.020937201692e-06
   139    2.206304396614e-04
   140   -1.206191134719e-15
   141    1.145106480342e-03
   142   -5.860028646203e-05
   143    2.012004823070e-04
   144    1.065346008415e-15
   145    1.817470734272e-03
   146   -4.265639108679e-04
   147    3.174398997109e-03
   148   -2.701017468777e-15
   149   -1.922057609236e-05
   150    1.048206986562e-15
   151    3.490498264300e-16
   152    1.023909855239e-05
   153    3.068190460203e-06
   154    3.615211095287e-05
   155    6.138116165205e-05
   156    1.988014629843e-04
   157    1.646400435662e-04
   158   -1.289745530813e-16
   159   -1.755183546696e-04
   160    3.150608726687e-04
   161    2.534553887693e-04
   162    6.399955911206e-16
   163   -6.493700234925e-04
   164    7.142648229376e-04
   165    5.384155983293e-04
   166    1.468835629355e-15
   167    1.336026315272e-03
   168    2.455875212669e-03
   169    8.539511658202e-04
   170    1.192144123657e-16
   171   -1.136750916353e-05
   172    8.368398801276e-17
   173    2.082083828497e-16
   174    2.351254304904e-05
   175    3.125842920645e-05
   176   -8.733649158802e-06
   177   -1.820074525297e-05
   178    2.765223881557e-06
   179    3.816860651797e-05
   180    1.393781199097e-15
   181    2.400842069373e-05
   182    1.824867999711e-05
   183    1.379282838690e-04
   184   -3.105991100264e-15
   185    9.509414463633e-04
   186   -6.273239589421e-04
   187    3.703439503222e-04
   188    4.237624584438e-15
   189    2.458955183101e-02
   190   -1.255161724110e-03
   191    6.390692927857e-03
   192   -7.457279681069e-15
   193   -1.522580860498e-05
   194    5.531859491312e-16
   195    3.783857904628e-16
   196   -4.620953758814e-06
   197    3.284460801715e-05
   198    5.035549915174e-06
   199    1.556016140921e-04
   200    2.237819715920e-04
   201    8.886273088196e-04
   202   -1.576892965627e-05
   203    1.315490053484e-05
   204   -8.329210246833e-16
Sym=X
Ene= 0.002809
Spin=Alpha
Occup=0
     1    4.142634512910e-06
     2    5.006425042078e-06
     3    7.022808127818e-06
     4   -8.277724589887e-06
     5   -1.304764599047e-16
     6   -8.818633764222e-06
     7   -9.496089671574e-06
     8    2.554789374678e-05
     9    1.182857220430e-15
    10    1.146104485190e-04
    11   -1.044838359821e-04
    12   -1.398111917468e-04
    13   -1.891496307760e-15
    14   -1.210419464504e-03
    15   -7.188549332647e-04
    16   -5.585860899346e-04
    17   -5.982673137581e-15
    18    3.047900856844e-07
    19   -2.245510681089e-16
    20   -1.023607950304e-15
    21   -6.061927601239e-06
    22   -6.217374031093e-06
    23    5.767899366769e-06
    24   -4.620009972261e-05
    25    9.821434710255e-05
    26   -2.287715111732e-04
    27   -1.825250188011e-05
    28    7.791457868425e-06
    29   -7.656291072007e-16
    30    8.099977846022e-06
    31   -3.976592403565e-05
    32   -6.716359114867e-05
    33   -1.842514569678e-04
    34   -8.679045420620e-07
    35   -5.421453187819e-06
    36   -1.003973549554e-15
    37   -8.277855827945e-06
    38   -7.617522823830e-05
    39   -3.156199272250e-04
    40   -3.191734244815e-04
    41   -1.793831262440e-06
    42    7.013715159618e-06
    43    1.949221284663e-16
    44    1.803868231591e-06
    45    7.014550455791e-05
    46    7.610630423328e-05
    47   -3.238351131027e-05
    48   -1.232166801670e-15
    49   -2.906879281894e-04
    50    3.251858644232e-04
    51   -1.295420545323e-04
    52    1.637268922959e-15
    53    9.016492741365e-05
    54    7.988007033889e-04
    55   -4.600568814476e-05
    56   -3.353106502200e-15
    57   -1.393001878039e-04
    58   -7.637036302874e-04
    59    9.639071447275e-05
    60    2.887178073502e-15
    61    3.309918986361e-05
    62   -1.522051004371e-15
    63    2.020811739122e-16
    64   -1.088618215406e-04
    65    1.325178426672e-04
    66   -5.513501526486e-01
    67   -4.717989411614e-01
    68   -1.771449453670e-03
    69    2.383880879484e-04
    70    1.212970744771e-15
    71   -5.615903705305e-03
    72    8.065138220015e-04
    73    2.013650200444e-04
    74   -1.048958856417e-15
    75    1.472990129361e-03
    76   -2.357796043506e-04
    77   -9.226887519892e-05
    78   -7.569264686856e-17
    79   -1.346433282876e-03
    80    8.347135817049e-05
    81    1.949603773756e-04
    82   -8.752996476039e-16
    83    9.748785841141e-05
    84   -4.189727403782e-16
    85    5.735459983020e-16
    86   -5.110622712994e-05
    87   -7.347020481621e-05
    88   -1.122191094971e-06
    89   -3.911114973046e-06
    90    2.621241436837e-06
    91    3.631335292247e-07
    92   -5.154547473102e-16
    93    1.277708921020e-05
    94   -3.476905902433e-05
    95    1.716594689780e-05
    96    1.862997991594e-15
    97    2.172201925026e-04
    98   -7.227522789408e-06
    99    8.218411769827e-05
   100   -4.457521187428e-16
   101   -8.325119800596e-04
   102   -2.432730437085e-04
   103    7.260923637724e-04
   104   -1.012814527902e-14
   105   -2.348337137854e-06
   106    1.047362362599e-15
   107    1.758449597233e-16
   108    1.311016220371e-05
   109   -1.672251874617e-06
   110   -3.396356798537e-04
   111   -3.287373697139e-04
   112    4.863682307201e-06
   113    3.881585407573e-07
   114   -1.264848743745e-15
   115   -9.243561804856e-06
   116    4.378722307591e-06
   117   -4.556441493188e-06
   118    2.979468465220e-15
   119   -3.474772668365e-05
   120    2.741772877811e-05
   121    1.429578328042e-05
   122   -4.706406702076e-15
   123   -5.999789395915e-05
   124    2.996739710417e-05
   125   -6.599386255469e-05
   126    4.019564945564e-15
   127   -1.316322119737e-07
   128    3.175656338517e-16
   129    4.341408375738e-16
   130   -1.177985424296e-06
   131   -1.256896700273e-06
   132    2.132487189498e-06
   133   -1.043988674647e-06
   134    3.825698510093e-06
   135    1.032803507090e-05
   136   -6.428899336243e-16
   137    3.536263255121e-05
   138    2.241459507986e-05
   139    6.845011820347e-06
   140    1.855956163361e-15
   141   -4.586024205276e-04
   142    9.563615727336e-05
   143    3.419507274118e-04
   144   -5.323204314653e-16
   145   -2.441177310058e-04
   146   -1.270311352125e-04
   147    3.708131117598e-04
   148    2.726223294837e-15
   149    7.122588665212e-07
   150   -5.126842936742e-16
   151   -7.315889466505e-16
   152   -1.650816868343e-05
   153   -1.562897205167e-05
   154   -3.154476590864e-06
   155   -6.668152537841e-06
   156    1.430006495309e-06
   157    2.442603232509e-05
   158   -1.645099944963e-16
   159    3.775263356496e-05
   160    8.670134888998e-06
   161   -1.767752795226e-06
   162   -1.106779585652e-15
   163   -8.708127610599e-05
   164   -1.787361974930e-04
   165    5.837162420608e-05
   166    2.748161934998e-15
   167    3.222083190426e-04
   168   -3.699415833907e-05
   169    6.363228442704e-04
   170    2.631442993117e-15
   171    1.358425401857e-05
   172    5.599178520650e-16
   173    7.898859963947e-16
   174    1.154412619173e-05
   175    1.474012615420e-05
   176   -2.270044991057e-07
   177    5.871576392512e-08
   178   -4.510520514529e-08
   179   -1.110388675723e-06
   180    1.032494185495e-15
   181   -1.055529600763e-05
   182    2.330155401989e-06
   183   -2.943212395376e-06
   184   -1.668877209507e-16
   185    1.450650647668e-04
   186   -1.179278514465e-04
   187    2.881089553491e-05
   188    5.913097041937e-17
   189    3.580191819809e-03
   190   -4.584090224307e-04
   191    3.810020902180e-04
   192    8.768429207568e-15
   193   -3.891471713184e-06
   194   -3.330769261077e-16
   195    4.034742890561e-16
   196   -2.153201501731e-06
   197    3.824823189283e-06
   198   -6.730770234260e-07
   199    2.511962012333e-05
   200    2.342805387477e-05
   201    6.384837456973e-05
   202   -2.177492083035e-06
   203    1.939506497984e-06
   204   -5.708159937510e-16
[5D]
