[Molden Format]
[Atoms] (Angs)
  C      1    6     -0.13173890     -1.79208980      0.00000000
  H      2    1     -2.14962000     -1.30978739      0.00000000
  H      3    1     -0.31599560     -2.86503115      0.00000000
  H      4    1      0.14407746      2.04280963     -0.00000000
  C      5    6     -1.17258876      0.48030861      0.00000000
  O      6    8     -2.25008207      1.06833796      0.00000000
  C      7    6      1.31158357      0.28308717     -0.00000000
  O      8    8      2.36361668      0.96389345     -0.00000000
  N      9    7      0.07017030      1.03138997     -0.00000000
  N     10    7     -1.19586868     -0.94982644      0.00000000
  C     11    6      1.19165158     -1.13169473     -0.00000000
  H     12    1      2.09970506     -1.73445456     -0.00000000
[GTO]
1    0
S    6    1.000000
   4.56324000E+03    1.96665000E-03 
   6.82024000E+02    1.52306000E-02 
   1.54973000E+02    7.61269000E-02 
   4.44553000E+01    2.60801000E-01 
   1.30290000E+01    6.16462000E-01 
   1.82773000E+00    2.21006000E-01 
SP   3    1.000000
   2.09642000E+01    1.14660000E-01   4.02487000E-02 
   4.80331000E+00    9.19999000E-01   2.37594000E-01 
   1.45933000E+00   -3.03068000E-03   8.15854000E-01 
SP   1    1.000000
   4.83456000E-01    1.00000000E+00   1.00000000E+00 
SP   1    1.000000
   1.45585000E-01    1.00000000E+00   1.00000000E+00 
SP   1    1.000000
   4.38000000E-02    1.00000000E+00   1.00000000E+00 
D    1    1.000000
   6.26000000E-01    1.00000000E+00 

2    0
S    3    1.000000
   3.38650000E+01    2.54938000E-02 
   5.09479000E+00    1.90373000E-01 
   1.15879000E+00    8.52161000E-01 
S    1    1.000000
   3.25840000E-01    1.00000000E+00 
S    1    1.000000
   1.02741000E-01    1.00000000E+00 
S    1    1.000000
   3.60000000E-02    1.00000000E+00 
P    1    1.000000
   7.50000000E-01    1.00000000E+00 

3    0
S    3    1.000000
   3.38650000E+01    2.54938000E-02 
   5.09479000E+00    1.90373000E-01 
   1.15879000E+00    8.52161000E-01 
S    1    1.000000
   3.25840000E-01    1.00000000E+00 
S    1    1.000000
   1.02741000E-01    1.00000000E+00 
S    1    1.000000
   3.60000000E-02    1.00000000E+00 
P    1    1.000000
   7.50000000E-01    1.00000000E+00 

4    0
S    3    1.000000
   3.38650000E+01    2.54938000E-02 
   5.09479000E+00    1.90373000E-01 
   1.15879000E+00    8.52161000E-01 
S    1    1.000000
   3.25840000E-01    1.00000000E+00 
S    1    1.000000
   1.02741000E-01    1.00000000E+00 
S    1    1.000000
   3.60000000E-02    1.00000000E+00 
P    1    1.000000
   7.50000000E-01    1.00000000E+00 

5    0
S    6    1.000000
   4.56324000E+03    1.96665000E-03 
   6.82024000E+02    1.52306000E-02 
   1.54973000E+02    7.61269000E-02 
   4.44553000E+01    2.60801000E-01 
   1.30290000E+01    6.16462000E-01 
   1.82773000E+00    2.21006000E-01 
SP   3    1.000000
   2.09642000E+01    1.14660000E-01   4.02487000E-02 
   4.80331000E+00    9.19999000E-01   2.37594000E-01 
   1.45933000E+00   -3.03068000E-03   8.15854000E-01 
SP   1    1.000000
   4.83456000E-01    1.00000000E+00   1.00000000E+00 
SP   1    1.000000
   1.45585000E-01    1.00000000E+00   1.00000000E+00 
SP   1    1.000000
   4.38000000E-02    1.00000000E+00   1.00000000E+00 
D    1    1.000000
   6.26000000E-01    1.00000000E+00 

6    0
S    6    1.000000
   8.58850000E+03    1.89515000E-03 
   1.29723000E+03    1.43859000E-02 
   2.99296000E+02    7.07320000E-02 
   8.73771000E+01    2.40001000E-01 
   2.56789000E+01    5.94797000E-01 
   3.74004000E+00    2.80802000E-01 
SP   3    1.000000
   4.21175000E+01    1.13889000E-01   3.65114000E-02 
   9.62837000E+00    9.20811000E-01   2.37153000E-01 
   2.85332000E+00   -3.27447000E-03   8.19702000E-01 
SP   1    1.000000
   9.05661000E-01    1.00000000E+00   1.00000000E+00 
SP   1    1.000000
   2.55611000E-01    1.00000000E+00   1.00000000E+00 
SP   1    1.000000
   8.45000000E-02    1.00000000E+00   1.00000000E+00 
D    1    1.000000
   1.29200000E+00    1.00000000E+00 

7    0
S    6    1.000000
   4.56324000E+03    1.96665000E-03 
   6.82024000E+02    1.52306000E-02 
   1.54973000E+02    7.61269000E-02 
   4.44553000E+01    2.60801000E-01 
   1.30290000E+01    6.16462000E-01 
   1.82773000E+00    2.21006000E-01 
SP   3    1.000000
   2.09642000E+01    1.14660000E-01   4.02487000E-02 
   4.80331000E+00    9.19999000E-01   2.37594000E-01 
   1.45933000E+00   -3.03068000E-03   8.15854000E-01 
SP   1    1.000000
   4.83456000E-01    1.00000000E+00   1.00000000E+00 
SP   1    1.000000
   1.45585000E-01    1.00000000E+00   1.00000000E+00 
SP   1    1.000000
   4.38000000E-02    1.00000000E+00   1.00000000E+00 
D    1    1.000000
   6.26000000E-01    1.00000000E+00 

8    0
S    6    1.000000
   8.58850000E+03    1.89515000E-03 
   1.29723000E+03    1.43859000E-02 
   2.99296000E+02    7.07320000E-02 
   8.73771000E+01    2.40001000E-01 
   2.56789000E+01    5.94797000E-01 
   3.74004000E+00    2.80802000E-01 
SP   3    1.000000
   4.21175000E+01    1.13889000E-01   3.65114000E-02 
   9.62837000E+00    9.20811000E-01   2.37153000E-01 
   2.85332000E+00   -3.27447000E-03   8.19702000E-01 
SP   1    1.000000
   9.05661000E-01    1.00000000E+00   1.00000000E+00 
SP   1    1.000000
   2.55611000E-01    1.00000000E+00   1.00000000E+00 
SP   1    1.000000
   8.45000000E-02    1.00000000E+00   1.00000000E+00 
D    1    1.000000
   1.29200000E+00    1.00000000E+00 

9    0
S    6    1.000000
   6.29348000E+03    1.96979000E-03 
   9.49044000E+02    1.49613000E-02 
   2.18776000E+02    7.35006000E-02 
   6.36916000E+01    2.48937000E-01 
   1.88282000E+01    6.02460000E-01 
   2.72023000E+00    2.56202000E-01 
SP   3    1.000000
   3.06331000E+01    1.11906000E-01   3.83119000E-02 
   7.02614000E+00    9.21666000E-01   2.37403000E-01 
   2.11205000E+00   -2.56919000E-03   8.17592000E-01 
SP   1    1.000000
   6.84009000E-01    1.00000000E+00   1.00000000E+00 
SP   1    1.000000
   2.00878000E-01    1.00000000E+00   1.00000000E+00 
SP   1    1.000000
   6.39000000E-02    1.00000000E+00   1.00000000E+00 
D    1    1.000000
   9.13000000E-01    1.00000000E+00 

10    0
S    6    1.000000
   6.29348000E+03    1.96979000E-03 
   9.49044000E+02    1.49613000E-02 
   2.18776000E+02    7.35006000E-02 
   6.36916000E+01    2.48937000E-01 
   1.88282000E+01    6.02460000E-01 
   2.72023000E+00    2.56202000E-01 
SP   3    1.000000
   3.06331000E+01    1.11906000E-01   3.83119000E-02 
   7.02614000E+00    9.21666000E-01   2.37403000E-01 
   2.11205000E+00   -2.56919000E-03   8.17592000E-01 
SP   1    1.000000
   6.84009000E-01    1.00000000E+00   1.00000000E+00 
SP   1    1.000000
   2.00878000E-01    1.00000000E+00   1.00000000E+00 
SP   1    1.000000
   6.39000000E-02    1.00000000E+00   1.00000000E+00 
D    1    1.000000
   9.13000000E-01    1.00000000E+00 

11    0
S    6    1.000000
   4.56324000E+03    1.96665000E-03 
   6.82024000E+02    1.52306000E-02 
   1.54973000E+02    7.61269000E-02 
   4.44553000E+01    2.60801000E-01 
   1.30290000E+01    6.16462000E-01 
   1.82773000E+00    2.21006000E-01 
SP   3    1.000000
   2.09642000E+01    1.14660000E-01   4.02487000E-02 
   4.80331000E+00    9.19999000E-01   2.37594000E-01 
   1.45933000E+00   -3.03068000E-03   8.15854000E-01 
SP   1    1.000000
   4.83456000E-01    1.00000000E+00   1.00000000E+00 
SP   1    1.000000
   1.45585000E-01    1.00000000E+00   1.00000000E+00 
SP   1    1.000000
   4.38000000E-02    1.00000000E+00   1.00000000E+00 
D    1    1.000000
   6.26000000E-01    1.00000000E+00 

12    0
S    3    1.000000
   3.38650000E+01    2.54938000E-02 
   5.09479000E+00    1.90373000E-01 
   1.15879000E+00    8.52161000E-01 
S    1    1.000000
   3.25840000E-01    1.00000000E+00 
S    1    1.000000
   1.02741000E-01    1.00000000E+00 
S    1    1.000000
   3.60000000E-02    1.00000000E+00 
P    1    1.000000
   7.50000000E-01    1.00000000E+00 

[MO]
Sym=X
Ene= -0.042930
Spin=Alpha
Occup=1
     1   -6.593594825800e-08
     2   -1.623767111658e-06
     3    2.241648439839e-06
     4    1.642008771759e-07
     5   -9.325044147988e-16
     6    1.666685450877e-05
     7   -5.248934292842e-06
     8   -1.668729974615e-06
     9    2.034369607994e-15
    10   -4.575655548890e-04
    11   -1.164522380365e-04
    12   -2.719053318248e-04
    13   -3.453565527456e-15
    14    2.782893888470e-05
    15    2.037204638644e-04
    16   -5.617475813546e-04
    17    6.170777366733e-15
    18    2.663675916581e-06
    19    1.400639194661e-15
    20   -3.745802296284e-16
    21   -5.679990321413e-06
    22    4.231030784595e-06
    23   -2.219882323007e-07
    24    1.096326846219e-05
    25   -3.746159074359e-05
    26    7.216334638674e-05
    27   -2.798023488275e-06
    28    1.944152098819e-06
    29    2.584728138271e-16
    30   -6.054647256196e-07
    31   -1.783531332897e-05
    32   -1.518750313795e-04
    33   -3.041042173720e-04
    34    4.189197835591e-06
    35   -3.119607457789e-06
    36    1.201520108697e-16
    37    2.250766102986e-06
    38    6.449458980599e-05
    39    8.713174955392e-05
    40    8.255366995874e-05
    41   -8.117460969168e-06
    42   -7.301107751894e-06
    43   -1.117729111140e-17
    44   -5.142363189179e-07
    45    1.535664707628e-06
    46    5.599607035886e-06
    47   -1.106978912054e-07
    48   -1.064962649872e-15
    49   -1.082271075501e-05
    50   -2.524119468923e-05
    51   -5.514174718511e-07
    52    2.973629361460e-15
    53   -2.756041680668e-04
    54   -1.250406814308e-04
    55   -1.982372833270e-06
    56   -2.160953917792e-15
    57   -1.945010251296e-04
    58    2.845828001342e-05
    59   -1.621493399768e-04
    60   -4.301725532542e-15
    61    3.461857828800e-06
    62    2.927575116686e-16
    63    4.403424228193e-16
    64   -3.801236836392e-06
    65    1.504168662665e-06
    66   -1.263431931262e-05
    67   -1.120810474834e-05
    68    2.863731923350e-07
    69   -2.278517132984e-07
    70   -1.035540281983e-15
    71   -9.610818242923e-06
    72   -3.799171578996e-06
    73    8.724840566602e-07
    74    3.008743098795e-15
    75    3.319156047794e-05
    76    1.869267913955e-05
    77   -9.963532631182e-07
    78   -4.951511580338e-15
    79   -2.246399822565e-04
    80   -1.290143875839e-04
    81    4.066801453802e-05
    82    6.332567861729e-15
    83    1.784498213757e-07
    84   -5.724658895340e-16
    85   -1.198346535692e-15
    86    5.193947098952e-07
    87   -4.722876755655e-08
    88    3.334034919959e-06
    89   -7.086997415006e-05
    90    4.630400936336e-05
    91    3.405313710905e-05
    92    4.921860163961e-16
    93    2.751943079769e-04
    94    3.294213921542e-04
    95    2.143348104456e-04
    96   -7.954548740782e-17
    97   -2.515642923404e-04
    98    4.513074887652e-04
    99    4.229383451614e-04
   100    3.668620765400e-16
   101   -2.182103149181e-03
   102   -6.573691336616e-04
   103    4.657990366042e-04
   104    3.843734384796e-15
   105   -5.651508153918e-05
   106    6.547896152377e-16
   107   -1.408023381627e-16
   108    9.561381675577e-05
   109    1.790167543321e-04
   110    5.515042964700e-01
   111    4.716928319463e-01
   112   -1.502856847949e-03
   113   -8.880592179854e-04
   114   -9.842450540362e-16
   115    5.425406549922e-03
   116    6.240427195981e-04
   117    3.622874776660e-04
   118    1.260371325572e-15
   119   -1.224053858822e-03
   120   -1.470198494474e-04
   121   -1.032750778301e-04
   122   -2.008466361520e-15
   123    1.285178117312e-03
   124   -1.718114556971e-05
   125   -4.427035652792e-06
   126    4.257289811807e-16
   127   -1.080521651126e-04
   128    4.778149827568e-16
   129   -8.178869063464e-17
   130   -3.808846168356e-05
   131   -9.763261593909e-05
   132    2.307899784108e-07
   133    2.248184087050e-06
   134   -1.011310781030e-05
   135    3.337613526165e-06
   136    6.092878715021e-16
   137   -3.312362478562e-05
   138    2.511627694281e-05
   139   -7.380039258481e-06
   140   -1.016394403765e-15
   141    2.598593466217e-04
   142   -1.007395515525e-04
   143   -2.345889159240e-04
   144    1.050499563658e-15
   145   -2.263924061968e-04
   146   -5.479137216520e-04
   147   -7.511335026490e-05
   148   -1.438735828894e-15
   149   -8.473815320995e-06
   150    1.076867430123e-15
   151    4.016770682261e-16
   152    1.501551273743e-05
   153   -1.602804932255e-05
   154   -1.497432023712e-08
   155    7.108699112126e-07
   156    3.563531121518e-07
   157    3.853317882331e-07
   158   -2.473253900934e-16
   159   -1.083123816406e-05
   160   -1.328248835489e-06
   161   -1.996511928921e-06
   162    4.236540563445e-16
   163    1.550803663439e-04
   164    8.068217919399e-05
   165    8.187760166063e-06
   166    1.193937392799e-15
   167    1.843168617591e-04
   168   -5.767273793653e-05
   169    1.885405681562e-05
   170   -1.247798384110e-15
   171    2.453568461175e-07
   172    1.018113686270e-16
   173    6.483325434331e-17
   174   -2.753990601069e-07
   175   -1.532204935495e-06
   176    1.650790283217e-06
   177    9.777093203355e-07
   178   -4.356714149393e-06
   179   -1.707104176914e-05
   180    1.385058321040e-15
   181   -2.004940589424e-05
   182    9.032160770634e-06
   183    8.332560025564e-05
   184   -3.433845708514e-15
   185    6.167475598707e-04
   186   -5.062142073035e-04
   187    1.609503308335e-04
   188    3.746951250589e-15
   189    1.762822620070e-03
   190    1.185528937061e-04
   191    1.060173405481e-03
   192   -5.794847360972e-15
   193   -7.352470641843e-06
   194    5.333410398704e-16
   195    3.909835963310e-16
   196   -3.011216392139e-05
   197    3.139958120960e-05
   198   -3.578352257737e-06
   199    1.246318754563e-04
   200    1.474516886510e-04
   201    3.290911399742e-04
   202   -2.093626074646e-05
   203    1.132399810286e-05
   204   -8.213829824509e-16
Sym=X
Ene= 0.042930
Spin=Alpha
Occup=0
     1   -4.636070307196e-07
     2    8.619324366219e-07
     3   -3.569666010186e-06
     4    6.400390262756e-06
     5    1.530985838698e-16
     6   -9.296842384078e-06
     7    1.984035929151e-05
     8   -3.094308883101e-05
     9   -1.211300127160e-15
    10   -1.897853490644e-04
    11    5.950507102183e-05
    12    7.983640497238e-05
    13    1.820319875718e-15
    14    7.452127783893e-04
    15    6.159301916500e-04
    16    4.009942280183e-04
    17    6.004381246987e-15
    18   -2.453626446825e-07
    19    5.847446231719e-17
    20    1.046186911934e-15
    21    5.121241031403e-06
    22    6.425986045993e-06
    23    4.495214005026e-06
    24    3.104985015267e-05
    25    1.332820268279e-04
    26    3.420879775153e-04
    27    1.145289363988e-05
    28   -1.454923380036e-05
    29    7.606782970719e-16
    30   -4.558637076163e-06
    31    3.196879000868e-05
    32    6.448637971886e-05
    33    2.160500279480e-04
    34    6.311905763910e-07
    35    2.578222355066e-06
    36    1.009028714065e-15
    37    3.105631641722e-06
    38    6.867292812277e-05
    39    1.302325760065e-04
    40    3.183184789811e-04
    41    9.965067725604e-06
    42   -6.251832403747e-06
    43   -2.088631878355e-16
    44    8.078215223031e-06
    45   -7.400641490557e-05
    46   -5.622916131925e-05
    47    2.897821335155e-05
    48    1.162724954813e-15
    49    3.160119328443e-04
    50   -3.661969129850e-04
    51    1.903868960052e-04
    52   -1.462464893489e-15
    53   -1.970162061732e-05
    54   -6.280688873269e-04
    55    2.768911264526e-04
    56    3.439926231044e-15
    57    2.046018276225e-04
    58    7.141102335597e-04
    59   -2.630571540700e-04
    60   -3.279971179098e-15
    61   -7.390874339194e-05
    62    1.094077954488e-15
    63   -1.072817072075e-16
    64    9.551044690958e-05
    65   -1.658135867799e-04
    66    5.514158210868e-01
    67    4.717086665415e-01
    68    1.683184444964e-03
    69   -8.355063352237e-04
    70   -1.114632999910e-15
    71    5.719265525494e-03
    72   -6.909715438659e-04
    73    3.096465148635e-04
    74    9.845334307938e-16
    75   -1.652306729239e-03
    76    9.980344692031e-05
    77   -3.825468284249e-05
    78   -3.102769976869e-16
    79    1.562372249169e-03
    80    4.552501562295e-05
    81   -7.191629679380e-05
    82    1.188504789210e-15
    83    2.983867376300e-05
    84    4.163892267211e-16
    85   -4.745704117243e-16
    86   -6.153241533030e-05
    87    7.600220598891e-05
    88   -5.945504940018e-09
    89    1.823269035958e-06
    90   -3.442493629818e-06
    91    1.563319588266e-06
    92    4.432580740376e-16
    93   -6.460392336929e-06
    94    2.412230802827e-05
    95   -1.679258410708e-05
    96   -1.833373111470e-15
    97   -2.073589884734e-04
    98    5.579188894819e-05
    99   -9.133278060147e-05
   100    2.668241068909e-16
   101    1.316953739954e-03
   102    1.090839882249e-04
   103   -8.594434370403e-04
   104    1.066551831287e-14
   105    3.012353891905e-06
   106   -1.395635986306e-15
   107   -1.724254727088e-16
   108   -1.181360536839e-05
   109    3.444917863852e-06
   110    1.266735956151e-05
   111    1.354887682918e-05
   112   -1.112383174220e-06
   113   -1.296587111508e-07
   114    1.122252617474e-15
   115   -1.182011584695e-05
   116    4.869123990731e-07
   117    2.508804169152e-06
   118   -2.979950399962e-15
   119    6.816368614234e-05
   120   -2.634133276785e-05
   121   -1.250612855905e-05
   122    5.121414391907e-15
   123   -1.616158785896e-04
   124    7.666639944993e-05
   125    7.400253424959e-05
   126   -4.382501748632e-15
   127   -1.685321895555e-07
   128   -2.558359555609e-16
   129   -3.914672238854e-16
   130    9.388879659721e-07
   131    6.741641659535e-07
   132   -1.008187025734e-06
   133    1.300876238725e-06
   134    4.871158959549e-06
   135   -2.591109697058e-06
   136    6.609723802195e-16
   137   -3.536219381722e-05
   138   -3.033420269301e-05
   139    1.338085923946e-05
   140   -1.837203033956e-15
   141    3.785553019885e-04
   142   -1.060325205437e-05
   143   -3.014627007890e-04
   144    5.123322736644e-16
   145    7.360260680179e-05
   146    5.242042649746e-04
   147   -1.945496644245e-04
   148   -2.762093434706e-15
   149   -6.420786158307e-06
   150    6.129031462200e-16
   151    7.276823737623e-16
   152    2.164318727004e-05
   153    5.927389705762e-06
   154    2.941228384462e-07
   155    2.636874466663e-06
   156    9.054706678222e-07
   157   -6.306249233374e-06
   158    1.624600548787e-16
   159   -3.264851586785e-05
   160   -5.668469760726e-06
   161    1.165570123652e-05
   162    1.159093686528e-15
   163    2.082260884014e-04
   164    2.148208306454e-04
   165    5.662413623472e-05
   166   -2.908124170424e-15
   167   -1.945652085330e-04
   168    2.478598360177e-04
   169   -4.720215115646e-04
   170   -2.428335939529e-15
   171   -6.984016788431e-06
   172   -5.432127330955e-16
   173   -9.098914549298e-16
   174   -1.672200547027e-05
   175   -4.181371946286e-06
   176   -2.941186872843e-08
   177   -8.108130503568e-07
   178    9.466521762399e-07
   179   -2.947335730189e-07
   180   -9.586673500553e-16
   181    1.265124797401e-05
   182   -6.225006425562e-06
   183    3.580643005785e-06
   184    8.891816461301e-17
   185   -9.690757932907e-05
   186    7.362081987006e-05
   187   -5.207812071459e-05
   188    1.505846164140e-16
   189   -3.598056028048e-03
   190    5.207706118365e-04
   191   -5.319177031721e-04
   192   -9.042719233338e-15
   193    4.305190355424e-06
   194    3.331646836496e-16
   195   -3.128773570005e-16
   196    1.536312787146e-06
   197   -3.825058544830e-06
   198    1.391219699857e-06
   199   -1.772404733348e-05
   200   -2.633132802015e-05
   201   -2.349925116501e-04
   202    8.871694912430e-07
   203   -3.687773725587e-07
   204    6.037648647546e-16
[5D]
