[Molden Format]
[Atoms] (Angs)
  C      1    6     -0.13173890     -1.79208980      0.00000000
  H      2    1     -2.14962000     -1.30978739      0.00000000
  H      3    1     -0.31599560     -2.86503115      0.00000000
  H      4    1      0.14407746      2.04280963     -0.00000000
  C      5    6     -1.17258876      0.48030861      0.00000000
  O      6    8     -2.25008207      1.06833796      0.00000000
  C      7    6      1.31158357      0.28308717     -0.00000000
  O      8    8      2.36361668      0.96389345     -0.00000000
  N      9    7      0.07017030      1.03138997     -0.00000000
  N     10    7     -1.19586868     -0.94982644      0.00000000
  C     11    6      1.19165158     -1.13169473     -0.00000000
  H     12    1      2.09970506     -1.73445456     -0.00000000
[GTO]
1    0
S    6    1.000000
   4.56324000E+03    1.96665000E-03 
   6.82024000E+02    1.52306000E-02 
   1.54973000E+02    7.61269000E-02 
   4.44553000E+01    2.60801000E-01 
   1.30290000E+01    6.16462000E-01 
   1.82773000E+00    2.21006000E-01 
SP   3    1.000000
   2.09642000E+01    1.14660000E-01   4.02487000E-02 
   4.80331000E+00    9.19999000E-01   2.37594000E-01 
   1.45933000E+00   -3.03068000E-03   8.15854000E-01 
SP   1    1.000000
   4.83456000E-01    1.00000000E+00   1.00000000E+00 
SP   1    1.000000
   1.45585000E-01    1.00000000E+00   1.00000000E+00 
SP   1    1.000000
   4.38000000E-02    1.00000000E+00   1.00000000E+00 
D    1    1.000000
   6.26000000E-01    1.00000000E+00 

2    0
S    3    1.000000
   3.38650000E+01    2.54938000E-02 
   5.09479000E+00    1.90373000E-01 
   1.15879000E+00    8.52161000E-01 
S    1    1.000000
   3.25840000E-01    1.00000000E+00 
S    1    1.000000
   1.02741000E-01    1.00000000E+00 
S    1    1.000000
   3.60000000E-02    1.00000000E+00 
P    1    1.000000
   7.50000000E-01    1.00000000E+00 

3    0
S    3    1.000000
   3.38650000E+01    2.54938000E-02 
   5.09479000E+00    1.90373000E-01 
   1.15879000E+00    8.52161000E-01 
S    1    1.000000
   3.25840000E-01    1.00000000E+00 
S    1    1.000000
   1.02741000E-01    1.00000000E+00 
S    1    1.000000
   3.60000000E-02    1.00000000E+00 
P    1    1.000000
   7.50000000E-01    1.00000000E+00 

4    0
S    3    1.000000
   3.38650000E+01    2.54938000E-02 
   5.09479000E+00    1.90373000E-01 
   1.15879000E+00    8.52161000E-01 
S    1    1.000000
   3.25840000E-01    1.00000000E+00 
S    1    1.000000
   1.02741000E-01    1.00000000E+00 
S    1    1.000000
   3.60000000E-02    1.00000000E+00 
P    1    1.000000
   7.50000000E-01    1.00000000E+00 

5    0
S    6    1.000000
   4.56324000E+03    1.96665000E-03 
   6.82024000E+02    1.52306000E-02 
   1.54973000E+02    7.61269000E-02 
   4.44553000E+01    2.60801000E-01 
   1.30290000E+01    6.16462000E-01 
   1.82773000E+00    2.21006000E-01 
SP   3    1.000000
   2.09642000E+01    1.14660000E-01   4.02487000E-02 
   4.80331000E+00    9.19999000E-01   2.37594000E-01 
   1.45933000E+00   -3.03068000E-03   8.15854000E-01 
SP   1    1.000000
   4.83456000E-01    1.00000000E+00   1.00000000E+00 
SP   1    1.000000
   1.45585000E-01    1.00000000E+00   1.00000000E+00 
SP   1    1.000000
   4.38000000E-02    1.00000000E+00   1.00000000E+00 
D    1    1.000000
   6.26000000E-01    1.00000000E+00 

6    0
S    6    1.000000
   8.58850000E+03    1.89515000E-03 
   1.29723000E+03    1.43859000E-02 
   2.99296000E+02    7.07320000E-02 
   8.73771000E+01    2.40001000E-01 
   2.56789000E+01    5.94797000E-01 
   3.74004000E+00    2.80802000E-01 
SP   3    1.000000
   4.21175000E+01    1.13889000E-01   3.65114000E-02 
   9.62837000E+00    9.20811000E-01   2.37153000E-01 
   2.85332000E+00   -3.27447000E-03   8.19702000E-01 
SP   1    1.000000
   9.05661000E-01    1.00000000E+00   1.00000000E+00 
SP   1    1.000000
   2.55611000E-01    1.00000000E+00   1.00000000E+00 
SP   1    1.000000
   8.45000000E-02    1.00000000E+00   1.00000000E+00 
D    1    1.000000
   1.29200000E+00    1.00000000E+00 

7    0
S    6    1.000000
   4.56324000E+03    1.96665000E-03 
   6.82024000E+02    1.52306000E-02 
   1.54973000E+02    7.61269000E-02 
   4.44553000E+01    2.60801000E-01 
   1.30290000E+01    6.16462000E-01 
   1.82773000E+00    2.21006000E-01 
SP   3    1.000000
   2.09642000E+01    1.14660000E-01   4.02487000E-02 
   4.80331000E+00    9.19999000E-01   2.37594000E-01 
   1.45933000E+00   -3.03068000E-03   8.15854000E-01 
SP   1    1.000000
   4.83456000E-01    1.00000000E+00   1.00000000E+00 
SP   1    1.000000
   1.45585000E-01    1.00000000E+00   1.00000000E+00 
SP   1    1.000000
   4.38000000E-02    1.00000000E+00   1.00000000E+00 
D    1    1.000000
   6.26000000E-01    1.00000000E+00 

8    0
S    6    1.000000
   8.58850000E+03    1.89515000E-03 
   1.29723000E+03    1.43859000E-02 
   2.99296000E+02    7.07320000E-02 
   8.73771000E+01    2.40001000E-01 
   2.56789000E+01    5.94797000E-01 
   3.74004000E+00    2.80802000E-01 
SP   3    1.000000
   4.21175000E+01    1.13889000E-01   3.65114000E-02 
   9.62837000E+00    9.20811000E-01   2.37153000E-01 
   2.85332000E+00   -3.27447000E-03   8.19702000E-01 
SP   1    1.000000
   9.05661000E-01    1.00000000E+00   1.00000000E+00 
SP   1    1.000000
   2.55611000E-01    1.00000000E+00   1.00000000E+00 
SP   1    1.000000
   8.45000000E-02    1.00000000E+00   1.00000000E+00 
D    1    1.000000
   1.29200000E+00    1.00000000E+00 

9    0
S    6    1.000000
   6.29348000E+03    1.96979000E-03 
   9.49044000E+02    1.49613000E-02 
   2.18776000E+02    7.35006000E-02 
   6.36916000E+01    2.48937000E-01 
   1.88282000E+01    6.02460000E-01 
   2.72023000E+00    2.56202000E-01 
SP   3    1.000000
   3.06331000E+01    1.11906000E-01   3.83119000E-02 
   7.02614000E+00    9.21666000E-01   2.37403000E-01 
   2.11205000E+00   -2.56919000E-03   8.17592000E-01 
SP   1    1.000000
   6.84009000E-01    1.00000000E+00   1.00000000E+00 
SP   1    1.000000
   2.00878000E-01    1.00000000E+00   1.00000000E+00 
SP   1    1.000000
   6.39000000E-02    1.00000000E+00   1.00000000E+00 
D    1    1.000000
   9.13000000E-01    1.00000000E+00 

10    0
S    6    1.000000
   6.29348000E+03    1.96979000E-03 
   9.49044000E+02    1.49613000E-02 
   2.18776000E+02    7.35006000E-02 
   6.36916000E+01    2.48937000E-01 
   1.88282000E+01    6.02460000E-01 
   2.72023000E+00    2.56202000E-01 
SP   3    1.000000
   3.06331000E+01    1.11906000E-01   3.83119000E-02 
   7.02614000E+00    9.21666000E-01   2.37403000E-01 
   2.11205000E+00   -2.56919000E-03   8.17592000E-01 
SP   1    1.000000
   6.84009000E-01    1.00000000E+00   1.00000000E+00 
SP   1    1.000000
   2.00878000E-01    1.00000000E+00   1.00000000E+00 
SP   1    1.000000
   6.39000000E-02    1.00000000E+00   1.00000000E+00 
D    1    1.000000
   9.13000000E-01    1.00000000E+00 

11    0
S    6    1.000000
   4.56324000E+03    1.96665000E-03 
   6.82024000E+02    1.52306000E-02 
   1.54973000E+02    7.61269000E-02 
   4.44553000E+01    2.60801000E-01 
   1.30290000E+01    6.16462000E-01 
   1.82773000E+00    2.21006000E-01 
SP   3    1.000000
   2.09642000E+01    1.14660000E-01   4.02487000E-02 
   4.80331000E+00    9.19999000E-01   2.37594000E-01 
   1.45933000E+00   -3.03068000E-03   8.15854000E-01 
SP   1    1.000000
   4.83456000E-01    1.00000000E+00   1.00000000E+00 
SP   1    1.000000
   1.45585000E-01    1.00000000E+00   1.00000000E+00 
SP   1    1.000000
   4.38000000E-02    1.00000000E+00   1.00000000E+00 
D    1    1.000000
   6.26000000E-01    1.00000000E+00 

12    0
S    3    1.000000
   3.38650000E+01    2.54938000E-02 
   5.09479000E+00    1.90373000E-01 
   1.15879000E+00    8.52161000E-01 
S    1    1.000000
   3.25840000E-01    1.00000000E+00 
S    1    1.000000
   1.02741000E-01    1.00000000E+00 
S    1    1.000000
   3.60000000E-02    1.00000000E+00 
P    1    1.000000
   7.50000000E-01    1.00000000E+00 

[MO]
Sym=X
Ene= -0.494341
Spin=Alpha
Occup=1
     1   -1.958253696388e-03
     2   -4.072599589151e-03
     3    5.372599675918e-03
     4    3.406638206688e-03
     5   -5.696522510417e-14
     6    3.184108395847e-02
     7    7.476802485580e-03
     8   -4.932469447191e-03
     9   -9.851158564257e-14
    10   -3.162114125943e-01
    11   -6.173071671595e-02
    12   -2.347448715191e-01
    13   -1.491166905077e-13
    14   -3.663203760211e-01
    15   -8.101934096511e-02
    16   -4.978411795447e-01
    17   -3.808614269696e-13
    18   -1.304833514520e-02
    19   -1.019025559882e-14
    20    3.551223537459e-15
    21   -6.827192159647e-03
    22    1.826720091034e-03
    23    2.108671888086e-02
    24    1.305852688436e-01
    25    4.342533174793e-01
    26    1.515496689124e+00
    27    3.328699361031e-03
    28   -2.385134777039e-03
    29    1.371383417564e-15
    30    1.545311690746e-02
    31   -1.018313586870e-02
    32    4.508179768175e-02
    33   -6.964143652527e-01
    34   -1.155294565921e-03
    35   -4.185469099128e-03
    36   -9.835635332225e-15
    37    2.008772608374e-02
    38    1.442346376905e-01
    39    4.865095562166e-01
    40    1.895340279169e+00
    41   -9.129201543615e-04
    42    3.331445820571e-03
    43   -4.158292731254e-15
    44    3.446712060591e-03
    45    4.760309881521e-03
    46    1.883224259251e-02
    47   -1.989385364190e-02
    48   -3.023366631945e-14
    49    4.243203249256e-02
    50    3.892978530362e-02
    51   -4.989804919462e-02
    52   -2.379704543050e-14
    53   -8.266927912096e-01
    54   -1.473746010699e-01
    55    1.271814315006e-01
    56   -1.378500903644e-13
    57   -6.085425434486e+00
    58   -1.151564032677e+00
    59    1.317446367559e+00
    60   -8.312349775411e-14
    61   -2.992493630661e-02
    62   -1.956021698499e-14
    63   -1.058056707474e-15
    64    1.472274736379e-02
    65   -1.758508950631e-02
    66   -7.578804232125e-03
    67   -1.310709992141e-02
    68    4.648923986109e-02
    69   -3.667912909002e-02
    70   -8.344314768404e-15
    71    4.382293705686e-02
    72    6.249443740728e-02
    73   -4.960882918428e-02
    74    5.462224434673e-15
    75    1.038781367960e-01
    76    8.805212416610e-02
    77   -6.533512957879e-02
    78   -6.660235892781e-14
    79    2.376902164389e-01
    80    2.598348472803e-02
    81   -3.181701261022e-02
    82    2.843880330741e-13
    83   -5.126934815633e-03
    84   -5.408907106225e-15
    85   -2.359739121964e-15
    86   -2.406575239876e-03
    87    8.792843878324e-05
    88   -2.990628849248e-04
    89   -1.000066006563e-03
    90    1.629754489779e-03
    91   -6.360234819327e-03
    92    3.578150029361e-14
    93    2.254225066479e-02
    94    9.733330802534e-04
    95   -1.003195978444e-02
    96    5.193283156998e-14
    97   -3.287022502936e-01
    98    2.327940779198e-01
    99    1.038586602942e-01
   100    1.747135018947e-13
   101    2.869802637300e+00
   102   -2.209216868244e-01
   103   -1.616048576933e+00
   104   -4.774410831316e-13
   105   -1.022145479880e-02
   106   -2.595872839371e-14
   107   -5.766120566478e-15
   108    8.728447751209e-03
   109    5.861768346016e-03
   110   -2.524325191417e-03
   111   -4.420730600771e-03
   112   -8.176915296472e-03
   113   -1.048691224314e-02
   114   -1.227964214446e-14
   115    1.735786093281e-02
   116   -7.678910241629e-03
   117   -1.247784156805e-02
   118   -3.280529661932e-14
   119   -4.131723862660e-02
   120   -2.254019223688e-02
   121   -2.286920392519e-02
   122    3.970039373974e-14
   123    8.100868273109e-02
   124    4.450790623712e-02
   125    1.287554211112e-01
   126   -3.655897701185e-13
   127   -1.213782746150e-03
   128   -9.848512446983e-16
   129   -7.170218015762e-16
   130   -9.021945493124e-04
   131    4.487038547095e-04
   132   -5.407601093033e-04
   133   -7.596599284446e-04
   134   -9.763439783544e-03
   135   -4.594354997076e-02
   136   -2.094105047262e-14
   137    1.410865149954e-04
   138   -1.337134086665e-02
   139   -6.821516215886e-02
   140   -6.004800244634e-15
   141    1.163105728745e-01
   142   -7.990006972822e-02
   143   -3.312186636643e-01
   144   -1.048372714296e-13
   145    1.782862254664e+00
   146   -2.236947590403e-01
   147   -7.308129068298e-01
   148    3.687995035897e-13
   149   -1.031127438842e-02
   150    1.428195001285e-14
   151   -3.620854511052e-15
   152   -7.548829025242e-03
   153    3.568673031545e-03
   154   -2.322386563328e-03
   155   -4.075042990148e-03
   156    2.316991542307e-02
   157    1.541959970588e-02
   158    5.162512296441e-14
   159    1.500409049256e-02
   160    3.340804725126e-02
   161    2.128479916695e-02
   162    6.645207465835e-14
   163    1.261673133524e-01
   164    2.309187296058e-01
   165    1.768906069762e-01
   166    1.901090907302e-13
   167    2.359974173599e+00
   168    4.691996326645e-01
   169    5.610016935850e-01
   170   -2.339917510744e-13
   171   -1.284632302157e-02
   172   -3.598541059314e-15
   173    2.368239728871e-16
   174    4.482426041877e-04
   175    5.974228077412e-03
   176   -4.442829188112e-03
   177   -7.493638561476e-03
   178    2.816271841053e-03
   179   -6.166412692341e-03
   180    5.987519075773e-15
   181    1.369306161509e-02
   182    4.098614852515e-03
   183   -4.917438640375e-03
   184    3.232772152502e-14
   185    3.929789326331e-01
   186   -1.997132965067e-01
   187    8.663218979182e-02
   188   -6.334028885032e-14
   189   -2.455197042609e+00
   190    7.222727267440e-02
   191   -8.796263835121e-01
   192    9.546796226365e-13
   193   -1.377825172602e-02
   194    7.645651792257e-15
   195    1.416617430972e-14
   196    6.493962561165e-04
   197   -5.664938602231e-04
   198    9.705771715718e-03
   199    4.040873680940e-02
   200    1.410773928022e-01
   201   -6.152156787433e-01
   202   -1.492111930050e-03
   203    1.556491561224e-03
   204    5.154144632193e-15
Sym=X
Ene= 0.494341
Spin=Alpha
Occup=0
     1   -1.250302116078e-15
     2   -1.886985406891e-15
     3    1.898056862069e-14
     4   -3.164382239781e-15
     5   -2.233257833979e-02
     6    9.558907655210e-15
     7    9.955467477799e-15
     8   -2.477754801581e-14
     9   -5.028498670218e-02
    10   -2.370447867772e-13
    11    4.785809213147e-13
    12   -3.558369304978e-14
    13   -2.532701789353e-03
    14   -7.091959113145e-12
    15   -2.028587464951e-12
    16   -3.442200584497e-13
    17   -1.796827095553e-01
    18    8.192961460879e-15
    19    6.005883501661e-04
    20    5.518850531313e-03
    21    3.050578795558e-15
    22   -8.957498804750e-15
    23    5.387663130917e-15
    24    2.249037496614e-15
    25    6.658911063850e-13
    26   -6.064573978438e-13
    27    3.278411209693e-15
    28   -4.247177800482e-15
    29   -5.607187755394e-03
    30   -9.771159295056e-15
    31   -2.370922202684e-14
    32    2.836574197530e-14
    33    7.278954228925e-13
    34   -2.191089788890e-15
    35    7.300879801072e-15
    36   -6.902283001736e-03
    37    3.841102489632e-15
    38   -1.046986314259e-13
    39    8.136725903247e-13
    40    3.835572930012e-13
    41   -4.058267045631e-16
    42   -2.684537365380e-15
    43    7.865483316322e-03
    44    2.447922459106e-15
    45    8.668349250450e-17
    46   -8.600673270932e-15
    47   -5.798171820325e-15
    48   -8.008744285884e-03
    49    1.348353589207e-14
    50   -1.722915931551e-14
    51   -2.477292958477e-15
    52   -3.072934519006e-02
    53    5.515361074250e-14
    54   -4.453882645363e-13
    55   -8.659862809751e-14
    56    5.293216621903e-02
    57    6.610065980333e-13
    58   -7.161753640719e-13
    59   -4.805572618969e-13
    60   -4.712109833033e-01
    61   -4.137439368790e-15
    62    1.678437615124e-04
    63   -2.089462281786e-03
    64    8.154240077328e-15
    65   -8.209094340357e-15
    66    6.659606967788e-16
    67   -2.291564541304e-15
    68    4.457736777147e-15
    69   -3.846057554439e-15
    70    3.348605260884e-02
    71    1.820960272485e-14
    72    2.658615644606e-15
    73   -1.763316777646e-14
    74    4.461278093543e-02
    75   -1.238511061412e-13
    76   -4.904732000855e-14
    77    8.072139292097e-14
    78    5.656113603504e-02
    79   -6.426321001289e-13
    80   -2.828761996805e-13
    81   -1.075492875929e-13
    82   -1.233663918531e-01
    83    8.174714042697e-16
    84    2.773303523249e-03
    85    7.991321526126e-04
    86   -2.049346313965e-15
    87    2.464139911735e-16
    88    5.667366498597e-15
    89    1.200799489114e-14
    90    2.225857222451e-14
    91   -1.147676372431e-14
    92   -8.091737454603e-02
    93   -3.922575525571e-14
    94    2.836102540968e-14
    95   -3.477337621382e-14
    96   -1.021774058828e-01
    97   -1.281322249499e-13
    98    9.949908206157e-15
    99    7.419730927931e-14
   100   -3.446534097638e-01
   101    5.471131578537e-12
   102   -7.568090273983e-13
   103   -4.203026446631e-13
   104    1.603577739028e+00
   105    6.851370271517e-15
   106    3.907759299730e-03
   107   -2.032663790520e-03
   108    2.542454469087e-16
   109   -1.456897215183e-14
   110   -2.064519754541e-15
   111   -5.733122292190e-15
   112   -6.982333234059e-16
   113    1.487604996376e-14
   114   -3.209666728997e-03
   115    1.685810468739e-14
   116   -1.230306676041e-14
   117    3.322611296727e-14
   118   -2.190041281870e-02
   119    4.736183149615e-14
   120   -4.138839209129e-15
   121   -4.611227659052e-16
   122    8.503104732287e-02
   123    2.792062235913e-13
   124   -3.082537009207e-13
   125    1.412215824751e-13
   126   -4.047596866675e-01
   127   -6.347377476608e-16
   128    5.029368608690e-03
   129    3.268537948278e-03
   130   -2.106389363567e-15
   131    2.983475166212e-15
   132   -8.297253986418e-15
   133   -1.582158560082e-14
   134    1.996699696964e-14
   135   -2.482300226557e-15
   136   -1.255424210832e-02
   137    4.352521678186e-14
   138    2.669825100722e-14
   139   -1.197485071620e-17
   140   -1.886009113211e-02
   141    2.716817922119e-13
   142    4.395197056916e-14
   143    5.771925262111e-15
   144   -3.198192414515e-02
   145   -1.111302434261e-12
   146   -1.566004384917e-12
   147   -9.682403621059e-13
   148    1.670017162745e-01
   149    3.043130651444e-15
   150   -2.204096702504e-03
   151    7.159090360538e-03
   152   -4.031413935218e-15
   153    1.056602853802e-16
   154    2.188280958472e-15
   155   -3.651977164320e-15
   156    1.153711177772e-15
   157   -4.848225504322e-15
   158    4.409402876529e-02
   159    1.872613431892e-14
   160   -9.684312231828e-15
   161    1.125092819230e-17
   162    6.022736719323e-02
   163   -1.134346170115e-13
   164    1.597798409840e-13
   165   -1.462599660568e-13
   166    1.518331661249e-01
   167    3.429809847159e-13
   168    1.774135399067e-12
   169   -9.090477540433e-13
   170   -4.300625744926e-01
   171    1.528431350014e-15
   172    2.892828359483e-03
   173    3.334273821423e-03
   174   -4.690825815027e-15
   175    7.510764742287e-15
   176   -3.399172072709e-15
   177    4.533911925182e-16
   178    3.060627232166e-14
   179   -9.611130783815e-16
   180   -1.337429793567e-02
   181   -6.474884293569e-16
   182    1.637356036551e-14
   183    1.449089978351e-14
   184    8.402619202406e-04
   185    5.621534728697e-14
   186    5.344838263872e-13
   187   -3.491657298619e-14
   188   -8.628034805282e-02
   189    2.584362882222e-12
   190    3.789424612480e-13
   191   -3.010367887488e-12
   192    1.111138950076e-01
   193   -4.714548741919e-15
   194    8.379307066141e-03
   195   -7.250909045974e-03
   196    2.481967473563e-15
   197    1.297387134320e-14
   198   -1.697543219848e-14
   199   -4.656338366316e-14
   200   -1.195399949662e-12
   201   -1.191376079414e-12
   202   -1.269338352877e-15
   203   -8.590692253407e-15
   204    6.467974217773e-03
[5D]
