[Molden Format]
[Atoms] (Angs)
  C      1    6     -0.13173890     -1.79208980      0.00000000
  H      2    1     -2.14962000     -1.30978739      0.00000000
  H      3    1     -0.31599560     -2.86503115      0.00000000
  H      4    1      0.14407746      2.04280963     -0.00000000
  C      5    6     -1.17258876      0.48030861      0.00000000
  O      6    8     -2.25008207      1.06833796      0.00000000
  C      7    6      1.31158357      0.28308717     -0.00000000
  O      8    8      2.36361668      0.96389345     -0.00000000
  N      9    7      0.07017030      1.03138997     -0.00000000
  N     10    7     -1.19586868     -0.94982644      0.00000000
  C     11    6      1.19165158     -1.13169473     -0.00000000
  H     12    1      2.09970506     -1.73445456     -0.00000000
[GTO]
1    0
S    6    1.000000
   4.56324000E+03    1.96665000E-03 
   6.82024000E+02    1.52306000E-02 
   1.54973000E+02    7.61269000E-02 
   4.44553000E+01    2.60801000E-01 
   1.30290000E+01    6.16462000E-01 
   1.82773000E+00    2.21006000E-01 
SP   3    1.000000
   2.09642000E+01    1.14660000E-01   4.02487000E-02 
   4.80331000E+00    9.19999000E-01   2.37594000E-01 
   1.45933000E+00   -3.03068000E-03   8.15854000E-01 
SP   1    1.000000
   4.83456000E-01    1.00000000E+00   1.00000000E+00 
SP   1    1.000000
   1.45585000E-01    1.00000000E+00   1.00000000E+00 
SP   1    1.000000
   4.38000000E-02    1.00000000E+00   1.00000000E+00 
D    1    1.000000
   6.26000000E-01    1.00000000E+00 

2    0
S    3    1.000000
   3.38650000E+01    2.54938000E-02 
   5.09479000E+00    1.90373000E-01 
   1.15879000E+00    8.52161000E-01 
S    1    1.000000
   3.25840000E-01    1.00000000E+00 
S    1    1.000000
   1.02741000E-01    1.00000000E+00 
S    1    1.000000
   3.60000000E-02    1.00000000E+00 
P    1    1.000000
   7.50000000E-01    1.00000000E+00 

3    0
S    3    1.000000
   3.38650000E+01    2.54938000E-02 
   5.09479000E+00    1.90373000E-01 
   1.15879000E+00    8.52161000E-01 
S    1    1.000000
   3.25840000E-01    1.00000000E+00 
S    1    1.000000
   1.02741000E-01    1.00000000E+00 
S    1    1.000000
   3.60000000E-02    1.00000000E+00 
P    1    1.000000
   7.50000000E-01    1.00000000E+00 

4    0
S    3    1.000000
   3.38650000E+01    2.54938000E-02 
   5.09479000E+00    1.90373000E-01 
   1.15879000E+00    8.52161000E-01 
S    1    1.000000
   3.25840000E-01    1.00000000E+00 
S    1    1.000000
   1.02741000E-01    1.00000000E+00 
S    1    1.000000
   3.60000000E-02    1.00000000E+00 
P    1    1.000000
   7.50000000E-01    1.00000000E+00 

5    0
S    6    1.000000
   4.56324000E+03    1.96665000E-03 
   6.82024000E+02    1.52306000E-02 
   1.54973000E+02    7.61269000E-02 
   4.44553000E+01    2.60801000E-01 
   1.30290000E+01    6.16462000E-01 
   1.82773000E+00    2.21006000E-01 
SP   3    1.000000
   2.09642000E+01    1.14660000E-01   4.02487000E-02 
   4.80331000E+00    9.19999000E-01   2.37594000E-01 
   1.45933000E+00   -3.03068000E-03   8.15854000E-01 
SP   1    1.000000
   4.83456000E-01    1.00000000E+00   1.00000000E+00 
SP   1    1.000000
   1.45585000E-01    1.00000000E+00   1.00000000E+00 
SP   1    1.000000
   4.38000000E-02    1.00000000E+00   1.00000000E+00 
D    1    1.000000
   6.26000000E-01    1.00000000E+00 

6    0
S    6    1.000000
   8.58850000E+03    1.89515000E-03 
   1.29723000E+03    1.43859000E-02 
   2.99296000E+02    7.07320000E-02 
   8.73771000E+01    2.40001000E-01 
   2.56789000E+01    5.94797000E-01 
   3.74004000E+00    2.80802000E-01 
SP   3    1.000000
   4.21175000E+01    1.13889000E-01   3.65114000E-02 
   9.62837000E+00    9.20811000E-01   2.37153000E-01 
   2.85332000E+00   -3.27447000E-03   8.19702000E-01 
SP   1    1.000000
   9.05661000E-01    1.00000000E+00   1.00000000E+00 
SP   1    1.000000
   2.55611000E-01    1.00000000E+00   1.00000000E+00 
SP   1    1.000000
   8.45000000E-02    1.00000000E+00   1.00000000E+00 
D    1    1.000000
   1.29200000E+00    1.00000000E+00 

7    0
S    6    1.000000
   4.56324000E+03    1.96665000E-03 
   6.82024000E+02    1.52306000E-02 
   1.54973000E+02    7.61269000E-02 
   4.44553000E+01    2.60801000E-01 
   1.30290000E+01    6.16462000E-01 
   1.82773000E+00    2.21006000E-01 
SP   3    1.000000
   2.09642000E+01    1.14660000E-01   4.02487000E-02 
   4.80331000E+00    9.19999000E-01   2.37594000E-01 
   1.45933000E+00   -3.03068000E-03   8.15854000E-01 
SP   1    1.000000
   4.83456000E-01    1.00000000E+00   1.00000000E+00 
SP   1    1.000000
   1.45585000E-01    1.00000000E+00   1.00000000E+00 
SP   1    1.000000
   4.38000000E-02    1.00000000E+00   1.00000000E+00 
D    1    1.000000
   6.26000000E-01    1.00000000E+00 

8    0
S    6    1.000000
   8.58850000E+03    1.89515000E-03 
   1.29723000E+03    1.43859000E-02 
   2.99296000E+02    7.07320000E-02 
   8.73771000E+01    2.40001000E-01 
   2.56789000E+01    5.94797000E-01 
   3.74004000E+00    2.80802000E-01 
SP   3    1.000000
   4.21175000E+01    1.13889000E-01   3.65114000E-02 
   9.62837000E+00    9.20811000E-01   2.37153000E-01 
   2.85332000E+00   -3.27447000E-03   8.19702000E-01 
SP   1    1.000000
   9.05661000E-01    1.00000000E+00   1.00000000E+00 
SP   1    1.000000
   2.55611000E-01    1.00000000E+00   1.00000000E+00 
SP   1    1.000000
   8.45000000E-02    1.00000000E+00   1.00000000E+00 
D    1    1.000000
   1.29200000E+00    1.00000000E+00 

9    0
S    6    1.000000
   6.29348000E+03    1.96979000E-03 
   9.49044000E+02    1.49613000E-02 
   2.18776000E+02    7.35006000E-02 
   6.36916000E+01    2.48937000E-01 
   1.88282000E+01    6.02460000E-01 
   2.72023000E+00    2.56202000E-01 
SP   3    1.000000
   3.06331000E+01    1.11906000E-01   3.83119000E-02 
   7.02614000E+00    9.21666000E-01   2.37403000E-01 
   2.11205000E+00   -2.56919000E-03   8.17592000E-01 
SP   1    1.000000
   6.84009000E-01    1.00000000E+00   1.00000000E+00 
SP   1    1.000000
   2.00878000E-01    1.00000000E+00   1.00000000E+00 
SP   1    1.000000
   6.39000000E-02    1.00000000E+00   1.00000000E+00 
D    1    1.000000
   9.13000000E-01    1.00000000E+00 

10    0
S    6    1.000000
   6.29348000E+03    1.96979000E-03 
   9.49044000E+02    1.49613000E-02 
   2.18776000E+02    7.35006000E-02 
   6.36916000E+01    2.48937000E-01 
   1.88282000E+01    6.02460000E-01 
   2.72023000E+00    2.56202000E-01 
SP   3    1.000000
   3.06331000E+01    1.11906000E-01   3.83119000E-02 
   7.02614000E+00    9.21666000E-01   2.37403000E-01 
   2.11205000E+00   -2.56919000E-03   8.17592000E-01 
SP   1    1.000000
   6.84009000E-01    1.00000000E+00   1.00000000E+00 
SP   1    1.000000
   2.00878000E-01    1.00000000E+00   1.00000000E+00 
SP   1    1.000000
   6.39000000E-02    1.00000000E+00   1.00000000E+00 
D    1    1.000000
   9.13000000E-01    1.00000000E+00 

11    0
S    6    1.000000
   4.56324000E+03    1.96665000E-03 
   6.82024000E+02    1.52306000E-02 
   1.54973000E+02    7.61269000E-02 
   4.44553000E+01    2.60801000E-01 
   1.30290000E+01    6.16462000E-01 
   1.82773000E+00    2.21006000E-01 
SP   3    1.000000
   2.09642000E+01    1.14660000E-01   4.02487000E-02 
   4.80331000E+00    9.19999000E-01   2.37594000E-01 
   1.45933000E+00   -3.03068000E-03   8.15854000E-01 
SP   1    1.000000
   4.83456000E-01    1.00000000E+00   1.00000000E+00 
SP   1    1.000000
   1.45585000E-01    1.00000000E+00   1.00000000E+00 
SP   1    1.000000
   4.38000000E-02    1.00000000E+00   1.00000000E+00 
D    1    1.000000
   6.26000000E-01    1.00000000E+00 

12    0
S    3    1.000000
   3.38650000E+01    2.54938000E-02 
   5.09479000E+00    1.90373000E-01 
   1.15879000E+00    8.52161000E-01 
S    1    1.000000
   3.25840000E-01    1.00000000E+00 
S    1    1.000000
   1.02741000E-01    1.00000000E+00 
S    1    1.000000
   3.60000000E-02    1.00000000E+00 
P    1    1.000000
   7.50000000E-01    1.00000000E+00 

[MO]
Sym=X
Ene= -0.495533
Spin=Alpha
Occup=1
     1    2.097161310110e-03
     2    3.841197190320e-03
     3    3.623194258757e-03
     4    1.031177853516e-02
     5    5.313319708787e-14
     6   -1.839982025313e-02
     7    8.809853223858e-03
     8    1.554415618396e-02
     9    6.939002378747e-14
    10   -1.207672905686e-02
    11   -5.994151001191e-03
    12    4.038262394106e-02
    13    2.356902422701e-13
    14   -1.300842564032e+00
    15    8.036433714791e-02
    16   -4.345393760207e-02
    17    4.353875727890e-13
    18    6.097807442977e-03
    19    6.896418630488e-15
    20   -9.216463357293e-15
    21   -1.638584581744e-03
    22    6.174310754670e-04
    23    4.996225122264e-03
    24    1.052462057458e-02
    25   -1.601565831547e-02
    26    8.160696814918e-02
    27   -4.502154999954e-03
    28   -2.504676839165e-03
    29   -7.305858643233e-15
    30   -6.964343827889e-03
    31   -1.243880316737e-02
    32    1.476159767151e-02
    33    2.492528487773e-01
    34    1.909288389490e-04
    35   -2.151269756092e-03
    36    6.153766466282e-15
    37   -7.177182580655e-04
    38    8.584932346362e-03
    39    3.278946675886e-01
    40    7.692097897098e-01
    41    4.656106156856e-03
    42    1.156893228235e-02
    43    3.506943295265e-15
    44   -2.843294565913e-03
    45   -4.489665666189e-03
    46    9.992557775134e-03
    47    4.430669562254e-03
    48   -1.327848469763e-14
    49    3.527760719301e-04
    50    1.633986365123e-02
    51    1.015016803162e-02
    52   -5.304337297106e-14
    53    7.869720209019e-02
    54   -1.406143665323e-02
    55   -6.068283733119e-02
    56    1.176747828415e-13
    57    9.126576486264e-01
    58    2.850774521260e-01
    59   -2.661699893049e-01
    60    1.207849819136e-12
    61    8.790123389873e-03
    62    2.599868849680e-14
    63    5.543491750329e-16
    64    4.190297511392e-03
    65   -3.625588697003e-03
    66    3.546816770961e-03
    67    6.154717765646e-03
    68   -4.431323660482e-03
    69   -6.828716930327e-03
    70    3.274528365801e-14
    71   -2.057478853031e-02
    72   -8.114147427168e-03
    73   -1.140534839392e-02
    74    2.832954422480e-14
    75   -2.435063074158e-02
    76   -5.398650724472e-03
    77   -2.605296607809e-03
    78    1.701169204439e-13
    79   -6.823839608911e-02
    80   -3.707950263872e-02
    81   -9.474181731433e-03
    82   -5.380936572858e-13
    83    8.734068968496e-04
    84   -2.444349800169e-15
    85    9.762801246863e-16
    86   -2.648713512378e-04
    87    8.712704385717e-04
    88   -1.381772200617e-03
    89   -1.823804089013e-03
    90    6.079953557878e-03
    91    1.941521921906e-02
    92    1.143042863948e-14
    93   -1.966838288753e-02
    94    1.388589246358e-02
    95    2.764343878518e-02
    96    1.162759642677e-14
    97    1.140442736833e-01
    98    1.115676901726e-01
    99    1.893044947837e-01
   100    6.353988934301e-14
   101   -2.291719686257e+00
   102    1.237962147276e+00
   103    1.159606638926e+00
   104   -7.614182751792e-13
   105    2.270304222891e-02
   106    2.989874462462e-14
   107    1.034562509890e-14
   108    3.061888194293e-03
   109    1.258542999525e-03
   110    2.312528528070e-02
   111    4.015713918305e-02
   112    3.115671095224e-03
   113   -1.763130062602e-02
   114   -1.601337566549e-14
   115   -1.393178235206e-01
   116    3.424543533519e-03
   117   -2.336158424788e-02
   118    1.065671072691e-14
   119   -2.609552958399e-01
   120    6.555511995210e-02
   121    6.334460081646e-03
   122   -2.040967289341e-13
   123   -5.574018422066e-01
   124   -1.104921667785e-01
   125   -5.099437199293e-02
   126    6.388438990161e-13
   127    3.498219237466e-03
   128   -6.640534254163e-19
   129   -8.919326652254e-16
   130   -1.145815726453e-03
   131   -1.811989416457e-03
   132    1.919571181128e-02
   133    3.324343339685e-02
   134   -1.303589577896e-02
   135   -2.079480563464e-02
   136    2.259589182022e-14
   137   -1.034574518065e-01
   138   -1.946926546986e-02
   139   -3.023091751040e-02
   140    2.895557640760e-14
   141   -2.766696652864e-01
   142   -8.005525440695e-02
   143   -5.098462474941e-02
   144    6.294726795118e-14
   145   -4.099396665090e-01
   146   -2.157683962726e-01
   147   -5.163245677452e-01
   148   -3.967471131719e-13
   149    5.015472556960e-03
   150   -5.341076887923e-15
   151    1.490312622464e-16
   152    3.840342109025e-05
   153    2.325138140432e-03
   154    7.850391945009e-03
   155    1.364379856765e-02
   156    1.952716257182e-03
   157   -7.288661134358e-03
   158    5.682669999578e-15
   159   -4.515794626632e-02
   160    4.441929506453e-03
   161   -1.108300929803e-02
   162   -6.651912051950e-15
   163   -8.593290601386e-02
   164   -1.742808191608e-02
   165   -4.038678692396e-02
   166    7.379768573262e-14
   167   -8.938654694384e-01
   168   -2.328200514616e-01
   169   -2.908182778884e-01
   170   -9.747490411128e-13
   171    1.975759485614e-03
   172    7.401561380274e-15
   173   -9.501768915707e-16
   174    2.197997238765e-03
   175    2.459131916686e-03
   176    1.524137933853e-02
   177    2.644523199167e-02
   178   -1.609582086728e-02
   179   -7.541721708429e-03
   180   -4.177280345502e-14
   181   -7.863290442941e-02
   182   -2.251677748725e-02
   183   -1.405730784064e-02
   184   -6.973594216730e-14
   185   -1.980233391780e-01
   186   -7.236166637598e-02
   187    2.188100380731e-02
   188   -1.631941222418e-13
   189    2.486183867993e+00
   190   -1.409722882486e+00
   191    1.041974399609e+00
   192    1.545512198594e-13
   193    8.837008687100e-03
   194   -2.819364197646e-15
   195   -9.576382056937e-15
   196    3.395492374712e-03
   197   -9.951869022756e-04
   198   -7.438805889285e-03
   199   -1.620404350412e-02
   200    1.776083659642e-01
   201    1.581599682123e+00
   202    5.182374985643e-03
   203   -2.114330136352e-03
   204   -4.546276857729e-15
Sym=X
Ene= 0.495533
Spin=Alpha
Occup=0
     1   -1.407482352343e-02
     2   -2.440184071264e-02
     3   -5.242697332834e-04
     4   -3.429129100405e-02
     5   -4.098933225313e-14
     6    7.570238866111e-02
     7   -1.659997475482e-03
     8   -5.367609352612e-02
     9   -7.436872378452e-14
    10    2.400344110872e-01
    11   -3.615858463071e-02
    12   -1.314468112770e-01
    13   -8.354130620108e-14
    14    1.088637451358e+00
    15   -4.933241229253e-01
    16   -1.322733935550e+00
    17    2.774932093954e-13
    18   -2.680222066476e-03
    19    2.459344018409e-15
    20    4.625772433154e-15
    21    1.221884563397e-02
    22   -3.544582951174e-03
    23   -2.943320802896e-03
    24   -3.032409916474e-02
    25   -5.090227491613e-03
    26   -6.001238814246e-01
    27    4.152890363851e-03
    28    1.907829508572e-03
    29    6.669969655932e-16
    30   -1.315031846354e-03
    31   -7.205656203396e-03
    32   -3.687580199121e-01
    33   -2.296234006564e+00
    34    2.057246128896e-03
    35    1.010004271960e-02
    36   -6.459607369896e-15
    37   -2.560220316311e-03
    38    6.632585799582e-03
    39    4.358301634338e-01
    40    1.255106968383e+00
    41    4.324803806884e-03
    42    8.106293372803e-03
    43   -1.757641028041e-15
    44   -4.768521655036e-03
    45   -8.816236145388e-03
    46    7.201159625133e-03
    47   -5.534459587810e-03
    48    2.486503867639e-14
    49    3.934175549774e-02
    50    1.519500969127e-02
    51   -1.227162063586e-02
    52    4.166554145416e-14
    53   -9.534941134899e-02
    54   -6.034562448516e-02
    55    1.622596613963e-02
    56    1.432280223788e-13
    57    3.184813467187e-01
    58   -2.084580469455e-01
    59   -7.252200431293e-01
    60    4.601919531208e-13
    61    2.653136412910e-03
    62   -3.141904397138e-16
    63   -6.335416882594e-15
    64    4.388802922957e-03
    65    1.143166314690e-03
    66    4.084075763952e-04
    67    7.097373686198e-04
    68   -4.884423229784e-03
    69   -4.140727942441e-03
    70   -9.941908322546e-15
    71   -2.447224536312e-03
    72   -7.095921180125e-03
    73   -4.680756682048e-03
    74   -2.189348908401e-14
    75   -7.385996270586e-03
    76   -4.053731752282e-03
    77   -1.441199962907e-02
    78   -1.317876013035e-14
    79   -4.902601440757e-02
    80   -1.158827169747e-02
    81    8.739817478418e-02
    82   -1.742014482856e-13
    83   -4.625085873990e-05
    84   -5.667971496382e-16
    85   -1.178560862782e-15
    86   -4.225648389165e-04
    87   -5.789912611546e-04
    88   -3.861914590296e-03
    89   -6.836297279361e-03
    90    1.209350684047e-02
    91    7.362176136033e-04
    92    3.261768585316e-14
    93    2.451120710908e-02
    94    2.016958092089e-02
    95   -2.686006020388e-03
    96    5.430915922152e-14
    97    1.460505994552e-02
    98    2.097402296318e-01
    99    1.100774732336e-01
   100    1.263981219987e-13
   101   -5.924123720268e-02
   102   -1.114166262691e-01
   103    5.537018751622e-01
   104    2.761059624192e-13
   105    4.452033251897e-03
   106   -6.128496254571e-16
   107   -8.048313845342e-15
   108    5.555811918225e-03
   109   -1.080427289442e-02
   110    7.967362472168e-03
   111    1.362285519008e-02
   112    1.743434180364e-02
   113   -1.534187510047e-02
   114   -2.806046008417e-14
   115   -4.543979411162e-02
   116    2.418511440268e-02
   117   -2.136397240493e-02
   118   -3.590587941509e-14
   119   -1.331938292256e-01
   120    4.527709001661e-02
   121    2.455561960502e-03
   122   -8.271369916296e-14
   123   -3.218683791185e-01
   124    4.210867453126e-02
   125    8.054793755608e-02
   126   -1.871883452729e-14
   127   -1.779649597541e-04
   128    3.843259419379e-16
   129   -9.174574657595e-16
   130   -2.692904600384e-03
   131    1.360384302559e-03
   132    5.737681200371e-03
   133    9.970078583500e-03
   134   -2.896977131086e-04
   135   -3.408420338126e-02
   136   -2.421940640338e-14
   137   -3.279710007695e-02
   138   -3.052559281689e-03
   139   -5.163566024081e-02
   140   -3.913246715767e-14
   141   -4.401701733533e-02
   142    8.148387702454e-04
   143   -1.328742152955e-01
   144   -7.225941097621e-14
   145   -5.377974507442e-02
   146   -1.636408497436e-01
   147   -7.245125165827e-01
   148   -2.498479637064e-13
   149    4.144139570216e-04
   150   -9.370348355632e-16
   151   -2.934935751624e-15
   152    6.253043881966e-04
   153    3.287363169606e-03
   154   -3.938002238421e-03
   155   -6.760789652871e-03
   156   -1.619954318381e-02
   157   -1.466719764240e-02
   158    2.921243724670e-14
   159    2.109342423294e-02
   160   -2.572688778944e-02
   161   -2.199504173633e-02
   162    4.182056519146e-14
   163    8.281942000807e-02
   164   -4.676157827470e-02
   165   -1.766179542807e-02
   166    1.177463245361e-13
   167   -2.876245040713e-01
   168    4.115877720234e-02
   169    6.068232862242e-02
   170   -5.017590285028e-13
   171   -2.217679879988e-03
   172   -1.429696209920e-15
   173    7.415293444932e-15
   174   -5.467932287744e-03
   175   -2.347896004927e-03
   176   -7.443927290174e-03
   177   -1.294621516686e-02
   178    2.493559653690e-02
   179   -2.512968184357e-02
   180    2.545513535274e-14
   181    3.969061780586e-02
   182    3.813642389766e-02
   183   -3.410157711335e-02
   184    4.071922648693e-14
   185    2.508368950697e-01
   186    3.145271947997e-02
   187   -2.138271123880e-02
   188    9.874047696008e-14
   189    2.503515004880e+00
   190    8.598846442198e-01
   191   -3.223304784878e-01
   192   -4.252439898174e-13
   193   -3.210327377519e-03
   194    6.056928535450e-15
   195    8.782485966026e-15
   196   -4.802596259199e-03
   197    1.058861775609e-02
   198   -7.790033687097e-04
   199    6.884914122197e-03
   200   -2.535018684519e-01
   201   -2.000680170965e+00
   202   -7.838373672722e-03
   203    6.176014226204e-03
   204    6.171720677767e-16
[5D]
