[Molden Format]
[Atoms] (Angs)
  C      1    6     -0.13173890     -1.79208980      0.00000000
  H      2    1     -2.14962000     -1.30978739      0.00000000
  H      3    1     -0.31599560     -2.86503115      0.00000000
  H      4    1      0.14407746      2.04280963     -0.00000000
  C      5    6     -1.17258876      0.48030861      0.00000000
  O      6    8     -2.25008207      1.06833796      0.00000000
  C      7    6      1.31158357      0.28308717     -0.00000000
  O      8    8      2.36361668      0.96389345     -0.00000000
  N      9    7      0.07017030      1.03138997     -0.00000000
  N     10    7     -1.19586868     -0.94982644      0.00000000
  C     11    6      1.19165158     -1.13169473     -0.00000000
  H     12    1      2.09970506     -1.73445456     -0.00000000
[GTO]
1    0
S    6    1.000000
   4.56324000E+03    1.96665000E-03 
   6.82024000E+02    1.52306000E-02 
   1.54973000E+02    7.61269000E-02 
   4.44553000E+01    2.60801000E-01 
   1.30290000E+01    6.16462000E-01 
   1.82773000E+00    2.21006000E-01 
SP   3    1.000000
   2.09642000E+01    1.14660000E-01   4.02487000E-02 
   4.80331000E+00    9.19999000E-01   2.37594000E-01 
   1.45933000E+00   -3.03068000E-03   8.15854000E-01 
SP   1    1.000000
   4.83456000E-01    1.00000000E+00   1.00000000E+00 
SP   1    1.000000
   1.45585000E-01    1.00000000E+00   1.00000000E+00 
SP   1    1.000000
   4.38000000E-02    1.00000000E+00   1.00000000E+00 
D    1    1.000000
   6.26000000E-01    1.00000000E+00 

2    0
S    3    1.000000
   3.38650000E+01    2.54938000E-02 
   5.09479000E+00    1.90373000E-01 
   1.15879000E+00    8.52161000E-01 
S    1    1.000000
   3.25840000E-01    1.00000000E+00 
S    1    1.000000
   1.02741000E-01    1.00000000E+00 
S    1    1.000000
   3.60000000E-02    1.00000000E+00 
P    1    1.000000
   7.50000000E-01    1.00000000E+00 

3    0
S    3    1.000000
   3.38650000E+01    2.54938000E-02 
   5.09479000E+00    1.90373000E-01 
   1.15879000E+00    8.52161000E-01 
S    1    1.000000
   3.25840000E-01    1.00000000E+00 
S    1    1.000000
   1.02741000E-01    1.00000000E+00 
S    1    1.000000
   3.60000000E-02    1.00000000E+00 
P    1    1.000000
   7.50000000E-01    1.00000000E+00 

4    0
S    3    1.000000
   3.38650000E+01    2.54938000E-02 
   5.09479000E+00    1.90373000E-01 
   1.15879000E+00    8.52161000E-01 
S    1    1.000000
   3.25840000E-01    1.00000000E+00 
S    1    1.000000
   1.02741000E-01    1.00000000E+00 
S    1    1.000000
   3.60000000E-02    1.00000000E+00 
P    1    1.000000
   7.50000000E-01    1.00000000E+00 

5    0
S    6    1.000000
   4.56324000E+03    1.96665000E-03 
   6.82024000E+02    1.52306000E-02 
   1.54973000E+02    7.61269000E-02 
   4.44553000E+01    2.60801000E-01 
   1.30290000E+01    6.16462000E-01 
   1.82773000E+00    2.21006000E-01 
SP   3    1.000000
   2.09642000E+01    1.14660000E-01   4.02487000E-02 
   4.80331000E+00    9.19999000E-01   2.37594000E-01 
   1.45933000E+00   -3.03068000E-03   8.15854000E-01 
SP   1    1.000000
   4.83456000E-01    1.00000000E+00   1.00000000E+00 
SP   1    1.000000
   1.45585000E-01    1.00000000E+00   1.00000000E+00 
SP   1    1.000000
   4.38000000E-02    1.00000000E+00   1.00000000E+00 
D    1    1.000000
   6.26000000E-01    1.00000000E+00 

6    0
S    6    1.000000
   8.58850000E+03    1.89515000E-03 
   1.29723000E+03    1.43859000E-02 
   2.99296000E+02    7.07320000E-02 
   8.73771000E+01    2.40001000E-01 
   2.56789000E+01    5.94797000E-01 
   3.74004000E+00    2.80802000E-01 
SP   3    1.000000
   4.21175000E+01    1.13889000E-01   3.65114000E-02 
   9.62837000E+00    9.20811000E-01   2.37153000E-01 
   2.85332000E+00   -3.27447000E-03   8.19702000E-01 
SP   1    1.000000
   9.05661000E-01    1.00000000E+00   1.00000000E+00 
SP   1    1.000000
   2.55611000E-01    1.00000000E+00   1.00000000E+00 
SP   1    1.000000
   8.45000000E-02    1.00000000E+00   1.00000000E+00 
D    1    1.000000
   1.29200000E+00    1.00000000E+00 

7    0
S    6    1.000000
   4.56324000E+03    1.96665000E-03 
   6.82024000E+02    1.52306000E-02 
   1.54973000E+02    7.61269000E-02 
   4.44553000E+01    2.60801000E-01 
   1.30290000E+01    6.16462000E-01 
   1.82773000E+00    2.21006000E-01 
SP   3    1.000000
   2.09642000E+01    1.14660000E-01   4.02487000E-02 
   4.80331000E+00    9.19999000E-01   2.37594000E-01 
   1.45933000E+00   -3.03068000E-03   8.15854000E-01 
SP   1    1.000000
   4.83456000E-01    1.00000000E+00   1.00000000E+00 
SP   1    1.000000
   1.45585000E-01    1.00000000E+00   1.00000000E+00 
SP   1    1.000000
   4.38000000E-02    1.00000000E+00   1.00000000E+00 
D    1    1.000000
   6.26000000E-01    1.00000000E+00 

8    0
S    6    1.000000
   8.58850000E+03    1.89515000E-03 
   1.29723000E+03    1.43859000E-02 
   2.99296000E+02    7.07320000E-02 
   8.73771000E+01    2.40001000E-01 
   2.56789000E+01    5.94797000E-01 
   3.74004000E+00    2.80802000E-01 
SP   3    1.000000
   4.21175000E+01    1.13889000E-01   3.65114000E-02 
   9.62837000E+00    9.20811000E-01   2.37153000E-01 
   2.85332000E+00   -3.27447000E-03   8.19702000E-01 
SP   1    1.000000
   9.05661000E-01    1.00000000E+00   1.00000000E+00 
SP   1    1.000000
   2.55611000E-01    1.00000000E+00   1.00000000E+00 
SP   1    1.000000
   8.45000000E-02    1.00000000E+00   1.00000000E+00 
D    1    1.000000
   1.29200000E+00    1.00000000E+00 

9    0
S    6    1.000000
   6.29348000E+03    1.96979000E-03 
   9.49044000E+02    1.49613000E-02 
   2.18776000E+02    7.35006000E-02 
   6.36916000E+01    2.48937000E-01 
   1.88282000E+01    6.02460000E-01 
   2.72023000E+00    2.56202000E-01 
SP   3    1.000000
   3.06331000E+01    1.11906000E-01   3.83119000E-02 
   7.02614000E+00    9.21666000E-01   2.37403000E-01 
   2.11205000E+00   -2.56919000E-03   8.17592000E-01 
SP   1    1.000000
   6.84009000E-01    1.00000000E+00   1.00000000E+00 
SP   1    1.000000
   2.00878000E-01    1.00000000E+00   1.00000000E+00 
SP   1    1.000000
   6.39000000E-02    1.00000000E+00   1.00000000E+00 
D    1    1.000000
   9.13000000E-01    1.00000000E+00 

10    0
S    6    1.000000
   6.29348000E+03    1.96979000E-03 
   9.49044000E+02    1.49613000E-02 
   2.18776000E+02    7.35006000E-02 
   6.36916000E+01    2.48937000E-01 
   1.88282000E+01    6.02460000E-01 
   2.72023000E+00    2.56202000E-01 
SP   3    1.000000
   3.06331000E+01    1.11906000E-01   3.83119000E-02 
   7.02614000E+00    9.21666000E-01   2.37403000E-01 
   2.11205000E+00   -2.56919000E-03   8.17592000E-01 
SP   1    1.000000
   6.84009000E-01    1.00000000E+00   1.00000000E+00 
SP   1    1.000000
   2.00878000E-01    1.00000000E+00   1.00000000E+00 
SP   1    1.000000
   6.39000000E-02    1.00000000E+00   1.00000000E+00 
D    1    1.000000
   9.13000000E-01    1.00000000E+00 

11    0
S    6    1.000000
   4.56324000E+03    1.96665000E-03 
   6.82024000E+02    1.52306000E-02 
   1.54973000E+02    7.61269000E-02 
   4.44553000E+01    2.60801000E-01 
   1.30290000E+01    6.16462000E-01 
   1.82773000E+00    2.21006000E-01 
SP   3    1.000000
   2.09642000E+01    1.14660000E-01   4.02487000E-02 
   4.80331000E+00    9.19999000E-01   2.37594000E-01 
   1.45933000E+00   -3.03068000E-03   8.15854000E-01 
SP   1    1.000000
   4.83456000E-01    1.00000000E+00   1.00000000E+00 
SP   1    1.000000
   1.45585000E-01    1.00000000E+00   1.00000000E+00 
SP   1    1.000000
   4.38000000E-02    1.00000000E+00   1.00000000E+00 
D    1    1.000000
   6.26000000E-01    1.00000000E+00 

12    0
S    3    1.000000
   3.38650000E+01    2.54938000E-02 
   5.09479000E+00    1.90373000E-01 
   1.15879000E+00    8.52161000E-01 
S    1    1.000000
   3.25840000E-01    1.00000000E+00 
S    1    1.000000
   1.02741000E-01    1.00000000E+00 
S    1    1.000000
   3.60000000E-02    1.00000000E+00 
P    1    1.000000
   7.50000000E-01    1.00000000E+00 

[MO]
Sym=X
Ene= -0.484187
Spin=Alpha
Occup=1
     1    1.068916965310e-15
     2    1.664080377914e-15
     3    6.279823257655e-14
     4   -7.109766900278e-15
     5    4.450537429922e-02
     6   -5.015455359202e-14
     7    8.884764896572e-14
     8    1.299906004195e-15
     9    7.482854951640e-02
    10    8.514111383560e-13
    11    1.026396462469e-12
    12    7.681783442643e-13
    13    7.774049741047e-02
    14   -2.293641305885e-11
    15   -5.531405975366e-12
    16   -5.602367790966e-12
    17    4.219612975553e-02
    18   -6.245561672065e-15
    19   -2.440533301502e-02
    20    2.872241844317e-03
    21    4.785213219808e-14
    22   -1.135285973044e-14
    23    9.409439644597e-15
    24   -3.281278449376e-13
    25    3.088850371058e-12
    26   -2.121967431336e-12
    27   -1.293728526173e-15
    28   -1.983408228110e-14
    29    9.231490022712e-03
    30    1.323313162095e-14
    31    1.814340522505e-13
    32    6.643337794292e-13
    33   -1.136000494198e-12
    34   -3.392673240279e-14
    35   -3.625528898243e-15
    36    4.444335186825e-03
    37    1.824062046143e-15
    38   -4.841013994699e-14
    39   -9.198015328791e-13
    40    1.077088044788e-12
    41   -8.387765047395e-15
    42    1.001896361039e-14
    43    1.425746784452e-02
    44    2.516760329485e-15
    45    6.891653521748e-15
    46   -1.579370812130e-15
    47   -2.898661209024e-14
    48   -2.423489598132e-01
    49   -7.051071451351e-14
    50    5.430314033093e-15
    51   -1.249882065556e-13
    52   -4.175762555427e-01
    53    9.811247462507e-13
    54    5.714164651746e-13
    55   -1.227376251295e-12
    56   -6.224786872970e-01
    57    1.213405822358e-11
    58    3.039436328454e-13
    59   -6.705891462344e-12
    60   -1.949456144222e-01
    61    1.069055201863e-14
    62    8.923039983806e-03
    63    7.244351723361e-03
    64   -1.048337375180e-14
    65    1.308727637549e-14
    66   -9.139285981663e-16
    67   -2.409915690177e-15
    68    6.124527326520e-15
    69    6.616038498781e-15
    70    1.987050394760e-01
    71    1.418801383922e-14
    72   -9.553850913431e-15
    73   -3.198164395790e-14
    74    2.688548068390e-01
    75    1.564794756492e-13
    76    2.180335674630e-13
    77    1.530567106012e-13
    78    2.871003628649e-01
    79    1.286893692466e-12
    80    3.502707822114e-13
    81   -1.693870809842e-13
    82    1.079236827796e-01
    83    2.384741841684e-15
    84   -1.096488752424e-02
    85    6.177348436192e-03
    86   -5.605166009680e-15
    87   -3.943289848450e-15
    88    7.404756192283e-15
    89    1.166302781947e-14
    90   -1.331733469028e-14
    91    3.429435703834e-15
    92    1.151748166061e-02
    93   -9.035477647332e-14
    94   -5.002274235082e-14
    95    4.191532806506e-14
    96    2.235967179915e-02
    97    8.055355731593e-13
    98   -1.148477922461e-12
    99   -4.895209600422e-13
   100    5.912783305564e-03
   101    1.752315532171e-11
   102   -1.185363660402e-12
   103   -6.044096205655e-12
   104    1.823586481076e-02
   105    7.453708810985e-15
   106   -1.593820045939e-02
   107    1.967232850118e-02
   108   -5.337744013012e-16
   109   -1.847565395813e-14
   110   -1.182330227916e-14
   111   -2.181913436870e-14
   112    6.372042138499e-15
   113   -8.075076275561e-15
   114   -1.474676983505e-02
   115    8.493312266699e-14
   116    2.575770113599e-14
   117   -1.051971758442e-14
   118   -2.290029973660e-02
   119    3.697240171933e-13
   120   -2.001649871232e-13
   121   -1.032016010326e-13
   122   -2.651729014602e-02
   123    7.676433655883e-13
   124   -7.431511118108e-14
   125    4.970901472588e-14
   126   -1.457661021462e-02
   127    2.176110058497e-15
   128   -7.043154131134e-04
   129    1.292521226380e-03
   130   -6.235436657131e-17
   131   -7.179331896598e-16
   132    1.216904380754e-15
   133    1.620261145675e-15
   134    8.756916506067e-15
   135   -2.213798125919e-14
   136    1.073105124707e-01
   137    5.611701266529e-14
   138    4.834827081242e-14
   139   -8.829907331416e-14
   140    1.648016895316e-01
   141   -4.612872336444e-13
   142   -2.004633774876e-13
   143    6.676603166461e-13
   144    3.037220311038e-01
   145   -3.816128460886e-12
   146    7.903389143377e-14
   147    3.465899037689e-12
   148    1.943355164701e-01
   149    8.457694748532e-15
   150    2.087145781182e-02
   151    8.020131192264e-03
   152   -3.884168007035e-15
   153   -1.042110068074e-14
   154    1.670421425085e-15
   155   -2.471715419040e-15
   156    3.411221556366e-14
   157   -1.244396743827e-14
   158    6.394524753700e-02
   159    1.977544870977e-13
   160    2.287566153998e-14
   161    6.598776194971e-15
   162    9.700075316311e-02
   163   -1.526145614346e-12
   164   -7.050313244348e-14
   165   -6.593012963015e-13
   166    1.883618330965e-01
   167   -3.427588421024e-12
   168    5.235103159531e-12
   169   -1.751819991959e-12
   170    1.329872979038e-01
   171    6.892423602226e-15
   172    3.881217675122e-03
   173   -2.605070230256e-02
   174   -1.717535919589e-14
   175    1.533304845379e-14
   176   -1.982230271220e-14
   177   -4.221902330181e-14
   178    1.590428182534e-15
   179   -2.053958358196e-14
   180   -6.763850068047e-02
   181    1.934437779780e-13
   182    2.651216944226e-15
   183   -1.205426779168e-13
   184   -1.076008668934e-01
   185   -1.200794858401e-12
   186    1.184504821158e-12
   187    1.376077919491e-13
   188   -1.824006560111e-01
   189   -3.783492965411e-12
   190   -3.666083555235e-12
   191   -6.125357645717e-12
   192   -1.019218764085e-01
   193    8.608898394056e-15
   194   -2.783964520176e-03
   195   -1.682948323622e-03
   196   -5.454741407629e-15
   197    3.418306318760e-14
   198    2.919261967133e-14
   199    6.491375714449e-15
   200    4.031283424025e-13
   201    1.430839645071e-12
   202    8.577996579724e-15
   203    1.664124644264e-14
   204   -6.708820627417e-03
Sym=X
Ene= 0.484187
Spin=Alpha
Occup=0
     1    4.683741672600e-15
     2    3.926301077676e-15
     3   -5.271887819464e-15
     4    7.231861125312e-15
     5    7.753632262424e-02
     6   -2.982908725721e-14
     7    1.521142899632e-15
     8    4.268474700324e-14
     9    7.968597463340e-02
    10    4.508493095900e-13
    11   -1.821710370412e-13
    12   -5.484449346575e-15
    13    4.001798540533e-01
    14   -1.517549320267e-11
    15   -1.337897916735e-12
    16   -5.983836231814e-12
    17   -1.689885457333e+00
    18   -1.173684873358e-14
    19    1.818247636831e-03
    20    1.662257851465e-02
    21    1.361724072264e-14
    22    6.851670919012e-15
    23   -2.000670007141e-14
    24    8.876742714720e-15
    25   -9.829898955455e-13
    26   -8.260503031608e-13
    27    5.586051565279e-15
    28   -1.456619965887e-15
    29   -6.599664982748e-03
    30    9.153230199619e-15
    31    2.528876307968e-14
    32   -2.957706802471e-13
    33   -2.383883869909e-12
    34   -2.143695643166e-15
    35   -1.497778185304e-14
    36   -8.181971866583e-03
    37   -6.295300649445e-15
    38    2.547755072910e-14
    39   -4.477696005174e-13
    40    1.741833649731e-12
    41   -2.174723698882e-15
    42   -4.607975284934e-15
    43    7.531350072790e-03
    44   -2.873478076129e-15
    45   -9.711282728998e-17
    46    6.916960073102e-15
    47    3.479604918601e-15
    48   -2.117544350404e-02
    49   -8.982332706299e-15
    50    5.480575653531e-15
    51   -3.350131976703e-14
    52   -2.422177780150e-02
    53    2.194091542876e-14
    54    3.096416517567e-13
    55    4.122610341713e-14
    56   -9.835953201555e-02
    57    7.255462324891e-12
    58    1.999195872875e-12
    59   -3.137135188757e-12
    60    9.294294950831e-01
    61    1.046966561119e-14
    62    7.033985035954e-03
    63    3.817077203645e-03
    64   -7.240057614549e-15
    65    1.651033005873e-14
    66   -5.668347999326e-15
    67   -5.499218224352e-15
    68   -9.558636182405e-15
    69    1.195752912104e-14
    70   -2.766029971406e-02
    71    1.808645782021e-14
    72   -6.849702501102e-15
    73    2.217298235861e-14
    74   -3.995272089210e-02
    75    1.120735158438e-13
    76    5.758457430224e-14
    77   -2.986957629934e-14
    78   -3.263693217657e-02
    79    8.121612553345e-13
    80    1.860136976663e-13
    81    2.959598952480e-13
    82    4.317685556402e-02
    83   -3.683997055033e-15
    84   -3.206580165269e-03
    85    4.514245268265e-03
    86    1.254561540279e-16
    87   -3.104597480983e-15
    88    1.636390296765e-15
    89   -7.130093226197e-15
    90   -2.344317991516e-14
    91    1.676052978092e-14
    92   -3.371276125880e-02
    93    3.745763416067e-14
    94   -4.792477144395e-15
    95    2.496638479017e-14
    96   -4.933114647172e-02
    97   -4.111805943124e-13
    98   -2.111525348703e-13
    99    1.631235454946e-13
   100   -1.462569728082e-01
   101   -1.562308658490e-11
   102    2.157294071027e-12
   103    1.402236190810e-12
   104   -3.649417589837e-01
   105    7.215744815869e-15
   106    6.072044716116e-03
   107   -1.066085379456e-03
   108    3.601454647249e-15
   109    3.481100954907e-15
   110    6.577182797628e-16
   111   -1.785557277211e-15
   112    1.239447182534e-15
   113   -7.051227232056e-15
   114    1.916488300513e-02
   115    2.457498307568e-14
   116    1.743106307789e-14
   117   -2.379684988531e-14
   118    2.777779786364e-02
   119   -1.288968742144e-13
   120   -2.966319416707e-14
   121   -1.260938975030e-14
   122    4.539032582900e-02
   123    7.343334149192e-13
   124    8.696249081730e-14
   125   -2.901344356117e-13
   126    7.328179819480e-02
   127    3.811160826066e-15
   128    9.552023719297e-04
   129    1.196323199761e-03
   130    2.228334127909e-16
   131   -3.730504207790e-15
   132   -1.865024879401e-15
   133    1.276975120904e-15
   134   -2.090304578748e-14
   135    2.807888963270e-14
   136   -7.640935393236e-03
   137    1.444999500227e-14
   138   -1.189261097326e-14
   139    4.043644382252e-14
   140   -1.022256007361e-02
   141   -2.060460089464e-13
   142   -1.587313960847e-13
   143    1.395370431192e-13
   144   -2.566352641356e-02
   145    8.459914807405e-13
   146    1.615011276650e-12
   147   -2.810473316225e-14
   148    2.160713131475e-01
   149   -2.132521658110e-15
   150   -3.408212455853e-03
   151    7.229043306794e-03
   152    8.867626510291e-15
   153    1.798128267428e-16
   154   -5.229393510580e-15
   155   -2.268706750299e-15
   156   -2.321724717237e-15
   157    6.251109632188e-15
   158    1.596549473648e-02
   159    3.405378491917e-14
   160    2.201873353559e-14
   161   -6.384254807047e-15
   162    2.736791114191e-02
   163    1.186049638244e-14
   164   -2.031837779441e-13
   165    1.400986939320e-13
   166    1.932809396998e-02
   167    3.024778300693e-13
   168   -1.178269935229e-12
   169   -1.018860130740e-12
   170   -2.014028345429e-01
   171   -7.734471708925e-16
   172    8.945006046408e-03
   173   -1.905738577428e-03
   174   -8.440945199551e-15
   175   -3.297996051520e-15
   176    2.631448976366e-15
   177   -2.205912926631e-15
   178   -4.286087942300e-14
   179    1.295473183806e-14
   180    3.752406960085e-02
   181    2.518471707186e-14
   182   -1.363653294842e-14
   183   -5.086430598499e-15
   184    4.277866700957e-02
   185   -1.690422536139e-13
   186   -3.396202442637e-13
   187    3.062842487893e-13
   188    1.468251334508e-01
   189    2.054981675225e-11
   190   -5.791675626474e-12
   191    3.898802317475e-12
   192    5.427194296637e-01
   193    5.623729616746e-15
   194   -8.343159538059e-03
   195   -2.346876732822e-03
   196   -6.546113519827e-15
   197   -3.749605374199e-15
   198    1.114615999450e-15
   199    7.318133224497e-14
   200    8.887251709959e-13
   201    2.889220085560e-12
   202    4.524972032026e-15
   203    1.592579995043e-15
   204   -1.135489876084e-03
[5D]
