[Molden Format]
[Atoms] (Angs)
  C      1    6     -0.13173890     -1.79208980      0.00000000
  H      2    1     -2.14962000     -1.30978739      0.00000000
  H      3    1     -0.31599560     -2.86503115      0.00000000
  H      4    1      0.14407746      2.04280963     -0.00000000
  C      5    6     -1.17258876      0.48030861      0.00000000
  O      6    8     -2.25008207      1.06833796      0.00000000
  C      7    6      1.31158357      0.28308717     -0.00000000
  O      8    8      2.36361668      0.96389345     -0.00000000
  N      9    7      0.07017030      1.03138997     -0.00000000
  N     10    7     -1.19586868     -0.94982644      0.00000000
  C     11    6      1.19165158     -1.13169473     -0.00000000
  H     12    1      2.09970506     -1.73445456     -0.00000000
[GTO]
1    0
S    6    1.000000
   4.56324000E+03    1.96665000E-03 
   6.82024000E+02    1.52306000E-02 
   1.54973000E+02    7.61269000E-02 
   4.44553000E+01    2.60801000E-01 
   1.30290000E+01    6.16462000E-01 
   1.82773000E+00    2.21006000E-01 
SP   3    1.000000
   2.09642000E+01    1.14660000E-01   4.02487000E-02 
   4.80331000E+00    9.19999000E-01   2.37594000E-01 
   1.45933000E+00   -3.03068000E-03   8.15854000E-01 
SP   1    1.000000
   4.83456000E-01    1.00000000E+00   1.00000000E+00 
SP   1    1.000000
   1.45585000E-01    1.00000000E+00   1.00000000E+00 
SP   1    1.000000
   4.38000000E-02    1.00000000E+00   1.00000000E+00 
D    1    1.000000
   6.26000000E-01    1.00000000E+00 

2    0
S    3    1.000000
   3.38650000E+01    2.54938000E-02 
   5.09479000E+00    1.90373000E-01 
   1.15879000E+00    8.52161000E-01 
S    1    1.000000
   3.25840000E-01    1.00000000E+00 
S    1    1.000000
   1.02741000E-01    1.00000000E+00 
S    1    1.000000
   3.60000000E-02    1.00000000E+00 
P    1    1.000000
   7.50000000E-01    1.00000000E+00 

3    0
S    3    1.000000
   3.38650000E+01    2.54938000E-02 
   5.09479000E+00    1.90373000E-01 
   1.15879000E+00    8.52161000E-01 
S    1    1.000000
   3.25840000E-01    1.00000000E+00 
S    1    1.000000
   1.02741000E-01    1.00000000E+00 
S    1    1.000000
   3.60000000E-02    1.00000000E+00 
P    1    1.000000
   7.50000000E-01    1.00000000E+00 

4    0
S    3    1.000000
   3.38650000E+01    2.54938000E-02 
   5.09479000E+00    1.90373000E-01 
   1.15879000E+00    8.52161000E-01 
S    1    1.000000
   3.25840000E-01    1.00000000E+00 
S    1    1.000000
   1.02741000E-01    1.00000000E+00 
S    1    1.000000
   3.60000000E-02    1.00000000E+00 
P    1    1.000000
   7.50000000E-01    1.00000000E+00 

5    0
S    6    1.000000
   4.56324000E+03    1.96665000E-03 
   6.82024000E+02    1.52306000E-02 
   1.54973000E+02    7.61269000E-02 
   4.44553000E+01    2.60801000E-01 
   1.30290000E+01    6.16462000E-01 
   1.82773000E+00    2.21006000E-01 
SP   3    1.000000
   2.09642000E+01    1.14660000E-01   4.02487000E-02 
   4.80331000E+00    9.19999000E-01   2.37594000E-01 
   1.45933000E+00   -3.03068000E-03   8.15854000E-01 
SP   1    1.000000
   4.83456000E-01    1.00000000E+00   1.00000000E+00 
SP   1    1.000000
   1.45585000E-01    1.00000000E+00   1.00000000E+00 
SP   1    1.000000
   4.38000000E-02    1.00000000E+00   1.00000000E+00 
D    1    1.000000
   6.26000000E-01    1.00000000E+00 

6    0
S    6    1.000000
   8.58850000E+03    1.89515000E-03 
   1.29723000E+03    1.43859000E-02 
   2.99296000E+02    7.07320000E-02 
   8.73771000E+01    2.40001000E-01 
   2.56789000E+01    5.94797000E-01 
   3.74004000E+00    2.80802000E-01 
SP   3    1.000000
   4.21175000E+01    1.13889000E-01   3.65114000E-02 
   9.62837000E+00    9.20811000E-01   2.37153000E-01 
   2.85332000E+00   -3.27447000E-03   8.19702000E-01 
SP   1    1.000000
   9.05661000E-01    1.00000000E+00   1.00000000E+00 
SP   1    1.000000
   2.55611000E-01    1.00000000E+00   1.00000000E+00 
SP   1    1.000000
   8.45000000E-02    1.00000000E+00   1.00000000E+00 
D    1    1.000000
   1.29200000E+00    1.00000000E+00 

7    0
S    6    1.000000
   4.56324000E+03    1.96665000E-03 
   6.82024000E+02    1.52306000E-02 
   1.54973000E+02    7.61269000E-02 
   4.44553000E+01    2.60801000E-01 
   1.30290000E+01    6.16462000E-01 
   1.82773000E+00    2.21006000E-01 
SP   3    1.000000
   2.09642000E+01    1.14660000E-01   4.02487000E-02 
   4.80331000E+00    9.19999000E-01   2.37594000E-01 
   1.45933000E+00   -3.03068000E-03   8.15854000E-01 
SP   1    1.000000
   4.83456000E-01    1.00000000E+00   1.00000000E+00 
SP   1    1.000000
   1.45585000E-01    1.00000000E+00   1.00000000E+00 
SP   1    1.000000
   4.38000000E-02    1.00000000E+00   1.00000000E+00 
D    1    1.000000
   6.26000000E-01    1.00000000E+00 

8    0
S    6    1.000000
   8.58850000E+03    1.89515000E-03 
   1.29723000E+03    1.43859000E-02 
   2.99296000E+02    7.07320000E-02 
   8.73771000E+01    2.40001000E-01 
   2.56789000E+01    5.94797000E-01 
   3.74004000E+00    2.80802000E-01 
SP   3    1.000000
   4.21175000E+01    1.13889000E-01   3.65114000E-02 
   9.62837000E+00    9.20811000E-01   2.37153000E-01 
   2.85332000E+00   -3.27447000E-03   8.19702000E-01 
SP   1    1.000000
   9.05661000E-01    1.00000000E+00   1.00000000E+00 
SP   1    1.000000
   2.55611000E-01    1.00000000E+00   1.00000000E+00 
SP   1    1.000000
   8.45000000E-02    1.00000000E+00   1.00000000E+00 
D    1    1.000000
   1.29200000E+00    1.00000000E+00 

9    0
S    6    1.000000
   6.29348000E+03    1.96979000E-03 
   9.49044000E+02    1.49613000E-02 
   2.18776000E+02    7.35006000E-02 
   6.36916000E+01    2.48937000E-01 
   1.88282000E+01    6.02460000E-01 
   2.72023000E+00    2.56202000E-01 
SP   3    1.000000
   3.06331000E+01    1.11906000E-01   3.83119000E-02 
   7.02614000E+00    9.21666000E-01   2.37403000E-01 
   2.11205000E+00   -2.56919000E-03   8.17592000E-01 
SP   1    1.000000
   6.84009000E-01    1.00000000E+00   1.00000000E+00 
SP   1    1.000000
   2.00878000E-01    1.00000000E+00   1.00000000E+00 
SP   1    1.000000
   6.39000000E-02    1.00000000E+00   1.00000000E+00 
D    1    1.000000
   9.13000000E-01    1.00000000E+00 

10    0
S    6    1.000000
   6.29348000E+03    1.96979000E-03 
   9.49044000E+02    1.49613000E-02 
   2.18776000E+02    7.35006000E-02 
   6.36916000E+01    2.48937000E-01 
   1.88282000E+01    6.02460000E-01 
   2.72023000E+00    2.56202000E-01 
SP   3    1.000000
   3.06331000E+01    1.11906000E-01   3.83119000E-02 
   7.02614000E+00    9.21666000E-01   2.37403000E-01 
   2.11205000E+00   -2.56919000E-03   8.17592000E-01 
SP   1    1.000000
   6.84009000E-01    1.00000000E+00   1.00000000E+00 
SP   1    1.000000
   2.00878000E-01    1.00000000E+00   1.00000000E+00 
SP   1    1.000000
   6.39000000E-02    1.00000000E+00   1.00000000E+00 
D    1    1.000000
   9.13000000E-01    1.00000000E+00 

11    0
S    6    1.000000
   4.56324000E+03    1.96665000E-03 
   6.82024000E+02    1.52306000E-02 
   1.54973000E+02    7.61269000E-02 
   4.44553000E+01    2.60801000E-01 
   1.30290000E+01    6.16462000E-01 
   1.82773000E+00    2.21006000E-01 
SP   3    1.000000
   2.09642000E+01    1.14660000E-01   4.02487000E-02 
   4.80331000E+00    9.19999000E-01   2.37594000E-01 
   1.45933000E+00   -3.03068000E-03   8.15854000E-01 
SP   1    1.000000
   4.83456000E-01    1.00000000E+00   1.00000000E+00 
SP   1    1.000000
   1.45585000E-01    1.00000000E+00   1.00000000E+00 
SP   1    1.000000
   4.38000000E-02    1.00000000E+00   1.00000000E+00 
D    1    1.000000
   6.26000000E-01    1.00000000E+00 

12    0
S    3    1.000000
   3.38650000E+01    2.54938000E-02 
   5.09479000E+00    1.90373000E-01 
   1.15879000E+00    8.52161000E-01 
S    1    1.000000
   3.25840000E-01    1.00000000E+00 
S    1    1.000000
   1.02741000E-01    1.00000000E+00 
S    1    1.000000
   3.60000000E-02    1.00000000E+00 
P    1    1.000000
   7.50000000E-01    1.00000000E+00 

[MO]
Sym=X
Ene= -0.006037
Spin=Alpha
Occup=1
     1    4.702735089703e-06
     2    6.927968214071e-06
     3    1.060114868769e-05
     4    1.181196279412e-05
     5   -4.099714739963e-17
     6   -2.945054920231e-05
     7   -1.351804744120e-06
     8    5.501001483433e-05
     9    1.314822047780e-15
    10    1.871601784966e-04
    11   -8.098400658638e-05
    12    2.819831431436e-05
    13   -1.389386288673e-15
    14   -3.010259257703e-03
    15   -3.790492431555e-04
    16   -4.444838377285e-04
    17   -5.056167417637e-15
    18    1.099348242784e-05
    19   -6.378638139413e-17
    20   -1.057150913266e-15
    21   -7.274257882413e-06
    22   -3.835273918999e-06
    23    8.742533023105e-06
    24   -2.437487555945e-05
    25   -1.002987129251e-04
    26   -1.356079821561e-04
    27   -1.972200881281e-05
    28    4.048135810541e-06
    29   -7.787717466465e-16
    30   -7.895532558879e-06
    31   -4.743425111284e-05
    32   -1.854517287787e-05
    33    2.467542253257e-04
    34    1.147405967620e-06
    35   -5.984826449801e-06
    36   -9.914007969301e-16
    37    6.641954230825e-07
    38   -2.633039869184e-05
    39    4.628391388721e-04
    40    1.095943341099e-03
    41   -5.920238943992e-07
    42    2.291124142222e-05
    43    2.261738980841e-16
    44   -8.419379488162e-06
    45    5.632487763643e-05
    46    9.811499574233e-05
    47   -2.616482929754e-05
    48   -1.239380486918e-15
    49   -2.787768114813e-04
    50    3.119477953546e-04
    51   -1.204219942816e-04
    52    1.456019674841e-15
    53    2.409264682872e-04
    54    4.947436628605e-04
    55   -2.860438904893e-04
    56   -3.159076885733e-15
    57    1.431780855036e-03
    58   -7.334861809139e-05
    59   -2.901640393201e-04
    60    5.384406245717e-15
    61    7.392822072357e-05
    62   -1.192305233499e-15
    63    1.229458186726e-16
    64   -8.237335403351e-05
    65    1.043021271481e-04
    66   -5.514974056214e-01
    67   -4.716426616578e-01
    68   -1.498003398605e-03
    69    7.037815072632e-04
    70    1.169536955369e-15
    71   -5.573151865553e-03
    72    4.641026566723e-04
    73   -2.043933942581e-04
    74   -9.060568571838e-16
    75    1.181622158235e-03
    76   -1.120195743394e-04
    77    1.703959208693e-05
    78    4.518614447546e-16
    79   -1.454382866920e-03
    80   -1.240801478338e-04
    81    6.679860529885e-05
    82   -2.038578205887e-15
    83    9.885810129428e-05
    84   -4.205871794487e-16
    85    5.954100302259e-16
    86   -1.681363476498e-05
    87   -7.281546617947e-05
    88   -2.807102678151e-06
    89   -5.300448383848e-06
    90    1.460344303498e-05
    91    3.460235290743e-05
    92   -4.555547261233e-16
    93   -3.129518989600e-05
    94    5.384456802205e-06
    95    6.769688952736e-05
    96    1.891797717766e-15
    97    3.778792753465e-04
    98    1.648847179662e-04
    99    3.934440914806e-04
   100   -2.009009698879e-16
   101   -5.074722420181e-03
   102    2.115871608974e-03
   103    2.759965717516e-03
   104   -1.171775507287e-14
   105    4.177864082787e-05
   106    1.344318693778e-15
   107    1.890350400620e-16
   108    1.553683143647e-05
   109   -3.861988285856e-06
   110    5.362134477633e-05
   111    8.790905845098e-05
   112    7.562704921170e-06
   113   -3.892133964121e-05
   114   -1.157993849176e-15
   115   -2.834900565858e-04
   116    8.027204308862e-06
   117   -5.190290113785e-05
   118    2.975764596841e-15
   119   -5.288819947125e-04
   120    1.393119883483e-04
   121    2.162298189918e-05
   122   -5.366962157940e-15
   123   -8.875114252697e-04
   124   -2.499381018715e-04
   125   -1.499266513504e-04
   126    5.401580746095e-15
   127    6.878063367501e-06
   128    2.934272925326e-16
   129    4.027667156945e-16
   130   -3.049910225637e-06
   131   -3.677028655664e-06
   132    3.834195597904e-05
   133    6.258828385790e-05
   134   -2.955860028028e-05
   135   -3.580080207341e-05
   136   -6.061556069292e-16
   137   -1.738331296586e-04
   138   -1.490950300934e-05
   139   -7.235301531120e-05
   140    1.875364329078e-15
   141   -8.507448265840e-04
   142   -1.194959625459e-04
   143    1.524472210378e-04
   144   -3.802364423170e-16
   145   -6.722093474239e-04
   146   -7.880379914012e-04
   147   -7.658399931415e-04
   148    1.918008769163e-15
   149    1.538344116309e-05
   150   -6.088123046136e-16
   151   -7.310217249884e-16
   152   -1.547112848345e-05
   153    8.112309004875e-06
   154    1.430377166859e-05
   155    2.336782038651e-05
   156    1.319276330532e-06
   157   -2.870033136672e-06
   158   -1.591336912366e-16
   159   -6.191690471426e-05
   160    1.331849380257e-05
   161   -3.730407506302e-05
   162   -1.144678958358e-15
   163   -3.267890439900e-04
   164   -2.494422117886e-04
   165   -7.779167557214e-05
   166    3.000158095181e-15
   167   -1.437532458602e-03
   168   -6.063123925887e-04
   169   -1.106548585362e-04
   170    5.857390288356e-16
   171    1.147888648655e-05
   172    5.751579996859e-16
   173    8.324609757825e-16
   174    1.989581196560e-05
   175    1.039199982719e-05
   176    2.846546221183e-05
   177    4.977891846617e-05
   178   -3.053725932881e-05
   179   -1.402338189891e-05
   180    9.722611947072e-16
   181   -1.568529855571e-04
   182   -3.289066828911e-05
   183   -2.725990163292e-05
   184   -3.399602144986e-16
   185   -3.142088101538e-04
   186   -1.829794434429e-04
   187    5.652989952785e-05
   188   -3.363475143831e-16
   189    7.402303309730e-03
   190   -2.949404464786e-03
   191    2.275951595199e-03
   192    9.048399723262e-15
   193    1.345464253167e-05
   194   -3.450428282750e-16
   195    3.139251532241e-16
   196    3.911278767531e-06
   197    1.106989154777e-06
   198   -1.382661641184e-05
   199   -1.597075598212e-05
   200    3.323538804316e-04
   201    3.008961986528e-03
   202    8.954908882533e-06
   203   -3.108093503858e-06
   204   -5.850636670305e-16
Sym=X
Ene= 0.006037
Spin=Alpha
Occup=0
     1   -1.557535865863e-06
     2   -4.089590662189e-06
     3    6.252161015643e-06
     4    1.911292754895e-06
     5   -8.794718045668e-16
     6    2.253543530722e-05
     7    2.504884066315e-06
     8    4.630828262014e-06
     9    2.022201382211e-15
    10   -3.531253322173e-04
    11   -1.065799700305e-04
    12   -1.883601463250e-04
    13   -3.485379167597e-15
    14   -8.249392935171e-05
    15    1.629522342484e-04
    16   -4.966432205711e-04
    17    6.110844887244e-15
    18    3.079006292136e-06
    19    1.415132374233e-15
    20   -3.982594425104e-16
    21   -3.504112115695e-06
    22    2.749060573475e-06
    23    1.692327722299e-07
    24    3.385465274723e-06
    25   -3.920727394677e-05
    26    8.941705449549e-05
    27   -2.351445827139e-06
    28    8.517548678457e-07
    29    2.604621753149e-16
    30   -3.059656374986e-06
    31   -1.335309099571e-05
    32   -1.155263857654e-04
    33   -2.633901591775e-04
    34    4.591620404907e-06
    35   -1.834432359274e-06
    36    1.231458184082e-16
    37    2.537448648945e-06
    38    4.097171103076e-05
    39    1.656691638616e-04
    40    1.533824148812e-04
    41   -6.770679212442e-06
    42   -5.313753374883e-06
    43   -2.336832260010e-17
    44   -2.726477121063e-07
    45    1.091541197302e-06
    46    4.414078530189e-06
    47   -8.497874355152e-08
    48   -1.109439492743e-15
    49   -5.402581939661e-06
    50   -1.733730660586e-05
    51   -6.617539131653e-07
    52    2.988613078987e-15
    53   -2.180649046806e-04
    54   -1.055801820751e-04
    55    4.604756701268e-05
    56   -2.212659400689e-15
    57   -2.387555120716e-04
    58    8.030129533690e-07
    59   -8.940865546497e-05
    60   -4.325724512014e-15
    61    4.087885726673e-06
    62    3.959465322648e-16
    63    4.139153952305e-16
    64   -2.929402513990e-06
    65    3.158191213827e-06
    66    7.845500485334e-06
    67    8.068794243565e-06
    68    6.358662730318e-07
    69   -3.823459384722e-07
    70   -1.028955216967e-15
    71   -2.229021640942e-06
    72   -1.265649799755e-06
    73    5.059888082714e-07
    74    2.986943184189e-15
    75    1.166385599720e-05
    76    7.964587203807e-06
    77   -3.774329205162e-06
    78   -4.864986165624e-15
    79   -1.718217894207e-04
    80   -8.656300629343e-05
    81    4.397766773571e-05
    82    6.363285565787e-15
    83    1.269967280046e-07
    84   -6.342377734315e-16
    85   -1.268485158332e-15
    86    3.936211228991e-07
    87   -1.559093749503e-07
    88   -6.590171103758e-06
    89   -7.645179235044e-05
    90    7.658134745051e-05
    91    4.765051418433e-05
    92    5.325899381133e-16
    93    2.961468366444e-04
    94    3.278840499312e-04
    95    2.022446345811e-04
    96   -9.410173723932e-17
    97   -2.228467929435e-04
    98    4.471748302960e-04
    99    1.404798794325e-04
   100    3.470480837120e-16
   101   -2.803710762715e-03
   102   -4.681093054461e-04
   103    6.092275615357e-04
   104    3.914591099507e-15
   105   -3.949051454620e-05
   106    7.125277307415e-16
   107   -1.489380410015e-16
   108    8.949780907741e-05
   109    1.556769369777e-04
   110    5.516316136116e-01
   111    4.715930097702e-01
   112   -1.360139344995e-03
   113   -4.871233487332e-04
   114   -9.798097457128e-16
   115    5.287645222125e-03
   116    5.113505018311e-04
   117    6.747835121012e-05
   118    1.244450632403e-15
   119   -9.379699834812e-04
   120   -1.514417526120e-04
   121   -6.172726984524e-05
   122   -1.972024854098e-15
   123    1.085119377625e-03
   124    5.161124637707e-07
   125   -7.333040451409e-05
   126    3.408256338267e-16
   127   -9.818421993212e-05
   128    4.876437916489e-16
   129   -7.623877724459e-17
   130   -1.148220322169e-05
   131   -1.038270013661e-04
   132   -9.429703843691e-07
   133   -1.208965452261e-07
   134   -7.998982397246e-06
   135    1.028924350383e-06
   136    6.090315206880e-16
   137   -2.163012445646e-05
   138    2.368182444024e-05
   139   -8.082629245606e-06
   140   -9.911530417793e-16
   141    2.772103702225e-04
   142   -1.374314692540e-05
   143   -2.172661749078e-04
   144    1.058249290493e-15
   145   -5.339598554825e-05
   146   -3.147408786380e-04
   147   -1.866022788195e-04
   148   -1.486978196273e-15
   149   -5.450093774367e-06
   150    1.092766367975e-15
   151    3.920804683683e-16
   152    1.641245659023e-05
   153   -1.602790398150e-05
   154   -2.201266057170e-08
   155    2.758296019575e-07
   156   -2.439237335368e-07
   157    4.165030689782e-08
   158   -2.322501295600e-16
   159   -5.612086324535e-06
   160   -6.732808205940e-07
   161   -2.515096886071e-06
   162    4.453374559633e-16
   163    1.118607591421e-04
   164    4.464455872867e-05
   165    2.107239301957e-05
   166    1.170487534067e-15
   167    2.439072009589e-04
   168   -5.403496317251e-05
   169    4.958341003527e-05
   170   -1.194811580170e-15
   171    9.897592607332e-07
   172    1.078695442150e-16
   173    9.676132106853e-17
   174   -5.381992445903e-07
   175   -1.217298762545e-06
   176    5.368571307888e-06
   177    7.215389523971e-06
   178   -6.749117066561e-06
   179   -2.178413022569e-05
   180    1.335497131503e-15
   181   -2.834791085266e-05
   182    2.287772882291e-06
   183    5.197169611739e-05
   184   -3.377031829715e-15
   185    2.872730628286e-04
   186   -4.264088212581e-04
   187    2.696008453350e-05
   188    3.725347555706e-15
   189    2.343243883682e-03
   190    5.260942119777e-05
   191    1.082540815901e-03
   192   -5.726170980920e-15
   193   -3.631522241706e-06
   194    5.283923210113e-16
   195    3.925856881558e-16
   196   -2.421146981434e-05
   197    2.954843866904e-05
   198   -4.809495781231e-06
   199    9.584646068226e-05
   200    1.025254910518e-04
   201    2.950016679358e-04
   202   -1.702481670097e-05
   203    7.440986116359e-06
   204   -8.419367685309e-16
[5D]
