[Molden Format]
[Atoms] (Angs)
  C      1    6     -0.13173890     -1.79208980      0.00000000
  H      2    1     -2.14962000     -1.30978739      0.00000000
  H      3    1     -0.31599560     -2.86503115      0.00000000
  H      4    1      0.14407746      2.04280963     -0.00000000
  C      5    6     -1.17258876      0.48030861      0.00000000
  O      6    8     -2.25008207      1.06833796      0.00000000
  C      7    6      1.31158357      0.28308717     -0.00000000
  O      8    8      2.36361668      0.96389345     -0.00000000
  N      9    7      0.07017030      1.03138997     -0.00000000
  N     10    7     -1.19586868     -0.94982644      0.00000000
  C     11    6      1.19165158     -1.13169473     -0.00000000
  H     12    1      2.09970506     -1.73445456     -0.00000000
[GTO]
1    0
S    6    1.000000
   4.56324000E+03    1.96665000E-03 
   6.82024000E+02    1.52306000E-02 
   1.54973000E+02    7.61269000E-02 
   4.44553000E+01    2.60801000E-01 
   1.30290000E+01    6.16462000E-01 
   1.82773000E+00    2.21006000E-01 
SP   3    1.000000
   2.09642000E+01    1.14660000E-01   4.02487000E-02 
   4.80331000E+00    9.19999000E-01   2.37594000E-01 
   1.45933000E+00   -3.03068000E-03   8.15854000E-01 
SP   1    1.000000
   4.83456000E-01    1.00000000E+00   1.00000000E+00 
SP   1    1.000000
   1.45585000E-01    1.00000000E+00   1.00000000E+00 
SP   1    1.000000
   4.38000000E-02    1.00000000E+00   1.00000000E+00 
D    1    1.000000
   6.26000000E-01    1.00000000E+00 

2    0
S    3    1.000000
   3.38650000E+01    2.54938000E-02 
   5.09479000E+00    1.90373000E-01 
   1.15879000E+00    8.52161000E-01 
S    1    1.000000
   3.25840000E-01    1.00000000E+00 
S    1    1.000000
   1.02741000E-01    1.00000000E+00 
S    1    1.000000
   3.60000000E-02    1.00000000E+00 
P    1    1.000000
   7.50000000E-01    1.00000000E+00 

3    0
S    3    1.000000
   3.38650000E+01    2.54938000E-02 
   5.09479000E+00    1.90373000E-01 
   1.15879000E+00    8.52161000E-01 
S    1    1.000000
   3.25840000E-01    1.00000000E+00 
S    1    1.000000
   1.02741000E-01    1.00000000E+00 
S    1    1.000000
   3.60000000E-02    1.00000000E+00 
P    1    1.000000
   7.50000000E-01    1.00000000E+00 

4    0
S    3    1.000000
   3.38650000E+01    2.54938000E-02 
   5.09479000E+00    1.90373000E-01 
   1.15879000E+00    8.52161000E-01 
S    1    1.000000
   3.25840000E-01    1.00000000E+00 
S    1    1.000000
   1.02741000E-01    1.00000000E+00 
S    1    1.000000
   3.60000000E-02    1.00000000E+00 
P    1    1.000000
   7.50000000E-01    1.00000000E+00 

5    0
S    6    1.000000
   4.56324000E+03    1.96665000E-03 
   6.82024000E+02    1.52306000E-02 
   1.54973000E+02    7.61269000E-02 
   4.44553000E+01    2.60801000E-01 
   1.30290000E+01    6.16462000E-01 
   1.82773000E+00    2.21006000E-01 
SP   3    1.000000
   2.09642000E+01    1.14660000E-01   4.02487000E-02 
   4.80331000E+00    9.19999000E-01   2.37594000E-01 
   1.45933000E+00   -3.03068000E-03   8.15854000E-01 
SP   1    1.000000
   4.83456000E-01    1.00000000E+00   1.00000000E+00 
SP   1    1.000000
   1.45585000E-01    1.00000000E+00   1.00000000E+00 
SP   1    1.000000
   4.38000000E-02    1.00000000E+00   1.00000000E+00 
D    1    1.000000
   6.26000000E-01    1.00000000E+00 

6    0
S    6    1.000000
   8.58850000E+03    1.89515000E-03 
   1.29723000E+03    1.43859000E-02 
   2.99296000E+02    7.07320000E-02 
   8.73771000E+01    2.40001000E-01 
   2.56789000E+01    5.94797000E-01 
   3.74004000E+00    2.80802000E-01 
SP   3    1.000000
   4.21175000E+01    1.13889000E-01   3.65114000E-02 
   9.62837000E+00    9.20811000E-01   2.37153000E-01 
   2.85332000E+00   -3.27447000E-03   8.19702000E-01 
SP   1    1.000000
   9.05661000E-01    1.00000000E+00   1.00000000E+00 
SP   1    1.000000
   2.55611000E-01    1.00000000E+00   1.00000000E+00 
SP   1    1.000000
   8.45000000E-02    1.00000000E+00   1.00000000E+00 
D    1    1.000000
   1.29200000E+00    1.00000000E+00 

7    0
S    6    1.000000
   4.56324000E+03    1.96665000E-03 
   6.82024000E+02    1.52306000E-02 
   1.54973000E+02    7.61269000E-02 
   4.44553000E+01    2.60801000E-01 
   1.30290000E+01    6.16462000E-01 
   1.82773000E+00    2.21006000E-01 
SP   3    1.000000
   2.09642000E+01    1.14660000E-01   4.02487000E-02 
   4.80331000E+00    9.19999000E-01   2.37594000E-01 
   1.45933000E+00   -3.03068000E-03   8.15854000E-01 
SP   1    1.000000
   4.83456000E-01    1.00000000E+00   1.00000000E+00 
SP   1    1.000000
   1.45585000E-01    1.00000000E+00   1.00000000E+00 
SP   1    1.000000
   4.38000000E-02    1.00000000E+00   1.00000000E+00 
D    1    1.000000
   6.26000000E-01    1.00000000E+00 

8    0
S    6    1.000000
   8.58850000E+03    1.89515000E-03 
   1.29723000E+03    1.43859000E-02 
   2.99296000E+02    7.07320000E-02 
   8.73771000E+01    2.40001000E-01 
   2.56789000E+01    5.94797000E-01 
   3.74004000E+00    2.80802000E-01 
SP   3    1.000000
   4.21175000E+01    1.13889000E-01   3.65114000E-02 
   9.62837000E+00    9.20811000E-01   2.37153000E-01 
   2.85332000E+00   -3.27447000E-03   8.19702000E-01 
SP   1    1.000000
   9.05661000E-01    1.00000000E+00   1.00000000E+00 
SP   1    1.000000
   2.55611000E-01    1.00000000E+00   1.00000000E+00 
SP   1    1.000000
   8.45000000E-02    1.00000000E+00   1.00000000E+00 
D    1    1.000000
   1.29200000E+00    1.00000000E+00 

9    0
S    6    1.000000
   6.29348000E+03    1.96979000E-03 
   9.49044000E+02    1.49613000E-02 
   2.18776000E+02    7.35006000E-02 
   6.36916000E+01    2.48937000E-01 
   1.88282000E+01    6.02460000E-01 
   2.72023000E+00    2.56202000E-01 
SP   3    1.000000
   3.06331000E+01    1.11906000E-01   3.83119000E-02 
   7.02614000E+00    9.21666000E-01   2.37403000E-01 
   2.11205000E+00   -2.56919000E-03   8.17592000E-01 
SP   1    1.000000
   6.84009000E-01    1.00000000E+00   1.00000000E+00 
SP   1    1.000000
   2.00878000E-01    1.00000000E+00   1.00000000E+00 
SP   1    1.000000
   6.39000000E-02    1.00000000E+00   1.00000000E+00 
D    1    1.000000
   9.13000000E-01    1.00000000E+00 

10    0
S    6    1.000000
   6.29348000E+03    1.96979000E-03 
   9.49044000E+02    1.49613000E-02 
   2.18776000E+02    7.35006000E-02 
   6.36916000E+01    2.48937000E-01 
   1.88282000E+01    6.02460000E-01 
   2.72023000E+00    2.56202000E-01 
SP   3    1.000000
   3.06331000E+01    1.11906000E-01   3.83119000E-02 
   7.02614000E+00    9.21666000E-01   2.37403000E-01 
   2.11205000E+00   -2.56919000E-03   8.17592000E-01 
SP   1    1.000000
   6.84009000E-01    1.00000000E+00   1.00000000E+00 
SP   1    1.000000
   2.00878000E-01    1.00000000E+00   1.00000000E+00 
SP   1    1.000000
   6.39000000E-02    1.00000000E+00   1.00000000E+00 
D    1    1.000000
   9.13000000E-01    1.00000000E+00 

11    0
S    6    1.000000
   4.56324000E+03    1.96665000E-03 
   6.82024000E+02    1.52306000E-02 
   1.54973000E+02    7.61269000E-02 
   4.44553000E+01    2.60801000E-01 
   1.30290000E+01    6.16462000E-01 
   1.82773000E+00    2.21006000E-01 
SP   3    1.000000
   2.09642000E+01    1.14660000E-01   4.02487000E-02 
   4.80331000E+00    9.19999000E-01   2.37594000E-01 
   1.45933000E+00   -3.03068000E-03   8.15854000E-01 
SP   1    1.000000
   4.83456000E-01    1.00000000E+00   1.00000000E+00 
SP   1    1.000000
   1.45585000E-01    1.00000000E+00   1.00000000E+00 
SP   1    1.000000
   4.38000000E-02    1.00000000E+00   1.00000000E+00 
D    1    1.000000
   6.26000000E-01    1.00000000E+00 

12    0
S    3    1.000000
   3.38650000E+01    2.54938000E-02 
   5.09479000E+00    1.90373000E-01 
   1.15879000E+00    8.52161000E-01 
S    1    1.000000
   3.25840000E-01    1.00000000E+00 
S    1    1.000000
   1.02741000E-01    1.00000000E+00 
S    1    1.000000
   3.60000000E-02    1.00000000E+00 
P    1    1.000000
   7.50000000E-01    1.00000000E+00 

[MO]
Sym=X
Ene= -0.106231
Spin=Alpha
Occup=1
     1   -1.063895647344e-05
     2   -1.954305803237e-05
     3    3.558659547483e-06
     4   -3.237467884485e-05
     5   -1.822295154007e-16
     6    6.275084673900e-05
     7   -1.966424925945e-05
     8   -1.470835466029e-05
     9    1.149245253226e-15
    10    4.305503173958e-04
    11   -1.023352185199e-04
    12   -1.373103603575e-04
    13   -1.902360319562e-15
    14    3.655085748685e-04
    15   -9.133558705819e-04
    16   -1.322957752326e-03
    17   -5.721392982272e-15
    18   -2.857014029957e-06
    19   -4.278472391055e-17
    20   -1.036082775793e-15
    21    5.521160504359e-06
    22   -7.664239185076e-06
    23   -5.137535428794e-06
    24   -6.895052713097e-05
    25   -9.356212019958e-05
    26   -7.661505782286e-04
    27   -8.743814680699e-06
    28    1.123296595128e-05
    29   -7.659215481533e-16
    30    3.705255445033e-06
    31   -3.705500816035e-05
    32   -3.168148119222e-04
    33   -1.972232177689e-03
    34    2.505058920412e-06
    35    4.836428174438e-06
    36   -1.005542728086e-15
    37   -4.264880974903e-06
    38   -6.067498283441e-05
    39    2.319702951076e-04
    40    6.866529460774e-04
    41   -4.395045665611e-06
    42    1.351996920683e-05
    43    2.076198305182e-16
    44   -8.482616837420e-06
    45    6.745258202523e-05
    46    6.255374128791e-05
    47   -3.683340812307e-05
    48   -1.200824940997e-15
    49   -2.622182723665e-04
    50    3.731611721086e-04
    51   -1.974041950948e-04
    52    1.586958818842e-15
    53   -6.891102305436e-05
    54    4.911959605885e-04
    55   -1.993727587707e-04
    56   -3.363510290964e-15
    57   -1.721044505347e-04
    58   -8.564828163294e-04
    59   -2.543171821403e-04
    60    3.537805562627e-15
    61    6.095564856895e-05
    62   -1.161987807642e-15
    63    7.663503424136e-17
    64   -9.307422190761e-05
    65    1.689463796491e-04
    66   -5.514614801586e-01
    67   -4.716929004323e-01
    68   -1.597381928119e-03
    69    8.527782941162e-04
    70    1.092993913827e-15
    71   -5.567521020320e-03
    72    6.339630630718e-04
    73   -3.384900881379e-04
    74   -9.760613543317e-16
    75    1.391176485122e-03
    76   -1.363784352754e-04
    77    5.050013548792e-05
    78    2.211673077089e-16
    79   -1.495276392308e-03
    80   -5.680501613388e-05
    81    1.126823774101e-04
    82   -1.223889918677e-15
    83    8.975674412434e-05
    84   -3.807890151275e-16
    85    6.077481241520e-16
    86    5.026662582705e-05
    87   -7.599203976256e-05
    88   -2.689413946551e-06
    89   -6.299808352504e-06
    90    1.422520409617e-05
    91   -2.391145897125e-06
    92   -4.876137419351e-16
    93    2.331363180911e-05
    94   -2.072429522831e-06
    95    9.229398504764e-06
    96    1.963960757420e-15
    97    2.066153949893e-04
    98    1.139129513317e-04
    99    1.572291942470e-04
   100   -2.336330517814e-16
   101   -1.054009629505e-03
   102   -2.069945168734e-04
   103    1.195869639319e-03
   104   -1.027932646259e-14
   105    7.211096022218e-07
   106    1.345107319316e-15
   107    1.598039582180e-16
   108    1.472296036493e-05
   109   -1.296674747446e-05
   110    8.816726095965e-05
   111    9.012079421821e-05
   112    1.904560469179e-05
   113   -1.805678119518e-05
   114   -1.130898322089e-15
   115   -3.247833719085e-05
   116    2.390589210165e-05
   117   -2.634952890596e-05
   118    2.935644145365e-15
   119   -1.702916171582e-04
   120    5.947293325902e-05
   121    9.840105496505e-06
   122   -5.131478262908e-15
   123   -1.190878193721e-04
   124   -3.246778515969e-05
   125   -1.652447552849e-07
   126    4.286277743014e-15
   127   -2.346292461212e-07
   128    2.714890440731e-16
   129    3.886303902808e-16
   130   -3.556789428063e-06
   131    9.970218317856e-07
   132    4.326977985857e-06
   133    5.462976829259e-06
   134   -9.462418772689e-06
   135   -2.527018140575e-05
   136   -6.696083375287e-16
   137    9.502336413315e-06
   138    3.151591790466e-05
   139   -5.141087873692e-05
   140    1.799234776040e-15
   141   -3.764704109334e-04
   142    3.776169464033e-06
   143    1.560092704515e-04
   144   -5.516536300661e-16
   145   -1.770316125639e-05
   146   -6.329978843679e-04
   147   -4.152469917644e-04
   148    2.550409616695e-15
   149    8.839085652311e-06
   150   -6.343536887331e-16
   151   -7.169508505709e-16
   152   -2.360036704831e-05
   153   -1.075814835629e-06
   154   -3.477390083594e-06
   155   -7.089023458346e-06
   156   -1.467868026407e-05
   157   -1.297138709137e-06
   158   -1.530053174654e-16
   159    4.169169519229e-05
   160   -1.286030198352e-05
   161   -3.807330806603e-05
   162   -1.102476463334e-15
   163   -1.265413027423e-04
   164   -2.640917571336e-04
   165   -2.332800013966e-05
   166    2.973623615089e-15
   167   -6.253491787444e-05
   168   -2.147152914314e-04
   169    4.917986623988e-04
   170    2.050251655956e-15
   171    6.323168270816e-06
   172    5.527228584461e-16
   173    8.488143064652e-16
   174    1.420406964178e-05
   175    3.795326028996e-06
   176   -5.666819083895e-06
   177   -9.020062914367e-06
   178    1.811959161494e-05
   179   -1.912602612685e-05
   180    1.060004342852e-15
   181    1.851708512603e-05
   182    3.847805728997e-05
   183   -2.865409437308e-05
   184   -1.784621387457e-16
   185    2.585768832523e-04
   186   -2.758204530555e-05
   187    1.267064664482e-05
   188    1.663194985944e-17
   189    4.941225008296e-03
   190    2.169755841731e-04
   191    2.191968130602e-04
   192    8.580903072233e-15
   193   -6.260181559194e-06
   194   -3.258951904032e-16
   195    3.154731800197e-16
   196   -4.961734314903e-06
   197    1.075160893655e-05
   198   -1.701974210546e-06
   199    1.301285995404e-05
   200   -1.687086636643e-04
   201   -1.314831051050e-03
   202   -5.968438386310e-06
   203    4.821283819355e-06
   204   -5.911989751713e-16
Sym=X
Ene= 0.106231
Spin=Alpha
Occup=0
     1   -9.412664009924e-08
     2    1.594777849336e-06
     3   -1.270549695658e-06
     4    6.671906128478e-07
     5    9.374964418147e-16
     6   -1.686159460335e-05
     7    4.069339316607e-06
     8    1.117189481550e-06
     9   -2.034360551679e-15
    10    4.495025046753e-04
    11    1.109434566736e-04
    12    2.750014003884e-04
    13    3.445588002965e-15
    14    6.008467744879e-06
    15   -1.985712000954e-04
    16    5.814940411962e-04
    17   -6.157462843966e-15
    18   -2.774147577384e-06
    19   -1.404959570428e-15
    20    3.747596336665e-16
    21    5.344347863508e-06
    22   -5.465826830583e-06
    23    1.301713877623e-08
    24   -9.771616277124e-06
    25    3.700345523597e-05
    26   -6.656269895195e-05
    27    2.696324942729e-06
    28   -2.058951780773e-06
    29   -2.571243484269e-16
    30    2.764611618855e-07
    31    1.791235667705e-05
    32    1.573741844443e-04
    33    3.167085790120e-04
    34   -4.156706793352e-06
    35    2.946268431564e-06
    36   -1.180209328774e-16
    37   -2.824171651365e-06
    38   -6.066785252446e-05
    39   -7.560757729311e-05
    40   -9.576912044076e-05
    41    8.520526445424e-06
    42    7.737171055609e-06
    43    3.824556220791e-18
    44    5.290508531609e-07
    45   -1.336698660617e-06
    46   -4.954414499880e-06
    47    8.316045303949e-08
    48    1.056047703363e-15
    49    9.659403501372e-06
    50    2.092078528157e-05
    51    7.318554488305e-07
    52   -2.958841980215e-15
    53    2.497446753303e-04
    54    1.289503711549e-04
    55   -5.679106746628e-06
    56    2.151457535830e-15
    57    2.059520941422e-04
    58   -2.166095173877e-05
    59    1.710034824139e-04
    60    4.273296908306e-15
    61   -3.672109205343e-06
    62   -2.986795740074e-16
    63   -4.432264727590e-16
    64    3.355501698523e-06
    65   -2.377283874604e-06
    66   -8.068796305367e-05
    67   -7.865536946401e-05
    68   -3.715694690208e-07
    69    3.247180812760e-07
    70    1.036859647093e-15
    71    3.514291161338e-06
    72    2.521549493846e-06
    73   -6.152974405876e-07
    74   -3.013634065237e-15
    75   -2.071982536714e-05
    76   -1.545368944872e-05
    77   -1.473357256692e-07
    78    4.946615685075e-15
    79    2.276150714622e-04
    80    1.314508570095e-04
    81   -4.242064490042e-05
    82   -6.310270574880e-15
    83   -7.520838525490e-08
    84    5.621266953491e-16
    85    1.195990760342e-15
    86   -7.118668326350e-07
    87    6.100464499013e-08
    88   -4.897440595372e-06
    89    7.106478211737e-05
    90   -3.848259442616e-05
    91   -2.934493949774e-05
    92   -4.958217667497e-16
    93   -2.709902502163e-04
    94   -3.452239171774e-04
    95   -2.256847156694e-04
    96    8.398955121760e-17
    97    2.745179052060e-04
    98   -3.986545481776e-04
    99   -4.046359217795e-04
   100   -3.849336935287e-16
   101    2.107956361568e-03
   102    6.502398161654e-04
   103   -4.004775064311e-04
   104   -3.772133968821e-15
   105    5.680799805910e-05
   106   -6.570707301160e-16
   107    1.402428690547e-16
   108   -1.035746928862e-04
   109   -1.904788312927e-04
   110   -5.515150176691e-01
   111   -4.716857079579e-01
   112    1.523546130189e-03
   113    9.679297015435e-04
   114    9.838216708772e-16
   115   -5.401511430800e-03
   116   -6.411743641866e-04
   117   -4.287479466471e-04
   118   -1.268286856874e-15
   119    1.177648766371e-03
   120    1.540036731584e-04
   121    1.221578371593e-04
   122    2.038347717676e-15
   123   -1.319261453638e-03
   124    2.776927599907e-05
   125   -1.310706387426e-05
   126   -4.680021388888e-16
   127    9.670958746695e-05
   128   -4.749952397227e-16
   129    8.493710983463e-17
   130    4.075947630145e-05
   131    1.150393242717e-04
   132   -2.072587760387e-07
   133   -1.802840241043e-06
   134    1.177788318330e-05
   135   -4.231634099825e-06
   136   -6.079179077641e-16
   137    3.148469398297e-05
   138   -2.922618157659e-05
   139    8.152615882939e-06
   140    1.013575168084e-15
   141   -2.508153770666e-04
   142    9.197463394432e-05
   143    2.208670936812e-04
   144   -1.035389163275e-15
   145    2.281199083625e-04
   146    5.491195372967e-04
   147    5.173007745240e-05
   148    1.424139621955e-15
   149    8.819698229874e-06
   150   -1.072989764272e-15
   151   -4.028303993805e-16
   152   -1.647928206867e-05
   153    1.665852192552e-05
   154    5.930279190310e-08
   155   -5.268771999962e-07
   156    2.537139971112e-09
   157   -3.663404050451e-07
   158    2.467385844478e-16
   159    9.978166286077e-06
   160    1.208935188251e-06
   161    2.661003081523e-06
   162   -4.196799639405e-16
   163   -1.555088077747e-04
   164   -8.125177792271e-05
   165   -6.495415171646e-06
   166   -1.201607751160e-15
   167   -2.251257919582e-04
   168    4.464498245567e-05
   169   -2.335535401282e-05
   170    1.256980688762e-15
   171   -2.987729250390e-07
   172   -1.005066031952e-16
   173   -6.385540431577e-17
   174    4.652413604469e-07
   175    1.718187713619e-06
   176   -1.361012611942e-06
   177    1.870111177698e-07
   178    4.414789713883e-06
   179    1.732916530487e-05
   180   -1.390279658478e-15
   181    1.715505741730e-05
   182   -1.128446350343e-05
   183   -9.269028900302e-05
   184    3.441287187854e-15
   185   -6.158100572271e-04
   186    4.876445320203e-04
   187   -1.655483879785e-04
   188   -3.736617041100e-15
   189   -1.688506703357e-03
   190   -1.134159434475e-04
   191   -1.037284031940e-03
   192    5.753682937303e-15
   193    7.437437187231e-06
   194   -5.334617006470e-16
   195   -3.857269609765e-16
   196    3.509057552355e-05
   197   -3.379880069117e-05
   198    2.217696735797e-06
   199   -1.241810987588e-04
   200   -1.412195068396e-04
   201   -3.235173011681e-04
   202    2.241559139298e-05
   203   -1.221071511091e-05
   204    8.189455027522e-16
[5D]
