[Molden Format]
[Atoms] (Angs)
  C      1    6     -0.13173890     -1.79208980      0.00000000
  H      2    1     -2.14962000     -1.30978739      0.00000000
  H      3    1     -0.31599560     -2.86503115      0.00000000
  H      4    1      0.14407746      2.04280963     -0.00000000
  C      5    6     -1.17258876      0.48030861      0.00000000
  O      6    8     -2.25008207      1.06833796      0.00000000
  C      7    6      1.31158357      0.28308717     -0.00000000
  O      8    8      2.36361668      0.96389345     -0.00000000
  N      9    7      0.07017030      1.03138997     -0.00000000
  N     10    7     -1.19586868     -0.94982644      0.00000000
  C     11    6      1.19165158     -1.13169473     -0.00000000
  H     12    1      2.09970506     -1.73445456     -0.00000000
[GTO]
1    0
S    6    1.000000
   4.56324000E+03    1.96665000E-03 
   6.82024000E+02    1.52306000E-02 
   1.54973000E+02    7.61269000E-02 
   4.44553000E+01    2.60801000E-01 
   1.30290000E+01    6.16462000E-01 
   1.82773000E+00    2.21006000E-01 
SP   3    1.000000
   2.09642000E+01    1.14660000E-01   4.02487000E-02 
   4.80331000E+00    9.19999000E-01   2.37594000E-01 
   1.45933000E+00   -3.03068000E-03   8.15854000E-01 
SP   1    1.000000
   4.83456000E-01    1.00000000E+00   1.00000000E+00 
SP   1    1.000000
   1.45585000E-01    1.00000000E+00   1.00000000E+00 
SP   1    1.000000
   4.38000000E-02    1.00000000E+00   1.00000000E+00 
D    1    1.000000
   6.26000000E-01    1.00000000E+00 

2    0
S    3    1.000000
   3.38650000E+01    2.54938000E-02 
   5.09479000E+00    1.90373000E-01 
   1.15879000E+00    8.52161000E-01 
S    1    1.000000
   3.25840000E-01    1.00000000E+00 
S    1    1.000000
   1.02741000E-01    1.00000000E+00 
S    1    1.000000
   3.60000000E-02    1.00000000E+00 
P    1    1.000000
   7.50000000E-01    1.00000000E+00 

3    0
S    3    1.000000
   3.38650000E+01    2.54938000E-02 
   5.09479000E+00    1.90373000E-01 
   1.15879000E+00    8.52161000E-01 
S    1    1.000000
   3.25840000E-01    1.00000000E+00 
S    1    1.000000
   1.02741000E-01    1.00000000E+00 
S    1    1.000000
   3.60000000E-02    1.00000000E+00 
P    1    1.000000
   7.50000000E-01    1.00000000E+00 

4    0
S    3    1.000000
   3.38650000E+01    2.54938000E-02 
   5.09479000E+00    1.90373000E-01 
   1.15879000E+00    8.52161000E-01 
S    1    1.000000
   3.25840000E-01    1.00000000E+00 
S    1    1.000000
   1.02741000E-01    1.00000000E+00 
S    1    1.000000
   3.60000000E-02    1.00000000E+00 
P    1    1.000000
   7.50000000E-01    1.00000000E+00 

5    0
S    6    1.000000
   4.56324000E+03    1.96665000E-03 
   6.82024000E+02    1.52306000E-02 
   1.54973000E+02    7.61269000E-02 
   4.44553000E+01    2.60801000E-01 
   1.30290000E+01    6.16462000E-01 
   1.82773000E+00    2.21006000E-01 
SP   3    1.000000
   2.09642000E+01    1.14660000E-01   4.02487000E-02 
   4.80331000E+00    9.19999000E-01   2.37594000E-01 
   1.45933000E+00   -3.03068000E-03   8.15854000E-01 
SP   1    1.000000
   4.83456000E-01    1.00000000E+00   1.00000000E+00 
SP   1    1.000000
   1.45585000E-01    1.00000000E+00   1.00000000E+00 
SP   1    1.000000
   4.38000000E-02    1.00000000E+00   1.00000000E+00 
D    1    1.000000
   6.26000000E-01    1.00000000E+00 

6    0
S    6    1.000000
   8.58850000E+03    1.89515000E-03 
   1.29723000E+03    1.43859000E-02 
   2.99296000E+02    7.07320000E-02 
   8.73771000E+01    2.40001000E-01 
   2.56789000E+01    5.94797000E-01 
   3.74004000E+00    2.80802000E-01 
SP   3    1.000000
   4.21175000E+01    1.13889000E-01   3.65114000E-02 
   9.62837000E+00    9.20811000E-01   2.37153000E-01 
   2.85332000E+00   -3.27447000E-03   8.19702000E-01 
SP   1    1.000000
   9.05661000E-01    1.00000000E+00   1.00000000E+00 
SP   1    1.000000
   2.55611000E-01    1.00000000E+00   1.00000000E+00 
SP   1    1.000000
   8.45000000E-02    1.00000000E+00   1.00000000E+00 
D    1    1.000000
   1.29200000E+00    1.00000000E+00 

7    0
S    6    1.000000
   4.56324000E+03    1.96665000E-03 
   6.82024000E+02    1.52306000E-02 
   1.54973000E+02    7.61269000E-02 
   4.44553000E+01    2.60801000E-01 
   1.30290000E+01    6.16462000E-01 
   1.82773000E+00    2.21006000E-01 
SP   3    1.000000
   2.09642000E+01    1.14660000E-01   4.02487000E-02 
   4.80331000E+00    9.19999000E-01   2.37594000E-01 
   1.45933000E+00   -3.03068000E-03   8.15854000E-01 
SP   1    1.000000
   4.83456000E-01    1.00000000E+00   1.00000000E+00 
SP   1    1.000000
   1.45585000E-01    1.00000000E+00   1.00000000E+00 
SP   1    1.000000
   4.38000000E-02    1.00000000E+00   1.00000000E+00 
D    1    1.000000
   6.26000000E-01    1.00000000E+00 

8    0
S    6    1.000000
   8.58850000E+03    1.89515000E-03 
   1.29723000E+03    1.43859000E-02 
   2.99296000E+02    7.07320000E-02 
   8.73771000E+01    2.40001000E-01 
   2.56789000E+01    5.94797000E-01 
   3.74004000E+00    2.80802000E-01 
SP   3    1.000000
   4.21175000E+01    1.13889000E-01   3.65114000E-02 
   9.62837000E+00    9.20811000E-01   2.37153000E-01 
   2.85332000E+00   -3.27447000E-03   8.19702000E-01 
SP   1    1.000000
   9.05661000E-01    1.00000000E+00   1.00000000E+00 
SP   1    1.000000
   2.55611000E-01    1.00000000E+00   1.00000000E+00 
SP   1    1.000000
   8.45000000E-02    1.00000000E+00   1.00000000E+00 
D    1    1.000000
   1.29200000E+00    1.00000000E+00 

9    0
S    6    1.000000
   6.29348000E+03    1.96979000E-03 
   9.49044000E+02    1.49613000E-02 
   2.18776000E+02    7.35006000E-02 
   6.36916000E+01    2.48937000E-01 
   1.88282000E+01    6.02460000E-01 
   2.72023000E+00    2.56202000E-01 
SP   3    1.000000
   3.06331000E+01    1.11906000E-01   3.83119000E-02 
   7.02614000E+00    9.21666000E-01   2.37403000E-01 
   2.11205000E+00   -2.56919000E-03   8.17592000E-01 
SP   1    1.000000
   6.84009000E-01    1.00000000E+00   1.00000000E+00 
SP   1    1.000000
   2.00878000E-01    1.00000000E+00   1.00000000E+00 
SP   1    1.000000
   6.39000000E-02    1.00000000E+00   1.00000000E+00 
D    1    1.000000
   9.13000000E-01    1.00000000E+00 

10    0
S    6    1.000000
   6.29348000E+03    1.96979000E-03 
   9.49044000E+02    1.49613000E-02 
   2.18776000E+02    7.35006000E-02 
   6.36916000E+01    2.48937000E-01 
   1.88282000E+01    6.02460000E-01 
   2.72023000E+00    2.56202000E-01 
SP   3    1.000000
   3.06331000E+01    1.11906000E-01   3.83119000E-02 
   7.02614000E+00    9.21666000E-01   2.37403000E-01 
   2.11205000E+00   -2.56919000E-03   8.17592000E-01 
SP   1    1.000000
   6.84009000E-01    1.00000000E+00   1.00000000E+00 
SP   1    1.000000
   2.00878000E-01    1.00000000E+00   1.00000000E+00 
SP   1    1.000000
   6.39000000E-02    1.00000000E+00   1.00000000E+00 
D    1    1.000000
   9.13000000E-01    1.00000000E+00 

11    0
S    6    1.000000
   4.56324000E+03    1.96665000E-03 
   6.82024000E+02    1.52306000E-02 
   1.54973000E+02    7.61269000E-02 
   4.44553000E+01    2.60801000E-01 
   1.30290000E+01    6.16462000E-01 
   1.82773000E+00    2.21006000E-01 
SP   3    1.000000
   2.09642000E+01    1.14660000E-01   4.02487000E-02 
   4.80331000E+00    9.19999000E-01   2.37594000E-01 
   1.45933000E+00   -3.03068000E-03   8.15854000E-01 
SP   1    1.000000
   4.83456000E-01    1.00000000E+00   1.00000000E+00 
SP   1    1.000000
   1.45585000E-01    1.00000000E+00   1.00000000E+00 
SP   1    1.000000
   4.38000000E-02    1.00000000E+00   1.00000000E+00 
D    1    1.000000
   6.26000000E-01    1.00000000E+00 

12    0
S    3    1.000000
   3.38650000E+01    2.54938000E-02 
   5.09479000E+00    1.90373000E-01 
   1.15879000E+00    8.52161000E-01 
S    1    1.000000
   3.25840000E-01    1.00000000E+00 
S    1    1.000000
   1.02741000E-01    1.00000000E+00 
S    1    1.000000
   3.60000000E-02    1.00000000E+00 
P    1    1.000000
   7.50000000E-01    1.00000000E+00 

[MO]
Sym=X
Ene= -0.494934
Spin=Alpha
Occup=1
     1    2.108985834574e-03
     2    3.861181932402e-03
     3    3.567964190468e-03
     4    1.015577332710e-02
     5    5.316983356089e-14
     6   -1.843462187516e-02
     7    8.720615852273e-03
     8    1.530248685367e-02
     9    6.943017667602e-14
    10   -1.215596722687e-02
    11   -6.088119128714e-03
    12    4.018767594812e-02
    13    2.356835967713e-13
    14   -1.300463445402e+00
    15    8.021682172345e-02
    16   -4.357291331475e-02
    17    4.357135973681e-13
    18    6.093827978751e-03
    19    6.872227668048e-15
    20   -9.225912263681e-15
    21   -1.666540149963e-03
    22    6.256189009788e-04
    23    4.996687893460e-03
    24    1.050987289643e-02
    25   -1.614412407687e-02
    26    8.149520909493e-02
    27   -4.501158703175e-03
    28   -2.497132151041e-03
    29   -7.314474844805e-15
    30   -6.847631905158e-03
    31   -1.222811329289e-02
    32    1.473639751215e-02
    33    2.489881956973e-01
    34    1.941646065818e-04
    35   -2.129765785119e-03
    36    6.157874736846e-15
    37   -1.032176525655e-03
    38    8.253022075313e-03
    39    3.280563750307e-01
    40    7.689563878378e-01
    41    4.673624884374e-03
    42    1.164534010099e-02
    43    3.501039345435e-15
    44   -2.865231895078e-03
    45   -4.528027783951e-03
    46    1.007007598455e-02
    47    4.378201573167e-03
    48   -1.325005647320e-14
    49    4.609913026074e-04
    50    1.645373353975e-02
    51    1.006090624321e-02
    52   -5.293859821093e-14
    53    7.861166006969e-02
    54   -1.399892077808e-02
    55   -6.073032635088e-02
    56    1.178758874586e-13
    57    9.120855379122e-01
    58    2.848869681050e-01
    59   -2.659432503102e-01
    60    1.209583489063e-12
    61    8.802145081155e-03
    62    2.601187847014e-14
    63    5.241990764759e-16
    64    4.204179415003e-03
    65   -3.657810874266e-03
    66    3.542423498748e-03
    67    6.147223861526e-03
    68   -4.449264503854e-03
    69   -6.768103951593e-03
    70    3.274178916686e-14
    71   -2.055242764090e-02
    72   -8.144069488315e-03
    73   -1.130657073189e-02
    74    2.828715769085e-14
    75   -2.427697017857e-02
    76   -5.401403412713e-03
    77   -2.530138911843e-03
    78    1.702908384045e-13
    79   -6.816713086906e-02
    80   -3.702659735759e-02
    81   -9.472789898195e-03
    82   -5.390706139789e-13
    83    8.799168386075e-04
    84   -2.446748269579e-15
    85    9.658896956887e-16
    86   -2.633305915959e-04
    87    8.782819312710e-04
    88   -1.417475755599e-03
    89   -1.881630717366e-03
    90    5.922046602589e-03
    91    1.948494749582e-02
    92    1.148205683805e-14
    93   -1.964587529527e-02
    94    1.365240697636e-02
    95    2.777890454339e-02
    96    1.175583596206e-14
    97    1.150254905429e-01
    98    1.114516471128e-01
    99    1.893168965859e-01
   100    6.352874261710e-14
   101   -2.291168343885e+00
   102    1.237523270319e+00
   103    1.159505752521e+00
   104   -7.622339727399e-13
   105    2.279077761857e-02
   106    2.989291839605e-14
   107    1.033380414705e-14
   108    3.057429604651e-03
   109    1.250763344406e-03
   110    2.311601473878e-02
   111    4.015331586658e-02
   112    3.219765281900e-03
   113   -1.723205466266e-02
   114   -1.607287454459e-14
   115   -1.392910171572e-01
   116    3.527707024167e-03
   117   -2.290062307753e-02
   118    1.056452380504e-14
   119   -2.611879012032e-01
   120    6.560934364535e-02
   121    6.626038363548e-03
   122   -2.043107866883e-13
   123   -5.571652490933e-01
   124   -1.105068462246e-01
   125   -5.104031334748e-02
   126    6.396852018476e-13
   127    3.520222440606e-03
   128   -2.010607186153e-18
   129   -8.991093537467e-16
   130   -1.135708282209e-03
   131   -1.839054486982e-03
   132    1.931783670276e-02
   133    3.344948287945e-02
   134   -1.303183836009e-02
   135   -2.118686041421e-02
   136    2.261659773409e-14
   137   -1.040843245702e-01
   138   -1.947132061286e-02
   139   -3.083690900631e-02
   140    2.900768189904e-14
   141   -2.775547922492e-01
   142   -8.023593020008e-02
   143   -5.137710517909e-02
   144    6.294513999334e-14
   145   -4.091726043339e-01
   146   -2.155128787263e-01
   147   -5.165875133914e-01
   148   -3.972817095892e-13
   149    5.035976013394e-03
   150   -5.334221766587e-15
   151    1.574865023724e-16
   152    5.161172876891e-05
   153    2.319965697431e-03
   154    7.851679325053e-03
   155    1.364701523388e-02
   156    1.912324781022e-03
   157   -7.236557891948e-03
   158    5.711976861123e-15
   159   -4.517207894192e-02
   160    4.367976913728e-03
   161   -1.100457503085e-02
   162   -6.597219850268e-15
   163   -8.590881248768e-02
   164   -1.748304247650e-02
   165   -4.038612838542e-02
   166    7.386742097595e-14
   167   -8.934450487666e-01
   168   -2.328799768286e-01
   169   -2.906639920121e-01
   170   -9.758323413411e-13
   171    1.976429587349e-03
   172    7.408546765954e-15
   173   -9.486197886972e-16
   174    2.182102547838e-03
   175    2.466084100250e-03
   176    1.532051244974e-02
   177    2.658109612333e-02
   178   -1.612547882377e-02
   179   -7.472227406405e-03
   180   -4.178180167250e-14
   181   -7.902320923522e-02
   182   -2.255779909585e-02
   183   -1.403270818527e-02
   184   -6.977135725716e-14
   185   -1.983899668878e-01
   186   -7.242879548697e-02
   187    2.172947839862e-02
   188   -1.629824916194e-13
   189    2.486309772062e+00
   190   -1.409055139479e+00
   191    1.041659101475e+00
   192    1.544480982418e-13
   193    8.862707729976e-03
   194   -2.814706033279e-15
   195   -9.553213924039e-15
   196    3.380463700322e-03
   197   -1.009006175219e-03
   198   -7.547972046216e-03
   199   -1.635083728896e-02
   200    1.774472895556e-01
   201    1.580575981037e+00
   202    5.199272694932e-03
   203   -2.126963524882e-03
   204   -4.560362909030e-15
Sym=X
Ene= 0.494934
Spin=Alpha
Occup=0
     1   -5.719593078791e-03
     2   -9.683352291071e-03
     3    1.599531877809e-03
     4   -9.336521022391e-03
     5   -5.199820350037e-14
     6    1.943960713512e-02
     7    9.189182106654e-03
     8   -9.665263270568e-03
     9   -8.826725861925e-14
    10    2.901035971873e-01
    11   -9.062802616354e-02
    12    1.289547752139e-01
    13   -1.807395991416e-13
    14    6.852778260052e+00
    15   -1.505908462746e-01
    16    1.895935951826e+00
    17   -9.766561746813e-13
    18    1.248068723499e-02
    19    1.783357977182e-15
    20    7.201269543625e-15
    21    3.668392893263e-03
    22   -4.671545646652e-03
    23   -5.830506687731e-03
    24   -6.610673626713e-02
    25    3.145989434108e-01
    26    7.444542425532e-01
    27   -8.788388169011e-03
    28   -3.253636635273e-03
    29    1.427811899627e-15
    30   -1.141049764379e-02
    31   -1.704548415369e-02
    32   -4.991530240788e-02
    33   -2.219821018877e-01
    34   -1.395894978180e-03
    35    6.649113777825e-03
    36   -6.259028285688e-15
    37   -2.368936187358e-02
    38   -1.304014423248e-01
    39   -3.737693091748e-01
    40   -1.880276807790e+00
    41    9.371802082044e-04
    42   -3.899721408707e-03
    43   -1.028224262124e-14
    44   -2.238029875773e-03
    45   -3.198957346232e-03
    46    1.591527703167e-03
    47    2.461136524535e-03
    48   -7.785365160606e-15
    49   -1.110116932380e-02
    50    1.072310675357e-03
    51    3.478380575443e-04
    52   -7.155792927346e-15
    53    2.997390282007e-01
    54    1.919034710637e-01
    55   -7.222764612144e-02
    56    9.393769126357e-14
    57   -7.569844716250e-02
    58    2.353196817928e-01
    59    8.972430329335e-01
    60    3.785206330013e-13
    61    1.329159588170e-02
    62    1.036574993321e-14
    63   -1.934993017099e-14
    64   -9.771047301274e-03
    65    3.497405879410e-03
    66    4.095673741437e-03
    67    7.120480878368e-03
    68   -5.214294300575e-03
    69    1.511112151494e-02
    70   -1.447457898144e-14
    71   -2.625894797342e-02
    72   -5.103030833548e-03
    73    1.892396908801e-02
    74    2.890419501795e-15
    75    2.416710839933e-02
    76   -8.444768327282e-03
    77    3.319195007007e-02
    78   -1.516623685538e-14
    79   -1.221339581715e-01
    80    7.024360946467e-04
    81   -7.539858447992e-02
    82   -8.085333301106e-14
    83    1.265845486446e-03
    84   -6.612673813817e-15
    85   -6.022346165571e-15
    86    1.044084731026e-03
    87    5.217836968305e-04
    88   -8.898090770542e-04
    89   -5.232032133035e-04
    90    3.502511081979e-02
    91    2.667307531090e-02
    92    5.295516942412e-14
    93   -4.364740826541e-02
    94    6.315146353490e-02
    95    4.034480627812e-02
    96    9.869754012509e-14
    97    6.064267942242e-01
    98    1.419492410934e-01
    99    2.060266665567e-01
   100    1.211189103887e-13
   101    1.169295960582e+01
   102   -1.410420596554e+00
   103   -1.817162086965e+00
   104    3.797948322971e-14
   105    2.334855986013e-02
   106   -1.100202935664e-14
   107   -1.965470187051e-14
   108   -1.455607183224e-02
   109   -2.326843964343e-02
   110    1.161637490750e-02
   111    1.999505767587e-02
   112    3.437488005348e-02
   113    3.724051582804e-02
   114   -3.854682921455e-14
   115   -6.732016493960e-02
   116    4.227721930949e-02
   117    5.150708783866e-02
   118   -7.351807286728e-14
   119   -1.882017703853e-01
   120    1.170024327688e-01
   121    7.302189377842e-02
   122   -6.557028057257e-14
   123   -9.963873424010e-01
   124    2.087614021818e-01
   125    1.985585470197e-01
   126   -2.039597250680e-14
   127    2.889800587805e-03
   128   -1.620365669809e-15
   129   -4.543258366107e-15
   130    1.521471078913e-03
   131    7.971314028043e-04
   132   -1.759439438409e-03
   133   -2.958456408067e-03
   134    8.555764672240e-03
   135    3.824179875619e-02
   136   -1.672837143886e-16
   137    5.478397674985e-03
   138    1.350097309133e-02
   139    5.852698673387e-02
   140    1.545406193520e-14
   141   -2.652741054561e-03
   142    1.067383097188e-02
   143    2.329106355637e-01
   144    2.997539665247e-14
   145   -2.222523015709e+00
   146   -4.331540260653e-02
   147    6.592142239194e-01
   148   -6.699012776889e-13
   149    9.849972426235e-03
   150    7.862323928806e-15
   151   -6.128692445644e-15
   152    9.913682046787e-03
   153    3.811677933460e-03
   154    7.659228672705e-03
   155    1.294580461738e-02
   156    8.063617434322e-03
   157    1.056243805980e-02
   158    4.466539236523e-14
   159   -3.519438564833e-02
   160    1.740421698931e-02
   161    1.933195334661e-02
   162    8.107475292919e-14
   163   -2.220702565119e-01
   164   -1.120875215199e-01
   165   -2.013643927452e-02
   166    4.816386242832e-14
   167   -1.783714076032e+00
   168    1.818278869448e-01
   169    5.741174548184e-01
   170    3.370571145989e-13
   171    6.537499940773e-03
   172   -4.671332893057e-15
   173    3.759075530684e-15
   174    4.766714087937e-04
   175   -7.014631387863e-05
   176    5.735374413975e-04
   177    1.267521036621e-03
   178    2.988632940577e-02
   179   -1.982430106952e-02
   180    2.636191876150e-14
   181   -5.916751606200e-03
   182    4.241693123220e-02
   183   -3.429289671080e-02
   184    5.131220335734e-14
   185   -1.358576506633e-02
   186    2.026758805839e-01
   187   -1.358489039304e-01
   188    1.426198548946e-13
   189   -9.931295651304e+00
   190    2.854013225535e+00
   191   -2.840224429703e+00
   192    5.734615361808e-13
   193    1.690123654862e-02
   194    8.749772581440e-15
   195    9.825258444272e-15
   196    4.973088467953e-03
   197    1.755837763052e-02
   198   -1.699944731346e-02
   199   -4.272571426314e-02
   200   -6.121652731769e-01
   201   -2.999804135151e+00
   202   -4.080797855252e-03
   203    8.503285262523e-03
   204   -5.488152320094e-16
[5D]
