[Molden Format]
[Atoms] (Angs)
  C      1    6     -0.13173890     -1.79208980      0.00000000
  H      2    1     -2.14962000     -1.30978739      0.00000000
  H      3    1     -0.31599560     -2.86503115      0.00000000
  H      4    1      0.14407746      2.04280963     -0.00000000
  C      5    6     -1.17258876      0.48030861      0.00000000
  O      6    8     -2.25008207      1.06833796      0.00000000
  C      7    6      1.31158357      0.28308717     -0.00000000
  O      8    8      2.36361668      0.96389345     -0.00000000
  N      9    7      0.07017030      1.03138997     -0.00000000
  N     10    7     -1.19586868     -0.94982644      0.00000000
  C     11    6      1.19165158     -1.13169473     -0.00000000
  H     12    1      2.09970506     -1.73445456     -0.00000000
[GTO]
1    0
S    6    1.000000
   4.56324000E+03    1.96665000E-03 
   6.82024000E+02    1.52306000E-02 
   1.54973000E+02    7.61269000E-02 
   4.44553000E+01    2.60801000E-01 
   1.30290000E+01    6.16462000E-01 
   1.82773000E+00    2.21006000E-01 
SP   3    1.000000
   2.09642000E+01    1.14660000E-01   4.02487000E-02 
   4.80331000E+00    9.19999000E-01   2.37594000E-01 
   1.45933000E+00   -3.03068000E-03   8.15854000E-01 
SP   1    1.000000
   4.83456000E-01    1.00000000E+00   1.00000000E+00 
SP   1    1.000000
   1.45585000E-01    1.00000000E+00   1.00000000E+00 
SP   1    1.000000
   4.38000000E-02    1.00000000E+00   1.00000000E+00 
D    1    1.000000
   6.26000000E-01    1.00000000E+00 

2    0
S    3    1.000000
   3.38650000E+01    2.54938000E-02 
   5.09479000E+00    1.90373000E-01 
   1.15879000E+00    8.52161000E-01 
S    1    1.000000
   3.25840000E-01    1.00000000E+00 
S    1    1.000000
   1.02741000E-01    1.00000000E+00 
S    1    1.000000
   3.60000000E-02    1.00000000E+00 
P    1    1.000000
   7.50000000E-01    1.00000000E+00 

3    0
S    3    1.000000
   3.38650000E+01    2.54938000E-02 
   5.09479000E+00    1.90373000E-01 
   1.15879000E+00    8.52161000E-01 
S    1    1.000000
   3.25840000E-01    1.00000000E+00 
S    1    1.000000
   1.02741000E-01    1.00000000E+00 
S    1    1.000000
   3.60000000E-02    1.00000000E+00 
P    1    1.000000
   7.50000000E-01    1.00000000E+00 

4    0
S    3    1.000000
   3.38650000E+01    2.54938000E-02 
   5.09479000E+00    1.90373000E-01 
   1.15879000E+00    8.52161000E-01 
S    1    1.000000
   3.25840000E-01    1.00000000E+00 
S    1    1.000000
   1.02741000E-01    1.00000000E+00 
S    1    1.000000
   3.60000000E-02    1.00000000E+00 
P    1    1.000000
   7.50000000E-01    1.00000000E+00 

5    0
S    6    1.000000
   4.56324000E+03    1.96665000E-03 
   6.82024000E+02    1.52306000E-02 
   1.54973000E+02    7.61269000E-02 
   4.44553000E+01    2.60801000E-01 
   1.30290000E+01    6.16462000E-01 
   1.82773000E+00    2.21006000E-01 
SP   3    1.000000
   2.09642000E+01    1.14660000E-01   4.02487000E-02 
   4.80331000E+00    9.19999000E-01   2.37594000E-01 
   1.45933000E+00   -3.03068000E-03   8.15854000E-01 
SP   1    1.000000
   4.83456000E-01    1.00000000E+00   1.00000000E+00 
SP   1    1.000000
   1.45585000E-01    1.00000000E+00   1.00000000E+00 
SP   1    1.000000
   4.38000000E-02    1.00000000E+00   1.00000000E+00 
D    1    1.000000
   6.26000000E-01    1.00000000E+00 

6    0
S    6    1.000000
   8.58850000E+03    1.89515000E-03 
   1.29723000E+03    1.43859000E-02 
   2.99296000E+02    7.07320000E-02 
   8.73771000E+01    2.40001000E-01 
   2.56789000E+01    5.94797000E-01 
   3.74004000E+00    2.80802000E-01 
SP   3    1.000000
   4.21175000E+01    1.13889000E-01   3.65114000E-02 
   9.62837000E+00    9.20811000E-01   2.37153000E-01 
   2.85332000E+00   -3.27447000E-03   8.19702000E-01 
SP   1    1.000000
   9.05661000E-01    1.00000000E+00   1.00000000E+00 
SP   1    1.000000
   2.55611000E-01    1.00000000E+00   1.00000000E+00 
SP   1    1.000000
   8.45000000E-02    1.00000000E+00   1.00000000E+00 
D    1    1.000000
   1.29200000E+00    1.00000000E+00 

7    0
S    6    1.000000
   4.56324000E+03    1.96665000E-03 
   6.82024000E+02    1.52306000E-02 
   1.54973000E+02    7.61269000E-02 
   4.44553000E+01    2.60801000E-01 
   1.30290000E+01    6.16462000E-01 
   1.82773000E+00    2.21006000E-01 
SP   3    1.000000
   2.09642000E+01    1.14660000E-01   4.02487000E-02 
   4.80331000E+00    9.19999000E-01   2.37594000E-01 
   1.45933000E+00   -3.03068000E-03   8.15854000E-01 
SP   1    1.000000
   4.83456000E-01    1.00000000E+00   1.00000000E+00 
SP   1    1.000000
   1.45585000E-01    1.00000000E+00   1.00000000E+00 
SP   1    1.000000
   4.38000000E-02    1.00000000E+00   1.00000000E+00 
D    1    1.000000
   6.26000000E-01    1.00000000E+00 

8    0
S    6    1.000000
   8.58850000E+03    1.89515000E-03 
   1.29723000E+03    1.43859000E-02 
   2.99296000E+02    7.07320000E-02 
   8.73771000E+01    2.40001000E-01 
   2.56789000E+01    5.94797000E-01 
   3.74004000E+00    2.80802000E-01 
SP   3    1.000000
   4.21175000E+01    1.13889000E-01   3.65114000E-02 
   9.62837000E+00    9.20811000E-01   2.37153000E-01 
   2.85332000E+00   -3.27447000E-03   8.19702000E-01 
SP   1    1.000000
   9.05661000E-01    1.00000000E+00   1.00000000E+00 
SP   1    1.000000
   2.55611000E-01    1.00000000E+00   1.00000000E+00 
SP   1    1.000000
   8.45000000E-02    1.00000000E+00   1.00000000E+00 
D    1    1.000000
   1.29200000E+00    1.00000000E+00 

9    0
S    6    1.000000
   6.29348000E+03    1.96979000E-03 
   9.49044000E+02    1.49613000E-02 
   2.18776000E+02    7.35006000E-02 
   6.36916000E+01    2.48937000E-01 
   1.88282000E+01    6.02460000E-01 
   2.72023000E+00    2.56202000E-01 
SP   3    1.000000
   3.06331000E+01    1.11906000E-01   3.83119000E-02 
   7.02614000E+00    9.21666000E-01   2.37403000E-01 
   2.11205000E+00   -2.56919000E-03   8.17592000E-01 
SP   1    1.000000
   6.84009000E-01    1.00000000E+00   1.00000000E+00 
SP   1    1.000000
   2.00878000E-01    1.00000000E+00   1.00000000E+00 
SP   1    1.000000
   6.39000000E-02    1.00000000E+00   1.00000000E+00 
D    1    1.000000
   9.13000000E-01    1.00000000E+00 

10    0
S    6    1.000000
   6.29348000E+03    1.96979000E-03 
   9.49044000E+02    1.49613000E-02 
   2.18776000E+02    7.35006000E-02 
   6.36916000E+01    2.48937000E-01 
   1.88282000E+01    6.02460000E-01 
   2.72023000E+00    2.56202000E-01 
SP   3    1.000000
   3.06331000E+01    1.11906000E-01   3.83119000E-02 
   7.02614000E+00    9.21666000E-01   2.37403000E-01 
   2.11205000E+00   -2.56919000E-03   8.17592000E-01 
SP   1    1.000000
   6.84009000E-01    1.00000000E+00   1.00000000E+00 
SP   1    1.000000
   2.00878000E-01    1.00000000E+00   1.00000000E+00 
SP   1    1.000000
   6.39000000E-02    1.00000000E+00   1.00000000E+00 
D    1    1.000000
   9.13000000E-01    1.00000000E+00 

11    0
S    6    1.000000
   4.56324000E+03    1.96665000E-03 
   6.82024000E+02    1.52306000E-02 
   1.54973000E+02    7.61269000E-02 
   4.44553000E+01    2.60801000E-01 
   1.30290000E+01    6.16462000E-01 
   1.82773000E+00    2.21006000E-01 
SP   3    1.000000
   2.09642000E+01    1.14660000E-01   4.02487000E-02 
   4.80331000E+00    9.19999000E-01   2.37594000E-01 
   1.45933000E+00   -3.03068000E-03   8.15854000E-01 
SP   1    1.000000
   4.83456000E-01    1.00000000E+00   1.00000000E+00 
SP   1    1.000000
   1.45585000E-01    1.00000000E+00   1.00000000E+00 
SP   1    1.000000
   4.38000000E-02    1.00000000E+00   1.00000000E+00 
D    1    1.000000
   6.26000000E-01    1.00000000E+00 

12    0
S    3    1.000000
   3.38650000E+01    2.54938000E-02 
   5.09479000E+00    1.90373000E-01 
   1.15879000E+00    8.52161000E-01 
S    1    1.000000
   3.25840000E-01    1.00000000E+00 
S    1    1.000000
   1.02741000E-01    1.00000000E+00 
S    1    1.000000
   3.60000000E-02    1.00000000E+00 
P    1    1.000000
   7.50000000E-01    1.00000000E+00 

[MO]
Sym=X
Ene= -0.027574
Spin=Alpha
Occup=1
     1    6.788373218615e-07
     2    2.936238244247e-06
     3    2.655981359561e-06
     4   -3.221353630171e-06
     5   -1.436473585775e-16
     6   -1.769507801805e-05
     7    3.273151736824e-06
     8   -1.597506876682e-06
     9    1.196162452734e-15
    10    2.395647392045e-04
    11   -5.864434615471e-05
    12    6.075957950022e-05
    13   -1.869931883543e-15
    14   -1.605411352067e-04
    15   -3.550795274098e-04
    16   -6.131567061858e-05
    17   -5.761304401983e-15
    18   -2.782054303537e-06
    19   -1.279531887306e-16
    20   -1.002555935845e-15
    21    1.507749937768e-07
    22    5.658601590142e-06
    23   -3.069318443141e-06
    24   -2.610546804538e-05
    25   -3.872895994707e-06
    26   -2.343949182889e-04
    27   -9.871384842709e-06
    28    1.464231472837e-06
    29   -7.725138515634e-16
    30    1.506340918132e-06
    31   -1.398685333783e-05
    32    2.413729862360e-05
    33   -4.737060433504e-05
    34    3.025528448894e-06
    35   -4.042619687512e-06
    36   -9.752778728266e-16
    37   -3.742853870466e-06
    38   -2.571570865863e-05
    39   -4.938229756450e-05
    40   -2.008580304713e-04
    41   -4.403318011343e-06
    42    8.796375638213e-06
    43    2.423652134186e-16
    44    2.368806979960e-06
    45    8.089370386304e-05
    46    4.949598105340e-05
    47   -2.885725427068e-05
    48   -1.354471667874e-15
    49   -2.406397515521e-04
    50    4.019845995131e-04
    51   -2.076656654617e-04
    52    1.782591605183e-15
    53    2.797602580850e-04
    54   -5.534921595662e-06
    55    1.224799187698e-04
    56   -3.369194437390e-15
    57   -3.063874391323e-04
    58   -6.275704646415e-04
    59    2.763221522698e-04
    60    2.715534920104e-15
    61    2.287166943026e-05
    62   -1.505769372453e-15
    63    1.086631977527e-16
    64   -1.201043783222e-04
    65    2.119098008885e-04
    66   -5.516553963797e-01
    67   -4.716248712243e-01
    68   -1.588135580129e-03
    69    8.104773031527e-04
    70    1.107012472150e-15
    71   -4.937234723062e-03
    72    7.169673934350e-04
    73   -3.411922749765e-04
    74   -8.978328354649e-16
    75    3.042147847881e-04
    76   -3.332496813864e-04
    77    1.592714897104e-04
    78   -2.094015286084e-16
    79   -1.324887253576e-03
    80   -1.264157365767e-05
    81    3.271215099378e-05
    82   -6.834196608381e-16
    83    3.572071511346e-04
    84   -3.076913681572e-16
    85    8.714164129588e-16
    86    4.836038149528e-05
    87   -5.382173927922e-05
    88    3.994170473884e-07
    89    1.839165863877e-06
    90    6.640321679863e-07
    91   -1.225574885506e-06
    92   -7.008738395995e-16
    93   -1.417539687395e-05
    94    9.358368363733e-06
    95   -3.143748927206e-06
    96    2.117947919583e-15
    97    1.053211163367e-04
    98   -1.443630473056e-04
    99   -4.476440749718e-05
   100   -5.387967088522e-16
   101   -5.045358984199e-04
   102   -1.059606828739e-04
   103    4.821795879020e-04
   104   -9.786832252222e-15
   105   -2.222907891490e-06
   106    1.020317306976e-15
   107    1.493528481365e-16
   108   -1.813012662943e-06
   109   -2.009032221979e-07
   110   -8.593389103013e-07
   111   -4.948581020699e-07
   112   -2.626578552564e-06
   113    1.321292460643e-06
   114   -1.131410648141e-15
   115   -3.138565520604e-06
   116   -3.612647332985e-08
   117    9.540025171443e-07
   118    2.872566252762e-15
   119    3.037369648214e-05
   120   -1.145367383130e-05
   121   -3.231596171173e-06
   122   -4.651906385279e-15
   123    1.417847476969e-04
   124   -5.021165933079e-05
   125   -6.288521892277e-05
   126    3.891118807673e-15
   127   -4.096270173071e-07
   128    3.221342290214e-16
   129    4.126305384040e-16
   130   -8.919473996831e-07
   131    3.338507475028e-08
   132   -1.326891487294e-06
   133    9.828156691134e-07
   134   -2.322687482576e-05
   135    5.021817359476e-07
   136   -6.260894355676e-16
   137    5.221228127376e-06
   138    5.713435158205e-05
   139    9.141194455468e-06
   140    1.839797426357e-15
   141   -1.965270413780e-04
   142    1.204202007284e-05
   143    9.751650041442e-05
   144   -5.491713213857e-16
   145    1.265548165155e-04
   146   -2.644362876432e-04
   147    4.352895900633e-05
   148    2.668664456452e-15
   149    1.232728036313e-05
   150   -6.093185139543e-16
   151   -6.769448090802e-16
   152   -3.909563173714e-05
   153   -6.594363472900e-06
   154   -2.740240098814e-06
   155   -1.070325983728e-06
   156   -7.907638953847e-06
   157    2.477547986840e-05
   158   -2.024604154806e-16
   159    6.723577172870e-06
   160    5.492612508243e-06
   161   -5.137938984346e-05
   162   -1.062133168044e-15
   163   -6.552482755305e-05
   164   -1.223486890030e-04
   165    7.282320170116e-05
   166    2.698142108510e-15
   167    4.013412944206e-05
   168   -1.124733171832e-04
   169    2.775338909692e-04
   170    2.560606598986e-15
   171    7.684082432747e-06
   172    5.754453522441e-16
   173    6.569148979308e-16
   174    3.087744030456e-05
   175    1.110295504194e-05
   176   -3.895112920270e-07
   177    6.197319439025e-07
   178   -2.746916704090e-06
   179    1.419731320686e-06
   180    1.176623575878e-15
   181   -2.554964956895e-06
   182    1.545931682127e-05
   183   -6.850343634451e-06
   184   -4.226748298185e-16
   185   -8.957120657336e-05
   186    2.915404900741e-05
   187   -3.304103460214e-05
   188    1.598948383363e-16
   189    1.715847269812e-03
   190   -2.512214183177e-04
   191    2.199445538076e-04
   192    8.470232950854e-15
   193   -2.915866667835e-06
   194   -3.400441588526e-16
   195    3.329951528058e-16
   196    9.596041386152e-07
   197   -3.354038947305e-06
   198   -1.411588936508e-06
   199   -1.230834915485e-05
   200    6.851659268210e-06
   201    1.331579977665e-04
   202    3.089253848223e-06
   203   -1.757252492393e-06
   204   -5.321657071022e-16
Sym=X
Ene= 0.027574
Spin=Alpha
Occup=0
     1    5.816998986318e-07
     2    2.292494689056e-06
     3   -2.713428612406e-06
     4   -5.118898553773e-07
     5    9.121789366418e-16
     6   -1.713197034928e-05
     7   -1.110499486653e-06
     8    1.017869061289e-06
     9   -2.028297367713e-15
    10    4.247785603875e-04
    11    1.152666775529e-04
    12    2.600862391144e-04
    13    3.417433963151e-15
    14    2.002987980401e-04
    15   -5.565962436031e-05
    16    5.062156300241e-04
    17   -6.176140188977e-15
    18   -2.602648416863e-06
    19   -1.440569272170e-15
    20    3.846811685049e-16
    21    6.622721488572e-06
    22   -5.065186341148e-06
    23    3.524870814301e-07
    24   -1.808776572588e-05
    25    5.610970007962e-05
    26   -3.069946165644e-05
    27    2.450386703630e-06
    28   -1.402233819044e-06
    29   -2.564742054188e-16
    30    5.565948242049e-07
    31    2.238399968216e-05
    32    1.391947353995e-04
    33    2.878184529037e-04
    34   -4.369274364812e-06
    35    4.107993025352e-06
    36   -1.216780453718e-16
    37   -5.388963324558e-07
    38   -6.512303330344e-05
    39   -3.515267934056e-05
    40   -8.624128784314e-05
    41    5.348390360702e-06
    42    7.418980096710e-06
    43    4.138455065623e-18
    44    5.728248460199e-07
    45   -8.297298856295e-07
    46   -5.594542867770e-06
    47   -6.740281018818e-08
    48    1.093981167960e-15
    49    5.637696016411e-06
    50    2.246967098531e-05
    51   -6.997754579711e-07
    52   -2.972001490172e-15
    53    2.844907705810e-04
    54    1.678480241881e-04
    55    1.774410427936e-05
    56    2.139280040996e-15
    57    5.007840714919e-04
    58    8.848322338900e-05
    59    1.350996554466e-04
    60    4.100448472849e-15
    61   -4.854764129067e-06
    62   -3.834071552699e-16
    63   -4.120399110549e-16
    64    2.657194647863e-06
    65   -6.757885200013e-07
    66    7.254653056500e-07
    67   -1.053808316532e-07
    68    3.158381488517e-07
    69    9.354088340151e-08
    70    1.031168928134e-15
    71    7.146219629975e-06
    72    2.658284780381e-06
    73    5.671943873517e-07
    74   -2.997914874270e-15
    75   -2.121107308790e-05
    76   -1.249012246797e-05
    77   -7.971147295449e-06
    78    4.852736508811e-15
    79    2.553039794845e-04
    80    1.247011390400e-04
    81   -3.973865814231e-05
    82   -6.222478385222e-15
    83   -6.611451125345e-07
    84    5.852699897548e-16
    85    1.196249863360e-15
    86   -7.762689169161e-07
    87   -3.686134441180e-07
    88   -2.087923735701e-07
    89    7.451652981885e-05
    90   -5.839003864013e-05
    91   -4.044438505476e-05
    92   -5.072846077630e-16
    93   -2.893970092953e-04
    94   -3.293290711958e-04
    95   -2.113609804798e-04
    96    6.437979749339e-17
    97    3.257087202816e-04
    98   -3.335782397481e-04
    99   -3.438982898463e-04
   100   -4.197242626976e-16
   101    8.502949132112e-04
   102    6.644619314084e-04
   103   -2.096270315725e-04
   104   -3.707001610425e-15
   105    7.457940559186e-05
   106   -7.211168902915e-16
   107    1.449848849944e-16
   108   -9.361168843558e-05
   109   -1.806325282687e-04
   110   -5.515346103474e-01
   111   -4.716877601922e-01
   112    1.502932914624e-03
   113    8.388630424932e-04
   114    9.842050796553e-16
   115   -5.305223021288e-03
   116   -6.426713115784e-04
   117   -3.394372860151e-04
   118   -1.277364632649e-15
   119    1.037595820137e-03
   120    1.859308286254e-04
   121    1.305054148251e-04
   122    2.111937510671e-15
   123   -1.301912360704e-03
   124    8.187822787017e-05
   125    3.563374237288e-05
   126   -5.377170626717e-16
   127    1.165497199912e-04
   128   -4.746868179588e-16
   129    8.617610743885e-17
   130    4.397694127140e-05
   131    1.058354438608e-04
   132   -3.097897426000e-07
   133   -2.161217207950e-06
   134    1.164808355827e-05
   135   -2.706667045421e-06
   136   -6.118263150636e-16
   137    2.993006710259e-05
   138   -2.909419959742e-05
   139    8.233406863451e-06
   140    1.005673749444e-15
   141   -2.589286636366e-04
   142    1.305805249354e-04
   143    2.146380656636e-04
   144   -1.034105329273e-15
   145    2.191039490296e-04
   146    6.296802246378e-04
   147    1.914880255814e-05
   148    1.527624828952e-15
   149    6.608884028059e-06
   150   -1.060798019304e-15
   151   -4.042712465494e-16
   152   -1.659412632595e-05
   153    1.409756674594e-05
   154    5.160961694533e-08
   155   -6.305144423808e-07
   156   -3.510184713397e-07
   157   -5.361727058036e-08
   158    2.420508382657e-16
   159    1.102276472454e-05
   160    1.928015956979e-06
   161    7.207790807280e-07
   162   -4.348944009983e-16
   163   -1.480410186822e-04
   164   -9.164820875103e-05
   165   -4.043373929591e-06
   166   -1.203316007741e-15
   167   -2.109635355975e-04
   168    6.888291143772e-05
   169   -4.536891234727e-05
   170    1.374535773701e-15
   171   -6.173578114161e-07
   172   -1.064056298756e-16
   173   -7.484000768906e-17
   174    6.355266480988e-07
   175    2.080879978569e-06
   176   -2.540162280479e-06
   177   -2.746196918788e-06
   178    6.797569254342e-06
   179    1.873436358667e-05
   180   -1.384598678252e-15
   181    1.868597225231e-05
   182   -1.134497844939e-05
   183   -7.736351021367e-05
   184    3.437840197460e-15
   185   -5.240827687522e-04
   186    4.712345401313e-04
   187   -1.111622576913e-04
   188   -3.689846285535e-15
   189   -1.110501710088e-03
   190    8.859673139367e-06
   191   -6.672510121361e-04
   192    5.711299638448e-15
   193    3.552035667037e-06
   194   -5.320877294856e-16
   195   -3.736840131101e-16
   196    2.605638352236e-05
   197   -3.635042361639e-05
   198    5.037695268018e-06
   199   -1.213423807407e-04
   200   -1.082680836977e-04
   201   -3.032758062799e-04
   202    2.125528140649e-05
   203   -1.185386556770e-05
   204    8.296297018486e-16
[5D]
