[Molden Format]
[Atoms] (Angs)
  C      1    6     -0.13173890     -1.79208980      0.00000000
  H      2    1     -2.14962000     -1.30978739      0.00000000
  H      3    1     -0.31599560     -2.86503115      0.00000000
  H      4    1      0.14407746      2.04280963     -0.00000000
  C      5    6     -1.17258876      0.48030861      0.00000000
  O      6    8     -2.25008207      1.06833796      0.00000000
  C      7    6      1.31158357      0.28308717     -0.00000000
  O      8    8      2.36361668      0.96389345     -0.00000000
  N      9    7      0.07017030      1.03138997     -0.00000000
  N     10    7     -1.19586868     -0.94982644      0.00000000
  C     11    6      1.19165158     -1.13169473     -0.00000000
  H     12    1      2.09970506     -1.73445456     -0.00000000
[GTO]
1    0
S    6    1.000000
   4.56324000E+03    1.96665000E-03 
   6.82024000E+02    1.52306000E-02 
   1.54973000E+02    7.61269000E-02 
   4.44553000E+01    2.60801000E-01 
   1.30290000E+01    6.16462000E-01 
   1.82773000E+00    2.21006000E-01 
SP   3    1.000000
   2.09642000E+01    1.14660000E-01   4.02487000E-02 
   4.80331000E+00    9.19999000E-01   2.37594000E-01 
   1.45933000E+00   -3.03068000E-03   8.15854000E-01 
SP   1    1.000000
   4.83456000E-01    1.00000000E+00   1.00000000E+00 
SP   1    1.000000
   1.45585000E-01    1.00000000E+00   1.00000000E+00 
SP   1    1.000000
   4.38000000E-02    1.00000000E+00   1.00000000E+00 
D    1    1.000000
   6.26000000E-01    1.00000000E+00 

2    0
S    3    1.000000
   3.38650000E+01    2.54938000E-02 
   5.09479000E+00    1.90373000E-01 
   1.15879000E+00    8.52161000E-01 
S    1    1.000000
   3.25840000E-01    1.00000000E+00 
S    1    1.000000
   1.02741000E-01    1.00000000E+00 
S    1    1.000000
   3.60000000E-02    1.00000000E+00 
P    1    1.000000
   7.50000000E-01    1.00000000E+00 

3    0
S    3    1.000000
   3.38650000E+01    2.54938000E-02 
   5.09479000E+00    1.90373000E-01 
   1.15879000E+00    8.52161000E-01 
S    1    1.000000
   3.25840000E-01    1.00000000E+00 
S    1    1.000000
   1.02741000E-01    1.00000000E+00 
S    1    1.000000
   3.60000000E-02    1.00000000E+00 
P    1    1.000000
   7.50000000E-01    1.00000000E+00 

4    0
S    3    1.000000
   3.38650000E+01    2.54938000E-02 
   5.09479000E+00    1.90373000E-01 
   1.15879000E+00    8.52161000E-01 
S    1    1.000000
   3.25840000E-01    1.00000000E+00 
S    1    1.000000
   1.02741000E-01    1.00000000E+00 
S    1    1.000000
   3.60000000E-02    1.00000000E+00 
P    1    1.000000
   7.50000000E-01    1.00000000E+00 

5    0
S    6    1.000000
   4.56324000E+03    1.96665000E-03 
   6.82024000E+02    1.52306000E-02 
   1.54973000E+02    7.61269000E-02 
   4.44553000E+01    2.60801000E-01 
   1.30290000E+01    6.16462000E-01 
   1.82773000E+00    2.21006000E-01 
SP   3    1.000000
   2.09642000E+01    1.14660000E-01   4.02487000E-02 
   4.80331000E+00    9.19999000E-01   2.37594000E-01 
   1.45933000E+00   -3.03068000E-03   8.15854000E-01 
SP   1    1.000000
   4.83456000E-01    1.00000000E+00   1.00000000E+00 
SP   1    1.000000
   1.45585000E-01    1.00000000E+00   1.00000000E+00 
SP   1    1.000000
   4.38000000E-02    1.00000000E+00   1.00000000E+00 
D    1    1.000000
   6.26000000E-01    1.00000000E+00 

6    0
S    6    1.000000
   8.58850000E+03    1.89515000E-03 
   1.29723000E+03    1.43859000E-02 
   2.99296000E+02    7.07320000E-02 
   8.73771000E+01    2.40001000E-01 
   2.56789000E+01    5.94797000E-01 
   3.74004000E+00    2.80802000E-01 
SP   3    1.000000
   4.21175000E+01    1.13889000E-01   3.65114000E-02 
   9.62837000E+00    9.20811000E-01   2.37153000E-01 
   2.85332000E+00   -3.27447000E-03   8.19702000E-01 
SP   1    1.000000
   9.05661000E-01    1.00000000E+00   1.00000000E+00 
SP   1    1.000000
   2.55611000E-01    1.00000000E+00   1.00000000E+00 
SP   1    1.000000
   8.45000000E-02    1.00000000E+00   1.00000000E+00 
D    1    1.000000
   1.29200000E+00    1.00000000E+00 

7    0
S    6    1.000000
   4.56324000E+03    1.96665000E-03 
   6.82024000E+02    1.52306000E-02 
   1.54973000E+02    7.61269000E-02 
   4.44553000E+01    2.60801000E-01 
   1.30290000E+01    6.16462000E-01 
   1.82773000E+00    2.21006000E-01 
SP   3    1.000000
   2.09642000E+01    1.14660000E-01   4.02487000E-02 
   4.80331000E+00    9.19999000E-01   2.37594000E-01 
   1.45933000E+00   -3.03068000E-03   8.15854000E-01 
SP   1    1.000000
   4.83456000E-01    1.00000000E+00   1.00000000E+00 
SP   1    1.000000
   1.45585000E-01    1.00000000E+00   1.00000000E+00 
SP   1    1.000000
   4.38000000E-02    1.00000000E+00   1.00000000E+00 
D    1    1.000000
   6.26000000E-01    1.00000000E+00 

8    0
S    6    1.000000
   8.58850000E+03    1.89515000E-03 
   1.29723000E+03    1.43859000E-02 
   2.99296000E+02    7.07320000E-02 
   8.73771000E+01    2.40001000E-01 
   2.56789000E+01    5.94797000E-01 
   3.74004000E+00    2.80802000E-01 
SP   3    1.000000
   4.21175000E+01    1.13889000E-01   3.65114000E-02 
   9.62837000E+00    9.20811000E-01   2.37153000E-01 
   2.85332000E+00   -3.27447000E-03   8.19702000E-01 
SP   1    1.000000
   9.05661000E-01    1.00000000E+00   1.00000000E+00 
SP   1    1.000000
   2.55611000E-01    1.00000000E+00   1.00000000E+00 
SP   1    1.000000
   8.45000000E-02    1.00000000E+00   1.00000000E+00 
D    1    1.000000
   1.29200000E+00    1.00000000E+00 

9    0
S    6    1.000000
   6.29348000E+03    1.96979000E-03 
   9.49044000E+02    1.49613000E-02 
   2.18776000E+02    7.35006000E-02 
   6.36916000E+01    2.48937000E-01 
   1.88282000E+01    6.02460000E-01 
   2.72023000E+00    2.56202000E-01 
SP   3    1.000000
   3.06331000E+01    1.11906000E-01   3.83119000E-02 
   7.02614000E+00    9.21666000E-01   2.37403000E-01 
   2.11205000E+00   -2.56919000E-03   8.17592000E-01 
SP   1    1.000000
   6.84009000E-01    1.00000000E+00   1.00000000E+00 
SP   1    1.000000
   2.00878000E-01    1.00000000E+00   1.00000000E+00 
SP   1    1.000000
   6.39000000E-02    1.00000000E+00   1.00000000E+00 
D    1    1.000000
   9.13000000E-01    1.00000000E+00 

10    0
S    6    1.000000
   6.29348000E+03    1.96979000E-03 
   9.49044000E+02    1.49613000E-02 
   2.18776000E+02    7.35006000E-02 
   6.36916000E+01    2.48937000E-01 
   1.88282000E+01    6.02460000E-01 
   2.72023000E+00    2.56202000E-01 
SP   3    1.000000
   3.06331000E+01    1.11906000E-01   3.83119000E-02 
   7.02614000E+00    9.21666000E-01   2.37403000E-01 
   2.11205000E+00   -2.56919000E-03   8.17592000E-01 
SP   1    1.000000
   6.84009000E-01    1.00000000E+00   1.00000000E+00 
SP   1    1.000000
   2.00878000E-01    1.00000000E+00   1.00000000E+00 
SP   1    1.000000
   6.39000000E-02    1.00000000E+00   1.00000000E+00 
D    1    1.000000
   9.13000000E-01    1.00000000E+00 

11    0
S    6    1.000000
   4.56324000E+03    1.96665000E-03 
   6.82024000E+02    1.52306000E-02 
   1.54973000E+02    7.61269000E-02 
   4.44553000E+01    2.60801000E-01 
   1.30290000E+01    6.16462000E-01 
   1.82773000E+00    2.21006000E-01 
SP   3    1.000000
   2.09642000E+01    1.14660000E-01   4.02487000E-02 
   4.80331000E+00    9.19999000E-01   2.37594000E-01 
   1.45933000E+00   -3.03068000E-03   8.15854000E-01 
SP   1    1.000000
   4.83456000E-01    1.00000000E+00   1.00000000E+00 
SP   1    1.000000
   1.45585000E-01    1.00000000E+00   1.00000000E+00 
SP   1    1.000000
   4.38000000E-02    1.00000000E+00   1.00000000E+00 
D    1    1.000000
   6.26000000E-01    1.00000000E+00 

12    0
S    3    1.000000
   3.38650000E+01    2.54938000E-02 
   5.09479000E+00    1.90373000E-01 
   1.15879000E+00    8.52161000E-01 
S    1    1.000000
   3.25840000E-01    1.00000000E+00 
S    1    1.000000
   1.02741000E-01    1.00000000E+00 
S    1    1.000000
   3.60000000E-02    1.00000000E+00 
P    1    1.000000
   7.50000000E-01    1.00000000E+00 

[MO]
Sym=X
Ene= -0.169615
Spin=Alpha
Occup=1
     1   -1.003227890484e-07
     2   -1.728702080037e-06
     3    2.937615535569e-06
     4    5.208013711612e-07
     5   -9.383771801590e-16
     6    1.817782221929e-05
     7   -8.718253870627e-06
     8   -2.554804937304e-06
     9    2.041252889072e-15
    10   -4.883737413610e-04
    11   -1.261517250851e-04
    12   -2.836666829645e-04
    13   -3.466512482114e-15
    14   -4.291666964482e-05
    15    2.000014376044e-04
    16   -5.915926350141e-04
    17    6.167250898146e-15
    18    2.877078255667e-06
    19    1.356464570909e-15
    20   -3.697497760380e-16
    21   -5.208240970367e-06
    22    2.743789270355e-06
    23   -3.289797215679e-07
    24    9.829933192353e-06
    25   -3.396413148973e-05
    26    8.201588026055e-05
    27   -2.772882342328e-06
    28    2.418561969326e-06
    29    2.594261292876e-16
    30   -5.981187747893e-07
    31   -1.801347895923e-05
    32   -1.547995595315e-04
    33   -3.143865605933e-04
    34    4.487987293956e-06
    35   -2.869330314401e-06
    36    1.191454453088e-16
    37    2.108616974606e-06
    38    6.725948867182e-05
    39    9.653208614533e-05
    40    8.469299615541e-05
    41   -9.208183129658e-06
    42   -7.303275396731e-06
    43   -2.031953354689e-17
    44   -7.441623843606e-07
    45    1.849452175738e-06
    46    6.321284601078e-06
    47   -8.873296296788e-10
    48   -1.044646013043e-15
    49   -1.605401928758e-05
    50   -2.796941797827e-05
    51   -3.863881812106e-07
    52    2.965888083953e-15
    53   -2.660192453381e-04
    54   -8.645786272623e-05
    55    1.458973653465e-06
    56   -2.153949162033e-15
    57   -2.064759389220e-04
    58    3.709035516012e-05
    59   -1.604432705828e-04
    60   -4.414974894145e-15
    61    4.345867882238e-06
    62    2.232640419523e-16
    63    4.681718444076e-16
    64   -4.944465042772e-06
    65    2.371600703278e-06
    66   -8.539293738108e-06
    67   -7.079700914261e-06
    68   -5.835356281600e-08
    69   -3.385856898655e-07
    70   -1.039899186151e-15
    71   -1.095135308756e-05
    72   -4.646387652310e-06
    73    1.541115008590e-06
    74    3.023616856418e-15
    75    4.392658532228e-05
    76    2.091766314901e-05
    77   -6.511691946441e-06
    78   -5.036677336845e-15
    79   -2.026104166952e-04
    80   -1.262951848900e-04
    81    3.945607291392e-05
    82    6.423449578963e-15
    83   -1.175822133648e-07
    84   -5.737295166878e-16
    85   -1.231498787874e-15
    86    3.468424784270e-07
    87   -2.606811906161e-07
    88    2.121929432940e-06
    89   -7.169521356035e-05
    90    5.064637852642e-05
    91    3.848070991438e-05
    92    4.902782871166e-16
    93    2.882605626235e-04
    94    3.226631711537e-04
    95    2.095936634314e-04
    96   -9.835332447427e-17
    97   -2.259492589845e-04
    98    5.427624705488e-04
    99    4.667272037365e-04
   100    3.346580436983e-16
   101   -2.359136672799e-03
   102   -6.236932579517e-04
   103    4.931621649390e-04
   104    3.952004428908e-15
   105   -5.395098622389e-05
   106    5.947621319340e-16
   107   -1.365653572803e-16
   108    9.053430743532e-05
   109    1.701523476741e-04
   110    5.514801339631e-01
   111    4.717033554446e-01
   112   -1.437008970274e-03
   113   -8.743831192270e-04
   114   -9.854444642165e-16
   115    5.496468602706e-03
   116    5.704300104522e-04
   117    3.473658713652e-04
   118    1.236368547605e-15
   119   -1.346022839530e-03
   120   -1.204105427800e-04
   121   -8.183004823987e-05
   122   -1.905494062622e-15
   123    1.250472601660e-03
   124   -1.876454979621e-05
   125    2.006696759062e-06
   126    3.254719849066e-16
   127   -8.007983043916e-05
   128    4.800259274715e-16
   129   -7.758679294969e-17
   130   -3.785824390249e-05
   131   -9.560016591479e-05
   132    2.309670086325e-07
   133    2.795408363744e-06
   134   -9.089737503660e-06
   135    3.604946202829e-06
   136    6.048704220679e-16
   137   -3.534483563591e-05
   138    2.056714168315e-05
   139   -5.064237261918e-06
   140   -1.008005758706e-15
   141    2.610247572739e-04
   142   -8.626748316086e-05
   143   -2.471686071251e-04
   144    1.057290896282e-15
   145   -2.252049756208e-04
   146   -5.434638515618e-04
   147   -7.095420800253e-05
   148   -1.422194904971e-15
   149   -9.262283261388e-06
   150    1.102342903096e-15
   151    3.981557100649e-16
   152    1.405292034773e-05
   153   -1.501450040592e-05
   154   -4.438089992410e-08
   155    7.522672038614e-07
   156    4.842640887562e-07
   157    5.218044698053e-07
   158   -2.420424686841e-16
   159   -1.054032705787e-05
   160   -1.447841016672e-06
   161   -2.926093487436e-06
   162    4.196578263709e-16
   163    1.517138480412e-04
   164    7.596665337610e-05
   165    1.041028560851e-05
   166    1.175379151394e-15
   167    2.310557706906e-04
   168   -4.911810544122e-05
   169    3.358697313261e-05
   170   -1.198374678967e-15
   171    4.585310474133e-07
   172    9.776954784249e-17
   173    6.507627778835e-17
   174   -5.938891081044e-09
   175   -1.339652509539e-06
   176    1.463434255534e-06
   177    1.712114154989e-06
   178   -3.514007209415e-06
   179   -1.618000698125e-05
   180    1.356779582487e-15
   181   -2.656163969230e-05
   182    7.329281675264e-06
   183    7.723500053060e-05
   184   -3.400587570281e-15
   185    6.718973462094e-04
   186   -5.488548738880e-04
   187    1.813110327302e-04
   188    3.763406355693e-15
   189    1.949445382051e-03
   190    8.823531770780e-05
   191    1.104012765926e-03
   192   -5.826124561031e-15
   193   -6.849439032095e-06
   194    5.334819513054e-16
   195    4.101244512859e-16
   196   -2.774493378524e-05
   197    2.752108704329e-05
   198   -4.623381536827e-06
   199    1.274533769446e-04
   200    1.633924747652e-04
   201    3.372271974102e-04
   202   -1.972318812622e-05
   203    1.011335086229e-05
   204   -8.187388740950e-16
Sym=X
Ene= 0.169615
Spin=Alpha
Occup=0
     1   -3.643636815877e-07
     2    5.599082657622e-06
     3   -6.264152273237e-06
     4    1.183402233751e-05
     5    1.603939239285e-16
     6   -4.174453043697e-05
     7    5.519037772815e-05
     8   -7.262052995175e-05
     9   -1.227647082171e-15
    10   -1.799460217601e-04
    11    8.529803682462e-05
    12    2.451740523638e-04
    13    1.775232746817e-15
    14    1.408916917745e-03
    15    9.034710233632e-04
    16    8.153958002233e-04
    17    6.278709880508e-15
    18   -2.628765204614e-06
    19   -5.605824619887e-17
    20    1.112780886980e-15
    21    1.190528503542e-05
    22    2.329356007986e-05
    23    2.798075349247e-06
    24    6.025150425360e-05
    25    2.652409454340e-04
    26    4.338402811783e-04
    27    1.396288550826e-05
    28   -2.745805677553e-05
    29    7.494273600234e-16
    30   -1.045402382781e-05
    31    6.106757366658e-05
    32    1.495351646921e-04
    33    4.362967839027e-04
    34    4.368895366375e-06
    35    1.277324774569e-06
    36    1.051530394107e-15
    37   -7.082117702218e-08
    38    1.243869944310e-04
    39    2.619740502056e-04
    40    4.560926866191e-04
    41    1.536621949939e-05
    42   -2.084155803910e-06
    43   -1.476943067591e-16
    44    1.314404674893e-05
    45   -7.053935531357e-05
    46   -8.824882191168e-05
    47    4.499402473862e-05
    48    9.412037256350e-16
    49    4.380880450226e-04
    50   -2.938621819873e-04
    51    1.599416243371e-04
    52   -1.091793854177e-15
    53    3.537949825237e-04
    54   -1.488299849456e-03
    55    8.072000256624e-04
    56    3.622512667614e-15
    57    3.831751992495e-04
    58    7.815292553186e-04
    59   -2.825922495106e-04
    60   -3.927731202244e-15
    61   -1.342859632429e-04
    62    5.432380537125e-16
    63   -7.799522464657e-17
    64    5.080236697069e-05
    65   -8.638300466234e-05
    66    5.511068066334e-01
    67    4.718328580393e-01
    68    1.572396304240e-03
    69   -8.257718044137e-04
    70   -1.102549991922e-15
    71    6.672165591598e-03
    72   -5.060993764382e-04
    73    2.454977952272e-04
    74    1.084540648498e-15
    75   -3.350348981702e-03
    76   -2.152157392635e-04
    77    1.240410106307e-04
    78   -9.962889240802e-16
    79    1.773729047067e-03
    80    1.394112288361e-04
    81   -1.177095491889e-04
    82    1.757154348892e-15
    83    4.872962777479e-04
    84    5.607811741021e-16
    85   -2.664384944136e-18
    86   -7.467853380944e-05
    87    1.003943795894e-04
    88   -4.697087318685e-07
    89    5.393324535544e-06
    90   -1.056023362915e-05
    91    3.699033572635e-06
    92    1.295357850306e-16
    93   -3.510481857547e-05
    94    6.772778522382e-05
    95   -4.038263526151e-05
    96   -1.492976351578e-15
    97   -3.133076597373e-04
    98   -9.640875765949e-05
    99   -2.750467716343e-04
   100   -8.226440524212e-17
   101    1.882542080319e-03
   102    1.689672911902e-04
   103   -1.223272959716e-03
   104    1.168007350832e-14
   105    5.131781742803e-06
   106   -1.907917150344e-15
   107   -2.005856261609e-16
   108   -2.990271121616e-05
   109    7.904394750742e-06
   110    8.722024021887e-06
   111    1.175499732664e-05
   112   -3.099008453902e-06
   113    5.341829036817e-07
   114    1.080446537945e-15
   115   -3.309847335481e-05
   116    5.406454802767e-06
   117    6.354054674154e-06
   118   -3.146459792939e-15
   119    1.972435635728e-04
   120   -7.223058342725e-05
   121   -3.556507069294e-05
   122    5.779603261935e-15
   123   -1.295862916373e-04
   124    9.240838714772e-05
   125    7.057037246829e-05
   126   -4.948979124474e-15
   127   -4.428810016170e-07
   128   -1.730768287952e-16
   129   -3.623594553205e-16
   130    7.711249267168e-07
   131    1.307577873243e-06
   132   -2.741828755783e-06
   133    7.593116724836e-06
   134   -1.575093933707e-05
   135   -4.767320809403e-06
   136    7.037355955941e-16
   137   -8.387425650331e-05
   138    1.908555799635e-05
   139    4.673080116362e-05
   140   -1.824496545313e-15
   141    5.973366879597e-04
   142    3.983396399703e-06
   143   -5.603127259388e-04
   144    4.178944061111e-16
   145    2.124561198378e-04
   146    9.020679054484e-04
   147   -3.918899920227e-04
   148   -2.873534151302e-15
   149    2.497799410053e-06
   150    6.303641437342e-16
   151    7.974858854559e-16
   152   -4.138888584629e-06
   153    1.274613556131e-06
   154   -2.854105303315e-06
   155    5.421161445529e-06
   156   -7.617890873958e-06
   157    1.745154062790e-05
   158    1.088141670099e-16
   159   -6.349408426423e-05
   160   -5.380844694951e-06
   161   -4.404339523483e-05
   162    1.279975119290e-15
   163    3.880877820736e-04
   164    3.769753105917e-04
   165    1.857918603398e-04
   166   -3.198593622774e-15
   167   -4.135513215338e-04
   168    4.596513933765e-04
   169   -7.339756632688e-04
   170   -2.262950395346e-15
   171   -8.088525007376e-06
   172   -5.078478554257e-16
   173   -1.220115514312e-15
   174    5.358328472760e-06
   175    2.891696681153e-06
   176   -4.478314129833e-07
   177   -9.122698326732e-07
   178   -1.230179494979e-06
   179    1.340732255691e-06
   180   -7.007045967922e-16
   181    2.814797839675e-05
   182    3.983763535116e-06
   183   -4.802400560628e-06
   184   -3.001405531236e-16
   185   -3.666784127970e-04
   186    2.187854158187e-04
   187   -1.601910977187e-04
   188    5.212023789468e-16
   189   -5.524114667994e-03
   190    8.341627953018e-04
   191   -8.575449376005e-04
   192   -9.718154946391e-15
   193    5.423613850164e-06
   194    3.226837076925e-16
   195   -2.760634482455e-16
   196    5.155142587049e-06
   197   -1.333105611399e-05
   198    8.453307594635e-07
   199   -5.228923092035e-05
   200   -6.357242986021e-05
   201   -3.602671092265e-04
   202    6.008948455402e-06
   203   -3.046635029929e-06
   204    7.008413185318e-16
[5D]
