[Molden Format]
[Atoms] (Angs)
  C      1    6     -0.13173890     -1.79208980      0.00000000
  H      2    1     -2.14962000     -1.30978739      0.00000000
  H      3    1     -0.31599560     -2.86503115      0.00000000
  H      4    1      0.14407746      2.04280963     -0.00000000
  C      5    6     -1.17258876      0.48030861      0.00000000
  O      6    8     -2.25008207      1.06833796      0.00000000
  C      7    6      1.31158357      0.28308717     -0.00000000
  O      8    8      2.36361668      0.96389345     -0.00000000
  N      9    7      0.07017030      1.03138997     -0.00000000
  N     10    7     -1.19586868     -0.94982644      0.00000000
  C     11    6      1.19165158     -1.13169473     -0.00000000
  H     12    1      2.09970506     -1.73445456     -0.00000000
[GTO]
1    0
S    6    1.000000
   4.56324000E+03    1.96665000E-03 
   6.82024000E+02    1.52306000E-02 
   1.54973000E+02    7.61269000E-02 
   4.44553000E+01    2.60801000E-01 
   1.30290000E+01    6.16462000E-01 
   1.82773000E+00    2.21006000E-01 
SP   3    1.000000
   2.09642000E+01    1.14660000E-01   4.02487000E-02 
   4.80331000E+00    9.19999000E-01   2.37594000E-01 
   1.45933000E+00   -3.03068000E-03   8.15854000E-01 
SP   1    1.000000
   4.83456000E-01    1.00000000E+00   1.00000000E+00 
SP   1    1.000000
   1.45585000E-01    1.00000000E+00   1.00000000E+00 
SP   1    1.000000
   4.38000000E-02    1.00000000E+00   1.00000000E+00 
D    1    1.000000
   6.26000000E-01    1.00000000E+00 

2    0
S    3    1.000000
   3.38650000E+01    2.54938000E-02 
   5.09479000E+00    1.90373000E-01 
   1.15879000E+00    8.52161000E-01 
S    1    1.000000
   3.25840000E-01    1.00000000E+00 
S    1    1.000000
   1.02741000E-01    1.00000000E+00 
S    1    1.000000
   3.60000000E-02    1.00000000E+00 
P    1    1.000000
   7.50000000E-01    1.00000000E+00 

3    0
S    3    1.000000
   3.38650000E+01    2.54938000E-02 
   5.09479000E+00    1.90373000E-01 
   1.15879000E+00    8.52161000E-01 
S    1    1.000000
   3.25840000E-01    1.00000000E+00 
S    1    1.000000
   1.02741000E-01    1.00000000E+00 
S    1    1.000000
   3.60000000E-02    1.00000000E+00 
P    1    1.000000
   7.50000000E-01    1.00000000E+00 

4    0
S    3    1.000000
   3.38650000E+01    2.54938000E-02 
   5.09479000E+00    1.90373000E-01 
   1.15879000E+00    8.52161000E-01 
S    1    1.000000
   3.25840000E-01    1.00000000E+00 
S    1    1.000000
   1.02741000E-01    1.00000000E+00 
S    1    1.000000
   3.60000000E-02    1.00000000E+00 
P    1    1.000000
   7.50000000E-01    1.00000000E+00 

5    0
S    6    1.000000
   4.56324000E+03    1.96665000E-03 
   6.82024000E+02    1.52306000E-02 
   1.54973000E+02    7.61269000E-02 
   4.44553000E+01    2.60801000E-01 
   1.30290000E+01    6.16462000E-01 
   1.82773000E+00    2.21006000E-01 
SP   3    1.000000
   2.09642000E+01    1.14660000E-01   4.02487000E-02 
   4.80331000E+00    9.19999000E-01   2.37594000E-01 
   1.45933000E+00   -3.03068000E-03   8.15854000E-01 
SP   1    1.000000
   4.83456000E-01    1.00000000E+00   1.00000000E+00 
SP   1    1.000000
   1.45585000E-01    1.00000000E+00   1.00000000E+00 
SP   1    1.000000
   4.38000000E-02    1.00000000E+00   1.00000000E+00 
D    1    1.000000
   6.26000000E-01    1.00000000E+00 

6    0
S    6    1.000000
   8.58850000E+03    1.89515000E-03 
   1.29723000E+03    1.43859000E-02 
   2.99296000E+02    7.07320000E-02 
   8.73771000E+01    2.40001000E-01 
   2.56789000E+01    5.94797000E-01 
   3.74004000E+00    2.80802000E-01 
SP   3    1.000000
   4.21175000E+01    1.13889000E-01   3.65114000E-02 
   9.62837000E+00    9.20811000E-01   2.37153000E-01 
   2.85332000E+00   -3.27447000E-03   8.19702000E-01 
SP   1    1.000000
   9.05661000E-01    1.00000000E+00   1.00000000E+00 
SP   1    1.000000
   2.55611000E-01    1.00000000E+00   1.00000000E+00 
SP   1    1.000000
   8.45000000E-02    1.00000000E+00   1.00000000E+00 
D    1    1.000000
   1.29200000E+00    1.00000000E+00 

7    0
S    6    1.000000
   4.56324000E+03    1.96665000E-03 
   6.82024000E+02    1.52306000E-02 
   1.54973000E+02    7.61269000E-02 
   4.44553000E+01    2.60801000E-01 
   1.30290000E+01    6.16462000E-01 
   1.82773000E+00    2.21006000E-01 
SP   3    1.000000
   2.09642000E+01    1.14660000E-01   4.02487000E-02 
   4.80331000E+00    9.19999000E-01   2.37594000E-01 
   1.45933000E+00   -3.03068000E-03   8.15854000E-01 
SP   1    1.000000
   4.83456000E-01    1.00000000E+00   1.00000000E+00 
SP   1    1.000000
   1.45585000E-01    1.00000000E+00   1.00000000E+00 
SP   1    1.000000
   4.38000000E-02    1.00000000E+00   1.00000000E+00 
D    1    1.000000
   6.26000000E-01    1.00000000E+00 

8    0
S    6    1.000000
   8.58850000E+03    1.89515000E-03 
   1.29723000E+03    1.43859000E-02 
   2.99296000E+02    7.07320000E-02 
   8.73771000E+01    2.40001000E-01 
   2.56789000E+01    5.94797000E-01 
   3.74004000E+00    2.80802000E-01 
SP   3    1.000000
   4.21175000E+01    1.13889000E-01   3.65114000E-02 
   9.62837000E+00    9.20811000E-01   2.37153000E-01 
   2.85332000E+00   -3.27447000E-03   8.19702000E-01 
SP   1    1.000000
   9.05661000E-01    1.00000000E+00   1.00000000E+00 
SP   1    1.000000
   2.55611000E-01    1.00000000E+00   1.00000000E+00 
SP   1    1.000000
   8.45000000E-02    1.00000000E+00   1.00000000E+00 
D    1    1.000000
   1.29200000E+00    1.00000000E+00 

9    0
S    6    1.000000
   6.29348000E+03    1.96979000E-03 
   9.49044000E+02    1.49613000E-02 
   2.18776000E+02    7.35006000E-02 
   6.36916000E+01    2.48937000E-01 
   1.88282000E+01    6.02460000E-01 
   2.72023000E+00    2.56202000E-01 
SP   3    1.000000
   3.06331000E+01    1.11906000E-01   3.83119000E-02 
   7.02614000E+00    9.21666000E-01   2.37403000E-01 
   2.11205000E+00   -2.56919000E-03   8.17592000E-01 
SP   1    1.000000
   6.84009000E-01    1.00000000E+00   1.00000000E+00 
SP   1    1.000000
   2.00878000E-01    1.00000000E+00   1.00000000E+00 
SP   1    1.000000
   6.39000000E-02    1.00000000E+00   1.00000000E+00 
D    1    1.000000
   9.13000000E-01    1.00000000E+00 

10    0
S    6    1.000000
   6.29348000E+03    1.96979000E-03 
   9.49044000E+02    1.49613000E-02 
   2.18776000E+02    7.35006000E-02 
   6.36916000E+01    2.48937000E-01 
   1.88282000E+01    6.02460000E-01 
   2.72023000E+00    2.56202000E-01 
SP   3    1.000000
   3.06331000E+01    1.11906000E-01   3.83119000E-02 
   7.02614000E+00    9.21666000E-01   2.37403000E-01 
   2.11205000E+00   -2.56919000E-03   8.17592000E-01 
SP   1    1.000000
   6.84009000E-01    1.00000000E+00   1.00000000E+00 
SP   1    1.000000
   2.00878000E-01    1.00000000E+00   1.00000000E+00 
SP   1    1.000000
   6.39000000E-02    1.00000000E+00   1.00000000E+00 
D    1    1.000000
   9.13000000E-01    1.00000000E+00 

11    0
S    6    1.000000
   4.56324000E+03    1.96665000E-03 
   6.82024000E+02    1.52306000E-02 
   1.54973000E+02    7.61269000E-02 
   4.44553000E+01    2.60801000E-01 
   1.30290000E+01    6.16462000E-01 
   1.82773000E+00    2.21006000E-01 
SP   3    1.000000
   2.09642000E+01    1.14660000E-01   4.02487000E-02 
   4.80331000E+00    9.19999000E-01   2.37594000E-01 
   1.45933000E+00   -3.03068000E-03   8.15854000E-01 
SP   1    1.000000
   4.83456000E-01    1.00000000E+00   1.00000000E+00 
SP   1    1.000000
   1.45585000E-01    1.00000000E+00   1.00000000E+00 
SP   1    1.000000
   4.38000000E-02    1.00000000E+00   1.00000000E+00 
D    1    1.000000
   6.26000000E-01    1.00000000E+00 

12    0
S    3    1.000000
   3.38650000E+01    2.54938000E-02 
   5.09479000E+00    1.90373000E-01 
   1.15879000E+00    8.52161000E-01 
S    1    1.000000
   3.25840000E-01    1.00000000E+00 
S    1    1.000000
   1.02741000E-01    1.00000000E+00 
S    1    1.000000
   3.60000000E-02    1.00000000E+00 
P    1    1.000000
   7.50000000E-01    1.00000000E+00 

[MO]
Sym=X
Ene= -0.003965
Spin=Alpha
Occup=1
     1   -9.946021210328e-06
     2   -1.868948050067e-05
     3    2.107654338926e-05
     4   -2.586134851128e-06
     5   -9.303402675274e-16
     6    6.386052057797e-05
     7    2.621828379727e-05
     8   -2.394696136415e-06
     9    2.080042713015e-15
    10   -1.723846193624e-04
    11   -1.341382100651e-05
    12   -1.692681206084e-04
    13   -3.633375164612e-15
    14    1.603891000104e-03
    15    4.817930836849e-04
    16   -2.656492415039e-04
    17    6.189081591358e-15
    18    1.434253048833e-06
    19    1.408734594527e-15
    20   -3.729097904955e-16
    21   -5.228922485420e-06
    22    1.786110123630e-06
    23   -1.402886698088e-06
    24    1.759490238534e-06
    25   -1.330853148744e-04
    26   -5.108658575058e-05
    27   -8.490866298381e-07
    28    2.866580045696e-06
    29    2.682333808884e-16
    30   -4.675106646752e-06
    31   -1.793581724001e-05
    32   -1.593846632984e-04
    33   -3.893778025093e-04
    34    6.440296080590e-06
    35   -5.512190450851e-07
    36    1.159780097532e-16
    37   -9.863787244269e-06
    38    2.841213196725e-05
    39   -1.973127107654e-04
    40   -1.141443032067e-04
    41   -1.118023062290e-05
    42   -1.722487182042e-05
    43   -1.343434294428e-17
    44    6.565138642949e-06
    45    1.330590510459e-05
    46   -1.449311778737e-05
    47   -8.886930205757e-06
    48   -1.111495431267e-15
    49   -3.486344390913e-05
    50   -6.263728474961e-05
    51   -2.041751614439e-05
    52    2.867063038879e-15
    53   -5.024444608132e-04
    54   -2.365605947278e-04
    55   -1.095354025434e-05
    56   -2.223370776257e-15
    57   -7.675423027743e-04
    58   -1.276803419829e-04
    59   -4.247503935011e-05
    60   -6.123420550493e-15
    61    1.177466547609e-06
    62    3.160215148386e-16
    63    4.319611292540e-16
    64   -4.633375367069e-06
    65   -4.599026165408e-06
    66   -3.674813491391e-05
    67   -3.370737228696e-05
    68    1.242911830283e-05
    69    9.307164062961e-06
    70   -1.079117028739e-15
    71    1.134686113810e-05
    72    1.532804336923e-05
    73    1.479141546381e-05
    74    2.988059078207e-15
    75    5.873247227507e-05
    76    4.545104805038e-05
    77    2.394644152242e-05
    78   -5.246932811381e-15
    79   -2.872598944894e-04
    80   -1.441600877195e-04
    81    5.557274718983e-05
    82    7.662010952651e-15
    83   -3.461194050794e-07
    84   -5.901259490856e-16
    85   -1.206885948337e-15
    86    1.292415368851e-06
    87   -6.934977922350e-07
    88    1.391697269577e-05
    89   -5.390631739222e-05
    90    1.123884517873e-04
    91   -2.643808439016e-05
    92    4.720202073365e-16
    93    2.244512914024e-04
    94    4.648062621548e-04
    95    1.296699389695e-04
    96   -1.231508217028e-16
    97   -3.174141953546e-04
    98    7.165786898670e-04
    99   -1.115937077160e-04
   100    3.419733183799e-16
   101   -1.221376450654e-03
   102   -6.337790336212e-04
   103   -2.424444794557e-04
   104    6.217779780730e-15
   105   -6.309218980148e-05
   106    6.527637957958e-16
   107   -1.491091349345e-16
   108    1.312478719543e-04
   109    1.576826131510e-04
   110    5.515021238723e-01
   111    4.716760155723e-01
   112   -1.556074933612e-03
   113   -8.389858620091e-04
   114   -9.085295046545e-16
   115    5.451898995250e-03
   116    5.420715515548e-04
   117    5.586355820738e-04
   118    1.317630466122e-15
   119   -1.087264013989e-03
   120   -2.308514406017e-04
   121    1.036184250072e-05
   122   -1.538179199258e-15
   123    1.295983107073e-03
   124    4.166483689177e-05
   125   -7.954789496695e-06
   126   -1.143359986495e-15
   127   -9.267913097885e-05
   128    4.724587859279e-16
   129   -8.554158392083e-17
   130   -4.959777492198e-05
   131   -9.847717038903e-05
   132   -3.083765017397e-05
   133   -5.194154901717e-05
   134    4.356943015475e-05
   135   -1.469416157233e-06
   136    6.352667611749e-16
   137    1.445121996116e-04
   138    1.182155639163e-04
   139   -9.792500312941e-06
   140   -9.730683126864e-16
   141    8.741948526968e-04
   142    3.331808028719e-05
   143   -3.193068543436e-04
   144    1.160727644018e-15
   145    8.719425881206e-04
   146   -6.294175798063e-04
   147   -8.509617037197e-05
   148   -1.744560731788e-15
   149    2.028638177025e-06
   150    1.073714294174e-15
   151    4.010959110361e-16
   152    5.755104056705e-06
   153   -1.170720953326e-05
   154   -5.223658241224e-06
   155   -8.407164528925e-06
   156   -5.674401260305e-06
   157    4.927195279350e-06
   158   -2.636401023193e-16
   159    1.972666248795e-05
   160   -1.015063701856e-05
   161    7.255042316819e-06
   162    3.899866394116e-16
   163    2.045696379955e-04
   164    4.788631544265e-05
   165    2.984258195447e-05
   166    1.138180782070e-15
   167    3.172846244489e-04
   168   -1.841871512367e-04
   169    1.097111722362e-05
   170   -4.376808036494e-16
   171   -1.190757391186e-07
   172    9.674456333424e-17
   173    6.996572323669e-17
   174    3.371366882847e-07
   175   -3.395868457064e-06
   176    4.274297488393e-06
   177    4.639896818982e-06
   178    4.799030406788e-06
   179   -1.875050580412e-05
   180    1.397787885656e-15
   181   -1.863409447584e-05
   182    1.735081758027e-05
   183    8.202325604151e-05
   184   -3.325552208053e-15
   185    1.317336988904e-04
   186   -3.823937516764e-04
   187   -4.231183230329e-06
   188    3.710736488869e-15
   189   -6.835767064001e-04
   190    6.433683295223e-04
   191    8.311033073957e-04
   192   -6.609574486980e-15
   193   -1.212909090694e-05
   194    5.242099326806e-16
   195    3.853378166506e-16
   196   -3.180332613978e-05
   197    5.291511189807e-05
   198   -1.796703134549e-05
   199    7.794868452581e-05
   200    2.185707083704e-05
   201    3.358303004529e-05
   202   -2.170710177666e-05
   203    1.618194177692e-05
   204   -8.303908197371e-16
Sym=X
Ene= 0.003965
Spin=Alpha
Occup=0
     1   -2.390215564749e-03
     2   -4.060867788903e-03
     3    1.419415836333e-02
     4    1.168746237285e-02
     5    2.743516595533e-14
     6    8.540662980998e-03
     7    2.835550948815e-02
     8    2.326586506500e-02
     9    3.374560758818e-14
    10    1.008775683569e-01
    11    3.668904692922e-02
    12    7.786201916847e-02
    13    1.467059762974e-13
    14   -2.387798667196e-01
    15    1.260311762270e-01
    16    1.249112060121e-01
    17    4.620364783346e-13
    18    2.044703440095e-03
    19   -4.822126271343e-15
    20   -8.031553070585e-17
    21    3.017804364399e-03
    22   -2.513628027211e-03
    23    3.581447931355e-03
    24    3.701783431488e-04
    25   -3.774068068879e-02
    26    2.245105697126e-02
    27   -3.041780756546e-03
    28   -1.549568301652e-03
    29   -7.159171670735e-15
    30   -1.184303954295e-02
    31   -1.517410817758e-02
    32    1.545486875612e-02
    33    1.918586456275e-01
    34    7.709533845294e-04
    35   -7.951341645291e-05
    36    2.205866361067e-15
    37    2.404703066730e-02
    38    2.098441462752e-02
    39    2.290152251459e-01
    40    5.045773938408e-01
    41    2.854790641825e-03
    42    1.019168557933e-02
    43    5.067180278925e-15
    44    4.802179249217e-03
    45    8.486066879506e-03
    46   -1.395684458069e-02
    47   -1.728658153383e-03
    48    1.017775653403e-14
    49   -3.324743517903e-02
    50   -2.229521123369e-02
    51    4.660195042644e-04
    52   -1.116309503116e-14
    53    2.237546483698e-02
    54   -2.067318461357e-02
    55   -3.485405457520e-02
    56    1.246480274529e-13
    57    4.547418280723e-01
    58    1.466700120527e-01
    59   -1.430051138360e-01
    60    7.369376601806e-13
    61    6.323750325059e-03
    62   -1.276720567688e-14
    63    1.436664266664e-14
    64    2.005063547266e-03
    65   -6.384190311584e-03
    66    2.344310419606e-03
    67    4.006785846870e-03
    68    9.819313608903e-03
    69   -1.342123840205e-03
    70    1.571183076620e-14
    71   -1.213700512243e-02
    72    1.370182544980e-02
    73   -2.373866018512e-03
    74    2.609053536903e-14
    75   -1.904306095721e-02
    76    1.145449645063e-02
    77    6.582067902856e-03
    78    6.908985184202e-14
    79   -4.906794034741e-02
    80   -2.019649409996e-02
    81   -4.992602396088e-03
    82   -3.246849069083e-13
    83    3.416244733877e-04
    84    4.608364743472e-15
    85   -5.728295541400e-16
    86   -1.599541546600e-04
    87   -5.038690602201e-05
    88    2.182599700818e-04
    89    6.597844697769e-04
    90    9.425759678277e-03
    91    2.348695107960e-02
    92    8.448273614602e-15
    93   -1.566953439455e-02
    94    2.689511283937e-02
    95    4.326546876161e-02
    96    2.848043803686e-15
    97    6.276666756437e-02
    98    1.348324591729e-01
    99   -1.221687687001e-03
   100    5.470392865209e-14
   101   -8.794868613199e-01
   102    6.831896588974e-01
   103    4.819342368919e-01
   104   -2.807537613207e-13
   105    1.320594271161e-02
   106    1.908371224662e-15
   107    9.299715188085e-15
   108    4.502554136736e-02
   109   -2.757542307374e-02
   110    2.540487974310e-02
   111    4.403168852140e-02
   112    1.317849173998e-01
   113   -2.400843413171e-01
   114   -7.250933741746e-15
   115   -1.372259847954e-01
   116    1.679782533783e-01
   117   -3.030255678136e-01
   118    4.558250979985e-15
   119   -1.931290876094e-01
   120    1.835026577732e-01
   121   -2.223766661905e-01
   122   -9.781397183459e-14
   123   -4.831915581872e-01
   124   -1.145516578808e-02
   125   -4.923697908120e-02
   126    3.273601089179e-13
   127    1.930868331523e-03
   128    5.863278704089e-16
   129    1.131730011390e-16
   130   -1.300187471593e-02
   131    3.753785497764e-03
   132   -2.407265097621e-03
   133   -2.219139169500e-03
   134    3.975874523058e-02
   135   -2.353439383816e-02
   136    3.721018762954e-15
   137   -3.022805941149e-02
   138    5.878813365353e-02
   139   -3.478949660691e-02
   140    1.851891673503e-15
   141   -1.262801395623e-02
   142    7.466063568375e-02
   143   -5.733132060895e-02
   144    1.934971673449e-14
   145    1.121616870205e-01
   146   -4.384012629247e-02
   147   -3.678209532643e-01
   148   -2.548727601667e-13
   149    1.815681801498e-03
   150    3.491593958022e-15
   151    1.075338991003e-15
   152   -5.487286822404e-04
   153    2.172968862488e-03
   154    2.541740564985e-03
   155    4.433819554314e-03
   156    6.604977212554e-04
   157   -4.649741217433e-03
   158    8.297393943260e-15
   159   -1.421800129376e-02
   160    3.699511017890e-03
   161   -5.527383238912e-03
   162    2.632925695580e-16
   163   -3.731575492118e-02
   164   -3.317752752461e-02
   165   -2.748505472413e-02
   166    6.212682873437e-14
   167   -6.222927994397e-01
   168   -1.980990913897e-01
   169   -1.953159495080e-01
   170   -7.529065320373e-13
   171    1.323738047922e-03
   172    4.774329110809e-15
   173   -6.767752293761e-15
   174    3.161200844822e-03
   175    9.307128275125e-04
   176    1.762295365382e-02
   177    2.958753929347e-02
   178   -9.745805547118e-03
   179   -4.433551290564e-02
   180   -1.637562382577e-14
   181   -7.684649179953e-02
   182   -2.541658639023e-02
   183   -6.286489074337e-02
   184   -4.367309979394e-14
   185   -3.198700442655e-01
   186    2.147109480595e-02
   187   -8.686449472685e-02
   188   -6.488160647116e-14
   189    5.319111126496e-01
   190   -5.891955855116e-01
   191    4.603649169884e-01
   192   -1.676197170497e-13
   193    3.057544671149e-03
   194   -1.877090867950e-15
   195   -3.787651897675e-15
   196   -7.712406411955e-05
   197   -1.960714245282e-03
   198    3.528006237902e-03
   199   -2.341441145996e-03
   200    7.535310992604e-02
   201    7.978302075176e-01
   202    2.045659388184e-03
   203   -6.158330633120e-05
   204    3.632710596975e-15
[5D]
