[Molden Format]
[Atoms] (Angs)
  C      1    6     -0.13173890     -1.79208980      0.00000000
  H      2    1     -2.14962000     -1.30978739      0.00000000
  H      3    1     -0.31599560     -2.86503115      0.00000000
  H      4    1      0.14407746      2.04280963     -0.00000000
  C      5    6     -1.17258876      0.48030861      0.00000000
  O      6    8     -2.25008207      1.06833796      0.00000000
  C      7    6      1.31158357      0.28308717     -0.00000000
  O      8    8      2.36361668      0.96389345     -0.00000000
  N      9    7      0.07017030      1.03138997     -0.00000000
  N     10    7     -1.19586868     -0.94982644      0.00000000
  C     11    6      1.19165158     -1.13169473     -0.00000000
  H     12    1      2.09970506     -1.73445456     -0.00000000
[GTO]
1    0
S    6    1.000000
   4.56324000E+03    1.96665000E-03 
   6.82024000E+02    1.52306000E-02 
   1.54973000E+02    7.61269000E-02 
   4.44553000E+01    2.60801000E-01 
   1.30290000E+01    6.16462000E-01 
   1.82773000E+00    2.21006000E-01 
SP   3    1.000000
   2.09642000E+01    1.14660000E-01   4.02487000E-02 
   4.80331000E+00    9.19999000E-01   2.37594000E-01 
   1.45933000E+00   -3.03068000E-03   8.15854000E-01 
SP   1    1.000000
   4.83456000E-01    1.00000000E+00   1.00000000E+00 
SP   1    1.000000
   1.45585000E-01    1.00000000E+00   1.00000000E+00 
SP   1    1.000000
   4.38000000E-02    1.00000000E+00   1.00000000E+00 
D    1    1.000000
   6.26000000E-01    1.00000000E+00 

2    0
S    3    1.000000
   3.38650000E+01    2.54938000E-02 
   5.09479000E+00    1.90373000E-01 
   1.15879000E+00    8.52161000E-01 
S    1    1.000000
   3.25840000E-01    1.00000000E+00 
S    1    1.000000
   1.02741000E-01    1.00000000E+00 
S    1    1.000000
   3.60000000E-02    1.00000000E+00 
P    1    1.000000
   7.50000000E-01    1.00000000E+00 

3    0
S    3    1.000000
   3.38650000E+01    2.54938000E-02 
   5.09479000E+00    1.90373000E-01 
   1.15879000E+00    8.52161000E-01 
S    1    1.000000
   3.25840000E-01    1.00000000E+00 
S    1    1.000000
   1.02741000E-01    1.00000000E+00 
S    1    1.000000
   3.60000000E-02    1.00000000E+00 
P    1    1.000000
   7.50000000E-01    1.00000000E+00 

4    0
S    3    1.000000
   3.38650000E+01    2.54938000E-02 
   5.09479000E+00    1.90373000E-01 
   1.15879000E+00    8.52161000E-01 
S    1    1.000000
   3.25840000E-01    1.00000000E+00 
S    1    1.000000
   1.02741000E-01    1.00000000E+00 
S    1    1.000000
   3.60000000E-02    1.00000000E+00 
P    1    1.000000
   7.50000000E-01    1.00000000E+00 

5    0
S    6    1.000000
   4.56324000E+03    1.96665000E-03 
   6.82024000E+02    1.52306000E-02 
   1.54973000E+02    7.61269000E-02 
   4.44553000E+01    2.60801000E-01 
   1.30290000E+01    6.16462000E-01 
   1.82773000E+00    2.21006000E-01 
SP   3    1.000000
   2.09642000E+01    1.14660000E-01   4.02487000E-02 
   4.80331000E+00    9.19999000E-01   2.37594000E-01 
   1.45933000E+00   -3.03068000E-03   8.15854000E-01 
SP   1    1.000000
   4.83456000E-01    1.00000000E+00   1.00000000E+00 
SP   1    1.000000
   1.45585000E-01    1.00000000E+00   1.00000000E+00 
SP   1    1.000000
   4.38000000E-02    1.00000000E+00   1.00000000E+00 
D    1    1.000000
   6.26000000E-01    1.00000000E+00 

6    0
S    6    1.000000
   8.58850000E+03    1.89515000E-03 
   1.29723000E+03    1.43859000E-02 
   2.99296000E+02    7.07320000E-02 
   8.73771000E+01    2.40001000E-01 
   2.56789000E+01    5.94797000E-01 
   3.74004000E+00    2.80802000E-01 
SP   3    1.000000
   4.21175000E+01    1.13889000E-01   3.65114000E-02 
   9.62837000E+00    9.20811000E-01   2.37153000E-01 
   2.85332000E+00   -3.27447000E-03   8.19702000E-01 
SP   1    1.000000
   9.05661000E-01    1.00000000E+00   1.00000000E+00 
SP   1    1.000000
   2.55611000E-01    1.00000000E+00   1.00000000E+00 
SP   1    1.000000
   8.45000000E-02    1.00000000E+00   1.00000000E+00 
D    1    1.000000
   1.29200000E+00    1.00000000E+00 

7    0
S    6    1.000000
   4.56324000E+03    1.96665000E-03 
   6.82024000E+02    1.52306000E-02 
   1.54973000E+02    7.61269000E-02 
   4.44553000E+01    2.60801000E-01 
   1.30290000E+01    6.16462000E-01 
   1.82773000E+00    2.21006000E-01 
SP   3    1.000000
   2.09642000E+01    1.14660000E-01   4.02487000E-02 
   4.80331000E+00    9.19999000E-01   2.37594000E-01 
   1.45933000E+00   -3.03068000E-03   8.15854000E-01 
SP   1    1.000000
   4.83456000E-01    1.00000000E+00   1.00000000E+00 
SP   1    1.000000
   1.45585000E-01    1.00000000E+00   1.00000000E+00 
SP   1    1.000000
   4.38000000E-02    1.00000000E+00   1.00000000E+00 
D    1    1.000000
   6.26000000E-01    1.00000000E+00 

8    0
S    6    1.000000
   8.58850000E+03    1.89515000E-03 
   1.29723000E+03    1.43859000E-02 
   2.99296000E+02    7.07320000E-02 
   8.73771000E+01    2.40001000E-01 
   2.56789000E+01    5.94797000E-01 
   3.74004000E+00    2.80802000E-01 
SP   3    1.000000
   4.21175000E+01    1.13889000E-01   3.65114000E-02 
   9.62837000E+00    9.20811000E-01   2.37153000E-01 
   2.85332000E+00   -3.27447000E-03   8.19702000E-01 
SP   1    1.000000
   9.05661000E-01    1.00000000E+00   1.00000000E+00 
SP   1    1.000000
   2.55611000E-01    1.00000000E+00   1.00000000E+00 
SP   1    1.000000
   8.45000000E-02    1.00000000E+00   1.00000000E+00 
D    1    1.000000
   1.29200000E+00    1.00000000E+00 

9    0
S    6    1.000000
   6.29348000E+03    1.96979000E-03 
   9.49044000E+02    1.49613000E-02 
   2.18776000E+02    7.35006000E-02 
   6.36916000E+01    2.48937000E-01 
   1.88282000E+01    6.02460000E-01 
   2.72023000E+00    2.56202000E-01 
SP   3    1.000000
   3.06331000E+01    1.11906000E-01   3.83119000E-02 
   7.02614000E+00    9.21666000E-01   2.37403000E-01 
   2.11205000E+00   -2.56919000E-03   8.17592000E-01 
SP   1    1.000000
   6.84009000E-01    1.00000000E+00   1.00000000E+00 
SP   1    1.000000
   2.00878000E-01    1.00000000E+00   1.00000000E+00 
SP   1    1.000000
   6.39000000E-02    1.00000000E+00   1.00000000E+00 
D    1    1.000000
   9.13000000E-01    1.00000000E+00 

10    0
S    6    1.000000
   6.29348000E+03    1.96979000E-03 
   9.49044000E+02    1.49613000E-02 
   2.18776000E+02    7.35006000E-02 
   6.36916000E+01    2.48937000E-01 
   1.88282000E+01    6.02460000E-01 
   2.72023000E+00    2.56202000E-01 
SP   3    1.000000
   3.06331000E+01    1.11906000E-01   3.83119000E-02 
   7.02614000E+00    9.21666000E-01   2.37403000E-01 
   2.11205000E+00   -2.56919000E-03   8.17592000E-01 
SP   1    1.000000
   6.84009000E-01    1.00000000E+00   1.00000000E+00 
SP   1    1.000000
   2.00878000E-01    1.00000000E+00   1.00000000E+00 
SP   1    1.000000
   6.39000000E-02    1.00000000E+00   1.00000000E+00 
D    1    1.000000
   9.13000000E-01    1.00000000E+00 

11    0
S    6    1.000000
   4.56324000E+03    1.96665000E-03 
   6.82024000E+02    1.52306000E-02 
   1.54973000E+02    7.61269000E-02 
   4.44553000E+01    2.60801000E-01 
   1.30290000E+01    6.16462000E-01 
   1.82773000E+00    2.21006000E-01 
SP   3    1.000000
   2.09642000E+01    1.14660000E-01   4.02487000E-02 
   4.80331000E+00    9.19999000E-01   2.37594000E-01 
   1.45933000E+00   -3.03068000E-03   8.15854000E-01 
SP   1    1.000000
   4.83456000E-01    1.00000000E+00   1.00000000E+00 
SP   1    1.000000
   1.45585000E-01    1.00000000E+00   1.00000000E+00 
SP   1    1.000000
   4.38000000E-02    1.00000000E+00   1.00000000E+00 
D    1    1.000000
   6.26000000E-01    1.00000000E+00 

12    0
S    3    1.000000
   3.38650000E+01    2.54938000E-02 
   5.09479000E+00    1.90373000E-01 
   1.15879000E+00    8.52161000E-01 
S    1    1.000000
   3.25840000E-01    1.00000000E+00 
S    1    1.000000
   1.02741000E-01    1.00000000E+00 
S    1    1.000000
   3.60000000E-02    1.00000000E+00 
P    1    1.000000
   7.50000000E-01    1.00000000E+00 

[MO]
Sym=X
Ene= -0.002366
Spin=Alpha
Occup=1
     1   -1.347084636080e-06
     2   -2.836700942261e-06
     3    8.366567635086e-06
     4   -5.515004988162e-06
     5   -1.363574528151e-16
     6    8.316844219023e-06
     7   -7.661730992177e-06
     8    2.172878414035e-05
     9    1.234664338173e-15
    10    2.899499736395e-04
    11   -2.844308591483e-05
    12   -9.624657373322e-06
    13   -1.811979519423e-15
    14   -3.715739174269e-04
    15   -4.305852968734e-04
    16   -2.838376068514e-04
    17   -5.944185963867e-15
    18   -7.866206028256e-07
    19   -5.256013026104e-17
    20   -1.040042311391e-15
    21   -2.330805082408e-06
    22   -5.009633976736e-06
    23   -5.201865679743e-06
    24   -4.485428743249e-05
    25   -1.326952531693e-04
    26   -3.271207924389e-04
    27   -1.069965479416e-05
    28    9.760632104580e-06
    29   -7.634285597877e-16
    30    1.422807023288e-06
    31   -3.347436982391e-05
    32   -3.816336634892e-05
    33   -1.823477502841e-04
    34    1.501815420427e-06
    35   -2.909541027505e-06
    36   -9.979270199422e-16
    37   -4.452220329111e-06
    38   -6.311088807555e-05
    39   -1.308210304372e-04
    40   -3.007148076190e-04
    41   -8.724298520972e-06
    42    6.790947802094e-06
    43    2.186832252023e-16
    44   -4.385685669238e-06
    45    7.638763120256e-05
    46    5.453006225202e-05
    47   -2.986995598555e-05
    48   -1.227784539440e-15
    49   -2.929371643481e-04
    50    3.703790109087e-04
    51   -1.927635725028e-04
    52    1.535402495655e-15
    53    9.960727128709e-05
    54    4.302018562116e-04
    55   -1.625201285350e-04
    56   -3.493805349569e-15
    57   -2.564969347480e-04
    58   -6.340877847497e-04
    59    3.063760805033e-04
    60    3.192886413814e-15
    61    5.921544972727e-05
    62   -1.160540913363e-15
    63    9.213095910499e-17
    64   -1.043592629542e-04
    65    1.802251294808e-04
    66   -5.514901619771e-01
    67   -4.716819385505e-01
    68   -1.611027264003e-03
    69    8.756415180400e-04
    70    1.105211397376e-15
    71   -5.483510339297e-03
    72    6.550800510642e-04
    73   -3.514967205246e-04
    74   -9.464047616466e-16
    75    1.257425685087e-03
    76   -1.780452425030e-04
    77    8.026699709409e-05
    78    2.249289592529e-16
    79   -1.519480776805e-03
    80   -6.299335673665e-05
    81    5.408798304074e-05
    82   -1.033421359973e-15
    83    8.043945515524e-05
    84   -3.931887483113e-16
    85    5.942058794829e-16
    86    5.755047731174e-05
    87   -7.181461566443e-05
    88   -8.901440882455e-07
    89   -2.673294623251e-06
    90    6.536758124520e-06
    91   -7.607791332158e-06
    92   -5.093997261662e-16
    93    7.195317195505e-06
    94   -1.043906722538e-05
    95    1.245883467593e-06
    96    1.916945044875e-15
    97    2.053131735262e-04
    98   -4.730015324499e-05
    99   -4.720242568814e-07
   100   -3.232520335477e-16
   101   -1.170097609530e-03
   102   -5.757667120639e-06
   103    7.095123529774e-04
   104   -1.047072497078e-14
   105   -2.151747212942e-06
   106    1.337889741017e-15
   107    1.672122673438e-16
   108    9.752932021724e-06
   109   -6.391851871521e-06
   110    1.684157322902e-06
   111    2.355389478800e-06
   112   -5.000940333058e-06
   113    1.396869023441e-05
   114   -1.104244278465e-15
   115   -4.408328466425e-06
   116   -7.927823231012e-06
   117    1.922750705547e-05
   118    2.961137315860e-15
   119   -5.673383877975e-05
   120    8.001931135037e-06
   121    2.618960252619e-05
   122   -5.041558308897e-15
   123    1.336192664084e-04
   124   -6.654053521726e-05
   125   -8.012215809645e-05
   126    4.272640821961e-15
   127   -2.955184694066e-07
   128    2.721634060771e-16
   129    3.933621866647e-16
   130   -2.261434259658e-06
   131   -4.462906128382e-07
   132   -1.155277492059e-06
   133   -3.249056155751e-06
   134   -1.106373593337e-05
   135    2.382439152915e-06
   136   -6.408859692801e-16
   137    3.327253761821e-05
   138    3.645419003903e-05
   139   -6.735358821508e-06
   140    1.845855217172e-15
   141   -2.843689035581e-04
   142    1.085014217211e-05
   143    2.393041684940e-04
   144   -4.702647748938e-16
   145    1.329044012606e-04
   146   -4.674133482103e-04
   147    1.368482674814e-04
   148    2.654142187954e-15
   149    8.178859964436e-06
   150   -6.266531114622e-16
   151   -7.156083472178e-16
   152   -2.657203879307e-05
   153   -5.408929766250e-06
   154   -2.154977589021e-06
   155   -4.103702650447e-06
   156   -5.426588323490e-06
   157    1.027951768761e-05
   158   -1.755218249557e-16
   159    3.044992142641e-05
   160    2.303322496880e-06
   161   -2.720122331929e-05
   162   -1.139209887870e-15
   163   -1.522421730153e-04
   164   -2.162147554919e-04
   165   -1.712516448858e-05
   166    2.875596352711e-15
   167    1.852657648354e-04
   168   -2.746909450182e-04
   169    3.919148304201e-04
   170    2.423622739419e-15
   171    8.216357509964e-06
   172    5.547952564612e-16
   173    8.440862597382e-16
   174    2.122811298898e-05
   175    5.839480549314e-06
   176    3.864828788776e-06
   177    7.787149840331e-06
   178   -3.935107783047e-06
   179   -2.166994023231e-06
   180    1.016041836599e-15
   181   -3.356812751206e-05
   182    4.480184441747e-06
   183   -8.810923861874e-06
   184   -1.995043598424e-16
   185   -8.558425308486e-05
   186   -1.979054557663e-05
   187    7.839478653368e-06
   188   -1.207849773961e-16
   189    2.761464076028e-03
   190   -4.668947445555e-04
   191    5.517463839939e-04
   192    8.973100549802e-15
   193   -4.969442999069e-06
   194   -3.364054758082e-16
   195    3.054700661446e-16
   196   -1.562985307833e-06
   197    5.539196284845e-06
   198   -2.665790809718e-06
   199   -9.463752618392e-07
   200    4.397984435429e-05
   201    3.611384863535e-04
   202    2.010386550772e-06
   203   -6.280285135013e-07
   204   -5.875102411911e-16
Sym=X
Ene= 0.002366
Spin=Alpha
Occup=0
     1   -5.433458815936e-03
     2   -1.004777842547e-02
     3    1.086853588922e-02
     4    7.876250554978e-03
     5   -6.625749721503e-14
     6    4.511077777761e-02
     7    2.417824834137e-02
     8    1.412235603779e-02
     9   -1.098722457242e-13
    10   -2.221351438521e-01
    11    8.790026132466e-03
    12   -2.217732288043e-01
    13   -2.029759328656e-13
    14   -1.407381753371e+00
    15   -2.044793387715e-01
    16   -9.119241836021e-01
    17   -1.432982693934e-14
    18   -1.553735918640e-02
    19   -1.108711336923e-14
    20    6.743479276096e-15
    21   -9.361943388323e-03
    22    2.399519905759e-03
    23    2.946719051132e-02
    24    2.131727508860e-01
    25    4.384933895183e-01
    26    1.475332609135e+00
    27    9.164497751470e-03
    28    9.568736917162e-04
    29    4.884639911387e-16
    30    1.470712669732e-02
    31    2.509563624290e-03
    32    3.193082069577e-02
    33   -8.724091253569e-01
    34   -1.436483396571e-03
    35   -2.900837177531e-03
    36   -9.847924889311e-15
    37    1.495307209127e-02
    38    1.056260560555e-01
    39    3.774906125010e-01
    40    1.575146078215e+00
    41   -2.553875036825e-03
    42    9.837461770214e-05
    43   -8.706553409687e-15
    44   -9.590996894805e-04
    45   -1.701694510253e-03
    46   -2.210869171814e-02
    47   -4.143760869660e-03
    48   -7.952074157446e-16
    49    2.257235370151e-02
    50   -3.943354233675e-02
    51   -1.908110273886e-02
    52    9.004093629812e-15
    53   -3.643090034599e-01
    54   -2.333323347050e-01
    55    6.679947497809e-02
    56    8.454667790882e-14
    57   -4.548516892937e+00
    58   -7.839856519376e-01
    59    1.065510957697e+00
    60   -3.119053558056e-13
    61   -2.011014164814e-02
    62   -3.417993290399e-14
    63    9.744597517271e-16
    64    6.455138639795e-03
    65   -1.397166942365e-02
    66    2.625189855167e-03
    67    4.318507059122e-03
    68    7.983343367221e-02
    69   -3.663390342976e-02
    70   -1.949537089443e-14
    71   -1.068928577961e-02
    72    9.656703346040e-02
    73   -4.440007125940e-02
    74   -9.528767864939e-15
    75   -6.581228758079e-02
    76    7.298752635811e-02
    77   -2.922473562907e-02
    78   -1.243047053244e-13
    79    1.793792440060e-01
    80    3.140648205292e-02
    81   -7.559096473724e-02
    82    2.209208091053e-13
    83   -4.224730355915e-03
    84    1.636720398406e-16
    85   -2.554433152236e-15
    86    1.228381534599e-03
    87   -3.868548165696e-03
    88   -3.018115061238e-03
    89   -5.459312803026e-03
    90    2.850592618362e-03
    91   -4.911935458301e-03
    92    2.620896698674e-14
    93    3.103953216533e-02
    94    6.863513252361e-03
    95   -8.668106133527e-04
    96    5.136446582865e-14
    97   -2.870308185420e-01
    98    1.927424375417e-01
    99   -3.984823784089e-02
   100    1.078938698145e-13
   101    1.841195660948e+00
   102   -7.580859332793e-03
   103   -1.243143039799e+00
   104    2.694120517635e-13
   105   -9.019848731595e-03
   106   -3.952249969056e-14
   107   -1.154120658907e-14
   108    2.738405430134e-02
   109   -6.937789153240e-03
   110   -2.297729158837e-03
   111   -3.873711660268e-03
   112    4.075306346648e-02
   113   -8.146338439737e-02
   114   -1.331750303471e-14
   115    1.194600283037e-02
   116    6.508173879158e-02
   117   -1.215385516943e-01
   118   -3.888453402284e-14
   119   -1.051400321571e-02
   120    4.806806273814e-02
   121   -1.259129474140e-01
   122    6.597270991542e-14
   123    8.991246247718e-02
   124    1.874849372503e-02
   125    6.796041722650e-02
   126   -4.120465949187e-13
   127   -1.540864216662e-03
   128    1.478417974643e-15
   129    1.046590190359e-15
   130   -5.092829872378e-03
   131    3.666159792375e-03
   132   -4.571002958501e-03
   133   -7.708077189389e-03
   134    2.273829347613e-02
   135   -3.085645527426e-02
   136   -3.286259430107e-14
   137    2.357697937403e-02
   138    3.357499881940e-02
   139   -3.886922664215e-02
   140   -2.796664380497e-14
   141    1.105794422017e-01
   142    2.153588638841e-02
   143   -2.616508459704e-01
   144   -1.503338341672e-13
   145    1.920043615646e+00
   146   -1.620823370159e-01
   147   -8.842042072095e-01
   148    2.114352964286e-13
   149   -4.698535494316e-03
   150    1.453234274492e-14
   151   -4.417218520128e-15
   152   -4.062315860480e-03
   153   -5.530358688030e-04
   154   -3.001754926248e-03
   155   -5.585442607548e-03
   156    2.993305619810e-02
   157    1.738986065519e-02
   158    4.012090163097e-14
   159    3.621985179358e-02
   160    4.342829191260e-02
   161    3.234689917357e-02
   162    6.263231752296e-14
   163   -3.920684659986e-04
   164    2.981496824193e-01
   165    6.665842553710e-02
   166    9.324789943905e-14
   167    1.829783677712e+00
   168    4.455869364935e-01
   169    2.620024336359e-01
   170   -8.872867166805e-14
   171   -1.563179610288e-02
   172   -5.194910803844e-15
   173    5.824248088580e-16
   174    4.335537352366e-03
   175    1.406217279432e-03
   176    4.087293235753e-03
   177    6.088122185435e-03
   178   -1.123196316288e-02
   179   -1.440675909142e-02
   180    3.511085833207e-14
   181   -7.527962937757e-03
   182   -2.398747516331e-02
   183   -1.406766740628e-02
   184    6.675823357045e-14
   185    1.862709814243e-01
   186   -1.743457616653e-01
   187    1.030512147754e-02
   188    7.002203462178e-14
   189   -1.040095067364e+00
   190    2.589958449752e-02
   191   -7.729591085226e-01
   192    5.167875698860e-14
   193   -1.583402149388e-02
   194    6.588408176750e-15
   195    2.130234929135e-14
   196   -1.282188538814e-03
   197   -2.127495828623e-04
   198   -6.887239799902e-03
   199    3.725722028727e-02
   200    9.322085237605e-02
   201   -7.084524487019e-01
   202   -2.527820616502e-03
   203    2.275997616358e-03
   204    4.802371912239e-15
[5D]
