[Molden Format]
[Atoms] (Angs)
  C      1    6     -0.13173890     -1.79208980      0.00000000
  H      2    1     -2.14962000     -1.30978739      0.00000000
  H      3    1     -0.31599560     -2.86503115      0.00000000
  H      4    1      0.14407746      2.04280963     -0.00000000
  C      5    6     -1.17258876      0.48030861      0.00000000
  O      6    8     -2.25008207      1.06833796      0.00000000
  C      7    6      1.31158357      0.28308717     -0.00000000
  O      8    8      2.36361668      0.96389345     -0.00000000
  N      9    7      0.07017030      1.03138997     -0.00000000
  N     10    7     -1.19586868     -0.94982644      0.00000000
  C     11    6      1.19165158     -1.13169473     -0.00000000
  H     12    1      2.09970506     -1.73445456     -0.00000000
[GTO]
1    0
S    6    1.000000
   4.56324000E+03    1.96665000E-03 
   6.82024000E+02    1.52306000E-02 
   1.54973000E+02    7.61269000E-02 
   4.44553000E+01    2.60801000E-01 
   1.30290000E+01    6.16462000E-01 
   1.82773000E+00    2.21006000E-01 
SP   3    1.000000
   2.09642000E+01    1.14660000E-01   4.02487000E-02 
   4.80331000E+00    9.19999000E-01   2.37594000E-01 
   1.45933000E+00   -3.03068000E-03   8.15854000E-01 
SP   1    1.000000
   4.83456000E-01    1.00000000E+00   1.00000000E+00 
SP   1    1.000000
   1.45585000E-01    1.00000000E+00   1.00000000E+00 
SP   1    1.000000
   4.38000000E-02    1.00000000E+00   1.00000000E+00 
D    1    1.000000
   6.26000000E-01    1.00000000E+00 

2    0
S    3    1.000000
   3.38650000E+01    2.54938000E-02 
   5.09479000E+00    1.90373000E-01 
   1.15879000E+00    8.52161000E-01 
S    1    1.000000
   3.25840000E-01    1.00000000E+00 
S    1    1.000000
   1.02741000E-01    1.00000000E+00 
S    1    1.000000
   3.60000000E-02    1.00000000E+00 
P    1    1.000000
   7.50000000E-01    1.00000000E+00 

3    0
S    3    1.000000
   3.38650000E+01    2.54938000E-02 
   5.09479000E+00    1.90373000E-01 
   1.15879000E+00    8.52161000E-01 
S    1    1.000000
   3.25840000E-01    1.00000000E+00 
S    1    1.000000
   1.02741000E-01    1.00000000E+00 
S    1    1.000000
   3.60000000E-02    1.00000000E+00 
P    1    1.000000
   7.50000000E-01    1.00000000E+00 

4    0
S    3    1.000000
   3.38650000E+01    2.54938000E-02 
   5.09479000E+00    1.90373000E-01 
   1.15879000E+00    8.52161000E-01 
S    1    1.000000
   3.25840000E-01    1.00000000E+00 
S    1    1.000000
   1.02741000E-01    1.00000000E+00 
S    1    1.000000
   3.60000000E-02    1.00000000E+00 
P    1    1.000000
   7.50000000E-01    1.00000000E+00 

5    0
S    6    1.000000
   4.56324000E+03    1.96665000E-03 
   6.82024000E+02    1.52306000E-02 
   1.54973000E+02    7.61269000E-02 
   4.44553000E+01    2.60801000E-01 
   1.30290000E+01    6.16462000E-01 
   1.82773000E+00    2.21006000E-01 
SP   3    1.000000
   2.09642000E+01    1.14660000E-01   4.02487000E-02 
   4.80331000E+00    9.19999000E-01   2.37594000E-01 
   1.45933000E+00   -3.03068000E-03   8.15854000E-01 
SP   1    1.000000
   4.83456000E-01    1.00000000E+00   1.00000000E+00 
SP   1    1.000000
   1.45585000E-01    1.00000000E+00   1.00000000E+00 
SP   1    1.000000
   4.38000000E-02    1.00000000E+00   1.00000000E+00 
D    1    1.000000
   6.26000000E-01    1.00000000E+00 

6    0
S    6    1.000000
   8.58850000E+03    1.89515000E-03 
   1.29723000E+03    1.43859000E-02 
   2.99296000E+02    7.07320000E-02 
   8.73771000E+01    2.40001000E-01 
   2.56789000E+01    5.94797000E-01 
   3.74004000E+00    2.80802000E-01 
SP   3    1.000000
   4.21175000E+01    1.13889000E-01   3.65114000E-02 
   9.62837000E+00    9.20811000E-01   2.37153000E-01 
   2.85332000E+00   -3.27447000E-03   8.19702000E-01 
SP   1    1.000000
   9.05661000E-01    1.00000000E+00   1.00000000E+00 
SP   1    1.000000
   2.55611000E-01    1.00000000E+00   1.00000000E+00 
SP   1    1.000000
   8.45000000E-02    1.00000000E+00   1.00000000E+00 
D    1    1.000000
   1.29200000E+00    1.00000000E+00 

7    0
S    6    1.000000
   4.56324000E+03    1.96665000E-03 
   6.82024000E+02    1.52306000E-02 
   1.54973000E+02    7.61269000E-02 
   4.44553000E+01    2.60801000E-01 
   1.30290000E+01    6.16462000E-01 
   1.82773000E+00    2.21006000E-01 
SP   3    1.000000
   2.09642000E+01    1.14660000E-01   4.02487000E-02 
   4.80331000E+00    9.19999000E-01   2.37594000E-01 
   1.45933000E+00   -3.03068000E-03   8.15854000E-01 
SP   1    1.000000
   4.83456000E-01    1.00000000E+00   1.00000000E+00 
SP   1    1.000000
   1.45585000E-01    1.00000000E+00   1.00000000E+00 
SP   1    1.000000
   4.38000000E-02    1.00000000E+00   1.00000000E+00 
D    1    1.000000
   6.26000000E-01    1.00000000E+00 

8    0
S    6    1.000000
   8.58850000E+03    1.89515000E-03 
   1.29723000E+03    1.43859000E-02 
   2.99296000E+02    7.07320000E-02 
   8.73771000E+01    2.40001000E-01 
   2.56789000E+01    5.94797000E-01 
   3.74004000E+00    2.80802000E-01 
SP   3    1.000000
   4.21175000E+01    1.13889000E-01   3.65114000E-02 
   9.62837000E+00    9.20811000E-01   2.37153000E-01 
   2.85332000E+00   -3.27447000E-03   8.19702000E-01 
SP   1    1.000000
   9.05661000E-01    1.00000000E+00   1.00000000E+00 
SP   1    1.000000
   2.55611000E-01    1.00000000E+00   1.00000000E+00 
SP   1    1.000000
   8.45000000E-02    1.00000000E+00   1.00000000E+00 
D    1    1.000000
   1.29200000E+00    1.00000000E+00 

9    0
S    6    1.000000
   6.29348000E+03    1.96979000E-03 
   9.49044000E+02    1.49613000E-02 
   2.18776000E+02    7.35006000E-02 
   6.36916000E+01    2.48937000E-01 
   1.88282000E+01    6.02460000E-01 
   2.72023000E+00    2.56202000E-01 
SP   3    1.000000
   3.06331000E+01    1.11906000E-01   3.83119000E-02 
   7.02614000E+00    9.21666000E-01   2.37403000E-01 
   2.11205000E+00   -2.56919000E-03   8.17592000E-01 
SP   1    1.000000
   6.84009000E-01    1.00000000E+00   1.00000000E+00 
SP   1    1.000000
   2.00878000E-01    1.00000000E+00   1.00000000E+00 
SP   1    1.000000
   6.39000000E-02    1.00000000E+00   1.00000000E+00 
D    1    1.000000
   9.13000000E-01    1.00000000E+00 

10    0
S    6    1.000000
   6.29348000E+03    1.96979000E-03 
   9.49044000E+02    1.49613000E-02 
   2.18776000E+02    7.35006000E-02 
   6.36916000E+01    2.48937000E-01 
   1.88282000E+01    6.02460000E-01 
   2.72023000E+00    2.56202000E-01 
SP   3    1.000000
   3.06331000E+01    1.11906000E-01   3.83119000E-02 
   7.02614000E+00    9.21666000E-01   2.37403000E-01 
   2.11205000E+00   -2.56919000E-03   8.17592000E-01 
SP   1    1.000000
   6.84009000E-01    1.00000000E+00   1.00000000E+00 
SP   1    1.000000
   2.00878000E-01    1.00000000E+00   1.00000000E+00 
SP   1    1.000000
   6.39000000E-02    1.00000000E+00   1.00000000E+00 
D    1    1.000000
   9.13000000E-01    1.00000000E+00 

11    0
S    6    1.000000
   4.56324000E+03    1.96665000E-03 
   6.82024000E+02    1.52306000E-02 
   1.54973000E+02    7.61269000E-02 
   4.44553000E+01    2.60801000E-01 
   1.30290000E+01    6.16462000E-01 
   1.82773000E+00    2.21006000E-01 
SP   3    1.000000
   2.09642000E+01    1.14660000E-01   4.02487000E-02 
   4.80331000E+00    9.19999000E-01   2.37594000E-01 
   1.45933000E+00   -3.03068000E-03   8.15854000E-01 
SP   1    1.000000
   4.83456000E-01    1.00000000E+00   1.00000000E+00 
SP   1    1.000000
   1.45585000E-01    1.00000000E+00   1.00000000E+00 
SP   1    1.000000
   4.38000000E-02    1.00000000E+00   1.00000000E+00 
D    1    1.000000
   6.26000000E-01    1.00000000E+00 

12    0
S    3    1.000000
   3.38650000E+01    2.54938000E-02 
   5.09479000E+00    1.90373000E-01 
   1.15879000E+00    8.52161000E-01 
S    1    1.000000
   3.25840000E-01    1.00000000E+00 
S    1    1.000000
   1.02741000E-01    1.00000000E+00 
S    1    1.000000
   3.60000000E-02    1.00000000E+00 
P    1    1.000000
   7.50000000E-01    1.00000000E+00 

[MO]
Sym=X
Ene= -0.003003
Spin=Alpha
Occup=1
     1    3.075808567331e-08
     2   -1.611895158661e-06
     3    1.728906942299e-06
     4   -2.699227591687e-07
     5   -9.338529998494e-16
     6    1.663049594504e-05
     7   -4.366666692565e-06
     8   -3.652774536630e-07
     9    2.031673485342e-15
    10   -4.426987015981e-04
    11   -1.083114407306e-04
    12   -2.694468419589e-04
    13   -3.445555466812e-15
    14   -2.889076931578e-05
    15    1.955779139297e-04
    16   -5.775880198189e-04
    17    6.161977879587e-15
    18    2.746239536086e-06
    19    1.397638094698e-15
    20   -3.760185378210e-16
    21   -5.481301948193e-06
    22    4.967667047903e-06
    23    7.016164413191e-08
    24    9.678203228846e-06
    25   -3.697050633671e-05
    26    7.335586462334e-05
    27   -2.784518409637e-06
    28    2.028919071361e-06
    29    2.576521614952e-16
    30   -3.728979182568e-07
    31   -1.764180520979e-05
    32   -1.532246025371e-04
    33   -3.077351469052e-04
    34    4.006721488709e-06
    35   -2.950909953417e-06
    36    1.171840044939e-16
    37    2.915877879731e-06
    38    5.892437657146e-05
    39    8.108920075500e-05
    40    9.037972685313e-05
    41   -8.564247867215e-06
    42   -7.098749108301e-06
    43   -5.816036828152e-18
    44   -5.738012567144e-07
    45    1.221932908492e-06
    46    5.308762761860e-06
    47   -8.560918955142e-08
    48   -1.057850918309e-15
    49   -9.854438201530e-06
    50   -2.172536104044e-05
    51   -4.939460346512e-07
    52    2.964982324117e-15
    53   -2.522278981200e-04
    54   -1.220233150129e-04
    55    1.276210722614e-06
    56   -2.150545149287e-15
    57   -2.057116347650e-04
    58    2.460441314844e-05
    59   -1.671984247444e-04
    60   -4.272819448646e-15
    61    3.621423377288e-06
    62    2.926395779285e-16
    63    4.494978678521e-16
    64   -3.021391099160e-06
    65    2.000743228840e-06
    66   -9.717633620730e-06
    67   -7.428977709917e-06
    68    2.143799387707e-07
    69   -2.774193387259e-07
    70   -1.036801780489e-15
    71   -7.873205779375e-06
    72   -3.253164999366e-06
    73    7.554172450942e-07
    74    3.014373008145e-15
    75    2.778629808227e-05
    76    1.645570244252e-05
    77   -8.423227053417e-07
    78   -4.954927332893e-15
    79   -2.184647737552e-04
    80   -1.277060403938e-04
    81    4.167758007978e-05
    82    6.314447923777e-15
    83    2.206572138203e-07
    84   -5.747162278275e-16
    85   -1.209948246703e-15
    86    6.224964516791e-07
    87   -8.536302995528e-08
    88    3.692716969748e-06
    89   -7.188647750651e-05
    90    4.228276517386e-05
    91    3.202041647699e-05
    92    4.990307085431e-16
    93    2.747730932198e-04
    94    3.409237110521e-04
    95    2.235813168818e-04
    96   -8.773031454614e-17
    97   -2.713001974181e-04
    98    4.030691458820e-04
    99    4.045205929969e-04
   100    3.825598348437e-16
   101   -2.198805405147e-03
   102   -6.412557880295e-04
   103    4.342960583097e-04
   104    3.781319638724e-15
   105   -5.590000976983e-05
   106    6.549008279811e-16
   107   -1.382591451566e-16
   108    1.005945621874e-04
   109    1.864515592696e-04
   110    5.515109961750e-01
   111    4.716913433882e-01
   112   -1.500813204548e-03
   113   -9.402519110339e-04
   114   -9.844522496254e-16
   115    5.396932604980e-03
   116    6.300933283376e-04
   117    4.036197614315e-04
   118    1.264503603428e-15
   119   -1.171898170796e-03
   120   -1.588618275296e-04
   121   -1.140300182452e-04
   122   -2.029244164930e-15
   123    1.304831094223e-03
   124   -2.440199466346e-05
   125    5.656233746384e-06
   126    4.605564427504e-16
   127   -9.219161153943e-05
   128    4.773611185996e-16
   129   -8.292946610651e-17
   130   -4.073468214316e-05
   131   -1.056145072594e-04
   132    4.533150296231e-07
   133    2.285979859815e-06
   134   -1.153285699441e-05
   135    3.769651794036e-06
   136    6.074702928999e-16
   137   -3.223111640725e-05
   138    2.660431057686e-05
   139   -8.601903578932e-06
   140   -1.012162373095e-15
   141    2.439705791979e-04
   142   -9.475895903006e-05
   143   -2.201285107728e-04
   144    1.035124372830e-15
   145   -2.151545381677e-04
   146   -5.358478948171e-04
   147   -5.485560965890e-05
   148   -1.426615427104e-15
   149   -8.034104649329e-06
   150    1.079524556929e-15
   151    4.010474927173e-16
   152    1.589249371610e-05
   153   -1.710317788351e-05
   154   -6.990203222551e-09
   155    5.737383936018e-07
   156    2.825554436642e-07
   157    3.223337799995e-07
   158   -2.440619005946e-16
   159   -9.719963422182e-06
   160   -9.773380662477e-07
   161   -1.836999792265e-06
   162    4.217155538551e-16
   163    1.505010013138e-04
   164    7.892077301601e-05
   165    5.319458614749e-06
   166    1.197602813323e-15
   167    2.224561122729e-04
   168   -4.649301142149e-05
   169    2.256097850366e-05
   170   -1.262563353936e-15
   171    3.745532889453e-07
   172    1.007846940224e-16
   173    6.798810599085e-17
   174   -4.544779866202e-07
   175   -1.652681122399e-06
   176    1.481966201483e-06
   177    1.561072919678e-07
   178   -4.452653981025e-06
   179   -1.731555965836e-05
   180    1.376186226297e-15
   181   -1.781584833117e-05
   182    1.064281431560e-05
   183    8.922355822043e-05
   184   -3.424532799999e-15
   185    6.082238337599e-04
   186   -4.820543685237e-04
   187    1.646289453288e-04
   188    3.735118491578e-15
   189    1.786522400389e-03
   190    1.067922989445e-04
   191    1.052965823172e-03
   192   -5.758983129065e-15
   193   -7.401114846932e-06
   194    5.328988177254e-16
   195    3.887970167609e-16
   196   -3.335599935297e-05
   197    3.337916655104e-05
   198   -2.422295502217e-06
   199    1.218741153248e-04
   200    1.396240875937e-04
   201    3.249798451670e-04
   202   -2.194481748301e-05
   203    1.156075966241e-05
   204   -8.207804706799e-16
Sym=X
Ene= 0.003003
Spin=Alpha
Occup=0
     1   -1.797698933414e-15
     2    5.183563665949e-16
     3    1.538992913333e-14
     4    1.501407873895e-14
     5    1.907749842804e-02
     6    1.737675142286e-14
     7   -1.938806408400e-14
     8    3.870025245563e-15
     9    4.651248533486e-02
    10   -2.283321223481e-13
    11    4.089796526609e-13
    12    3.378965667642e-13
    13   -1.134408281770e-03
    14   -4.325857635352e-12
    15   -4.847896721144e-13
    16    8.130737317420e-13
    17   -2.375191739632e-01
    18   -1.387957683040e-14
    19   -1.199652853980e-03
    20   -3.397552029784e-04
    21   -2.982838843804e-14
    22    2.758659717257e-15
    23    3.725303823716e-14
    24   -1.156558429934e-13
    25    1.959818977758e-12
    26   -9.861352872345e-13
    27   -2.350519920095e-14
    28    2.725001688294e-15
    29   -2.441642933548e-03
    30    1.911844244282e-14
    31    1.928486890330e-14
    32    1.271777644622e-12
    33    2.202110220319e-12
    34   -8.324060522624e-16
    35    2.907745745821e-15
    36    4.824711699786e-03
    37    7.470060064707e-15
    38    3.524854403559e-15
    39    6.762964160696e-13
    40   -8.038235438327e-13
    41    4.449552318899e-15
    42    2.519673566855e-15
    43    6.282533424228e-03
    44    7.794880560851e-15
    45    9.462671977019e-15
    46    2.092336623001e-15
    47   -5.934130545011e-15
    48   -1.094913904966e-02
    49   -4.013172687344e-14
    50   -6.870467269040e-15
    51    5.536648944446e-14
    52   -1.872464660819e-02
    53   -2.143165081141e-13
    54   -1.423935211946e-13
    55   -1.207476477088e-13
    56   -3.668342859501e-02
    57    4.301656351700e-12
    58   -2.838026709355e-13
    59   -2.040662405154e-12
    60   -1.194644495903e+00
    61    6.406129778298e-15
    62    2.356604085489e-02
    63   -8.093465459057e-04
    64    6.550330049980e-15
    65   -3.562867309531e-14
    66    6.014489236071e-15
    67    6.561820566261e-15
    68    2.131541203249e-14
    69    9.544443472839e-15
    70   -5.185662040374e-02
    71   -2.702101830223e-14
    72    2.777938221004e-14
    73    9.379886357203e-15
    74   -7.222786110684e-02
    75   -7.862034103399e-14
    76   -5.442403206814e-14
    77   -2.506462563342e-14
    78   -9.097063742401e-02
    79   -1.714105021422e-13
    80   -5.838073699349e-14
    81   -1.800931801514e-13
    82    2.912429788188e-01
    83    3.150363474231e-15
    84   -3.090634004247e-03
    85    1.294008100557e-03
    86    3.081354869383e-16
    87    8.336724983851e-15
    88    6.241990082189e-16
    89    1.231994215625e-14
    90    1.755484806142e-14
    91   -3.483810208450e-15
    92   -3.302615072247e-02
    93   -4.240842133058e-14
    94    4.279088134017e-14
    95   -3.114344955033e-14
    96   -5.699835619337e-02
    97    2.853100505844e-13
    98   -8.538727107489e-15
    99    1.029272582896e-13
   100   -4.486396863803e-03
   101   -2.861909094531e-12
   102   -1.151230064558e-12
   103    2.721667193460e-12
   104   -2.295445309408e-01
   105   -1.514066259774e-14
   106   -3.457200632249e-02
   107    2.644779850780e-04
   108    3.469506070754e-15
   109    5.053360990147e-15
   110   -3.916026002064e-15
   111   -5.307521711006e-15
   112   -3.303036632649e-15
   113   -9.702612635210e-15
   114   -1.995869094951e-01
   115   -1.772472360004e-15
   116   -2.060452543722e-14
   117   -6.665704180330e-15
   118   -2.489465268161e-01
   119    1.448570199325e-13
   120    5.442293061823e-14
   121   -1.551955652948e-14
   122   -2.296622451263e-01
   123    2.123551782736e-13
   124   -2.036904491613e-13
   125    7.961253383407e-14
   126    3.472640441207e-02
   127   -3.010892108809e-15
   128    1.234365671642e-02
   129    6.684187722441e-03
   130   -2.600866582498e-15
   131    4.905072805748e-15
   132    3.179081526960e-15
   133    6.299104344452e-15
   134    2.920378945923e-14
   135   -1.660705159815e-14
   136    1.510485372876e-01
   137   -5.838871495637e-14
   138    3.824565168657e-14
   139   -2.248945416921e-15
   140    2.483915489041e-01
   141    1.917565439904e-13
   142    1.167604945584e-13
   143   -2.619241696679e-13
   144    2.370431162442e-01
   145   -2.283717910553e-12
   146   -1.850413522827e-12
   147    1.289720198454e-13
   148    8.609303358305e-02
   149   -3.874668812449e-16
   150    4.668074163907e-03
   151   -6.826189195971e-05
   152   -9.337591450638e-15
   153    9.856535547363e-16
   154    1.107795401803e-14
   155    1.231813172078e-14
   156    2.427142721178e-14
   157   -5.624656230410e-15
   158    8.360499399326e-03
   159   -9.421767014843e-14
   160    1.970812370778e-14
   161   -1.291236050434e-15
   162    1.803677024784e-02
   163    1.129655538463e-13
   164    6.844922870595e-14
   165    8.059681671732e-15
   166    3.177462989672e-03
   167   -3.443870769869e-12
   168    2.197059231203e-12
   169   -1.173005875872e-12
   170    3.504829220775e-01
   171   -6.500450230615e-15
   172    3.124447806679e-03
   173   -3.096339071297e-03
   174    1.480575812952e-14
   175    1.298946568122e-14
   176   -5.756277470893e-15
   177   -1.259604575708e-14
   178    2.872824639805e-14
   179   -1.430960649819e-14
   180   -2.808289369312e-02
   181   -1.801492768284e-14
   182    3.547785220892e-14
   183   -4.799798577334e-15
   184   -2.747340662912e-02
   185    4.393806420353e-13
   186    5.327677732807e-13
   187   -1.642350803542e-13
   188   -2.057022031978e-01
   189    4.360975184476e-12
   190    1.503103354421e-12
   191    1.188840847996e-12
   192    1.060074098497e+00
   193   -2.729263429876e-14
   194   -3.001399771941e-03
   195   -1.357603436260e-02
   196    2.134450524537e-14
   197   -2.150146073025e-14
   198    1.727327226151e-14
   199   -1.764155358824e-13
   200   -4.245591194771e-13
   201    3.337192220698e-13
   202    1.450646274327e-14
   203   -1.334375661131e-14
   204    4.194029293450e-03
[5D]
