[Molden Format]
[Atoms] (Angs)
  C      1    6     -0.13173890     -1.79208980      0.00000000
  H      2    1     -2.14962000     -1.30978739      0.00000000
  H      3    1     -0.31599560     -2.86503115      0.00000000
  H      4    1      0.14407746      2.04280963     -0.00000000
  C      5    6     -1.17258876      0.48030861      0.00000000
  O      6    8     -2.25008207      1.06833796      0.00000000
  C      7    6      1.31158357      0.28308717     -0.00000000
  O      8    8      2.36361668      0.96389345     -0.00000000
  N      9    7      0.07017030      1.03138997     -0.00000000
  N     10    7     -1.19586868     -0.94982644      0.00000000
  C     11    6      1.19165158     -1.13169473     -0.00000000
  H     12    1      2.09970506     -1.73445456     -0.00000000
[GTO]
1    0
S    6    1.000000
   4.56324000E+03    1.96665000E-03 
   6.82024000E+02    1.52306000E-02 
   1.54973000E+02    7.61269000E-02 
   4.44553000E+01    2.60801000E-01 
   1.30290000E+01    6.16462000E-01 
   1.82773000E+00    2.21006000E-01 
SP   3    1.000000
   2.09642000E+01    1.14660000E-01   4.02487000E-02 
   4.80331000E+00    9.19999000E-01   2.37594000E-01 
   1.45933000E+00   -3.03068000E-03   8.15854000E-01 
SP   1    1.000000
   4.83456000E-01    1.00000000E+00   1.00000000E+00 
SP   1    1.000000
   1.45585000E-01    1.00000000E+00   1.00000000E+00 
SP   1    1.000000
   4.38000000E-02    1.00000000E+00   1.00000000E+00 
D    1    1.000000
   6.26000000E-01    1.00000000E+00 

2    0
S    3    1.000000
   3.38650000E+01    2.54938000E-02 
   5.09479000E+00    1.90373000E-01 
   1.15879000E+00    8.52161000E-01 
S    1    1.000000
   3.25840000E-01    1.00000000E+00 
S    1    1.000000
   1.02741000E-01    1.00000000E+00 
S    1    1.000000
   3.60000000E-02    1.00000000E+00 
P    1    1.000000
   7.50000000E-01    1.00000000E+00 

3    0
S    3    1.000000
   3.38650000E+01    2.54938000E-02 
   5.09479000E+00    1.90373000E-01 
   1.15879000E+00    8.52161000E-01 
S    1    1.000000
   3.25840000E-01    1.00000000E+00 
S    1    1.000000
   1.02741000E-01    1.00000000E+00 
S    1    1.000000
   3.60000000E-02    1.00000000E+00 
P    1    1.000000
   7.50000000E-01    1.00000000E+00 

4    0
S    3    1.000000
   3.38650000E+01    2.54938000E-02 
   5.09479000E+00    1.90373000E-01 
   1.15879000E+00    8.52161000E-01 
S    1    1.000000
   3.25840000E-01    1.00000000E+00 
S    1    1.000000
   1.02741000E-01    1.00000000E+00 
S    1    1.000000
   3.60000000E-02    1.00000000E+00 
P    1    1.000000
   7.50000000E-01    1.00000000E+00 

5    0
S    6    1.000000
   4.56324000E+03    1.96665000E-03 
   6.82024000E+02    1.52306000E-02 
   1.54973000E+02    7.61269000E-02 
   4.44553000E+01    2.60801000E-01 
   1.30290000E+01    6.16462000E-01 
   1.82773000E+00    2.21006000E-01 
SP   3    1.000000
   2.09642000E+01    1.14660000E-01   4.02487000E-02 
   4.80331000E+00    9.19999000E-01   2.37594000E-01 
   1.45933000E+00   -3.03068000E-03   8.15854000E-01 
SP   1    1.000000
   4.83456000E-01    1.00000000E+00   1.00000000E+00 
SP   1    1.000000
   1.45585000E-01    1.00000000E+00   1.00000000E+00 
SP   1    1.000000
   4.38000000E-02    1.00000000E+00   1.00000000E+00 
D    1    1.000000
   6.26000000E-01    1.00000000E+00 

6    0
S    6    1.000000
   8.58850000E+03    1.89515000E-03 
   1.29723000E+03    1.43859000E-02 
   2.99296000E+02    7.07320000E-02 
   8.73771000E+01    2.40001000E-01 
   2.56789000E+01    5.94797000E-01 
   3.74004000E+00    2.80802000E-01 
SP   3    1.000000
   4.21175000E+01    1.13889000E-01   3.65114000E-02 
   9.62837000E+00    9.20811000E-01   2.37153000E-01 
   2.85332000E+00   -3.27447000E-03   8.19702000E-01 
SP   1    1.000000
   9.05661000E-01    1.00000000E+00   1.00000000E+00 
SP   1    1.000000
   2.55611000E-01    1.00000000E+00   1.00000000E+00 
SP   1    1.000000
   8.45000000E-02    1.00000000E+00   1.00000000E+00 
D    1    1.000000
   1.29200000E+00    1.00000000E+00 

7    0
S    6    1.000000
   4.56324000E+03    1.96665000E-03 
   6.82024000E+02    1.52306000E-02 
   1.54973000E+02    7.61269000E-02 
   4.44553000E+01    2.60801000E-01 
   1.30290000E+01    6.16462000E-01 
   1.82773000E+00    2.21006000E-01 
SP   3    1.000000
   2.09642000E+01    1.14660000E-01   4.02487000E-02 
   4.80331000E+00    9.19999000E-01   2.37594000E-01 
   1.45933000E+00   -3.03068000E-03   8.15854000E-01 
SP   1    1.000000
   4.83456000E-01    1.00000000E+00   1.00000000E+00 
SP   1    1.000000
   1.45585000E-01    1.00000000E+00   1.00000000E+00 
SP   1    1.000000
   4.38000000E-02    1.00000000E+00   1.00000000E+00 
D    1    1.000000
   6.26000000E-01    1.00000000E+00 

8    0
S    6    1.000000
   8.58850000E+03    1.89515000E-03 
   1.29723000E+03    1.43859000E-02 
   2.99296000E+02    7.07320000E-02 
   8.73771000E+01    2.40001000E-01 
   2.56789000E+01    5.94797000E-01 
   3.74004000E+00    2.80802000E-01 
SP   3    1.000000
   4.21175000E+01    1.13889000E-01   3.65114000E-02 
   9.62837000E+00    9.20811000E-01   2.37153000E-01 
   2.85332000E+00   -3.27447000E-03   8.19702000E-01 
SP   1    1.000000
   9.05661000E-01    1.00000000E+00   1.00000000E+00 
SP   1    1.000000
   2.55611000E-01    1.00000000E+00   1.00000000E+00 
SP   1    1.000000
   8.45000000E-02    1.00000000E+00   1.00000000E+00 
D    1    1.000000
   1.29200000E+00    1.00000000E+00 

9    0
S    6    1.000000
   6.29348000E+03    1.96979000E-03 
   9.49044000E+02    1.49613000E-02 
   2.18776000E+02    7.35006000E-02 
   6.36916000E+01    2.48937000E-01 
   1.88282000E+01    6.02460000E-01 
   2.72023000E+00    2.56202000E-01 
SP   3    1.000000
   3.06331000E+01    1.11906000E-01   3.83119000E-02 
   7.02614000E+00    9.21666000E-01   2.37403000E-01 
   2.11205000E+00   -2.56919000E-03   8.17592000E-01 
SP   1    1.000000
   6.84009000E-01    1.00000000E+00   1.00000000E+00 
SP   1    1.000000
   2.00878000E-01    1.00000000E+00   1.00000000E+00 
SP   1    1.000000
   6.39000000E-02    1.00000000E+00   1.00000000E+00 
D    1    1.000000
   9.13000000E-01    1.00000000E+00 

10    0
S    6    1.000000
   6.29348000E+03    1.96979000E-03 
   9.49044000E+02    1.49613000E-02 
   2.18776000E+02    7.35006000E-02 
   6.36916000E+01    2.48937000E-01 
   1.88282000E+01    6.02460000E-01 
   2.72023000E+00    2.56202000E-01 
SP   3    1.000000
   3.06331000E+01    1.11906000E-01   3.83119000E-02 
   7.02614000E+00    9.21666000E-01   2.37403000E-01 
   2.11205000E+00   -2.56919000E-03   8.17592000E-01 
SP   1    1.000000
   6.84009000E-01    1.00000000E+00   1.00000000E+00 
SP   1    1.000000
   2.00878000E-01    1.00000000E+00   1.00000000E+00 
SP   1    1.000000
   6.39000000E-02    1.00000000E+00   1.00000000E+00 
D    1    1.000000
   9.13000000E-01    1.00000000E+00 

11    0
S    6    1.000000
   4.56324000E+03    1.96665000E-03 
   6.82024000E+02    1.52306000E-02 
   1.54973000E+02    7.61269000E-02 
   4.44553000E+01    2.60801000E-01 
   1.30290000E+01    6.16462000E-01 
   1.82773000E+00    2.21006000E-01 
SP   3    1.000000
   2.09642000E+01    1.14660000E-01   4.02487000E-02 
   4.80331000E+00    9.19999000E-01   2.37594000E-01 
   1.45933000E+00   -3.03068000E-03   8.15854000E-01 
SP   1    1.000000
   4.83456000E-01    1.00000000E+00   1.00000000E+00 
SP   1    1.000000
   1.45585000E-01    1.00000000E+00   1.00000000E+00 
SP   1    1.000000
   4.38000000E-02    1.00000000E+00   1.00000000E+00 
D    1    1.000000
   6.26000000E-01    1.00000000E+00 

12    0
S    3    1.000000
   3.38650000E+01    2.54938000E-02 
   5.09479000E+00    1.90373000E-01 
   1.15879000E+00    8.52161000E-01 
S    1    1.000000
   3.25840000E-01    1.00000000E+00 
S    1    1.000000
   1.02741000E-01    1.00000000E+00 
S    1    1.000000
   3.60000000E-02    1.00000000E+00 
P    1    1.000000
   7.50000000E-01    1.00000000E+00 

[MO]
Sym=X
Ene= -0.003076
Spin=Alpha
Occup=1
     1   -3.096269401212e-06
     2   -6.012979278083e-06
     3   -8.661135632154e-06
     4    1.154217849609e-06
     5   -1.766879278014e-16
     6    1.768615196941e-05
     7   -3.780192159574e-05
     8    3.506566375506e-05
     9    1.148493371677e-15
    10    3.422578536734e-04
    11   -1.598894972625e-04
    12    1.000001054739e-05
    13   -1.903392286780e-15
    14   -1.118445992875e-04
    15   -5.514289739291e-04
    16   -1.483679409848e-04
    17   -5.840635192814e-15
    18   -9.349272498000e-07
    19   -2.141862905247e-17
    20   -1.042861081166e-15
    21   -1.924983730510e-06
    22    3.821700455681e-07
    23   -7.473513411273e-07
    24   -2.613934686208e-05
    25    8.102599611462e-05
    26   -1.613615526367e-04
    27   -1.585440752798e-05
    28    9.721173091181e-06
    29   -7.620973695582e-16
    30    1.024413637412e-06
    31   -4.440891378515e-05
    32   -2.626205990395e-05
    33   -1.560887255413e-04
    34   -7.719865991754e-07
    35   -3.308579616725e-06
    36   -1.004675796129e-15
    37   -1.492765726188e-08
    38   -4.996278833412e-05
    39   -1.211138461476e-04
    40   -2.687460911788e-04
    41   -5.591688627326e-06
    42    6.697926293277e-06
    43    2.145530903227e-16
    44   -9.160429835981e-06
    45    6.810481566516e-05
    46    5.175974386726e-05
    47   -6.031628212912e-05
    48   -1.193599834346e-15
    49   -2.695162711491e-04
    50    3.691270476836e-04
    51   -2.461960940509e-04
    52    1.608826367630e-15
    53    1.205802353929e-04
    54    3.744790483059e-04
    55   -3.274119350461e-04
    56   -3.487845673887e-15
    57   -5.168424116234e-04
    58   -8.524137984620e-04
    59    1.662915774561e-04
    60    3.128543890399e-15
    61    6.174839683575e-05
    62   -1.114272521308e-15
    63    6.971479418858e-17
    64   -9.559608302672e-05
    65    1.804541538947e-04
    66   -5.514859430614e-01
    67   -4.716745850132e-01
    68   -1.582173766264e-03
    69    9.147965254113e-04
    70    1.091579865649e-15
    71   -5.511020118813e-03
    72    6.987674906840e-04
    73   -2.903906435885e-04
    74   -9.736676521182e-16
    75    1.227540868518e-03
    76   -1.366472082631e-04
    77    1.295882578041e-04
    78    2.666144945597e-16
    79   -1.432919772763e-03
    80   -4.995015862445e-05
    81   -2.143923567966e-06
    82   -1.148187634303e-15
    83    8.000972046607e-05
    84   -3.969354795949e-16
    85    5.961876883227e-16
    86    5.408229568350e-05
    87   -7.169385971239e-05
    88    3.518714502183e-06
    89    4.932076829965e-06
    90    1.027345226691e-05
    91    2.669413471657e-07
    92   -4.909153111899e-16
    93   -1.269640967397e-05
    94    2.131250201235e-07
    95    1.336552310207e-05
    96    1.924485739473e-15
    97    1.096812221937e-04
    98   -3.721730415903e-05
    99    7.126011324050e-05
   100   -2.926090569774e-16
   101   -8.423984343107e-04
   102   -2.446368872585e-04
   103    7.644088255248e-04
   104   -1.017418293113e-14
   105   -3.778339949160e-06
   106    1.387660751178e-15
   107    1.609354651538e-16
   108    5.331182820607e-06
   109   -3.165510388949e-06
   110   -2.145486864080e-06
   111   -3.916758846234e-06
   112    3.528188670454e-06
   113   -3.483167603468e-07
   114   -1.114507524377e-15
   115    1.696031424994e-05
   116    5.308253715949e-06
   117   -3.424539791300e-06
   118    2.960863924674e-15
   119   -3.259962694464e-05
   120    1.664153339446e-05
   121    9.167808430309e-06
   122   -5.156210589661e-15
   123    1.170706247488e-04
   124   -5.309302502127e-05
   125   -5.748653015583e-05
   126    4.314476257313e-15
   127   -3.505121696015e-07
   128    2.697445001131e-16
   129    3.886250658262e-16
   130   -5.212977601482e-07
   131    9.231856548415e-08
   132   -2.089525317005e-06
   133   -4.785571481548e-06
   134   -8.950318780929e-06
   135    1.591300989989e-06
   136   -6.667761554789e-16
   137    3.596356645326e-05
   138    4.078398139863e-05
   139   -7.236866095897e-06
   140    1.797372775176e-15
   141   -2.288263259122e-04
   142   -9.056073714338e-06
   143    2.248691400795e-04
   144   -5.028888002107e-16
   145    2.649239268715e-04
   146   -4.870291454824e-04
   147    1.254246560091e-04
   148    2.661071037594e-15
   149    8.590195194257e-06
   150   -6.428937106847e-16
   151   -7.203644644104e-16
   152   -2.969605785703e-05
   153   -1.937496345357e-06
   154    1.166217665324e-05
   155    1.971591517700e-05
   156    5.873875865734e-06
   157    2.416732228463e-06
   158   -1.693221907994e-16
   159   -4.333225679112e-05
   160    2.337525704341e-05
   161   -4.071828316136e-05
   162   -1.132587169098e-15
   163   -4.420516504329e-04
   164   -2.146594682486e-04
   165   -2.782002372474e-05
   166    2.923535559990e-15
   167   -3.710517689662e-04
   168   -1.893183619304e-04
   169    4.392427599647e-04
   170    2.509267248256e-15
   171    3.977688383868e-06
   172    5.530004010186e-16
   173    8.601737752290e-16
   174    1.645644477930e-05
   175    2.004442553134e-06
   176   -3.204783268677e-06
   177   -4.607252679375e-06
   178    2.010055063121e-06
   179    1.808949254888e-06
   180    1.047293130663e-15
   181    7.225628805038e-06
   182    1.829100265795e-05
   183   -1.250143893347e-06
   184   -1.906390885720e-16
   185    1.438569649771e-04
   186   -4.795315555778e-05
   187    2.585549428823e-05
   188    5.955373400215e-17
   189    2.741679794937e-03
   190   -2.389999955097e-04
   191    3.679447782568e-04
   192    8.493190351406e-15
   193   -2.690170100024e-06
   194   -3.315960144724e-16
   195    2.991519878818e-16
   196    1.627689092255e-06
   197    2.720913841182e-07
   198   -7.229963440165e-07
   199    5.924654130024e-06
   200   -8.235295065791e-06
   201    3.850885744912e-05
   202   -4.314297163956e-07
   203    1.731339417176e-07
   204   -5.907117583683e-16
Sym=X
Ene= 0.003076
Spin=Alpha
Occup=0
     1    1.600768175598e-02
     2    2.942913724591e-02
     3    1.487233954447e-03
     4    3.692465631352e-02
     5    5.997969221997e-14
     6   -1.016114975737e-01
     7    5.704779228663e-03
     8    5.161903332982e-02
     9    9.698445133058e-14
    10   -3.073107647647e-01
    11    9.082535062239e-02
    12    1.776705515590e-01
    13    1.576924476168e-13
    14   -2.161922727464e+00
    15   -1.613374621360e-01
    16    1.876735075917e+00
    17    3.399410264157e-13
    18   -1.717462165900e-03
    19   -3.022669020092e-14
    20   -3.991335194385e-15
    21   -8.683840363972e-03
    22    2.278056117051e-03
    23   -3.200424607483e-03
    24    2.779397238559e-02
    25   -3.068818515243e-01
    26   -6.343857972628e-01
    27    3.514790469220e-03
    28   -7.673868228150e-03
    29   -5.486692378426e-15
    30   -3.906783030809e-03
    31    3.561166408272e-03
    32    4.059210101735e-01
    33    3.178684467919e+00
    34   -3.016822405128e-03
    35   -1.332763926958e-02
    36    1.083743500819e-14
    37    1.482892699057e-02
    38    1.246503267195e-02
    39    2.107052826645e-01
    40    7.690809298549e-01
    41   -9.363461994175e-04
    42    7.689780669624e-03
    43    5.955692636398e-15
    44    3.662589373599e-03
    45    6.846844324644e-03
    46    5.610871896065e-03
    47   -6.838223556274e-03
    48   -3.235707156244e-14
    49   -2.493221536338e-02
    50    1.271438600227e-02
    51   -1.097743381434e-02
    52   -5.213000070937e-14
    53    8.561316300405e-03
    54    1.921092708250e-01
    55   -2.114689982104e-01
    56   -5.743912297042e-14
    57   -1.494268473161e-01
    58    1.105967515515e+00
    59    1.600084364481e-01
    60   -3.138647719117e-14
    61   -4.435328871243e-03
    62   -4.530480931727e-14
    63    2.765841603340e-14
    64    3.044410708679e-02
    65    1.069125216628e-02
    66   -1.519872030558e-02
    67   -2.647942477504e-02
    68   -8.391806299126e-02
    69   -1.491123605759e-01
    70    1.956587493128e-14
    71    8.377432989864e-02
    72   -1.077609632359e-01
    73   -1.898055418139e-01
    74    2.259619013790e-14
    75    1.366954127263e-01
    76   -3.584258309664e-02
    77   -1.717800039702e-01
    78   -2.272065450511e-14
    79    8.434039584042e-01
    80    3.467820592205e-02
    81   -1.321263682417e-01
    82    1.607196665327e-13
    83   -1.269731637510e-03
    84    2.016664504519e-15
    85   -5.773093739181e-15
    86   -8.541491406207e-03
    87   -5.725136154929e-03
    88    2.113226564046e-04
    89    3.991512494358e-04
    90    2.045372564025e-02
    91   -7.369029120676e-04
    92   -2.935868791101e-14
    93   -1.621684617206e-03
    94    3.752977235175e-02
    95    2.315826510281e-03
    96   -5.732785467871e-14
    97    9.201331134741e-03
    98   -7.108157412363e-02
    99   -6.602242456414e-02
   100   -6.864455847421e-14
   101   -4.140452357376e-01
   102    8.317189014465e-01
   103   -3.432655166706e-01
   104   -2.641807916576e-13
   105    1.422051214719e-03
   106   -4.366407626427e-14
   107    1.333136090717e-14
   108    2.062519801333e-03
   109    9.173398053147e-03
   110    5.428417142945e-03
   111    9.324208967660e-03
   112   -2.728477214375e-02
   113   -6.704498209830e-03
   114    1.707279632270e-14
   115   -2.962296285189e-02
   116   -4.093214770287e-02
   117   -9.181199339120e-03
   118    2.465617347201e-14
   119   -1.738673700097e-02
   120   -3.451344840465e-02
   121   -7.024766828855e-03
   122    1.411549724814e-13
   123    1.434225694590e-01
   124   -1.369455359294e-01
   125   -6.308052314608e-02
   126   -3.849582050169e-14
   127   -5.202229660105e-04
   128    2.811036616585e-15
   129    5.567669570797e-15
   130    3.740454506072e-04
   131    1.202669474586e-03
   132    2.673540336041e-03
   133    4.770749842055e-03
   134   -3.024847575602e-02
   135   -5.920047800683e-03
   136    3.492987389989e-14
   137   -1.240405653201e-02
   138   -4.258255977887e-02
   139   -7.013975986942e-03
   140    6.036177613481e-14
   141   -1.101440529424e-01
   142   -4.902582146851e-02
   143    4.309557345595e-02
   144    6.003055079351e-14
   145   -2.517849520173e-01
   146   -2.077758535328e-02
   147   -3.039866679135e-01
   148    9.549155807500e-14
   149    7.321783452472e-04
   150    1.712660826756e-14
   151    4.950726927511e-15
   152   -5.763080700352e-03
   153   -3.240862236566e-04
   154    5.294119945122e-03
   155    8.842624389155e-03
   156    1.648120074949e-02
   157   -2.503879377281e-02
   158   -1.698448902769e-14
   159   -2.507268072586e-02
   160    2.672781990548e-02
   161   -2.891571039175e-02
   162   -2.857818383065e-14
   163   -3.470314792855e-02
   164    3.304962070685e-02
   165   -1.397345018078e-01
   166   -5.119529536687e-14
   167   -5.543681401833e-01
   168   -6.939174970425e-01
   169   -6.006813474112e-01
   170   -2.776193624455e-13
   171    1.545238810489e-03
   172    5.753687617020e-15
   173   -1.904832784738e-14
   174    2.507971108888e-03
   175    9.675072714389e-03
   176    2.117849169856e-03
   177    4.374380320391e-03
   178   -1.675862455643e-02
   179   -6.493386038763e-04
   180   -4.997476091136e-14
   181   -2.371288822429e-02
   182   -2.608376968382e-02
   183    5.689091519926e-03
   184   -5.747451834829e-14
   185   -1.854012252546e-01
   186   -2.652022057528e-02
   187   -3.692754396072e-02
   188   -1.908773174769e-13
   189   -5.704211641637e-01
   190   -7.794595392605e-01
   191   -8.655775680955e-01
   192    2.459516239566e-13
   193    1.575045027402e-03
   194   -6.076033980752e-15
   195    1.839000865304e-15
   196    1.517582614286e-03
   197   -5.035560021703e-03
   198    7.551647269965e-03
   199    1.863100928010e-02
   200    6.265579351781e-02
   201    3.579960841631e-01
   202    3.341214935419e-04
   203   -4.712872438867e-03
   204    3.649197023122e-15
[5D]
