[Molden Format]
[Atoms] (Angs)
  C      1    6     -0.13173890     -1.79208980      0.00000000
  H      2    1     -2.14962000     -1.30978739      0.00000000
  H      3    1     -0.31599560     -2.86503115      0.00000000
  H      4    1      0.14407746      2.04280963     -0.00000000
  C      5    6     -1.17258876      0.48030861      0.00000000
  O      6    8     -2.25008207      1.06833796      0.00000000
  C      7    6      1.31158357      0.28308717     -0.00000000
  O      8    8      2.36361668      0.96389345     -0.00000000
  N      9    7      0.07017030      1.03138997     -0.00000000
  N     10    7     -1.19586868     -0.94982644      0.00000000
  C     11    6      1.19165158     -1.13169473     -0.00000000
  H     12    1      2.09970506     -1.73445456     -0.00000000
[GTO]
1    0
S    6    1.000000
   4.56324000E+03    1.96665000E-03 
   6.82024000E+02    1.52306000E-02 
   1.54973000E+02    7.61269000E-02 
   4.44553000E+01    2.60801000E-01 
   1.30290000E+01    6.16462000E-01 
   1.82773000E+00    2.21006000E-01 
SP   3    1.000000
   2.09642000E+01    1.14660000E-01   4.02487000E-02 
   4.80331000E+00    9.19999000E-01   2.37594000E-01 
   1.45933000E+00   -3.03068000E-03   8.15854000E-01 
SP   1    1.000000
   4.83456000E-01    1.00000000E+00   1.00000000E+00 
SP   1    1.000000
   1.45585000E-01    1.00000000E+00   1.00000000E+00 
SP   1    1.000000
   4.38000000E-02    1.00000000E+00   1.00000000E+00 
D    1    1.000000
   6.26000000E-01    1.00000000E+00 

2    0
S    3    1.000000
   3.38650000E+01    2.54938000E-02 
   5.09479000E+00    1.90373000E-01 
   1.15879000E+00    8.52161000E-01 
S    1    1.000000
   3.25840000E-01    1.00000000E+00 
S    1    1.000000
   1.02741000E-01    1.00000000E+00 
S    1    1.000000
   3.60000000E-02    1.00000000E+00 
P    1    1.000000
   7.50000000E-01    1.00000000E+00 

3    0
S    3    1.000000
   3.38650000E+01    2.54938000E-02 
   5.09479000E+00    1.90373000E-01 
   1.15879000E+00    8.52161000E-01 
S    1    1.000000
   3.25840000E-01    1.00000000E+00 
S    1    1.000000
   1.02741000E-01    1.00000000E+00 
S    1    1.000000
   3.60000000E-02    1.00000000E+00 
P    1    1.000000
   7.50000000E-01    1.00000000E+00 

4    0
S    3    1.000000
   3.38650000E+01    2.54938000E-02 
   5.09479000E+00    1.90373000E-01 
   1.15879000E+00    8.52161000E-01 
S    1    1.000000
   3.25840000E-01    1.00000000E+00 
S    1    1.000000
   1.02741000E-01    1.00000000E+00 
S    1    1.000000
   3.60000000E-02    1.00000000E+00 
P    1    1.000000
   7.50000000E-01    1.00000000E+00 

5    0
S    6    1.000000
   4.56324000E+03    1.96665000E-03 
   6.82024000E+02    1.52306000E-02 
   1.54973000E+02    7.61269000E-02 
   4.44553000E+01    2.60801000E-01 
   1.30290000E+01    6.16462000E-01 
   1.82773000E+00    2.21006000E-01 
SP   3    1.000000
   2.09642000E+01    1.14660000E-01   4.02487000E-02 
   4.80331000E+00    9.19999000E-01   2.37594000E-01 
   1.45933000E+00   -3.03068000E-03   8.15854000E-01 
SP   1    1.000000
   4.83456000E-01    1.00000000E+00   1.00000000E+00 
SP   1    1.000000
   1.45585000E-01    1.00000000E+00   1.00000000E+00 
SP   1    1.000000
   4.38000000E-02    1.00000000E+00   1.00000000E+00 
D    1    1.000000
   6.26000000E-01    1.00000000E+00 

6    0
S    6    1.000000
   8.58850000E+03    1.89515000E-03 
   1.29723000E+03    1.43859000E-02 
   2.99296000E+02    7.07320000E-02 
   8.73771000E+01    2.40001000E-01 
   2.56789000E+01    5.94797000E-01 
   3.74004000E+00    2.80802000E-01 
SP   3    1.000000
   4.21175000E+01    1.13889000E-01   3.65114000E-02 
   9.62837000E+00    9.20811000E-01   2.37153000E-01 
   2.85332000E+00   -3.27447000E-03   8.19702000E-01 
SP   1    1.000000
   9.05661000E-01    1.00000000E+00   1.00000000E+00 
SP   1    1.000000
   2.55611000E-01    1.00000000E+00   1.00000000E+00 
SP   1    1.000000
   8.45000000E-02    1.00000000E+00   1.00000000E+00 
D    1    1.000000
   1.29200000E+00    1.00000000E+00 

7    0
S    6    1.000000
   4.56324000E+03    1.96665000E-03 
   6.82024000E+02    1.52306000E-02 
   1.54973000E+02    7.61269000E-02 
   4.44553000E+01    2.60801000E-01 
   1.30290000E+01    6.16462000E-01 
   1.82773000E+00    2.21006000E-01 
SP   3    1.000000
   2.09642000E+01    1.14660000E-01   4.02487000E-02 
   4.80331000E+00    9.19999000E-01   2.37594000E-01 
   1.45933000E+00   -3.03068000E-03   8.15854000E-01 
SP   1    1.000000
   4.83456000E-01    1.00000000E+00   1.00000000E+00 
SP   1    1.000000
   1.45585000E-01    1.00000000E+00   1.00000000E+00 
SP   1    1.000000
   4.38000000E-02    1.00000000E+00   1.00000000E+00 
D    1    1.000000
   6.26000000E-01    1.00000000E+00 

8    0
S    6    1.000000
   8.58850000E+03    1.89515000E-03 
   1.29723000E+03    1.43859000E-02 
   2.99296000E+02    7.07320000E-02 
   8.73771000E+01    2.40001000E-01 
   2.56789000E+01    5.94797000E-01 
   3.74004000E+00    2.80802000E-01 
SP   3    1.000000
   4.21175000E+01    1.13889000E-01   3.65114000E-02 
   9.62837000E+00    9.20811000E-01   2.37153000E-01 
   2.85332000E+00   -3.27447000E-03   8.19702000E-01 
SP   1    1.000000
   9.05661000E-01    1.00000000E+00   1.00000000E+00 
SP   1    1.000000
   2.55611000E-01    1.00000000E+00   1.00000000E+00 
SP   1    1.000000
   8.45000000E-02    1.00000000E+00   1.00000000E+00 
D    1    1.000000
   1.29200000E+00    1.00000000E+00 

9    0
S    6    1.000000
   6.29348000E+03    1.96979000E-03 
   9.49044000E+02    1.49613000E-02 
   2.18776000E+02    7.35006000E-02 
   6.36916000E+01    2.48937000E-01 
   1.88282000E+01    6.02460000E-01 
   2.72023000E+00    2.56202000E-01 
SP   3    1.000000
   3.06331000E+01    1.11906000E-01   3.83119000E-02 
   7.02614000E+00    9.21666000E-01   2.37403000E-01 
   2.11205000E+00   -2.56919000E-03   8.17592000E-01 
SP   1    1.000000
   6.84009000E-01    1.00000000E+00   1.00000000E+00 
SP   1    1.000000
   2.00878000E-01    1.00000000E+00   1.00000000E+00 
SP   1    1.000000
   6.39000000E-02    1.00000000E+00   1.00000000E+00 
D    1    1.000000
   9.13000000E-01    1.00000000E+00 

10    0
S    6    1.000000
   6.29348000E+03    1.96979000E-03 
   9.49044000E+02    1.49613000E-02 
   2.18776000E+02    7.35006000E-02 
   6.36916000E+01    2.48937000E-01 
   1.88282000E+01    6.02460000E-01 
   2.72023000E+00    2.56202000E-01 
SP   3    1.000000
   3.06331000E+01    1.11906000E-01   3.83119000E-02 
   7.02614000E+00    9.21666000E-01   2.37403000E-01 
   2.11205000E+00   -2.56919000E-03   8.17592000E-01 
SP   1    1.000000
   6.84009000E-01    1.00000000E+00   1.00000000E+00 
SP   1    1.000000
   2.00878000E-01    1.00000000E+00   1.00000000E+00 
SP   1    1.000000
   6.39000000E-02    1.00000000E+00   1.00000000E+00 
D    1    1.000000
   9.13000000E-01    1.00000000E+00 

11    0
S    6    1.000000
   4.56324000E+03    1.96665000E-03 
   6.82024000E+02    1.52306000E-02 
   1.54973000E+02    7.61269000E-02 
   4.44553000E+01    2.60801000E-01 
   1.30290000E+01    6.16462000E-01 
   1.82773000E+00    2.21006000E-01 
SP   3    1.000000
   2.09642000E+01    1.14660000E-01   4.02487000E-02 
   4.80331000E+00    9.19999000E-01   2.37594000E-01 
   1.45933000E+00   -3.03068000E-03   8.15854000E-01 
SP   1    1.000000
   4.83456000E-01    1.00000000E+00   1.00000000E+00 
SP   1    1.000000
   1.45585000E-01    1.00000000E+00   1.00000000E+00 
SP   1    1.000000
   4.38000000E-02    1.00000000E+00   1.00000000E+00 
D    1    1.000000
   6.26000000E-01    1.00000000E+00 

12    0
S    3    1.000000
   3.38650000E+01    2.54938000E-02 
   5.09479000E+00    1.90373000E-01 
   1.15879000E+00    8.52161000E-01 
S    1    1.000000
   3.25840000E-01    1.00000000E+00 
S    1    1.000000
   1.02741000E-01    1.00000000E+00 
S    1    1.000000
   3.60000000E-02    1.00000000E+00 
P    1    1.000000
   7.50000000E-01    1.00000000E+00 

[MO]
Sym=X
Ene= -0.002322
Spin=Alpha
Occup=1
     1   -3.605106688960e-06
     2   -4.674559740513e-06
     3   -1.224622432185e-05
     4    7.042187529261e-06
     5    9.093459760849e-16
     6    1.578457774993e-06
     7   -1.658591164380e-05
     8    1.401822071428e-05
     9   -2.084934378411e-15
    10    5.524619900843e-04
    11    2.416900959314e-05
    12    3.055737834768e-04
    13    3.382141047946e-15
    14    3.469647781380e-04
    15   -2.292641297882e-04
    16    6.815272541112e-04
    17   -6.090446088905e-15
    18   -2.472195745035e-06
    19   -1.369232529229e-15
    20    3.724749581860e-16
    21    6.977321623008e-06
    22   -2.071922800918e-06
    23    2.882346950545e-06
    24   -1.323627009356e-06
    25    1.922401478157e-04
    26    4.905106911639e-05
    27   -1.514392490074e-06
    28   -1.918135122896e-06
    29   -2.556089201116e-16
    30   -3.045779387440e-06
    31    1.746371715831e-06
    32    1.505567118961e-04
    33    3.072978940045e-04
    34   -5.500058930654e-06
    35    2.899920941842e-06
    36   -1.213690265541e-16
    37   -5.380348500193e-07
    38   -5.239441652605e-05
    39   -9.740083585001e-05
    40   -7.838305622987e-05
    41    1.076926159388e-05
    42    6.916692901284e-06
    43    4.172805142381e-18
    44   -4.060711996499e-06
    45   -9.412150259879e-06
    46   -1.018854530892e-05
    47   -2.638239300734e-05
    48    1.078888505065e-15
    49    3.401601632003e-05
    50    1.422051149939e-05
    51   -4.597817162866e-05
    52   -2.912936551118e-15
    53    3.047532176261e-04
    54    5.741084271661e-05
    55   -1.437634324932e-04
    56    2.126513532665e-15
    57    6.623720571831e-05
    58   -1.772334750474e-04
    59    4.305804129518e-05
    60    4.245477199147e-15
    61   -1.251164714476e-06
    62   -2.458320793509e-16
    63   -4.698613773918e-16
    64    1.036686879578e-05
    65    6.272040468530e-07
    66   -2.815110516868e-05
    67   -2.254228017616e-05
    68    1.601422896748e-05
    69    3.549293998578e-05
    70    1.028407407816e-15
    71   -9.436049015857e-06
    72    2.752098164029e-05
    73    5.426045037179e-05
    74   -3.032987278904e-15
    75   -5.694312468727e-05
    76    7.771876221524e-06
    77    4.694036321009e-05
    78    4.999416593399e-15
    79    2.477132304587e-04
    80    1.310960993355e-04
    81   -8.592622474509e-05
    82   -6.377720767170e-15
    83   -4.973558933749e-07
    84    5.695463288047e-16
    85    1.212598210774e-15
    86   -3.831289418303e-06
    87   -3.452789330902e-07
    88   -2.259701091186e-07
    89    7.773982745412e-05
    90   -3.531246400360e-05
    91   -2.934348710079e-05
    92   -4.857306387348e-16
    93   -2.889255099390e-04
    94   -3.261718533737e-04
    95   -2.195129044961e-04
    96    9.401203813961e-17
    97    1.995565459234e-04
    98   -3.543815345311e-04
    99   -3.762726269299e-04
   100   -3.628553057894e-16
   101    2.230016448647e-03
   102    5.413144752688e-04
   103   -3.862615507705e-04
   104   -3.523901700032e-15
   105    5.464774064953e-05
   106   -6.070406621133e-16
   107    1.335827315137e-16
   108   -1.026784722275e-04
   109   -1.881660006367e-04
   110   -5.515117506975e-01
   111   -4.716927187778e-01
   112    1.506224966561e-03
   113    9.414270164705e-04
   114    9.789542441415e-16
   115   -5.391430582986e-03
   116   -6.216158842700e-04
   117   -4.022808889331e-04
   118   -1.260257907059e-15
   119    1.171131149355e-03
   120    1.644607763758e-04
   121    1.173019707094e-04
   122    1.939218720786e-15
   123   -1.338430764044e-03
   124    3.804526838656e-05
   125    2.393498118924e-06
   126   -4.270102709679e-16
   127    9.210126719161e-05
   128   -4.796960775298e-16
   129    7.863701558158e-17
   130    4.093837479685e-05
   131    1.059956402574e-04
   132   -2.598026389733e-06
   133   -5.853194502406e-06
   134    1.436330674754e-05
   135   -4.112126445552e-06
   136   -6.207780842080e-16
   137    4.023489931117e-05
   138   -2.147557007079e-05
   139    9.605697217328e-06
   140    9.824597749982e-16
   141   -1.581548648849e-04
   142    8.790797611464e-05
   143    2.027627781629e-04
   144   -1.029171467708e-15
   145    4.390809151454e-04
   146    5.230363556865e-04
   147    4.594455551852e-05
   148    1.351749866994e-15
   149    8.947890761467e-06
   150   -1.095345109801e-15
   151   -4.042880205015e-16
   152   -1.856708241400e-05
   153    2.005062526131e-05
   154    1.153047596468e-05
   155    1.926949647151e-05
   156    7.675375964389e-06
   157   -9.670032393474e-06
   158    2.476313839010e-16
   159   -5.129513486291e-05
   160    1.676965977768e-05
   161   -1.367356744287e-05
   162   -4.196695957658e-16
   163   -3.997805101708e-04
   164   -9.491192662874e-05
   165   -2.345153780017e-05
   166   -1.154530892649e-15
   167   -6.966421037807e-04
   168    7.930138204954e-05
   169   -6.865222190587e-07
   170    1.325044854655e-15
   171   -3.976515019218e-06
   172   -1.016376295595e-16
   173   -5.450718209470e-17
   174   -3.848482660689e-06
   175   -2.513873274735e-06
   176   -4.124812876491e-06
   177   -4.692214802668e-06
   178    8.127394759522e-06
   179    1.905171643384e-05
   180   -1.356181322443e-15
   181    3.031569711974e-05
   182   -2.595511054182e-06
   183   -8.558236767679e-05
   184    3.428212403628e-15
   185   -5.057915367162e-04
   186    4.803867393491e-04
   187   -1.547727179097e-04
   188   -3.615044390586e-15
   189   -1.821126372279e-03
   190    4.560999163709e-05
   191   -1.083373167193e-03
   192    5.411725900724e-15
   193    8.983759114294e-06
   194   -5.296069004151e-16
   195   -3.966762083225e-16
   196    3.659489366525e-05
   197   -3.381975542463e-05
   198    3.186110859510e-06
   199   -1.246196617156e-04
   200   -1.660836603863e-04
   201   -4.687185860569e-04
   202    2.174015285497e-05
   203   -1.103336814098e-05
   204    8.173286534105e-16
Sym=X
Ene= 0.002322
Spin=Alpha
Occup=0
     1    2.195044147604e-03
     2    3.938067419747e-03
     3   -1.645766874258e-02
     4    2.193571960397e-02
     5    6.041903959930e-14
     6   -4.171587170882e-03
     7   -3.432418194655e-02
     8    3.977690114216e-02
     9    1.146038120048e-13
    10   -2.177052915149e-01
    11    3.863201933935e-02
    12   -6.229600372623e-02
    13    1.816892755432e-13
    14   -5.746151179694e+00
    15    1.546813782115e-01
    16   -1.501903365216e+00
    17    1.085235867644e-12
    18   -1.678689433515e-02
    19   -2.039546903379e-15
    20   -8.118952642532e-15
    21   -7.194218200355e-03
    22    2.954290882598e-03
    23   -9.578274136753e-03
    24    6.571151760183e-02
    25   -3.129603222905e-01
    26   -6.941599053997e-01
    27    9.753860585169e-03
    28    5.521072214460e-03
    29   -5.036308658302e-15
    30    8.988302366721e-03
    31    2.063329119737e-02
    32    1.208928743858e-01
    33    2.507471648991e-01
    34    2.104025616044e-03
    35   -6.847056871232e-03
    36    8.129041308753e-15
    37    1.922468954139e-02
    38    8.204512321453e-02
    39    1.858157023276e-01
    40    1.380672091676e+00
    41    7.078186332114e-04
    42    1.461979755027e-03
    43    7.721881380683e-15
    44   -2.688658187284e-03
    45   -5.038693942661e-03
    46   -4.486004769114e-03
    47   -6.761661498038e-03
    48    1.587718534024e-14
    49    2.462117886806e-02
    50   -4.262028334860e-03
    51   -4.751931742704e-03
    52   -1.500349249937e-14
    53   -1.493985488439e-01
    54   -1.842177260253e-01
    55   -1.052389552754e-01
    56    1.266415322743e-13
    57    2.299319251236e-01
    58   -2.511414505050e-01
    59   -7.891150314991e-01
    60   -4.429087972932e-14
    61   -1.029384659750e-02
    62   -4.028307558098e-15
    63    1.586807377972e-14
    64    3.740831261531e-02
    65    1.742192998998e-02
    66   -2.883043647563e-03
    67   -4.789391322169e-03
    68   -5.086703393253e-02
    69   -1.147769838939e-01
    70    1.883116811585e-14
    71    1.263801952991e-02
    72   -7.984829578862e-02
    73   -1.720766608059e-01
    74    4.159307682750e-15
    75   -1.576301426621e-02
    76   -6.862393564606e-02
    77   -1.712800351265e-01
    78    6.173456086161e-14
    79    6.943784758464e-02
    80   -1.431444541025e-02
    81    2.088955750957e-02
    82   -2.356094119246e-13
    83   -1.166858933617e-03
    84    9.786934312152e-15
    85    5.992182111990e-15
    86   -6.690303302507e-03
    87   -6.057992066126e-03
    88   -3.417732291162e-03
    89   -5.177143223585e-03
    90    1.884144792217e-02
    91   -1.906399042300e-02
    92   -4.617395719684e-14
    93    1.662253846955e-02
    94    3.642993207531e-02
    95   -2.743137313348e-02
    96   -6.666481176299e-14
    97   -1.310397843808e-01
    98   -9.385851993189e-02
    99   -2.261892117022e-01
   100   -1.786485498114e-13
   101   -7.715902394531e+00
   102    1.019273051136e+00
   103    1.208781779558e+00
   104   -5.414175944317e-14
   105   -1.274408966076e-02
   106    3.706180166356e-15
   107    1.745994751360e-14
   108    1.344764116776e-03
   109    1.630827804645e-02
   110   -4.167023423992e-03
   111   -7.217859361374e-03
   112   -6.181147254634e-02
   113   -3.373801028255e-02
   114    2.011505757920e-14
   115    2.351618703194e-02
   116   -7.354642791904e-02
   117   -4.182738464867e-02
   118    4.928855072889e-14
   119    5.323487058241e-02
   120   -9.656945862494e-02
   121   -3.967016982246e-02
   122   -1.142950584731e-14
   123    7.921184519714e-01
   124   -1.791442532905e-01
   125   -1.904679409572e-01
   126    3.261986836427e-13
   127   -4.161232329410e-03
   128    1.689050671847e-15
   129    4.272813749529e-15
   130   -1.344463206575e-04
   131    3.970062151507e-03
   132   -2.774969297524e-03
   133   -4.640155853861e-03
   134   -4.068261715902e-02
   135   -1.386137388986e-02
   136    7.693272261969e-15
   137    1.905393100219e-02
   138   -5.635425228690e-02
   139   -1.259422604578e-02
   140    7.467856505612e-15
   141    4.428649729432e-03
   142   -1.016167116150e-01
   143   -1.106519441727e-01
   144   -4.428178060558e-14
   145    2.060013397530e+00
   146   -2.824059298907e-02
   147   -6.165470000717e-01
   148    4.042639384174e-13
   149   -2.877388504642e-03
   150   -8.219170584893e-15
   151    3.586037497898e-15
   152   -5.859688393634e-03
   153   -1.465754579908e-03
   154    1.560831064829e-03
   155    2.107922032622e-03
   156    9.313257915674e-03
   157   -3.883630966252e-02
   158   -4.478164876607e-14
   159    6.751088345635e-03
   160    1.123765749161e-02
   161   -5.752669309810e-02
   162   -7.452772574677e-14
   163    1.888840782315e-02
   164    1.252439392892e-01
   165   -8.206272070753e-02
   166   -9.329500094375e-14
   167    1.190936039409e+00
   168   -2.712489260167e-01
   169   -5.443013670631e-01
   170   -4.318326421892e-13
   171   -8.080717574435e-03
   172    6.421155871829e-15
   173   -4.222182853064e-15
   174   -2.888274067253e-03
   175   -1.543032105244e-03
   176   -9.123149018679e-04
   177   -2.229024259988e-03
   178   -3.719488208701e-02
   179    3.406120368898e-02
   180   -2.838356871891e-14
   181    3.067399410282e-02
   182   -6.570403553948e-02
   183    6.761892034892e-02
   184   -7.743907807774e-14
   185   -1.923005730740e-01
   186   -2.521784143939e-01
   187   -1.748105065042e-03
   188   -5.935568949818e-14
   189    6.298298637839e+00
   190   -2.319673298362e+00
   191    1.655312774279e+00
   192   -8.187972242903e-13
   193   -1.611323459549e-02
   194   -8.558285098151e-15
   195   -8.909251000335e-15
   196   -4.051902136088e-04
   197   -1.222184174285e-02
   198    1.907911076915e-02
   199    9.286577703620e-02
   200    6.289884811483e-01
   201    2.573775421932e+00
   202   -1.003232720362e-03
   203   -6.119654126367e-03
   204   -1.832130885381e-15
[5D]
