[Molden Format]
[Atoms] (Angs)
  C      1    6     -0.13173890     -1.79208980      0.00000000
  H      2    1     -2.14962000     -1.30978739      0.00000000
  H      3    1     -0.31599560     -2.86503115      0.00000000
  H      4    1      0.14407746      2.04280963     -0.00000000
  C      5    6     -1.17258876      0.48030861      0.00000000
  O      6    8     -2.25008207      1.06833796      0.00000000
  C      7    6      1.31158357      0.28308717     -0.00000000
  O      8    8      2.36361668      0.96389345     -0.00000000
  N      9    7      0.07017030      1.03138997     -0.00000000
  N     10    7     -1.19586868     -0.94982644      0.00000000
  C     11    6      1.19165158     -1.13169473     -0.00000000
  H     12    1      2.09970506     -1.73445456     -0.00000000
[GTO]
1    0
S    6    1.000000
   4.56324000E+03    1.96665000E-03 
   6.82024000E+02    1.52306000E-02 
   1.54973000E+02    7.61269000E-02 
   4.44553000E+01    2.60801000E-01 
   1.30290000E+01    6.16462000E-01 
   1.82773000E+00    2.21006000E-01 
SP   3    1.000000
   2.09642000E+01    1.14660000E-01   4.02487000E-02 
   4.80331000E+00    9.19999000E-01   2.37594000E-01 
   1.45933000E+00   -3.03068000E-03   8.15854000E-01 
SP   1    1.000000
   4.83456000E-01    1.00000000E+00   1.00000000E+00 
SP   1    1.000000
   1.45585000E-01    1.00000000E+00   1.00000000E+00 
SP   1    1.000000
   4.38000000E-02    1.00000000E+00   1.00000000E+00 
D    1    1.000000
   6.26000000E-01    1.00000000E+00 

2    0
S    3    1.000000
   3.38650000E+01    2.54938000E-02 
   5.09479000E+00    1.90373000E-01 
   1.15879000E+00    8.52161000E-01 
S    1    1.000000
   3.25840000E-01    1.00000000E+00 
S    1    1.000000
   1.02741000E-01    1.00000000E+00 
S    1    1.000000
   3.60000000E-02    1.00000000E+00 
P    1    1.000000
   7.50000000E-01    1.00000000E+00 

3    0
S    3    1.000000
   3.38650000E+01    2.54938000E-02 
   5.09479000E+00    1.90373000E-01 
   1.15879000E+00    8.52161000E-01 
S    1    1.000000
   3.25840000E-01    1.00000000E+00 
S    1    1.000000
   1.02741000E-01    1.00000000E+00 
S    1    1.000000
   3.60000000E-02    1.00000000E+00 
P    1    1.000000
   7.50000000E-01    1.00000000E+00 

4    0
S    3    1.000000
   3.38650000E+01    2.54938000E-02 
   5.09479000E+00    1.90373000E-01 
   1.15879000E+00    8.52161000E-01 
S    1    1.000000
   3.25840000E-01    1.00000000E+00 
S    1    1.000000
   1.02741000E-01    1.00000000E+00 
S    1    1.000000
   3.60000000E-02    1.00000000E+00 
P    1    1.000000
   7.50000000E-01    1.00000000E+00 

5    0
S    6    1.000000
   4.56324000E+03    1.96665000E-03 
   6.82024000E+02    1.52306000E-02 
   1.54973000E+02    7.61269000E-02 
   4.44553000E+01    2.60801000E-01 
   1.30290000E+01    6.16462000E-01 
   1.82773000E+00    2.21006000E-01 
SP   3    1.000000
   2.09642000E+01    1.14660000E-01   4.02487000E-02 
   4.80331000E+00    9.19999000E-01   2.37594000E-01 
   1.45933000E+00   -3.03068000E-03   8.15854000E-01 
SP   1    1.000000
   4.83456000E-01    1.00000000E+00   1.00000000E+00 
SP   1    1.000000
   1.45585000E-01    1.00000000E+00   1.00000000E+00 
SP   1    1.000000
   4.38000000E-02    1.00000000E+00   1.00000000E+00 
D    1    1.000000
   6.26000000E-01    1.00000000E+00 

6    0
S    6    1.000000
   8.58850000E+03    1.89515000E-03 
   1.29723000E+03    1.43859000E-02 
   2.99296000E+02    7.07320000E-02 
   8.73771000E+01    2.40001000E-01 
   2.56789000E+01    5.94797000E-01 
   3.74004000E+00    2.80802000E-01 
SP   3    1.000000
   4.21175000E+01    1.13889000E-01   3.65114000E-02 
   9.62837000E+00    9.20811000E-01   2.37153000E-01 
   2.85332000E+00   -3.27447000E-03   8.19702000E-01 
SP   1    1.000000
   9.05661000E-01    1.00000000E+00   1.00000000E+00 
SP   1    1.000000
   2.55611000E-01    1.00000000E+00   1.00000000E+00 
SP   1    1.000000
   8.45000000E-02    1.00000000E+00   1.00000000E+00 
D    1    1.000000
   1.29200000E+00    1.00000000E+00 

7    0
S    6    1.000000
   4.56324000E+03    1.96665000E-03 
   6.82024000E+02    1.52306000E-02 
   1.54973000E+02    7.61269000E-02 
   4.44553000E+01    2.60801000E-01 
   1.30290000E+01    6.16462000E-01 
   1.82773000E+00    2.21006000E-01 
SP   3    1.000000
   2.09642000E+01    1.14660000E-01   4.02487000E-02 
   4.80331000E+00    9.19999000E-01   2.37594000E-01 
   1.45933000E+00   -3.03068000E-03   8.15854000E-01 
SP   1    1.000000
   4.83456000E-01    1.00000000E+00   1.00000000E+00 
SP   1    1.000000
   1.45585000E-01    1.00000000E+00   1.00000000E+00 
SP   1    1.000000
   4.38000000E-02    1.00000000E+00   1.00000000E+00 
D    1    1.000000
   6.26000000E-01    1.00000000E+00 

8    0
S    6    1.000000
   8.58850000E+03    1.89515000E-03 
   1.29723000E+03    1.43859000E-02 
   2.99296000E+02    7.07320000E-02 
   8.73771000E+01    2.40001000E-01 
   2.56789000E+01    5.94797000E-01 
   3.74004000E+00    2.80802000E-01 
SP   3    1.000000
   4.21175000E+01    1.13889000E-01   3.65114000E-02 
   9.62837000E+00    9.20811000E-01   2.37153000E-01 
   2.85332000E+00   -3.27447000E-03   8.19702000E-01 
SP   1    1.000000
   9.05661000E-01    1.00000000E+00   1.00000000E+00 
SP   1    1.000000
   2.55611000E-01    1.00000000E+00   1.00000000E+00 
SP   1    1.000000
   8.45000000E-02    1.00000000E+00   1.00000000E+00 
D    1    1.000000
   1.29200000E+00    1.00000000E+00 

9    0
S    6    1.000000
   6.29348000E+03    1.96979000E-03 
   9.49044000E+02    1.49613000E-02 
   2.18776000E+02    7.35006000E-02 
   6.36916000E+01    2.48937000E-01 
   1.88282000E+01    6.02460000E-01 
   2.72023000E+00    2.56202000E-01 
SP   3    1.000000
   3.06331000E+01    1.11906000E-01   3.83119000E-02 
   7.02614000E+00    9.21666000E-01   2.37403000E-01 
   2.11205000E+00   -2.56919000E-03   8.17592000E-01 
SP   1    1.000000
   6.84009000E-01    1.00000000E+00   1.00000000E+00 
SP   1    1.000000
   2.00878000E-01    1.00000000E+00   1.00000000E+00 
SP   1    1.000000
   6.39000000E-02    1.00000000E+00   1.00000000E+00 
D    1    1.000000
   9.13000000E-01    1.00000000E+00 

10    0
S    6    1.000000
   6.29348000E+03    1.96979000E-03 
   9.49044000E+02    1.49613000E-02 
   2.18776000E+02    7.35006000E-02 
   6.36916000E+01    2.48937000E-01 
   1.88282000E+01    6.02460000E-01 
   2.72023000E+00    2.56202000E-01 
SP   3    1.000000
   3.06331000E+01    1.11906000E-01   3.83119000E-02 
   7.02614000E+00    9.21666000E-01   2.37403000E-01 
   2.11205000E+00   -2.56919000E-03   8.17592000E-01 
SP   1    1.000000
   6.84009000E-01    1.00000000E+00   1.00000000E+00 
SP   1    1.000000
   2.00878000E-01    1.00000000E+00   1.00000000E+00 
SP   1    1.000000
   6.39000000E-02    1.00000000E+00   1.00000000E+00 
D    1    1.000000
   9.13000000E-01    1.00000000E+00 

11    0
S    6    1.000000
   4.56324000E+03    1.96665000E-03 
   6.82024000E+02    1.52306000E-02 
   1.54973000E+02    7.61269000E-02 
   4.44553000E+01    2.60801000E-01 
   1.30290000E+01    6.16462000E-01 
   1.82773000E+00    2.21006000E-01 
SP   3    1.000000
   2.09642000E+01    1.14660000E-01   4.02487000E-02 
   4.80331000E+00    9.19999000E-01   2.37594000E-01 
   1.45933000E+00   -3.03068000E-03   8.15854000E-01 
SP   1    1.000000
   4.83456000E-01    1.00000000E+00   1.00000000E+00 
SP   1    1.000000
   1.45585000E-01    1.00000000E+00   1.00000000E+00 
SP   1    1.000000
   4.38000000E-02    1.00000000E+00   1.00000000E+00 
D    1    1.000000
   6.26000000E-01    1.00000000E+00 

12    0
S    3    1.000000
   3.38650000E+01    2.54938000E-02 
   5.09479000E+00    1.90373000E-01 
   1.15879000E+00    8.52161000E-01 
S    1    1.000000
   3.25840000E-01    1.00000000E+00 
S    1    1.000000
   1.02741000E-01    1.00000000E+00 
S    1    1.000000
   3.60000000E-02    1.00000000E+00 
P    1    1.000000
   7.50000000E-01    1.00000000E+00 

[MO]
Sym=X
Ene= -0.003651
Spin=Alpha
Occup=1
     1   -7.042611791431e-06
     2   -1.417982799744e-05
     3    2.378614767530e-05
     4   -2.292723319405e-06
     5   -9.366697598573e-16
     6    5.738678855120e-05
     7    3.386017169005e-05
     8   -8.526068293297e-07
     9    2.052162584903e-15
    10   -2.804508169596e-04
    11    1.222449562288e-05
    12   -2.563148118854e-04
    13   -3.522892169022e-15
    14    6.669708189690e-04
    15    3.527505451969e-04
    16   -4.266647171136e-04
    17    6.191861869044e-15
    18    5.375924113252e-06
    19    1.380597107374e-15
    20   -3.733663665930e-16
    21   -6.716860402331e-06
    22   -2.048884632761e-06
    23   -2.295808352958e-06
    24    2.267045555882e-06
    25   -8.458850037207e-05
    26    4.183674093534e-05
    27   -1.808650553353e-06
    28    4.646654774146e-06
    29    2.612850800667e-16
    30   -7.513243938188e-06
    31   -3.558561814230e-05
    32   -2.176615527788e-04
    33   -3.269240058119e-04
    34    6.770692975091e-06
    35   -7.793912952746e-07
    36    1.194127637812e-16
    37   -6.847902108743e-06
    38    4.256302035866e-05
    39   -8.509532308102e-05
    40    1.002429541302e-05
    41   -9.354464643231e-06
    42   -1.274487228960e-05
    43   -1.384000198544e-17
    44    1.105378818407e-05
    45    2.169879464719e-05
    46   -1.189898076922e-05
    47    7.830471547624e-06
    48   -1.082063219733e-15
    49   -6.557853568960e-05
    50   -5.745455109010e-05
    51    1.016637895003e-05
    52    2.918937805150e-15
    53   -5.271970661406e-04
    54   -2.208185573930e-04
    55   -1.368916916594e-07
    56   -2.197948363592e-15
    57   -4.094132830497e-04
    58   -2.382453882178e-05
    59   -1.622574864617e-04
    60   -5.283805092419e-15
    61   -4.569421728798e-06
    62    2.626232937927e-16
    63    4.577618566757e-16
    64    1.672171788974e-06
    65    3.472399730667e-06
    66   -1.818841060489e-05
    67   -1.947071210851e-05
    68    1.238032852984e-05
    69   -1.161782557329e-06
    70   -1.057714518116e-15
    71    2.612669511723e-05
    72    1.761484653064e-05
    73   -1.079062005376e-06
    74    3.012173935499e-15
    75    7.747314861921e-05
    76    3.373807002118e-05
    77    2.622737436556e-06
    78   -5.159111125759e-15
    79   -2.597213619401e-04
    80   -1.473878411639e-04
    81    3.104104923279e-05
    82    7.098989643414e-15
    83    6.220251147462e-07
    84   -5.784452402403e-16
    85   -1.212949698263e-15
    86    2.369519841130e-06
    87   -1.606066943105e-06
    88    1.031453913910e-05
    89   -6.023346785180e-05
    90    7.721802732124e-05
    91    3.447725872322e-06
    92    4.835338250334e-16
    93    2.494882813258e-04
    94    4.030415673972e-04
    95    1.748612014838e-04
    96   -1.101737562759e-16
    97   -3.724354229504e-04
    98    5.461396157355e-04
    99    2.863995940676e-04
   100    3.802987312218e-16
   101   -1.484512073479e-03
   102   -5.766503347580e-04
   103    8.168179406159e-05
   104    5.147075788607e-15
   105   -6.275656515424e-05
   106    6.133379330343e-16
   107   -1.440741953274e-16
   108    1.021453998086e-04
   109    1.796849824727e-04
   110    5.515040633972e-01
   111    4.716792622486e-01
   112   -1.527506179128e-03
   113   -8.864696003053e-04
   114   -9.462214471986e-16
   115    5.442668660599e-03
   116    5.859864974036e-04
   117    4.860552260111e-04
   118    1.277950634436e-15
   119   -1.125175512645e-03
   120   -1.839573793437e-04
   121   -5.142080531957e-05
   122   -1.715114852980e-15
   123    1.173033448585e-03
   124    3.954707385414e-05
   125   -2.968500723944e-05
   126   -4.744588277377e-16
   127   -9.130139235148e-05
   128    4.771497542762e-16
   129   -8.111860179793e-17
   130   -4.143307615668e-05
   131   -1.032692180804e-04
   132   -2.034602827886e-05
   133   -3.395297157859e-05
   134   -5.618163429744e-06
   135   -6.656868754028e-06
   136    6.291349758867e-16
   137    8.009449568069e-05
   138    3.810653806045e-05
   139   -2.873234920831e-05
   140   -9.697309745714e-16
   141    6.342352118933e-04
   142   -9.629711276997e-05
   143   -2.925805730812e-04
   144    1.080759515415e-15
   145    3.586395780832e-04
   146   -5.302708589366e-04
   147   -5.349071249904e-05
   148   -1.627445473609e-15
   149   -3.901904089960e-06
   150    1.089019137692e-15
   151    3.992449288789e-16
   152    1.214623623653e-05
   153   -1.620829079831e-05
   154   -7.268412195351e-06
   155   -1.239299433446e-05
   156   -2.018261343342e-06
   157    1.449892305046e-05
   158   -2.454217301361e-16
   159    3.735163631405e-05
   160   -6.278024793620e-06
   161    2.846755096564e-05
   162    4.270586716171e-16
   163    2.775658930782e-04
   164    8.488463056687e-05
   165    1.826367156182e-05
   166    1.141119531860e-15
   167    2.739224080459e-04
   168   -5.672141063037e-05
   169   -4.186468671218e-06
   170   -8.570240593920e-16
   171    1.556985590347e-06
   172    9.777042976223e-17
   173    6.180929483539e-17
   174    6.518447654968e-07
   175   -5.181367896148e-06
   176   -3.103555745767e-07
   177   -3.471402710375e-06
   178    1.105319401903e-05
   179    8.847713928422e-08
   180    1.380998864409e-15
   181    1.217460014233e-05
   182    3.917623205039e-05
   183    1.331387631602e-04
   184   -3.382125009504e-15
   185    4.172937558902e-04
   186   -4.002174070344e-04
   187    1.619888185101e-04
   188    3.716558979611e-15
   189    2.860565378140e-04
   190    3.102394719094e-04
   191    8.354683225455e-04
   192   -6.203967852256e-15
   193   -1.013922299671e-05
   194    5.294504814552e-16
   195    3.962917446190e-16
   196   -3.965353691823e-05
   197    5.217753241027e-05
   198   -9.346652490904e-06
   199    1.114410766557e-04
   200    8.821048041487e-05
   201    2.705374491902e-04
   202   -2.437839125787e-05
   203    1.645751102474e-05
   204   -8.205928330092e-16
Sym=X
Ene= 0.003651
Spin=Alpha
Occup=0
     1    1.354304207417e-03
     2    3.015328418022e-03
     3    1.322679739854e-02
     4    4.443649622961e-03
     5    3.302948837544e-14
     6   -2.891578588134e-02
     7    2.748761308718e-02
     8    7.778807686382e-03
     9    3.365828438756e-14
    10    1.055396419314e-01
    11    6.728697818471e-02
    12    1.169402363297e-01
    13    1.682190131846e-13
    14   -7.450155379813e-01
    15    1.913297548150e-01
    16    1.428790552179e-01
    17    4.188850612893e-13
    18    7.330026421023e-03
    19   -4.785479810808e-15
    20   -1.496844777367e-15
    21   -2.200596441115e-03
    22    9.683063263989e-04
    23    4.532597672155e-03
    24    7.875806127954e-04
    25    5.658192227937e-03
    26    1.321177680662e-01
    27   -5.464236369550e-03
    28   -3.669774459156e-03
    29   -5.161898670572e-15
    30   -3.700209435696e-04
    31    2.937909343362e-03
    32    4.725551177669e-02
    33    3.291308626863e-01
    34   -5.405209131895e-05
    35   -1.728714351734e-03
    36    3.829171800326e-15
    37    3.783951004290e-03
    38   -3.772957278144e-05
    39    2.865261365507e-01
    40    7.163127904054e-01
    41    1.594347111080e-03
    42    9.295731375220e-03
    43    7.435928752656e-15
    44    6.042973651093e-04
    45    1.463198934847e-03
    46   -8.202876527955e-03
    47   -1.399361926530e-02
    48   -8.754544366090e-15
    49   -2.065686203936e-02
    50   -1.234687840912e-02
    51   -1.992744568120e-02
    52   -4.264430238729e-14
    53    1.498333413049e-01
    54    5.051260375787e-02
    55   -1.996765744818e-02
    56    6.680293119839e-14
    57    8.951244223941e-01
    58    3.133973654834e-01
    59   -2.030333777946e-01
    60    3.690505464905e-13
    61    9.483457172414e-03
    62   -1.145935937630e-14
    63    1.480007685656e-14
    64   -1.659015943810e-02
    65   -1.999654679359e-02
    66    2.769002063126e-03
    67    4.882600890967e-03
    68    2.790357141936e-02
    69    4.661468961409e-02
    70    1.620543341440e-14
    71   -1.727424558803e-02
    72    3.971984897919e-02
    73    6.935692390837e-02
    74    2.758670882529e-14
    75   -2.271457149275e-02
    76    4.152587663990e-02
    77    7.851577576324e-02
    78    2.417643957627e-14
    79   -5.860474670455e-02
    80   -2.938457838642e-02
    81   -7.414971211254e-03
    82   -7.982514479537e-14
    83    9.709231788886e-04
    84    7.929085898518e-16
    85   -1.636551904929e-16
    86    1.847664102535e-03
    87    2.113253742218e-03
    88   -2.327645448163e-03
    89   -4.649815268745e-03
    90    3.857046145047e-03
    91    3.825566333755e-02
    92   -5.913764990308e-16
    93    2.361166483857e-02
    94    7.297885857384e-03
    95    5.353002174254e-02
    96   -2.104936829229e-14
    97    5.646151661089e-03
    98    8.897202289671e-02
    99    1.533275184250e-01
   100    3.433692880971e-14
   101   -1.833171782866e+00
   102    1.038244390830e+00
   103    9.165299898026e-01
   104   -3.637745957767e-14
   105    8.115549006916e-03
   106    8.742772254286e-16
   107    1.018020036812e-14
   108    2.894400649552e-02
   109   -1.811413293533e-02
   110    2.494792735737e-02
   111    4.352352026386e-02
   112    5.920248532481e-02
   113   -1.647432444544e-01
   114    9.692315114743e-15
   115   -1.429649384883e-01
   116    7.162463903386e-02
   117   -2.071138004366e-01
   118    2.594405968624e-14
   119   -1.506287023708e-01
   120    1.143720828480e-01
   121   -1.539380703407e-01
   122   -1.938443699645e-14
   123   -6.420298569746e-01
   124   -4.318163879022e-02
   125   -4.649977473699e-02
   126    1.016413884593e-13
   127    3.967487110726e-04
   128    6.807907312148e-16
   129    4.216739010260e-16
   130   -6.207665873701e-03
   131    3.457751573080e-03
   132    1.002690732511e-02
   133    1.758973254569e-02
   134    4.743187757207e-02
   135   -1.649766013312e-02
   136    1.175652995403e-14
   137   -5.457430947089e-02
   138    6.524330126990e-02
   139   -2.548038411203e-02
   140    1.308282863584e-14
   141   -1.939373616373e-01
   142    9.977534797638e-02
   143   -3.406353457917e-02
   144    3.951364557656e-14
   145   -5.373164364772e-01
   146   -1.917303696873e-01
   147   -4.296462208167e-01
   148   -1.789750010294e-13
   149    2.638839038670e-03
   150    4.169799649135e-15
   151    2.169621915871e-15
   152    6.629576155181e-04
   153    9.426427517019e-04
   154    2.731084258424e-03
   155    5.453225608645e-03
   156    5.981167080551e-03
   157    1.751213549383e-02
   158    7.843519050024e-17
   159   -2.883421977838e-02
   160    1.156990826084e-02
   161    2.217470141727e-02
   162   -1.223195555434e-14
   163   -8.346378715184e-02
   164   -3.512060641438e-02
   165    5.860695854711e-03
   166    2.763818941445e-14
   167   -8.241851527672e-01
   168   -1.830668209477e-01
   169   -2.863303803245e-01
   170   -5.416793099362e-13
   171    2.602805863935e-03
   172    3.771043588949e-15
   173   -6.357707603181e-15
   174    3.335159272385e-03
   175    4.297026676383e-03
   176    2.518316215873e-02
   177    4.188703293233e-02
   178   -9.942571766532e-03
   179   -2.599337857005e-02
   180   -2.107864130768e-14
   181   -1.002663299615e-01
   182   -1.862282735356e-03
   183   -1.463782918246e-02
   184   -4.301776566166e-14
   185   -3.247289563241e-01
   186    4.232922367032e-02
   187    9.982456267923e-03
   188   -9.661639686124e-14
   189    1.401403991758e+00
   190   -1.179142680402e+00
   191    8.593172199464e-01
   192   -1.817061893798e-13
   193    9.031234313412e-03
   194   -4.909461769005e-15
   195   -4.356138333671e-15
   196   -2.574490120842e-03
   197    1.892264390744e-03
   198   -9.591632399552e-03
   199   -2.242508846941e-02
   200    1.400268011986e-01
   201    1.491479232207e+00
   202    2.426934763950e-03
   203   -1.615000796422e-03
   204    1.965269963314e-15
[5D]
