[Molden Format]
[Atoms] (Angs)
  C      1    6     -0.13173890     -1.79208980      0.00000000
  H      2    1     -2.14962000     -1.30978739      0.00000000
  H      3    1     -0.31599560     -2.86503115      0.00000000
  H      4    1      0.14407746      2.04280963     -0.00000000
  C      5    6     -1.17258876      0.48030861      0.00000000
  O      6    8     -2.25008207      1.06833796      0.00000000
  C      7    6      1.31158357      0.28308717     -0.00000000
  O      8    8      2.36361668      0.96389345     -0.00000000
  N      9    7      0.07017030      1.03138997     -0.00000000
  N     10    7     -1.19586868     -0.94982644      0.00000000
  C     11    6      1.19165158     -1.13169473     -0.00000000
  H     12    1      2.09970506     -1.73445456     -0.00000000
[GTO]
1    0
S    6    1.000000
   4.56324000E+03    1.96665000E-03 
   6.82024000E+02    1.52306000E-02 
   1.54973000E+02    7.61269000E-02 
   4.44553000E+01    2.60801000E-01 
   1.30290000E+01    6.16462000E-01 
   1.82773000E+00    2.21006000E-01 
SP   3    1.000000
   2.09642000E+01    1.14660000E-01   4.02487000E-02 
   4.80331000E+00    9.19999000E-01   2.37594000E-01 
   1.45933000E+00   -3.03068000E-03   8.15854000E-01 
SP   1    1.000000
   4.83456000E-01    1.00000000E+00   1.00000000E+00 
SP   1    1.000000
   1.45585000E-01    1.00000000E+00   1.00000000E+00 
SP   1    1.000000
   4.38000000E-02    1.00000000E+00   1.00000000E+00 
D    1    1.000000
   6.26000000E-01    1.00000000E+00 

2    0
S    3    1.000000
   3.38650000E+01    2.54938000E-02 
   5.09479000E+00    1.90373000E-01 
   1.15879000E+00    8.52161000E-01 
S    1    1.000000
   3.25840000E-01    1.00000000E+00 
S    1    1.000000
   1.02741000E-01    1.00000000E+00 
S    1    1.000000
   3.60000000E-02    1.00000000E+00 
P    1    1.000000
   7.50000000E-01    1.00000000E+00 

3    0
S    3    1.000000
   3.38650000E+01    2.54938000E-02 
   5.09479000E+00    1.90373000E-01 
   1.15879000E+00    8.52161000E-01 
S    1    1.000000
   3.25840000E-01    1.00000000E+00 
S    1    1.000000
   1.02741000E-01    1.00000000E+00 
S    1    1.000000
   3.60000000E-02    1.00000000E+00 
P    1    1.000000
   7.50000000E-01    1.00000000E+00 

4    0
S    3    1.000000
   3.38650000E+01    2.54938000E-02 
   5.09479000E+00    1.90373000E-01 
   1.15879000E+00    8.52161000E-01 
S    1    1.000000
   3.25840000E-01    1.00000000E+00 
S    1    1.000000
   1.02741000E-01    1.00000000E+00 
S    1    1.000000
   3.60000000E-02    1.00000000E+00 
P    1    1.000000
   7.50000000E-01    1.00000000E+00 

5    0
S    6    1.000000
   4.56324000E+03    1.96665000E-03 
   6.82024000E+02    1.52306000E-02 
   1.54973000E+02    7.61269000E-02 
   4.44553000E+01    2.60801000E-01 
   1.30290000E+01    6.16462000E-01 
   1.82773000E+00    2.21006000E-01 
SP   3    1.000000
   2.09642000E+01    1.14660000E-01   4.02487000E-02 
   4.80331000E+00    9.19999000E-01   2.37594000E-01 
   1.45933000E+00   -3.03068000E-03   8.15854000E-01 
SP   1    1.000000
   4.83456000E-01    1.00000000E+00   1.00000000E+00 
SP   1    1.000000
   1.45585000E-01    1.00000000E+00   1.00000000E+00 
SP   1    1.000000
   4.38000000E-02    1.00000000E+00   1.00000000E+00 
D    1    1.000000
   6.26000000E-01    1.00000000E+00 

6    0
S    6    1.000000
   8.58850000E+03    1.89515000E-03 
   1.29723000E+03    1.43859000E-02 
   2.99296000E+02    7.07320000E-02 
   8.73771000E+01    2.40001000E-01 
   2.56789000E+01    5.94797000E-01 
   3.74004000E+00    2.80802000E-01 
SP   3    1.000000
   4.21175000E+01    1.13889000E-01   3.65114000E-02 
   9.62837000E+00    9.20811000E-01   2.37153000E-01 
   2.85332000E+00   -3.27447000E-03   8.19702000E-01 
SP   1    1.000000
   9.05661000E-01    1.00000000E+00   1.00000000E+00 
SP   1    1.000000
   2.55611000E-01    1.00000000E+00   1.00000000E+00 
SP   1    1.000000
   8.45000000E-02    1.00000000E+00   1.00000000E+00 
D    1    1.000000
   1.29200000E+00    1.00000000E+00 

7    0
S    6    1.000000
   4.56324000E+03    1.96665000E-03 
   6.82024000E+02    1.52306000E-02 
   1.54973000E+02    7.61269000E-02 
   4.44553000E+01    2.60801000E-01 
   1.30290000E+01    6.16462000E-01 
   1.82773000E+00    2.21006000E-01 
SP   3    1.000000
   2.09642000E+01    1.14660000E-01   4.02487000E-02 
   4.80331000E+00    9.19999000E-01   2.37594000E-01 
   1.45933000E+00   -3.03068000E-03   8.15854000E-01 
SP   1    1.000000
   4.83456000E-01    1.00000000E+00   1.00000000E+00 
SP   1    1.000000
   1.45585000E-01    1.00000000E+00   1.00000000E+00 
SP   1    1.000000
   4.38000000E-02    1.00000000E+00   1.00000000E+00 
D    1    1.000000
   6.26000000E-01    1.00000000E+00 

8    0
S    6    1.000000
   8.58850000E+03    1.89515000E-03 
   1.29723000E+03    1.43859000E-02 
   2.99296000E+02    7.07320000E-02 
   8.73771000E+01    2.40001000E-01 
   2.56789000E+01    5.94797000E-01 
   3.74004000E+00    2.80802000E-01 
SP   3    1.000000
   4.21175000E+01    1.13889000E-01   3.65114000E-02 
   9.62837000E+00    9.20811000E-01   2.37153000E-01 
   2.85332000E+00   -3.27447000E-03   8.19702000E-01 
SP   1    1.000000
   9.05661000E-01    1.00000000E+00   1.00000000E+00 
SP   1    1.000000
   2.55611000E-01    1.00000000E+00   1.00000000E+00 
SP   1    1.000000
   8.45000000E-02    1.00000000E+00   1.00000000E+00 
D    1    1.000000
   1.29200000E+00    1.00000000E+00 

9    0
S    6    1.000000
   6.29348000E+03    1.96979000E-03 
   9.49044000E+02    1.49613000E-02 
   2.18776000E+02    7.35006000E-02 
   6.36916000E+01    2.48937000E-01 
   1.88282000E+01    6.02460000E-01 
   2.72023000E+00    2.56202000E-01 
SP   3    1.000000
   3.06331000E+01    1.11906000E-01   3.83119000E-02 
   7.02614000E+00    9.21666000E-01   2.37403000E-01 
   2.11205000E+00   -2.56919000E-03   8.17592000E-01 
SP   1    1.000000
   6.84009000E-01    1.00000000E+00   1.00000000E+00 
SP   1    1.000000
   2.00878000E-01    1.00000000E+00   1.00000000E+00 
SP   1    1.000000
   6.39000000E-02    1.00000000E+00   1.00000000E+00 
D    1    1.000000
   9.13000000E-01    1.00000000E+00 

10    0
S    6    1.000000
   6.29348000E+03    1.96979000E-03 
   9.49044000E+02    1.49613000E-02 
   2.18776000E+02    7.35006000E-02 
   6.36916000E+01    2.48937000E-01 
   1.88282000E+01    6.02460000E-01 
   2.72023000E+00    2.56202000E-01 
SP   3    1.000000
   3.06331000E+01    1.11906000E-01   3.83119000E-02 
   7.02614000E+00    9.21666000E-01   2.37403000E-01 
   2.11205000E+00   -2.56919000E-03   8.17592000E-01 
SP   1    1.000000
   6.84009000E-01    1.00000000E+00   1.00000000E+00 
SP   1    1.000000
   2.00878000E-01    1.00000000E+00   1.00000000E+00 
SP   1    1.000000
   6.39000000E-02    1.00000000E+00   1.00000000E+00 
D    1    1.000000
   9.13000000E-01    1.00000000E+00 

11    0
S    6    1.000000
   4.56324000E+03    1.96665000E-03 
   6.82024000E+02    1.52306000E-02 
   1.54973000E+02    7.61269000E-02 
   4.44553000E+01    2.60801000E-01 
   1.30290000E+01    6.16462000E-01 
   1.82773000E+00    2.21006000E-01 
SP   3    1.000000
   2.09642000E+01    1.14660000E-01   4.02487000E-02 
   4.80331000E+00    9.19999000E-01   2.37594000E-01 
   1.45933000E+00   -3.03068000E-03   8.15854000E-01 
SP   1    1.000000
   4.83456000E-01    1.00000000E+00   1.00000000E+00 
SP   1    1.000000
   1.45585000E-01    1.00000000E+00   1.00000000E+00 
SP   1    1.000000
   4.38000000E-02    1.00000000E+00   1.00000000E+00 
D    1    1.000000
   6.26000000E-01    1.00000000E+00 

12    0
S    3    1.000000
   3.38650000E+01    2.54938000E-02 
   5.09479000E+00    1.90373000E-01 
   1.15879000E+00    8.52161000E-01 
S    1    1.000000
   3.25840000E-01    1.00000000E+00 
S    1    1.000000
   1.02741000E-01    1.00000000E+00 
S    1    1.000000
   3.60000000E-02    1.00000000E+00 
P    1    1.000000
   7.50000000E-01    1.00000000E+00 

[MO]
Sym=X
Ene= -0.241891
Spin=Alpha
Occup=1
     1    3.076314110542e-08
     2   -1.611894363095e-06
     3    1.728954267451e-06
     4   -2.700023629839e-07
     5   -9.338552426389e-16
     6    1.663050661502e-05
     7   -4.366895645065e-06
     8   -3.649536750193e-07
     9    2.031691473915e-15
    10   -4.426952669851e-04
    11   -1.083124349352e-04
    12   -2.694472396040e-04
    13   -3.445582850336e-15
    14   -2.889814126396e-05
    15    1.955701486296e-04
    16   -5.775920766574e-04
    17    6.161889305632e-15
    18    2.746221888552e-06
    19    1.397637300101e-15
    20   -3.760340372216e-16
    21   -5.481353252729e-06
    22    4.967622955736e-06
    23    7.010313629030e-08
    24    9.677663708553e-06
    25   -3.697183902103e-05
    26    7.335140605363e-05
    27   -2.784685883928e-06
    28    2.029062127440e-06
    29    2.576407656899e-16
    30   -3.728397419663e-07
    31   -1.764223493468e-05
    32   -1.532249980729e-04
    33   -3.077375164716e-04
    34    4.006733621175e-06
    35   -2.950959096346e-06
    36    1.171690866990e-16
    37    2.915834864946e-06
    38    5.892351322075e-05
    39    8.108758125852e-05
    40    9.037548681094e-05
    41   -8.564366898242e-06
    42   -7.098646503764e-06
    43   -5.812798195504e-18
    44   -5.738674927214e-07
    45    1.223073050396e-06
    46    5.309598534018e-06
    47   -8.608340600381e-08
    48   -1.057869065261e-15
    49   -9.858828355511e-06
    50   -2.171977273659e-05
    51   -4.968693973087e-07
    52    2.965005487388e-15
    53   -2.522266637556e-04
    54   -1.220167309361e-04
    55    1.273605558985e-06
    56   -2.150596733528e-15
    57   -2.057168858051e-04
    58    2.459418436288e-05
    59   -1.671940040340e-04
    60   -4.272772292669e-15
    61    3.622310386205e-06
    62    2.926221819180e-16
    63    4.494992461245e-16
    64   -3.022926189999e-06
    65    2.003401001922e-06
    66   -1.794443099685e-05
    67   -1.446523828146e-05
    68    1.904517160446e-07
    69   -2.643777386725e-07
    70   -1.036785368954e-15
    71   -7.955055779217e-06
    72   -3.243230384838e-06
    73    7.501439763836e-07
    74    3.014358775706e-15
    75    2.780507904429e-05
    76    1.645318322960e-05
    77   -8.411565552145e-07
    78   -4.954924165503e-15
    79   -2.184869032825e-04
    80   -1.277068411484e-04
    81    4.167829894262e-05
    82    6.314431888742e-15
    83    2.218561187738e-07
    84   -5.747220687698e-16
    85   -1.209939400341e-15
    86    6.233531100428e-07
    87   -8.642996921199e-08
    88    3.692722211754e-06
    89   -7.188648459464e-05
    90    4.228281758301e-05
    91    3.202038914578e-05
    92    4.990231251994e-16
    93    2.747731149094e-04
    94    3.409234967854e-04
    95    2.235814784437e-04
    96   -8.770176068841e-17
    97   -2.712976659517e-04
    98    4.030680082591e-04
    99    4.045213586954e-04
   100    3.825549978727e-16
   101   -2.198819486736e-03
   102   -6.412576842764e-04
   103    4.343068834852e-04
   104    3.781163570214e-15
   105   -5.590005654674e-05
   106    6.549207358988e-16
   107   -1.382566702254e-16
   108    1.005946753683e-04
   109    1.864515178600e-04
   110    5.515109959676e-01
   111    4.716913431991e-01
   112   -1.500813209125e-03
   113   -9.402519025529e-04
   114   -9.844687686230e-16
   115    5.396932714690e-03
   116    6.300933148009e-04
   117    4.036197380527e-04
   118    1.264547725781e-15
   119   -1.171898729368e-03
   120   -1.588616274031e-04
   121   -1.140298995603e-04
   122   -2.029319540829e-15
   123    1.304833276056e-03
   124   -2.440298911585e-05
   125    5.655240349311e-06
   126    4.606203620572e-16
   127   -9.219161367751e-05
   128    4.773651850211e-16
   129   -8.292359545470e-17
   130   -4.073469494735e-05
   131   -1.056145123197e-04
   132    4.533133349271e-07
   133    2.285957520870e-06
   134   -1.153303139715e-05
   135    3.769681957648e-06
   136    6.074605814874e-16
   137   -3.223068747833e-05
   138    2.660484391877e-05
   139   -8.602023307027e-06
   140   -1.012135044065e-15
   141    2.439658906725e-04
   142   -9.475893257029e-05
   143   -2.201249045937e-04
   144    1.035116820422e-15
   145   -2.151539917951e-04
   146   -5.358549733754e-04
   147   -5.485357228630e-05
   148   -1.426574709321e-15
   149   -8.033990056782e-06
   150    1.079515224870e-15
   151    4.010368028169e-16
   152    1.589209593949e-05
   153   -1.710325314190e-05
   154   -6.998927280043e-09
   155    5.737175115880e-07
   156    2.825133909769e-07
   157    3.224979499454e-07
   158   -2.440644901942e-16
   159   -9.719637873712e-06
   160   -9.772421240224e-07
   161   -1.837390063450e-06
   162    4.216986253747e-16
   163    1.504983463963e-04
   164    7.891776055226e-05
   165    5.319276814282e-06
   166    1.197645660023e-15
   167    2.224581802784e-04
   168   -4.649642070320e-05
   169    2.256713937157e-05
   170   -1.262526771250e-15
   171    3.746696158253e-07
   172    1.007929563041e-16
   173    6.800071811244e-17
   174   -4.541656317543e-07
   175   -1.652589962360e-06
   176    1.481963881752e-06
   177    1.561181888268e-07
   178   -4.452678524917e-06
   179   -1.731555121238e-05
   180    1.376201519443e-15
   181   -1.781600471910e-05
   182    1.064296499186e-05
   183    8.922350764222e-05
   184   -3.424535688070e-15
   185    6.082245074716e-04
   186   -4.820550080964e-04
   187    1.646293163511e-04
   188    3.735117468009e-15
   189    1.786565404191e-03
   190    1.067860436082e-04
   191    1.052972081090e-03
   192   -5.758850368208e-15
   193   -7.401169649562e-06
   194    5.328938194722e-16
   195    3.888016086470e-16
   196   -3.335601293004e-05
   197    3.337918963809e-05
   198   -2.422313681836e-06
   199    1.218742167258e-04
   200    1.396244247917e-04
   201    3.249828356748e-04
   202   -2.194481095853e-05
   203    1.156075356149e-05
   204   -8.207892200747e-16
Sym=X
Ene= 0.241891
Spin=Alpha
Occup=0
     1    2.221374020193e-17
     2   -5.158141619104e-16
     3   -3.890154278091e-15
     4   -4.364794621773e-16
     5   -1.048139125787e-01
     6   -6.859096828392e-16
     7    1.396291447355e-14
     8   -1.223826077846e-14
     9   -1.795699011266e-01
    10   -4.246192821501e-14
    11   -1.372053271331e-13
    12   -4.306677044125e-14
    13   -2.183411669798e-01
    14    6.727583369221e-13
    15    5.410505484019e-13
    16   -1.329600711991e-13
    17   -4.457983611122e-02
    18    2.057881197694e-15
    19   -3.400162209995e-02
    20    2.420256299193e-03
    21    7.688543507083e-15
    22    4.589628043062e-15
    23   -8.644332470154e-15
    24    6.264000822555e-14
    25   -5.321529297191e-13
    26   -1.065024517844e-13
    27    1.433178314023e-14
    28    1.867255011307e-15
    29    1.442656522573e-02
    30   -2.221534578341e-15
    31    1.087173072204e-15
    32   -1.263009155383e-13
    33   -4.536772613489e-14
    34    2.547160089679e-15
    35    3.938915102745e-15
    36   -8.509999910180e-03
    37    4.081883587321e-15
    38   -6.113575459877e-14
    39    5.255451705168e-14
    40   -1.619905108199e-13
    41    4.812909827456e-15
    42    2.393337959185e-15
    43    2.137670625258e-04
    44   -1.920313657745e-15
    45   -6.953870223029e-16
    46   -9.300027223340e-16
    47    3.664073977081e-15
    48    1.209981171366e-02
    49    2.222159469022e-15
    50    6.674426472092e-16
    51   -8.110174980887e-15
    52    2.527339261593e-02
    53    1.013662506768e-13
    54    3.225831925237e-14
    55   -8.841562728529e-15
    56   -1.532465534858e-02
    57   -4.588084571358e-15
    58    1.922003914669e-13
    59    4.281653331612e-13
    60   -2.937870719329e-02
    61   -3.518042819783e-15
    62    1.501418063238e-02
    63   -2.902647034847e-02
    64   -1.289784259298e-15
    65    1.035510599798e-14
    66   -3.809973248581e-16
    67   -2.421546413776e-16
    68   -8.073104897961e-15
    69   -3.506188888233e-15
    70   -7.883042532564e-02
    71   -1.420179963679e-15
    72   -1.284006279184e-14
    73   -4.436243983201e-16
    74   -1.196544376474e-01
    75    2.769939101923e-14
    76    2.568816722076e-14
    77    1.408579616276e-14
    78   -1.211606387635e-01
    79   -8.924139713168e-14
    80   -1.737399511850e-14
    81    2.526958573025e-14
    82   -2.529560271760e-02
    83    2.772547596515e-15
    84   -4.104761754941e-03
    85    1.238499323663e-03
    86   -1.605413144705e-16
    87   -2.780376132449e-15
    88   -1.185009141710e-15
    89   -3.633426028932e-15
    90   -2.807473020483e-15
    91   -1.572753032910e-15
    92   -2.066562906473e-03
    93    1.218849911102e-14
    94   -5.589685375743e-15
    95    1.027366158494e-14
    96   -1.000318219378e-02
    97    6.536442596939e-15
    98   -7.180747312078e-14
    99   -1.415230508020e-13
   100    2.879608756124e-02
   101   -2.834346610563e-12
   102    2.532594966857e-13
   103    6.319486381278e-13
   104    5.681353217217e-02
   105    2.288216010200e-15
   106    1.585499271516e-02
   107    3.871941313967e-02
   108   -9.360942407057e-17
   109   -1.394784737204e-15
   110    1.148166125456e-15
   111    4.000628254017e-16
   112   -1.109128616607e-16
   113    3.266919932489e-15
   114    1.415269706210e-01
   115    2.121319341985e-15
   116    5.576976233962e-15
   117    5.194023839655e-15
   118    1.789694531826e-01
   119   -1.804705408376e-14
   120   -2.151888012886e-14
   121   -1.726440154614e-15
   122    1.433869671613e-01
   123    2.061142863617e-13
   124   -2.378461723975e-14
   125   -1.326631658557e-13
   126    2.498045908509e-02
   127   -2.831792845281e-15
   128   -5.956260476889e-03
   129   -2.704593151809e-03
   130    6.019997382853e-16
   131   -3.847185770536e-15
   132    4.779140754392e-16
   133    1.759183662804e-15
   134   -2.120373998891e-15
   135   -8.345462706046e-16
   136    1.075057740986e-02
   137   -3.765540451814e-16
   138   -1.380971951495e-14
   139   -5.201336651508e-15
   140    1.596860983649e-02
   141   -1.879981358223e-14
   142   -4.346049014207e-15
   143    1.027412433053e-13
   144    2.037112177625e-02
   145   -2.010547115503e-15
   146    2.951347869643e-13
   147   -1.403733614035e-13
   148   -1.156846465182e-02
   149    1.531781058992e-15
   150    7.562073920623e-04
   151   -5.568395931374e-04
   152   -9.998312997810e-16
   153   -3.823226836188e-15
   154   -1.060604199758e-15
   155   -2.193839164197e-15
   156   -9.334746889111e-15
   157    2.306551609828e-15
   158    1.448325173488e-01
   159    7.052749266122e-15
   160   -1.015099786603e-14
   161   -4.890061038730e-15
   162    2.263091790443e-01
   163   -2.489441914813e-14
   164    4.601149250958e-14
   165    4.629590883654e-15
   166    2.962174604198e-01
   167    6.856273376261e-13
   168   -7.584620419692e-13
   169   -7.991736506385e-15
   170    1.173382135127e-01
   171    5.371009418072e-15
   172   -7.190825725608e-03
   173    8.428579632481e-03
   174   -4.257082417875e-15
   175   -6.312885067609e-15
   176    2.742196143136e-16
   177    2.980042451218e-15
   178   -9.453988498765e-15
   179   -2.983028833710e-15
   180   -1.457249770294e-01
   181    9.225631964051e-16
   182   -6.561619704723e-15
   183    3.335687789058e-15
   184   -2.359670737289e-01
   185   -1.048679024566e-13
   186   -1.678073623980e-13
   187   -8.663775297691e-14
   188   -2.628270873759e-01
   189    1.222613785832e-12
   190   -5.881804096199e-13
   191    1.211423194076e-12
   192   -6.588184169197e-02
   193   -1.056125054873e-15
   194    1.002750885835e-02
   195   -8.088869843485e-05
   196   -1.031758107513e-15
   197   -4.033427357940e-15
   198   -1.084408274008e-15
   199    2.119837083859e-14
   200    2.439759074933e-13
   201    8.440776730413e-13
   202    1.999487798110e-15
   203    1.190834992146e-15
   204   -1.228021982273e-02
[5D]
