[Molden Format]
[Atoms] (Angs)
  C      1    6     -0.13173890     -1.79208980      0.00000000
  H      2    1     -2.14962000     -1.30978739      0.00000000
  H      3    1     -0.31599560     -2.86503115      0.00000000
  H      4    1      0.14407746      2.04280963     -0.00000000
  C      5    6     -1.17258876      0.48030861      0.00000000
  O      6    8     -2.25008207      1.06833796      0.00000000
  C      7    6      1.31158357      0.28308717     -0.00000000
  O      8    8      2.36361668      0.96389345     -0.00000000
  N      9    7      0.07017030      1.03138997     -0.00000000
  N     10    7     -1.19586868     -0.94982644      0.00000000
  C     11    6      1.19165158     -1.13169473     -0.00000000
  H     12    1      2.09970506     -1.73445456     -0.00000000
[GTO]
1    0
S    6    1.000000
   4.56324000E+03    1.96665000E-03 
   6.82024000E+02    1.52306000E-02 
   1.54973000E+02    7.61269000E-02 
   4.44553000E+01    2.60801000E-01 
   1.30290000E+01    6.16462000E-01 
   1.82773000E+00    2.21006000E-01 
SP   3    1.000000
   2.09642000E+01    1.14660000E-01   4.02487000E-02 
   4.80331000E+00    9.19999000E-01   2.37594000E-01 
   1.45933000E+00   -3.03068000E-03   8.15854000E-01 
SP   1    1.000000
   4.83456000E-01    1.00000000E+00   1.00000000E+00 
SP   1    1.000000
   1.45585000E-01    1.00000000E+00   1.00000000E+00 
SP   1    1.000000
   4.38000000E-02    1.00000000E+00   1.00000000E+00 
D    1    1.000000
   6.26000000E-01    1.00000000E+00 

2    0
S    3    1.000000
   3.38650000E+01    2.54938000E-02 
   5.09479000E+00    1.90373000E-01 
   1.15879000E+00    8.52161000E-01 
S    1    1.000000
   3.25840000E-01    1.00000000E+00 
S    1    1.000000
   1.02741000E-01    1.00000000E+00 
S    1    1.000000
   3.60000000E-02    1.00000000E+00 
P    1    1.000000
   7.50000000E-01    1.00000000E+00 

3    0
S    3    1.000000
   3.38650000E+01    2.54938000E-02 
   5.09479000E+00    1.90373000E-01 
   1.15879000E+00    8.52161000E-01 
S    1    1.000000
   3.25840000E-01    1.00000000E+00 
S    1    1.000000
   1.02741000E-01    1.00000000E+00 
S    1    1.000000
   3.60000000E-02    1.00000000E+00 
P    1    1.000000
   7.50000000E-01    1.00000000E+00 

4    0
S    3    1.000000
   3.38650000E+01    2.54938000E-02 
   5.09479000E+00    1.90373000E-01 
   1.15879000E+00    8.52161000E-01 
S    1    1.000000
   3.25840000E-01    1.00000000E+00 
S    1    1.000000
   1.02741000E-01    1.00000000E+00 
S    1    1.000000
   3.60000000E-02    1.00000000E+00 
P    1    1.000000
   7.50000000E-01    1.00000000E+00 

5    0
S    6    1.000000
   4.56324000E+03    1.96665000E-03 
   6.82024000E+02    1.52306000E-02 
   1.54973000E+02    7.61269000E-02 
   4.44553000E+01    2.60801000E-01 
   1.30290000E+01    6.16462000E-01 
   1.82773000E+00    2.21006000E-01 
SP   3    1.000000
   2.09642000E+01    1.14660000E-01   4.02487000E-02 
   4.80331000E+00    9.19999000E-01   2.37594000E-01 
   1.45933000E+00   -3.03068000E-03   8.15854000E-01 
SP   1    1.000000
   4.83456000E-01    1.00000000E+00   1.00000000E+00 
SP   1    1.000000
   1.45585000E-01    1.00000000E+00   1.00000000E+00 
SP   1    1.000000
   4.38000000E-02    1.00000000E+00   1.00000000E+00 
D    1    1.000000
   6.26000000E-01    1.00000000E+00 

6    0
S    6    1.000000
   8.58850000E+03    1.89515000E-03 
   1.29723000E+03    1.43859000E-02 
   2.99296000E+02    7.07320000E-02 
   8.73771000E+01    2.40001000E-01 
   2.56789000E+01    5.94797000E-01 
   3.74004000E+00    2.80802000E-01 
SP   3    1.000000
   4.21175000E+01    1.13889000E-01   3.65114000E-02 
   9.62837000E+00    9.20811000E-01   2.37153000E-01 
   2.85332000E+00   -3.27447000E-03   8.19702000E-01 
SP   1    1.000000
   9.05661000E-01    1.00000000E+00   1.00000000E+00 
SP   1    1.000000
   2.55611000E-01    1.00000000E+00   1.00000000E+00 
SP   1    1.000000
   8.45000000E-02    1.00000000E+00   1.00000000E+00 
D    1    1.000000
   1.29200000E+00    1.00000000E+00 

7    0
S    6    1.000000
   4.56324000E+03    1.96665000E-03 
   6.82024000E+02    1.52306000E-02 
   1.54973000E+02    7.61269000E-02 
   4.44553000E+01    2.60801000E-01 
   1.30290000E+01    6.16462000E-01 
   1.82773000E+00    2.21006000E-01 
SP   3    1.000000
   2.09642000E+01    1.14660000E-01   4.02487000E-02 
   4.80331000E+00    9.19999000E-01   2.37594000E-01 
   1.45933000E+00   -3.03068000E-03   8.15854000E-01 
SP   1    1.000000
   4.83456000E-01    1.00000000E+00   1.00000000E+00 
SP   1    1.000000
   1.45585000E-01    1.00000000E+00   1.00000000E+00 
SP   1    1.000000
   4.38000000E-02    1.00000000E+00   1.00000000E+00 
D    1    1.000000
   6.26000000E-01    1.00000000E+00 

8    0
S    6    1.000000
   8.58850000E+03    1.89515000E-03 
   1.29723000E+03    1.43859000E-02 
   2.99296000E+02    7.07320000E-02 
   8.73771000E+01    2.40001000E-01 
   2.56789000E+01    5.94797000E-01 
   3.74004000E+00    2.80802000E-01 
SP   3    1.000000
   4.21175000E+01    1.13889000E-01   3.65114000E-02 
   9.62837000E+00    9.20811000E-01   2.37153000E-01 
   2.85332000E+00   -3.27447000E-03   8.19702000E-01 
SP   1    1.000000
   9.05661000E-01    1.00000000E+00   1.00000000E+00 
SP   1    1.000000
   2.55611000E-01    1.00000000E+00   1.00000000E+00 
SP   1    1.000000
   8.45000000E-02    1.00000000E+00   1.00000000E+00 
D    1    1.000000
   1.29200000E+00    1.00000000E+00 

9    0
S    6    1.000000
   6.29348000E+03    1.96979000E-03 
   9.49044000E+02    1.49613000E-02 
   2.18776000E+02    7.35006000E-02 
   6.36916000E+01    2.48937000E-01 
   1.88282000E+01    6.02460000E-01 
   2.72023000E+00    2.56202000E-01 
SP   3    1.000000
   3.06331000E+01    1.11906000E-01   3.83119000E-02 
   7.02614000E+00    9.21666000E-01   2.37403000E-01 
   2.11205000E+00   -2.56919000E-03   8.17592000E-01 
SP   1    1.000000
   6.84009000E-01    1.00000000E+00   1.00000000E+00 
SP   1    1.000000
   2.00878000E-01    1.00000000E+00   1.00000000E+00 
SP   1    1.000000
   6.39000000E-02    1.00000000E+00   1.00000000E+00 
D    1    1.000000
   9.13000000E-01    1.00000000E+00 

10    0
S    6    1.000000
   6.29348000E+03    1.96979000E-03 
   9.49044000E+02    1.49613000E-02 
   2.18776000E+02    7.35006000E-02 
   6.36916000E+01    2.48937000E-01 
   1.88282000E+01    6.02460000E-01 
   2.72023000E+00    2.56202000E-01 
SP   3    1.000000
   3.06331000E+01    1.11906000E-01   3.83119000E-02 
   7.02614000E+00    9.21666000E-01   2.37403000E-01 
   2.11205000E+00   -2.56919000E-03   8.17592000E-01 
SP   1    1.000000
   6.84009000E-01    1.00000000E+00   1.00000000E+00 
SP   1    1.000000
   2.00878000E-01    1.00000000E+00   1.00000000E+00 
SP   1    1.000000
   6.39000000E-02    1.00000000E+00   1.00000000E+00 
D    1    1.000000
   9.13000000E-01    1.00000000E+00 

11    0
S    6    1.000000
   4.56324000E+03    1.96665000E-03 
   6.82024000E+02    1.52306000E-02 
   1.54973000E+02    7.61269000E-02 
   4.44553000E+01    2.60801000E-01 
   1.30290000E+01    6.16462000E-01 
   1.82773000E+00    2.21006000E-01 
SP   3    1.000000
   2.09642000E+01    1.14660000E-01   4.02487000E-02 
   4.80331000E+00    9.19999000E-01   2.37594000E-01 
   1.45933000E+00   -3.03068000E-03   8.15854000E-01 
SP   1    1.000000
   4.83456000E-01    1.00000000E+00   1.00000000E+00 
SP   1    1.000000
   1.45585000E-01    1.00000000E+00   1.00000000E+00 
SP   1    1.000000
   4.38000000E-02    1.00000000E+00   1.00000000E+00 
D    1    1.000000
   6.26000000E-01    1.00000000E+00 

12    0
S    3    1.000000
   3.38650000E+01    2.54938000E-02 
   5.09479000E+00    1.90373000E-01 
   1.15879000E+00    8.52161000E-01 
S    1    1.000000
   3.25840000E-01    1.00000000E+00 
S    1    1.000000
   1.02741000E-01    1.00000000E+00 
S    1    1.000000
   3.60000000E-02    1.00000000E+00 
P    1    1.000000
   7.50000000E-01    1.00000000E+00 

[MO]
Sym=X
Ene= -0.081013
Spin=Alpha
Occup=1
     1    3.070175867812e-08
     2   -1.611903998421e-06
     3    1.728379629654e-06
     4   -2.690358265916e-07
     5   -9.338279971174e-16
     6    1.663037681206e-05
     7   -4.364115687545e-06
     8   -3.688849198746e-07
     9    2.031473029961e-15
    10   -4.427369626500e-04
    11   -1.083003618867e-04
    12   -2.694424074278e-04
    13   -3.445250313640e-15
    14   -2.880863222673e-05
    15    1.956644302826e-04
    16   -5.775428107069e-04
    17    6.162964658721e-15
    18    2.746436119762e-06
    19    1.397646926893e-15
    20   -3.758458411875e-16
    21   -5.480730241637e-06
    22    4.968158238531e-06
    23    7.081352480758e-08
    24    9.684214301747e-06
    25   -3.695565729935e-05
    26    7.340553993993e-05
    27   -2.782652405353e-06
    28    2.027325140889e-06
    29    2.577791272174e-16
    30   -3.735461003061e-07
    31   -1.763701704233e-05
    32   -1.532201932572e-04
    33   -3.077087410753e-04
    34    4.006586251084e-06
    35   -2.950362369097e-06
    36    1.173502135792e-16
    37    2.916357097276e-06
    38    5.893399495167e-05
    39    8.110724361451e-05
    40    9.042696712693e-05
    41   -8.562921520318e-06
    42   -7.099892199042e-06
    43   -5.852120886011e-18
    44   -5.730632607951e-07
    45    1.209229675289e-06
    46    5.299450689103e-06
    47   -8.032557098383e-08
    48   -1.057648712965e-15
    49   -9.805523905846e-06
    50   -2.178762438781e-05
    51   -4.613745519503e-07
    52    2.964724199329e-15
    53   -2.522416473443e-04
    54   -1.220966715368e-04
    55    1.305236873834e-06
    56   -2.149970376440e-15
    57   -2.056531257146e-04
    58    2.471837969731e-05
    59   -1.672476768275e-04
    60   -4.273344786045e-15
    61    3.611540461024e-06
    62    2.928333961151e-16
    63    4.494825046736e-16
    64   -3.004287403141e-06
    65    1.971130865141e-06
    66    8.194356585217e-05
    67    7.096751781504e-05
    68    4.809830245170e-07
    69   -4.227260252811e-07
    70   -1.036984618660e-15
    71   -6.961250642724e-06
    72   -3.363854279529e-06
    73    8.141708546391e-07
    74    3.014531537529e-15
    75    2.757704424199e-05
    76    1.648377072102e-05
    77   -8.553156854823e-07
    78   -4.954962548690e-15
    79   -2.182182080543e-04
    80   -1.276971166361e-04
    81    4.166957003788e-05
    82    6.314626487631e-15
    83    2.072992704776e-07
    84   -5.746511406601e-16
    85   -1.210046792737e-15
    86    6.129517398649e-07
    87   -7.347542193680e-08
    88    3.692658508865e-06
    89   -7.188639745002e-05
    90    4.228218060600e-05
    91    3.202072051346e-05
    92    4.991151930086e-16
    93    2.747728474236e-04
    94    3.409260932342e-04
    95    2.235795134292e-04
    96   -8.804845414065e-17
    97   -2.713283983860e-04
    98    4.030818149647e-04
    99    4.045120556603e-04
   100    3.826137215716e-16
   101   -2.198648478028e-03
   102   -6.412346508034e-04
   103    4.341754400059e-04
   104    3.783058463426e-15
   105   -5.589948775019e-05
   106    6.546790084053e-16
   107   -1.382867182248e-16
   108    1.005932996363e-04
   109    1.864520178406e-04
   110    5.515109901843e-01
   111    4.716913383953e-01
   112   -1.500813130956e-03
   113   -9.402519913748e-04
   114   -9.842681837044e-16
   115    5.396931301377e-03
   116    6.300934696769e-04
   117    4.036200158380e-04
   118    1.264011982663e-15
   119   -1.171891929674e-03
   120   -1.588640549053e-04
   121   -1.140313388900e-04
   122   -2.028404312401e-15
   123    1.304806765075e-03
   124   -2.439091432244e-05
   125    5.667301876852e-06
   126    4.598442607090e-16
   127   -9.219158632974e-05
   128    4.773158042243e-16
   129   -8.299487439272e-17
   130   -4.073453886855e-05
   131   -1.056144492895e-04
   132    4.533339047362e-07
   133    2.286228721099e-06
   134   -1.153091366324e-05
   135    3.769315660842e-06
   136    6.075784862175e-16
   137   -3.223589495548e-05
   138    2.659836779604e-05
   139   -8.600569464885e-06
   140   -1.012466852014e-15
   141    2.440228140626e-04
   142   -9.475925241272e-05
   143   -2.201686867276e-04
   144    1.035208504546e-15
   145   -2.151606224946e-04
   146   -5.357690189839e-04
   147   -5.487830879861e-05
   148   -1.427069074382e-15
   149   -8.035381293809e-06
   150    1.079628516468e-15
   151    4.011665912419e-16
   152    1.589692541803e-05
   153   -1.710233911329e-05
   154   -6.893001552957e-09
   155    5.739710478537e-07
   156    2.830239813693e-07
   157    3.205046290721e-07
   158   -2.440330441617e-16
   159   -9.723590466618e-06
   160   -9.784070190876e-07
   161   -1.832651447380e-06
   162    4.219041609791e-16
   163    1.505305795666e-04
   164    7.895433604852e-05
   165    5.321484116210e-06
   166    1.197125406616e-15
   167    2.224330676539e-04
   168   -4.645502524117e-05
   169    2.249233510467e-05
   170   -1.262970931325e-15
   171    3.732571943367e-07
   172    1.006926359483e-16
   173    6.784758343304e-17
   174   -4.579581702243e-07
   175   -1.653696782993e-06
   176    1.481992025123e-06
   177    1.559858791700e-07
   178   -4.452380451261e-06
   179   -1.731565350098e-05
   180    1.376015812661e-15
   181   -1.781410562239e-05
   182    1.064113535301e-05
   183    8.922412040886e-05
   184   -3.424500570192e-15
   185    6.082163182555e-04
   186   -4.820472352864e-04
   187    1.646248090001e-04
   188    3.735129839740e-15
   189    1.786043234425e-03
   190    1.068619929433e-04
   191    1.052896082952e-03
   192   -5.760462235182e-15
   193   -7.400504136465e-06
   194    5.329544991619e-16
   195    3.887458491056e-16
   196   -3.335584757818e-05
   197    3.337890881775e-05
   198   -2.422092912367e-06
   199    1.218729837023e-04
   200    1.396203285045e-04
   201    3.249465206827e-04
   202   -2.194488984699e-05
   203    1.156082746353e-05
   204   -8.206829744593e-16
Sym=X
Ene= 0.081013
Spin=Alpha
Occup=0
     1    3.052421015500e-16
     2   -1.658700341478e-16
     3   -2.940959664769e-15
     4    5.681902066108e-16
     5   -9.472548921055e-02
     6   -3.681945830244e-15
     7    1.369401066927e-14
     8   -5.186781067520e-15
     9   -1.603599242818e-01
    10   -8.740234933103e-15
    11   -9.665043478776e-14
    12   -3.870333430064e-14
    13   -2.090495879151e-01
    14   -1.879165825130e-13
    15    4.326719777811e-13
    16   -3.657112073251e-13
    17   -4.482294684868e-02
    18    2.256920232589e-15
    19   -3.627608381645e-02
    20    2.697246816508e-03
    21    7.110759970155e-15
    22    2.718559062414e-15
    23   -6.979937583233e-15
    24    6.218505823756e-14
    25   -4.292961963160e-13
    26   -1.038724412485e-13
    27    1.088654761878e-14
    28    1.933748817517e-15
    29    1.497365232992e-02
    30   -2.092859760930e-15
    31    3.836594004560e-15
    32   -1.060360684371e-13
    33   -6.299815478168e-14
    34    1.793723076610e-15
    35    4.354475234033e-15
    36   -8.017124085809e-03
    37    3.472641086887e-15
    38   -5.953397225302e-14
    39    8.831886072784e-14
    40   -2.128328227161e-13
    41    4.637079503135e-15
    42    2.327299972818e-15
    43   -9.045797052875e-04
    44   -1.497014615425e-15
    45    3.037324152279e-16
    46    3.344119996465e-16
    47    4.250559744334e-15
    48    5.209510799501e-03
    49   -2.372535235769e-15
    50    5.137419686265e-15
    51   -7.617552069936e-15
    52    1.376453809785e-02
    53    9.007587586004e-14
    54   -1.188145519564e-14
    55   -8.618823748728e-15
    56   -1.969559998485e-02
    57    4.574056598700e-13
    58    3.083775949460e-13
    59    3.172391312414e-13
    60   -2.884304937141e-02
    61   -1.728118900265e-15
    62    1.447561070871e-02
    63   -2.850830533634e-02
    64    4.492730486467e-17
    65    7.383490597864e-15
    66   -4.302443231352e-16
    67   -2.210387529678e-16
    68   -6.290943230563e-15
    69   -3.302329807847e-15
    70   -8.215024310530e-02
    71   -9.001970738450e-16
    72   -1.058888828798e-14
    73   -1.547697359115e-15
    74   -1.247899573139e-01
    75    2.186914321115e-14
    76    2.651968806673e-14
    77    1.443953925265e-14
    78   -1.251688808792e-01
    79   -1.674875166567e-13
    80   -7.259050102127e-14
    81    3.033011785068e-14
    82   -2.496486226408e-02
    83    2.120578570832e-15
    84   -4.491595290736e-03
    85    1.648838653471e-03
    86   -4.166556086521e-16
    87   -2.617305411889e-15
    88   -7.006156173707e-16
    89   -2.956806593764e-15
    90   -1.160883359921e-15
    91   -1.900927382572e-15
    92   -1.350176152747e-02
    93    1.121325044106e-14
    94    3.960324597051e-15
    95    6.407686141475e-15
    96   -2.812262065792e-02
    97   -1.544471757328e-14
    98   -1.350395724304e-13
    99   -1.377467035527e-13
   100    3.803901385772e-02
   101   -4.467858582342e-12
   102    3.111466484512e-13
   103    1.155575367986e-12
   104    5.865794455179e-02
   105    1.567738232511e-15
   106    1.951971066224e-02
   107    2.936224262788e-02
   108    2.969023905982e-16
   109   -2.943058271153e-15
   110    7.540916199665e-16
   111   -2.743258312664e-16
   112   -1.080877244958e-15
   113    2.724282793204e-15
   114    1.185366587751e-01
   115    3.743455293142e-15
   116    4.161586985972e-15
   117    2.678910989644e-15
   118    1.505600198154e-01
   119    1.870140299204e-15
   120   -2.701523141272e-14
   121   -1.403160320175e-15
   122    1.195133975849e-01
   123    3.364830511818e-13
   124   -7.546206592319e-14
   125   -1.588797925626e-13
   126    2.229332275230e-02
   127   -2.690625200136e-15
   128   -3.752442976618e-03
   129   -1.057647304574e-03
   130    6.334183450685e-16
   131   -3.545338155585e-15
   132    6.558162024975e-17
   133    1.570561637738e-15
   134    5.140036454785e-17
   135   -6.309395085394e-16
   136   -9.197697407932e-03
   137   -1.225562390663e-15
   138   -7.165140197988e-15
   139   -5.577143008498e-15
   140   -1.470591386594e-02
   141   -8.749589623987e-15
   142   -1.492988734244e-14
   143    1.014522060739e-13
   144   -1.785154755354e-02
   145   -1.179330153121e-13
   146    1.438600088387e-13
   147   -1.926902395250e-13
   148   -1.682208044969e-02
   149    2.122484076215e-15
   150    3.029527011716e-05
   151    5.166090310004e-04
   152   -1.667722830362e-15
   153   -4.554598706183e-15
   154   -1.029126656499e-15
   155   -2.133020746335e-15
   156   -7.180145700816e-15
   157    1.790763421848e-15
   158    1.547021526976e-01
   159    8.716262490272e-15
   160   -7.331482330505e-15
   161   -5.906462327616e-15
   162    2.417793561946e-01
   163   -3.019435196713e-14
   164    4.943902376382e-14
   165    1.324035870276e-14
   166    3.087655753014e-01
   167    6.004151534994e-13
   168   -6.365968306115e-13
   169   -7.718427415763e-14
   170    1.190149707047e-01
   171    4.059063847983e-15
   172   -5.821087019570e-03
   173    5.342402443803e-03
   174   -4.148402752880e-15
   175   -4.359173670822e-15
   176   -1.074946114149e-16
   177    2.267923498167e-15
   178   -6.768638520905e-15
   179   -2.396952334735e-15
   180   -1.532805366602e-01
   181    6.482671961901e-15
   182   -1.703492408323e-15
   183    3.461467144703e-15
   184   -2.489594551789e-01
   185   -1.312793537357e-13
   186   -1.027347213418e-13
   187   -7.747010584229e-14
   188   -2.767105893308e-01
   189    3.384654783509e-12
   190   -6.640118811720e-13
   191    1.608571748601e-12
   192   -6.802010992789e-02
   193    5.867279834822e-16
   194    1.352814535301e-02
   195    7.238515052202e-03
   196   -1.205870767749e-15
   197   -1.901402573270e-15
   198   -1.804763908416e-15
   199    1.363698358591e-14
   200    1.637106035748e-13
   201    8.690788868870e-13
   202    1.536185782300e-15
   203    5.251353973588e-16
   204   -1.309920540610e-02
[5D]
