[Molden Format]
[Atoms] (Angs)
  C      1    6     -0.13173890     -1.79208980      0.00000000
  H      2    1     -2.14962000     -1.30978739      0.00000000
  H      3    1     -0.31599560     -2.86503115      0.00000000
  H      4    1      0.14407746      2.04280963     -0.00000000
  C      5    6     -1.17258876      0.48030861      0.00000000
  O      6    8     -2.25008207      1.06833796      0.00000000
  C      7    6      1.31158357      0.28308717     -0.00000000
  O      8    8      2.36361668      0.96389345     -0.00000000
  N      9    7      0.07017030      1.03138997     -0.00000000
  N     10    7     -1.19586868     -0.94982644      0.00000000
  C     11    6      1.19165158     -1.13169473     -0.00000000
  H     12    1      2.09970506     -1.73445456     -0.00000000
[GTO]
1    0
S    6    1.000000
   4.56324000E+03    1.96665000E-03 
   6.82024000E+02    1.52306000E-02 
   1.54973000E+02    7.61269000E-02 
   4.44553000E+01    2.60801000E-01 
   1.30290000E+01    6.16462000E-01 
   1.82773000E+00    2.21006000E-01 
SP   3    1.000000
   2.09642000E+01    1.14660000E-01   4.02487000E-02 
   4.80331000E+00    9.19999000E-01   2.37594000E-01 
   1.45933000E+00   -3.03068000E-03   8.15854000E-01 
SP   1    1.000000
   4.83456000E-01    1.00000000E+00   1.00000000E+00 
SP   1    1.000000
   1.45585000E-01    1.00000000E+00   1.00000000E+00 
SP   1    1.000000
   4.38000000E-02    1.00000000E+00   1.00000000E+00 
D    1    1.000000
   6.26000000E-01    1.00000000E+00 

2    0
S    3    1.000000
   3.38650000E+01    2.54938000E-02 
   5.09479000E+00    1.90373000E-01 
   1.15879000E+00    8.52161000E-01 
S    1    1.000000
   3.25840000E-01    1.00000000E+00 
S    1    1.000000
   1.02741000E-01    1.00000000E+00 
S    1    1.000000
   3.60000000E-02    1.00000000E+00 
P    1    1.000000
   7.50000000E-01    1.00000000E+00 

3    0
S    3    1.000000
   3.38650000E+01    2.54938000E-02 
   5.09479000E+00    1.90373000E-01 
   1.15879000E+00    8.52161000E-01 
S    1    1.000000
   3.25840000E-01    1.00000000E+00 
S    1    1.000000
   1.02741000E-01    1.00000000E+00 
S    1    1.000000
   3.60000000E-02    1.00000000E+00 
P    1    1.000000
   7.50000000E-01    1.00000000E+00 

4    0
S    3    1.000000
   3.38650000E+01    2.54938000E-02 
   5.09479000E+00    1.90373000E-01 
   1.15879000E+00    8.52161000E-01 
S    1    1.000000
   3.25840000E-01    1.00000000E+00 
S    1    1.000000
   1.02741000E-01    1.00000000E+00 
S    1    1.000000
   3.60000000E-02    1.00000000E+00 
P    1    1.000000
   7.50000000E-01    1.00000000E+00 

5    0
S    6    1.000000
   4.56324000E+03    1.96665000E-03 
   6.82024000E+02    1.52306000E-02 
   1.54973000E+02    7.61269000E-02 
   4.44553000E+01    2.60801000E-01 
   1.30290000E+01    6.16462000E-01 
   1.82773000E+00    2.21006000E-01 
SP   3    1.000000
   2.09642000E+01    1.14660000E-01   4.02487000E-02 
   4.80331000E+00    9.19999000E-01   2.37594000E-01 
   1.45933000E+00   -3.03068000E-03   8.15854000E-01 
SP   1    1.000000
   4.83456000E-01    1.00000000E+00   1.00000000E+00 
SP   1    1.000000
   1.45585000E-01    1.00000000E+00   1.00000000E+00 
SP   1    1.000000
   4.38000000E-02    1.00000000E+00   1.00000000E+00 
D    1    1.000000
   6.26000000E-01    1.00000000E+00 

6    0
S    6    1.000000
   8.58850000E+03    1.89515000E-03 
   1.29723000E+03    1.43859000E-02 
   2.99296000E+02    7.07320000E-02 
   8.73771000E+01    2.40001000E-01 
   2.56789000E+01    5.94797000E-01 
   3.74004000E+00    2.80802000E-01 
SP   3    1.000000
   4.21175000E+01    1.13889000E-01   3.65114000E-02 
   9.62837000E+00    9.20811000E-01   2.37153000E-01 
   2.85332000E+00   -3.27447000E-03   8.19702000E-01 
SP   1    1.000000
   9.05661000E-01    1.00000000E+00   1.00000000E+00 
SP   1    1.000000
   2.55611000E-01    1.00000000E+00   1.00000000E+00 
SP   1    1.000000
   8.45000000E-02    1.00000000E+00   1.00000000E+00 
D    1    1.000000
   1.29200000E+00    1.00000000E+00 

7    0
S    6    1.000000
   4.56324000E+03    1.96665000E-03 
   6.82024000E+02    1.52306000E-02 
   1.54973000E+02    7.61269000E-02 
   4.44553000E+01    2.60801000E-01 
   1.30290000E+01    6.16462000E-01 
   1.82773000E+00    2.21006000E-01 
SP   3    1.000000
   2.09642000E+01    1.14660000E-01   4.02487000E-02 
   4.80331000E+00    9.19999000E-01   2.37594000E-01 
   1.45933000E+00   -3.03068000E-03   8.15854000E-01 
SP   1    1.000000
   4.83456000E-01    1.00000000E+00   1.00000000E+00 
SP   1    1.000000
   1.45585000E-01    1.00000000E+00   1.00000000E+00 
SP   1    1.000000
   4.38000000E-02    1.00000000E+00   1.00000000E+00 
D    1    1.000000
   6.26000000E-01    1.00000000E+00 

8    0
S    6    1.000000
   8.58850000E+03    1.89515000E-03 
   1.29723000E+03    1.43859000E-02 
   2.99296000E+02    7.07320000E-02 
   8.73771000E+01    2.40001000E-01 
   2.56789000E+01    5.94797000E-01 
   3.74004000E+00    2.80802000E-01 
SP   3    1.000000
   4.21175000E+01    1.13889000E-01   3.65114000E-02 
   9.62837000E+00    9.20811000E-01   2.37153000E-01 
   2.85332000E+00   -3.27447000E-03   8.19702000E-01 
SP   1    1.000000
   9.05661000E-01    1.00000000E+00   1.00000000E+00 
SP   1    1.000000
   2.55611000E-01    1.00000000E+00   1.00000000E+00 
SP   1    1.000000
   8.45000000E-02    1.00000000E+00   1.00000000E+00 
D    1    1.000000
   1.29200000E+00    1.00000000E+00 

9    0
S    6    1.000000
   6.29348000E+03    1.96979000E-03 
   9.49044000E+02    1.49613000E-02 
   2.18776000E+02    7.35006000E-02 
   6.36916000E+01    2.48937000E-01 
   1.88282000E+01    6.02460000E-01 
   2.72023000E+00    2.56202000E-01 
SP   3    1.000000
   3.06331000E+01    1.11906000E-01   3.83119000E-02 
   7.02614000E+00    9.21666000E-01   2.37403000E-01 
   2.11205000E+00   -2.56919000E-03   8.17592000E-01 
SP   1    1.000000
   6.84009000E-01    1.00000000E+00   1.00000000E+00 
SP   1    1.000000
   2.00878000E-01    1.00000000E+00   1.00000000E+00 
SP   1    1.000000
   6.39000000E-02    1.00000000E+00   1.00000000E+00 
D    1    1.000000
   9.13000000E-01    1.00000000E+00 

10    0
S    6    1.000000
   6.29348000E+03    1.96979000E-03 
   9.49044000E+02    1.49613000E-02 
   2.18776000E+02    7.35006000E-02 
   6.36916000E+01    2.48937000E-01 
   1.88282000E+01    6.02460000E-01 
   2.72023000E+00    2.56202000E-01 
SP   3    1.000000
   3.06331000E+01    1.11906000E-01   3.83119000E-02 
   7.02614000E+00    9.21666000E-01   2.37403000E-01 
   2.11205000E+00   -2.56919000E-03   8.17592000E-01 
SP   1    1.000000
   6.84009000E-01    1.00000000E+00   1.00000000E+00 
SP   1    1.000000
   2.00878000E-01    1.00000000E+00   1.00000000E+00 
SP   1    1.000000
   6.39000000E-02    1.00000000E+00   1.00000000E+00 
D    1    1.000000
   9.13000000E-01    1.00000000E+00 

11    0
S    6    1.000000
   4.56324000E+03    1.96665000E-03 
   6.82024000E+02    1.52306000E-02 
   1.54973000E+02    7.61269000E-02 
   4.44553000E+01    2.60801000E-01 
   1.30290000E+01    6.16462000E-01 
   1.82773000E+00    2.21006000E-01 
SP   3    1.000000
   2.09642000E+01    1.14660000E-01   4.02487000E-02 
   4.80331000E+00    9.19999000E-01   2.37594000E-01 
   1.45933000E+00   -3.03068000E-03   8.15854000E-01 
SP   1    1.000000
   4.83456000E-01    1.00000000E+00   1.00000000E+00 
SP   1    1.000000
   1.45585000E-01    1.00000000E+00   1.00000000E+00 
SP   1    1.000000
   4.38000000E-02    1.00000000E+00   1.00000000E+00 
D    1    1.000000
   6.26000000E-01    1.00000000E+00 

12    0
S    3    1.000000
   3.38650000E+01    2.54938000E-02 
   5.09479000E+00    1.90373000E-01 
   1.15879000E+00    8.52161000E-01 
S    1    1.000000
   3.25840000E-01    1.00000000E+00 
S    1    1.000000
   1.02741000E-01    1.00000000E+00 
S    1    1.000000
   3.60000000E-02    1.00000000E+00 
P    1    1.000000
   7.50000000E-01    1.00000000E+00 

[MO]
Sym=X
Ene= -0.002983
Spin=Alpha
Occup=1
     1    2.429479579781e-15
     2    4.915675470080e-15
     3    6.545592934112e-15
     4    9.272469648667e-15
     5   -4.768790843518e-02
     6   -3.828370264239e-14
     7    4.123081229150e-15
     8    3.923099294387e-14
     9   -5.561549621962e-02
    10    5.934725009013e-15
    11    2.984942136118e-13
    12    1.975095284800e-13
    13   -6.805427055872e-02
    14   -1.953979486648e-12
    15    1.934427612646e-12
    16   -8.547449200091e-13
    17   -1.789808351036e-01
    18    1.346143737563e-14
    19    4.512111485051e-02
    20    6.679776080373e-03
    21    1.443387445071e-14
    22   -1.766500703787e-14
    23   -2.825620301508e-15
    24    2.332789211628e-13
    25   -3.441863698183e-13
    26   -4.389378279434e-13
    27    1.195508867942e-14
    28    1.078220385429e-14
    29   -4.314645989355e-03
    30   -9.280526747314e-15
    31    9.706640068092e-14
    32    1.826183531177e-13
    33    9.747336955141e-13
    34    1.073903601960e-15
    35    5.344418241038e-15
    36   -9.039336796471e-03
    37    9.451127824679e-15
    38    6.619604324252e-16
    39    7.712289144453e-13
    40   -1.024355451609e-12
    41    3.105403583625e-15
    42    7.789635174340e-15
    43   -8.473102284040e-03
    44    7.474306953697e-15
    45    1.487793593316e-14
    46   -9.102326854044e-15
    47    1.727424642537e-14
    48    4.223979705359e-02
    49   -4.760302143765e-14
    50    2.892519138466e-14
    51   -2.078246858442e-15
    52    6.979457884311e-02
    53    8.154192405200e-14
    54   -2.073086383786e-13
    55    2.801392934542e-14
    56    1.508780898875e-01
    57    2.458080163694e-12
    58    1.074453621378e-12
    59    5.269638224701e-13
    60    5.464767477583e-02
    61    5.269304533090e-15
    62   -1.589506057638e-02
    63   -1.682921524137e-02
    64    6.740183714520e-15
    65    2.257929296479e-15
    66   -1.542262461639e-15
    67   -3.919048870704e-15
    68    3.840551278295e-15
    69   -1.896155287268e-14
    70    1.960994800371e-02
    71    1.424011233226e-14
    72    1.085231662815e-14
    73   -4.301881593102e-14
    74    3.403603859237e-02
    75    2.684980443265e-15
    76    1.798463540918e-14
    77    2.590126234098e-14
    78    1.365523712437e-02
    79   -9.310737425247e-13
    80   -6.570984171725e-13
    81   -6.300555544470e-14
    82   -5.737726528070e-02
    83   -4.492347499199e-15
    84    3.717701664463e-03
    85   -4.728914286282e-03
    86   -1.608730013066e-15
    87   -3.534331810501e-15
    88    7.177901674203e-15
    89    5.776854247332e-15
    90    1.352540054590e-14
    91   -1.546067088888e-14
    92    1.985148543370e-01
    93   -1.739648512960e-14
    94    6.920297866825e-14
    95   -5.744726520471e-14
    96    3.504811305019e-01
    97    2.906486152766e-14
    98    7.022489806895e-14
    99   -1.253924852058e-13
   100    4.274196636972e-01
   101   -2.649245956344e-11
   102    5.404941595894e-13
   103    8.521232630135e-12
   104    1.826932581862e-01
   105   -1.233830322825e-14
   106   -6.482242745010e-03
   107   -1.025909885270e-03
   108    5.605202292919e-15
   109   -6.078075726967e-15
   110   -3.337963935926e-15
   111   -8.727965566218e-15
   112   -6.773456228894e-15
   113    1.560001319051e-14
   114   -4.608144531853e-02
   115    3.872902211209e-14
   116    5.859074552981e-15
   117    9.029805889374e-15
   118   -6.871361362087e-02
   119   -6.721365417320e-14
   120   -4.760229409803e-14
   121    1.049845516814e-13
   122   -1.009375377235e-01
   123    1.184216396303e-12
   124   -4.482472559404e-13
   125   -3.213497946539e-13
   126   -9.409365698897e-02
   127    1.431748404934e-15
   128   -1.690766043061e-02
   129   -1.302099209891e-02
   130   -1.320314899362e-15
   131    9.003754972843e-17
   132   -9.047950117881e-15
   133   -1.885785879191e-14
   134    2.219541318856e-14
   135   -1.488596612421e-14
   136   -3.394910522572e-02
   137    8.521676632323e-14
   138    4.322372278881e-14
   139   -1.779852990520e-14
   140   -4.637785176922e-02
   141    1.590959277078e-14
   142    1.207180603179e-13
   143   -7.191304907526e-14
   144   -1.243282235423e-01
   145   -1.750224313865e-13
   146   -1.716758054792e-12
   147   -1.791918935397e-12
   148   -2.331120304288e-01
   149    3.892063730591e-15
   150    1.742980253428e-02
   151   -1.269386577025e-02
   152   -4.519036619313e-15
   153   -2.155488922095e-15
   154   -7.620951219579e-15
   155   -1.073040014073e-14
   156    4.691990681373e-15
   157    3.812145515070e-15
   158   -8.278638983081e-02
   159    8.258347679431e-14
   160    3.364598350587e-14
   161    2.425531200374e-14
   162   -1.350339437344e-01
   163   -2.099444367282e-13
   164    4.631495193216e-14
   165   -6.018002217527e-14
   166   -1.384424821262e-01
   167    8.816942280326e-13
   168   -8.787537591851e-13
   169   -1.242666641279e-12
   170    5.339065881554e-02
   171    8.471843637835e-16
   172   -2.742127654557e-03
   173    1.062290710570e-02
   174    1.089208361009e-15
   175    4.443680165708e-15
   176    4.070279761849e-15
   177   -8.830246226517e-16
   178    1.549446333944e-14
   179    9.725109973029e-15
   180    1.009636703552e-01
   181    4.222367164590e-14
   182    6.809764571192e-14
   183    4.052639302275e-14
   184    1.524858978984e-01
   185   -5.166084243266e-13
   186    1.914210990346e-13
   187   -2.053381721761e-13
   188    1.697215037642e-01
   189    2.388014283874e-11
   190    2.144167082571e-13
   191    8.574388847595e-12
   192    1.935382530746e-01
   193    2.711558713022e-14
   194   -1.227964018582e-02
   195    9.238080391282e-03
   196   -4.811525816444e-15
   197    3.102267132294e-14
   198   -1.714570657277e-14
   199    1.524816131175e-14
   200   -7.952062119513e-13
   201    2.148094789812e-12
   202   -8.464633861633e-15
   203    8.351628046294e-15
   204    1.274230920014e-02
Sym=X
Ene= -0.011958
Spin=Alpha
Occup=1
     1   -1.787368608428e-15
     2   -8.649180880328e-16
     3   -6.704903426078e-16
     4    1.199542417870e-14
     5    1.810181530280e-01
     6    1.709961968275e-15
     7   -3.085403025020e-14
     8    2.713390805540e-14
     9    3.143970357509e-01
    10   -6.423021175652e-16
    11    5.050999281828e-14
    12    2.339351334027e-13
    13    5.453248461842e-01
    14    1.064010291477e-11
    15    1.220702638164e-12
    16    1.949544749599e-12
    17    2.519525031978e-01
    18    8.656735667659e-15
    19    1.927996952880e-02
    20   -9.779350078479e-03
    21    2.697855931950e-15
    22   -1.580984343978e-14
    23    1.565871873172e-14
    24    8.094723982404e-16
    25    9.329384151362e-13
    26    2.041256426552e-12
    27   -1.393087757724e-14
    28   -5.249157695945e-15
    29   -1.540736683009e-02
    30   -3.410867672278e-15
    31    9.108628858342e-14
    32    1.915849692174e-13
    33   -3.022708431073e-13
    34   -4.925705030834e-15
    35    1.055420001411e-14
    36    1.666632845326e-02
    37    6.002263697680e-15
    38    5.695545662628e-14
    39    2.576851697864e-13
    40   -3.242981575487e-13
    41    2.655007622882e-15
    42   -3.505901723375e-15
    43    9.664653961827e-03
    44    7.568042189934e-16
    45   -3.178144379896e-15
    46    5.129588516180e-15
    47   -1.954788760521e-15
    48   -3.435765601161e-03
    49    8.910886849068e-15
    50   -8.200860323644e-15
    51   -1.704783405994e-14
    52   -3.798714985684e-03
    53    9.096074882964e-14
    54    1.495986753036e-13
    55   -1.159119550645e-13
    56    2.027967714150e-03
    57   -1.099067010325e-12
    58    5.051980148609e-13
    59    5.836476948254e-13
    60    2.507086054982e-03
    61   -6.609356150879e-15
    62   -1.808065567372e-03
    63    3.565548693438e-02
    64   -1.417448173325e-15
    65   -9.740224593250e-15
    66    5.086102838731e-16
    67    2.979340932409e-16
    68    9.358823709085e-15
    69    2.108284149419e-15
    70    5.113612807293e-02
    71    1.305898036033e-14
    72    3.504310350195e-15
    73   -5.668248374188e-15
    74    7.941031631216e-02
    75   -8.331196521672e-14
    76    3.105558470495e-14
    77    5.066801944294e-14
    78    8.657298967390e-02
    79    6.683933760820e-13
    80    9.425811512728e-14
    81   -2.180784193088e-13
    82    3.898128437434e-02
    83    1.369988417426e-15
    84    4.632021804371e-03
    85   -1.651425918243e-03
    86   -4.497056132489e-15
    87    1.098609013456e-15
    88    3.540826246013e-15
    89    1.200471874260e-14
    90    1.106613567721e-14
    91   -7.605653290997e-16
    92    4.254792984246e-03
    93   -5.440877228459e-14
    94   -3.092782950463e-14
    95   -7.232074977389e-15
    96    2.482151758719e-02
    97    3.002194385717e-13
    98    2.548999021339e-13
    99    1.669424426773e-14
   100   -5.544425371417e-02
   101    5.284924434611e-12
   102   -1.894901153859e-12
   103   -4.234566541359e-13
   104   -1.944444599737e-02
   105    1.136517310655e-17
   106    1.048398040203e-02
   107    3.347628746600e-02
   108   -1.859194152037e-15
   109   -7.807085137278e-15
   110   -3.852465486920e-15
   111   -5.664208316472e-15
   112    6.701573689103e-15
   113   -3.349008932647e-15
   114    8.627450141373e-02
   115    2.151153809931e-14
   116    5.256010270220e-15
   117    4.569938105547e-15
   118    1.323223910677e-01
   119   -7.513436618991e-16
   120   -9.611329344842e-15
   121   -2.622436003838e-14
   122    1.528924616386e-01
   123   -5.099921676455e-13
   124    2.309849274637e-13
   125    3.526812472247e-13
   126    6.364683586057e-02
   127   -9.698944439476e-16
   128   -9.382799593233e-03
   129   -4.829950394313e-03
   130    5.446985339676e-16
   131    2.126966428394e-15
   132   -1.391424660799e-15
   133   -5.786751069034e-15
   134    2.049983157672e-14
   135   -1.073366606328e-14
   136    7.299934681461e-02
   137    4.022307827596e-14
   138    1.831220239870e-14
   139   -1.753735021562e-14
   140    1.158516660512e-01
   141   -1.072747127427e-13
   142    1.049544546634e-13
   143   -2.633833690474e-14
   144    1.453470533363e-01
   145   -1.135254209314e-12
   146   -1.612342893620e-14
   147   -4.634832772161e-13
   148    7.301900926089e-02
   149    2.631549619769e-15
   150    3.534742220705e-04
   151    2.106126274610e-03
   152   -1.885931985358e-15
   153   -3.935782119795e-15
   154    6.521894576657e-15
   155    8.150342848526e-15
   156    2.530540231060e-14
   157    1.354167824622e-14
   158   -1.640842988465e-01
   159    2.981562825767e-14
   160    4.480793771467e-14
   161    3.661015624108e-14
   162   -2.585804372870e-01
   163   -4.422132126613e-13
   164   -5.117873076784e-14
   165   -7.628437924470e-14
   166   -3.643469086221e-01
   167   -1.466992665490e-12
   168    1.199172903413e-12
   169    3.405431753586e-13
   170   -2.105243350044e-01
   171   -6.581466738617e-15
   172    1.612313542489e-02
   173   -1.617121058159e-02
   174    1.694251890505e-15
   175    9.399899424870e-15
   176   -8.883567285815e-15
   177   -1.435029030400e-14
   178    2.784315693215e-14
   179   -1.003651275064e-14
   180   -5.789526455546e-02
   181    3.482851979781e-14
   182    4.082736908834e-14
   183   -1.594706208426e-15
   184   -9.817182334701e-02
   185    1.941829140493e-13
   186    1.865347253048e-13
   187   -1.885306360829e-13
   188   -2.066895950166e-01
   189   -9.500937494045e-12
   190    6.712056497967e-12
   191   -1.662127646943e-12
   192   -1.179839169367e-01
   193    8.056976354996e-16
   194   -2.901992334611e-02
   195   -2.733372937741e-02
   196    4.327983743004e-15
   197    9.686378576044e-15
   198    1.069610015862e-14
   199    1.027201049486e-14
   200   -8.099650477882e-13
   201   -5.090786494038e-12
   202    1.081038695443e-14
   203   -2.970665371358e-16
   204   -3.572970939764e-03
Sym=X
Ene= 0.011958
Spin=Alpha
Occup=0
     1    7.813630276575e-16
     2   -1.857001442844e-15
     3    2.970488201004e-14
     4   -2.875792538671e-14
     5   -6.100389517469e-02
     6    3.188955933669e-14
     7    1.047357468609e-13
     8   -1.937588156770e-14
     9   -9.035031395423e-02
    10   -3.147463104218e-13
    11    2.533372184125e-13
    12   -4.941963621563e-13
    13   -2.330403748149e-01
    14   -2.105334361140e-11
    15   -5.974262779067e-12
    16   -4.848684424085e-12
    17   -1.892828161670e-01
    18   -1.251595065114e-14
    19   -1.247222200427e-05
    20    5.967764311290e-03
    21    1.105223298809e-14
    22    1.810390641218e-14
    23   -3.220304523689e-14
    24   -3.027590596389e-13
    25    1.275501565001e-12
    26   -2.054472495326e-12
    27   -9.326550038664e-15
    28   -7.654151100651e-15
    29    1.212116266625e-02
    30   -1.160879027809e-14
    31   -3.148159529847e-14
    32   -5.241874204071e-13
    33   -2.008904969888e-12
    34   -4.637111234044e-15
    35    5.233528711533e-15
    36   -5.921771686527e-03
    37   -7.931357816372e-15
    38    1.464711111231e-13
    39   -1.647455100589e-12
    40    1.403577818400e-12
    41   -5.380795179516e-15
    42    2.763049465112e-15
    43   -1.483047395945e-03
    44   -3.466602392569e-15
    45    1.328213221169e-15
    46   -1.054114281248e-14
    47   -8.119198599946e-15
    48   -8.673686700013e-02
    49   -2.745410727319e-14
    50   -1.293245253956e-14
    51   -5.386879500360e-14
    52   -1.506946626425e-01
    53    1.310574676759e-13
    54    9.180298698944e-14
    55    2.355252680117e-13
    56   -2.189110170037e-01
    57    4.745223207536e-12
    58   -1.110761164409e-12
    59   -4.544241094005e-12
    60    1.784398672307e-01
    61    1.841549852874e-14
    62   -4.539795100506e-02
    63    9.004461047202e-04
    64    3.471264154679e-16
    65    3.596026336693e-15
    66    4.684531574136e-16
    67    2.240319452262e-15
    68   -3.042732051728e-15
    69    8.279745255613e-15
    70    1.433834096954e-01
    71   -1.768637137874e-14
    72    1.437817156178e-14
    73    3.320901766166e-14
    74    2.129823607787e-01
    75    5.467850920201e-14
    76   -4.759730764482e-14
    77   -1.136531611897e-13
    78    2.574954017557e-01
    79    1.034391607373e-13
    80    1.373268197965e-13
    81    3.382821351071e-13
    82    2.085766560990e-01
    83   -4.985798308785e-15
    84    3.999338019814e-03
    85   -4.590302548949e-03
    86   -3.074622359253e-15
    87   -3.361596082462e-15
    88   -2.600309790017e-15
    89   -1.614804018147e-14
    90   -3.540522802540e-14
    91    4.431628389178e-15
    92   -4.338486262486e-02
    93    6.359872378880e-14
    94    1.868323322587e-14
    95    2.951526218336e-14
    96   -7.405326309877e-02
    97   -3.859135642667e-13
    98   -2.614697348531e-14
    99    5.784212836741e-14
   100   -1.705152981142e-01
   101    2.811862780359e-11
   102    1.480897445200e-12
   103   -1.035717662798e-11
   104    1.110218569641e-01
   105   -2.176083302210e-15
   106    2.645624693366e-02
   107   -1.666961847262e-02
   108    2.543160871098e-15
   109    1.870115665318e-14
   110    2.716980362565e-15
   111    5.013417616088e-15
   112   -3.885894534170e-15
   113    1.369054087789e-15
   114    1.335171892440e-01
   115   -2.650815180821e-14
   116    1.837707643834e-15
   117   -1.242525183637e-14
   118    2.019505056083e-01
   119    4.669511474784e-14
   120    3.444978106406e-14
   121    4.916408186969e-14
   122    2.228887894816e-01
   123   -7.858288878032e-13
   124    1.186052050913e-13
   125   -7.533125786809e-14
   126    2.125966120792e-01
   127    2.196906365182e-15
   128   -2.781356135586e-03
   129   -4.370643489407e-03
   130    7.727283993513e-16
   131   -3.691419448243e-15
   132    9.650852214754e-15
   133    2.165671403944e-14
   134   -2.783533137201e-14
   135   -3.518974575955e-15
   136   -9.820227485302e-02
   137   -1.025508688309e-13
   138   -3.474905164130e-14
   139    6.600106313621e-15
   140   -1.552734385121e-01
   141    6.535598341471e-14
   142   -2.784095994535e-14
   143   -2.068122929530e-13
   144   -9.733451496334e-02
   145    6.197480912371e-13
   146    1.246170930395e-12
   147    4.282783462670e-12
   148   -1.299748138880e-01
   149    1.389401498172e-15
   150    6.231878360272e-03
   151    6.840081534679e-03
   152   -2.496865872405e-15
   153   -1.146723963600e-14
   154    1.266087138198e-15
   155    1.008372510299e-14
   156   -3.566954366116e-15
   157   -2.401330027548e-14
   158    5.551550648050e-02
   159   -9.381549530520e-14
   160   -1.514151374765e-14
   161   -5.584621181205e-14
   162    8.123460770043e-02
   163    5.223223688444e-13
   164    8.583021999714e-14
   165   -5.756967000326e-14
   166    1.664724317893e-01
   167    2.107020265409e-13
   168    3.150571714079e-12
   169    4.346662832831e-13
   170    8.178244227520e-02
   171    4.583173986616e-15
   172   -8.923322210547e-03
   173   -3.421981078546e-04
   174   -1.032111915022e-14
   175    7.318984422478e-15
   176   -2.661023798812e-15
   177   -1.193295309883e-14
   178   -2.693987507245e-14
   179   -1.648804592705e-14
   180    6.416464403666e-02
   181    3.792265815544e-14
   182   -2.995787247395e-14
   183   -9.229396387849e-14
   184    1.119400687481e-01
   185    1.736052975676e-13
   186   -2.113689193019e-13
   187    6.135207458925e-13
   188    1.900932721615e-01
   189   -1.347221313805e-11
   190   -9.041539539922e-12
   191   -9.667535869269e-12
   192    1.703536919886e-01
   193   -2.168325902274e-14
   194    1.386684437452e-02
   195    4.766125322625e-03
   196    3.990602793102e-15
   197   -1.694880801754e-14
   198    2.892470450877e-14
   199    1.832655424836e-14
   200    1.658337049653e-12
   201    3.527541562627e-12
   202   -9.092847337986e-16
   203    5.199795494298e-15
   204    7.958972412089e-03
Sym=X
Ene= 0.002983
Spin=Alpha
Occup=0
     1   -5.363243261064e-15
     2   -8.591206864202e-15
     3   -5.292509844850e-14
     4    1.166554340866e-14
     5    1.223450380437e-01
     6    1.370445222946e-13
     7   -3.002486577018e-14
     8   -5.887224721776e-14
     9    1.970146349983e-01
    10   -2.397606343060e-12
    11   -1.089683423638e-12
    12   -2.136471362453e-12
    13    3.350735346084e-01
    14    1.096721660176e-11
    15    4.480665972468e-12
    16    4.363217208131e-13
    17    1.800850242693e-01
    18   -2.180385603772e-14
    19    1.155460357624e-02
    20   -4.420688424901e-03
    21   -1.086934156791e-13
    22    7.076542793556e-14
    23    1.694822717754e-14
    24    4.213741526353e-13
    25   -1.501060595308e-12
    26    3.165993764381e-12
    27   -1.347474904904e-14
    28   -3.584223749487e-15
    29   -1.168178557243e-02
    30    2.287513101363e-14
    31   -5.314025545069e-13
    32   -6.182042094411e-13
    33   -2.484411159756e-13
    34    3.618334994898e-14
    35   -1.748486177253e-14
    36    1.123458668751e-02
    37   -1.444146295319e-14
    38    6.438739136714e-14
    39    9.765194310701e-13
    40   -1.682332548290e-12
    41    9.850518487701e-15
    42    8.386513152451e-16
    43   -2.228440159723e-02
    44   -3.248892538295e-15
    45   -8.421134992793e-15
    46   -9.490069326680e-15
    47   -5.151289224595e-15
    48    1.327234928667e-01
    49    1.193179649591e-13
    50   -4.654039299341e-14
    51    1.416665401397e-13
    52    2.136487112646e-01
    53   -2.156257598054e-12
    54   -1.377850724361e-12
    55    1.869265845890e-12
    56    3.984531272108e-01
    57   -3.294473545732e-12
    58    1.747482147245e-12
    59    4.852734457616e-12
    60   -1.297025584087e-01
    61    1.700369446331e-15
    62   -6.206151422049e-02
    63   -9.892963379478e-03
    64    1.995233105969e-14
    65   -3.757457605110e-14
    66    8.881230968073e-15
    67    1.759537071291e-14
    68    2.597288410173e-15
    69    1.436109857013e-14
    70    4.344428306968e-03
    71   -9.361157233468e-14
    72    2.043860987984e-14
    73    9.470865967563e-14
    74    6.704016651887e-03
    75   -3.092310398437e-13
    76   -3.132991267747e-13
    77   -2.722683678112e-13
    78   -3.564119727376e-02
    79   -1.791536564067e-12
    80   -3.262862764910e-13
    81    3.587026491273e-13
    82   -2.312700560398e-01
    83    1.912804949348e-15
    84    1.174410865701e-02
    85   -5.893417344218e-03
    86    1.260615722932e-14
    87    1.068881422278e-14
    88   -7.291386647316e-15
    89   -8.738820453667e-15
    90    1.788742161331e-14
    91    4.479682883115e-15
    92   -7.382322694356e-03
    93    1.632352823621e-13
    94    5.118741857934e-14
    95   -3.427804113160e-14
    96   -1.668520512961e-02
    97   -2.053526492636e-12
    98    1.855249044221e-12
    99    1.082424654236e-12
   100   -1.249691523761e-02
   101   -3.955455523138e-11
   102    1.564331582472e-12
   103    1.183611165838e-11
   104   -2.339337516999e-01
   105   -3.770353998244e-14
   106   -7.301784956241e-03
   107   -2.741719508506e-03
   108    1.808537018228e-14
   109    4.629169455268e-14
   110    1.010560340495e-14
   111    2.069170691307e-14
   112   -1.481543774024e-14
   113    3.753581835000e-15
   114    9.885727279035e-02
   115   -9.311190835453e-14
   116   -6.328126738786e-14
   117    2.675157114255e-14
   118    1.579393459696e-01
   119   -4.474631224096e-13
   120    3.317407273392e-13
   121    8.231055497327e-14
   122    8.975638360277e-02
   123   -6.181258555149e-13
   124    8.593734192157e-14
   125   -4.034718913068e-14
   126   -1.096974675445e-01
   127   -4.006724988625e-15
   128    6.504851795563e-03
   129    5.519239010771e-03
   130   -2.601828175995e-15
   131   -1.318696428004e-15
   132    3.907635535948e-15
   133    1.319213895348e-14
   134   -5.957671259427e-15
   135    1.220122842605e-14
   136   -1.691161809101e-01
   137   -2.393596362240e-13
   138   -5.345652904286e-14
   139    3.946569430764e-14
   140   -2.598166333982e-01
   141    1.695916677473e-12
   142    2.490112959842e-13
   143   -9.433295285633e-13
   144   -4.101421805198e-01