[Molden Format]
[Atoms] (Angs)
  C      1    6     -0.13173890     -1.79208980      0.00000000
  H      2    1     -2.14962000     -1.30978739      0.00000000
  H      3    1     -0.31599560     -2.86503115      0.00000000
  H      4    1      0.14407746      2.04280963     -0.00000000
  C      5    6     -1.17258876      0.48030861      0.00000000
  O      6    8     -2.25008207      1.06833796      0.00000000
  C      7    6      1.31158357      0.28308717     -0.00000000
  O      8    8      2.36361668      0.96389345     -0.00000000
  N      9    7      0.07017030      1.03138997     -0.00000000
  N     10    7     -1.19586868     -0.94982644      0.00000000
  C     11    6      1.19165158     -1.13169473     -0.00000000
  H     12    1      2.09970506     -1.73445456     -0.00000000
[GTO]
1    0
S    6    1.000000
   4.56324000E+03    1.96665000E-03 
   6.82024000E+02    1.52306000E-02 
   1.54973000E+02    7.61269000E-02 
   4.44553000E+01    2.60801000E-01 
   1.30290000E+01    6.16462000E-01 
   1.82773000E+00    2.21006000E-01 
SP   3    1.000000
   2.09642000E+01    1.14660000E-01   4.02487000E-02 
   4.80331000E+00    9.19999000E-01   2.37594000E-01 
   1.45933000E+00   -3.03068000E-03   8.15854000E-01 
SP   1    1.000000
   4.83456000E-01    1.00000000E+00   1.00000000E+00 
SP   1    1.000000
   1.45585000E-01    1.00000000E+00   1.00000000E+00 
SP   1    1.000000
   4.38000000E-02    1.00000000E+00   1.00000000E+00 
D    1    1.000000
   6.26000000E-01    1.00000000E+00 

2    0
S    3    1.000000
   3.38650000E+01    2.54938000E-02 
   5.09479000E+00    1.90373000E-01 
   1.15879000E+00    8.52161000E-01 
S    1    1.000000
   3.25840000E-01    1.00000000E+00 
S    1    1.000000
   1.02741000E-01    1.00000000E+00 
S    1    1.000000
   3.60000000E-02    1.00000000E+00 
P    1    1.000000
   7.50000000E-01    1.00000000E+00 

3    0
S    3    1.000000
   3.38650000E+01    2.54938000E-02 
   5.09479000E+00    1.90373000E-01 
   1.15879000E+00    8.52161000E-01 
S    1    1.000000
   3.25840000E-01    1.00000000E+00 
S    1    1.000000
   1.02741000E-01    1.00000000E+00 
S    1    1.000000
   3.60000000E-02    1.00000000E+00 
P    1    1.000000
   7.50000000E-01    1.00000000E+00 

4    0
S    3    1.000000
   3.38650000E+01    2.54938000E-02 
   5.09479000E+00    1.90373000E-01 
   1.15879000E+00    8.52161000E-01 
S    1    1.000000
   3.25840000E-01    1.00000000E+00 
S    1    1.000000
   1.02741000E-01    1.00000000E+00 
S    1    1.000000
   3.60000000E-02    1.00000000E+00 
P    1    1.000000
   7.50000000E-01    1.00000000E+00 

5    0
S    6    1.000000
   4.56324000E+03    1.96665000E-03 
   6.82024000E+02    1.52306000E-02 
   1.54973000E+02    7.61269000E-02 
   4.44553000E+01    2.60801000E-01 
   1.30290000E+01    6.16462000E-01 
   1.82773000E+00    2.21006000E-01 
SP   3    1.000000
   2.09642000E+01    1.14660000E-01   4.02487000E-02 
   4.80331000E+00    9.19999000E-01   2.37594000E-01 
   1.45933000E+00   -3.03068000E-03   8.15854000E-01 
SP   1    1.000000
   4.83456000E-01    1.00000000E+00   1.00000000E+00 
SP   1    1.000000
   1.45585000E-01    1.00000000E+00   1.00000000E+00 
SP   1    1.000000
   4.38000000E-02    1.00000000E+00   1.00000000E+00 
D    1    1.000000
   6.26000000E-01    1.00000000E+00 

6    0
S    6    1.000000
   8.58850000E+03    1.89515000E-03 
   1.29723000E+03    1.43859000E-02 
   2.99296000E+02    7.07320000E-02 
   8.73771000E+01    2.40001000E-01 
   2.56789000E+01    5.94797000E-01 
   3.74004000E+00    2.80802000E-01 
SP   3    1.000000
   4.21175000E+01    1.13889000E-01   3.65114000E-02 
   9.62837000E+00    9.20811000E-01   2.37153000E-01 
   2.85332000E+00   -3.27447000E-03   8.19702000E-01 
SP   1    1.000000
   9.05661000E-01    1.00000000E+00   1.00000000E+00 
SP   1    1.000000
   2.55611000E-01    1.00000000E+00   1.00000000E+00 
SP   1    1.000000
   8.45000000E-02    1.00000000E+00   1.00000000E+00 
D    1    1.000000
   1.29200000E+00    1.00000000E+00 

7    0
S    6    1.000000
   4.56324000E+03    1.96665000E-03 
   6.82024000E+02    1.52306000E-02 
   1.54973000E+02    7.61269000E-02 
   4.44553000E+01    2.60801000E-01 
   1.30290000E+01    6.16462000E-01 
   1.82773000E+00    2.21006000E-01 
SP   3    1.000000
   2.09642000E+01    1.14660000E-01   4.02487000E-02 
   4.80331000E+00    9.19999000E-01   2.37594000E-01 
   1.45933000E+00   -3.03068000E-03   8.15854000E-01 
SP   1    1.000000
   4.83456000E-01    1.00000000E+00   1.00000000E+00 
SP   1    1.000000
   1.45585000E-01    1.00000000E+00   1.00000000E+00 
SP   1    1.000000
   4.38000000E-02    1.00000000E+00   1.00000000E+00 
D    1    1.000000
   6.26000000E-01    1.00000000E+00 

8    0
S    6    1.000000
   8.58850000E+03    1.89515000E-03 
   1.29723000E+03    1.43859000E-02 
   2.99296000E+02    7.07320000E-02 
   8.73771000E+01    2.40001000E-01 
   2.56789000E+01    5.94797000E-01 
   3.74004000E+00    2.80802000E-01 
SP   3    1.000000
   4.21175000E+01    1.13889000E-01   3.65114000E-02 
   9.62837000E+00    9.20811000E-01   2.37153000E-01 
   2.85332000E+00   -3.27447000E-03   8.19702000E-01 
SP   1    1.000000
   9.05661000E-01    1.00000000E+00   1.00000000E+00 
SP   1    1.000000
   2.55611000E-01    1.00000000E+00   1.00000000E+00 
SP   1    1.000000
   8.45000000E-02    1.00000000E+00   1.00000000E+00 
D    1    1.000000
   1.29200000E+00    1.00000000E+00 

9    0
S    6    1.000000
   6.29348000E+03    1.96979000E-03 
   9.49044000E+02    1.49613000E-02 
   2.18776000E+02    7.35006000E-02 
   6.36916000E+01    2.48937000E-01 
   1.88282000E+01    6.02460000E-01 
   2.72023000E+00    2.56202000E-01 
SP   3    1.000000
   3.06331000E+01    1.11906000E-01   3.83119000E-02 
   7.02614000E+00    9.21666000E-01   2.37403000E-01 
   2.11205000E+00   -2.56919000E-03   8.17592000E-01 
SP   1    1.000000
   6.84009000E-01    1.00000000E+00   1.00000000E+00 
SP   1    1.000000
   2.00878000E-01    1.00000000E+00   1.00000000E+00 
SP   1    1.000000
   6.39000000E-02    1.00000000E+00   1.00000000E+00 
D    1    1.000000
   9.13000000E-01    1.00000000E+00 

10    0
S    6    1.000000
   6.29348000E+03    1.96979000E-03 
   9.49044000E+02    1.49613000E-02 
   2.18776000E+02    7.35006000E-02 
   6.36916000E+01    2.48937000E-01 
   1.88282000E+01    6.02460000E-01 
   2.72023000E+00    2.56202000E-01 
SP   3    1.000000
   3.06331000E+01    1.11906000E-01   3.83119000E-02 
   7.02614000E+00    9.21666000E-01   2.37403000E-01 
   2.11205000E+00   -2.56919000E-03   8.17592000E-01 
SP   1    1.000000
   6.84009000E-01    1.00000000E+00   1.00000000E+00 
SP   1    1.000000
   2.00878000E-01    1.00000000E+00   1.00000000E+00 
SP   1    1.000000
   6.39000000E-02    1.00000000E+00   1.00000000E+00 
D    1    1.000000
   9.13000000E-01    1.00000000E+00 

11    0
S    6    1.000000
   4.56324000E+03    1.96665000E-03 
   6.82024000E+02    1.52306000E-02 
   1.54973000E+02    7.61269000E-02 
   4.44553000E+01    2.60801000E-01 
   1.30290000E+01    6.16462000E-01 
   1.82773000E+00    2.21006000E-01 
SP   3    1.000000
   2.09642000E+01    1.14660000E-01   4.02487000E-02 
   4.80331000E+00    9.19999000E-01   2.37594000E-01 
   1.45933000E+00   -3.03068000E-03   8.15854000E-01 
SP   1    1.000000
   4.83456000E-01    1.00000000E+00   1.00000000E+00 
SP   1    1.000000
   1.45585000E-01    1.00000000E+00   1.00000000E+00 
SP   1    1.000000
   4.38000000E-02    1.00000000E+00   1.00000000E+00 
D    1    1.000000
   6.26000000E-01    1.00000000E+00 

12    0
S    3    1.000000
   3.38650000E+01    2.54938000E-02 
   5.09479000E+00    1.90373000E-01 
   1.15879000E+00    8.52161000E-01 
S    1    1.000000
   3.25840000E-01    1.00000000E+00 
S    1    1.000000
   1.02741000E-01    1.00000000E+00 
S    1    1.000000
   3.60000000E-02    1.00000000E+00 
P    1    1.000000
   7.50000000E-01    1.00000000E+00 

[MO]
Sym=X
Ene= -0.005192
Spin=Alpha
Occup=1
     1   -3.075609999920e-08
     2    1.611895471045e-06
     3   -1.728888353824e-06
     4    2.698914923711e-07
     5    9.338521188699e-16
     6   -1.663049175307e-05
     7    4.366576764353e-06
     8    3.654046273942e-07
     9   -2.031666419667e-15
    10    4.427000506182e-04
    11    1.083110502204e-04
    12    2.694466857555e-04
    13    3.445544710903e-15
    14    2.888787376074e-05
    15   -1.955809639719e-04
    16    5.775864263390e-04
    17   -6.162012669285e-15
    18   -2.746246467516e-06
    19   -1.397638406715e-15
    20    3.760124499446e-16
    21    5.481281796468e-06
    22   -4.967684366119e-06
    23   -7.018462483363e-08
    24   -9.678415141002e-06
    25    3.696998288280e-05
    26   -7.335761585559e-05
    27    2.784452628928e-06
    28   -2.028862881681e-06
    29   -2.576566375231e-16
    30    3.729207687136e-07
    31    1.764163642140e-05
    32    1.532244471693e-04
    33    3.077342161683e-04
    34   -4.006716723076e-06
    35    2.950890650881e-06
    36   -1.171898638973e-16
    37   -2.915894774897e-06
    38   -5.892471567471e-05
    39   -8.108983685579e-05
    40   -9.038139225110e-05
    41    8.564201113696e-06
    42    7.098789408872e-06
    43    5.817308897707e-18
    44    5.737752405052e-07
    45   -1.221485083559e-06
    46   -5.308434487006e-06
    47    8.542292684072e-08
    48    1.057843790486e-15
    49    9.852713836551e-06
    50    2.172755601272e-05
    51    4.927977964375e-07
    52   -2.964973225869e-15
    53    2.522283829382e-04
    54    1.220259010986e-04
    55   -1.277233978529e-06
    56    2.150524887901e-15
    57    2.057095722493e-04
    58   -2.460843080863e-05
    59    1.672001611005e-04
    60    4.272837970307e-15
    61   -3.621074977767e-06
    62   -2.926464107145e-16
    63   -4.494973264670e-16
    64    3.020788146102e-06
    65   -1.999699308791e-06
    66    6.486312712357e-06
    67    4.665275765927e-06
    68   -2.237784644350e-07
    69    2.825418174815e-07
    70    1.036808226547e-15
    71    7.841056741586e-06
    72    3.257067116379e-06
    73   -7.574884791698e-07
    74   -3.014378598178e-15
    75   -2.777892129561e-05
    76   -1.645669193779e-05
    77    8.427807456578e-07
    78    4.954928576679e-15
    79    2.184560817077e-04
    80    1.277057258656e-04
    81   -4.167729772234e-05
    82   -6.314454221633e-15
    83   -2.201863080018e-07
    84    5.747139335876e-16
    85    1.209951721302e-15
    86   -6.221599734280e-07
    87    8.494395762208e-08
    88   -3.692714910568e-06
    89    7.188647471805e-05
    90   -4.228274458603e-05
    91   -3.202042721019e-05
    92   -4.990336870979e-16
    93   -2.747730846839e-04
    94   -3.409237951911e-04
    95   -2.235812534100e-04
    96    8.774152992308e-17
    97    2.713011917107e-04
    98   -4.030695926930e-04
    99   -4.045202922212e-04
   100   -3.825617346856e-16
   101    2.198799874048e-03
   102    6.412550431827e-04
   103   -4.342918063716e-04
   104   -3.781380939072e-15
   105    5.589999139339e-05
   106   -6.548930085108e-16
   107    1.382601172516e-16
   108   -1.005945177261e-04
   109   -1.864515755232e-04
   110   -5.515109962228e-01
   111   -4.716913434338e-01
   112    1.500813202659e-03
   113    9.402519143078e-04
   114    9.844457612347e-16
   115   -5.396932561559e-03
   116   -6.300933336162e-04
   117   -4.036197705897e-04
   118   -1.264486272976e-15
   119    1.171897951329e-03
   120    1.588619061257e-04
   121    1.140300648553e-04
   122    2.029214558666e-15
   123   -1.304830237164e-03
   124    2.440160406103e-05
   125   -5.656623932474e-06
   126   -4.605313365015e-16
   127    9.219161069402e-05
   128   -4.773595213618e-16
   129    8.293177197568e-17
   130    4.073467711146e-05
   131    1.056145052655e-04
   132   -4.533156952381e-07
   133   -2.285988633965e-06
   134    1.153278849182e-05
   135   -3.769639946145e-06
   136   -6.074741073109e-16
   137    3.223128487996e-05
   138   -2.660410108924e-05
   139    8.601856551615e-06
   140    1.012173107328e-15
   141   -2.439724207417e-04
   142    9.475896941715e-05
   143    2.201299271942e-04
   144   -1.035127339201e-15
   145    2.151547527587e-04
   146    5.358451144688e-04
   147    5.485640989463e-05
   148    1.426631420146e-15
   149    8.034149658493e-06
   150   -1.079528222309e-15
   151   -4.010516914713e-16
   152   -1.589264995381e-05
   153    1.710314832248e-05
   154    6.986776587505e-09
   155   -5.737465956027e-07
   156   -2.825719610987e-07
   157   -3.222692973198e-07
   158    2.440608834370e-16
   159    9.720091290497e-06
   160    9.773757503695e-07
   161    1.836846501464e-06
   162   -4.217222029967e-16
   163   -1.505020441030e-04
   164   -7.892195624652e-05
   165   -5.319530022000e-06
   166   -1.197585983926e-15
   167   -2.224552999883e-04
   168    4.649167232121e-05
   169   -2.255855863702e-05
   170    1.262577722805e-15
   171   -3.745075980587e-07
   172   -1.007814487579e-16
   173   -6.798315219846e-17
   174    4.546006733153e-07
   175    1.652716928133e-06
   176   -1.481967112537e-06
   177   -1.561030118909e-07
   178    4.452644340406e-06
   179    1.731556297472e-05
   180   -1.376180219373e-15
   181    1.781578690404e-05
   182   -1.064275513234e-05
   183   -8.922357808110e-05
   184    3.424531665415e-15
   185   -6.082235691025e-04
   186    4.820541172830e-04
   187   -1.646287995886e-04
   188   -3.735118893388e-15
   189   -1.786505509250e-03
   190   -1.067947559086e-04
   191   -1.052963365124e-03
   192    5.759035274515e-15
   193    7.401093321109e-06
   194   -5.329007809066e-16
   195   -3.887952131365e-16
   196    3.335599401814e-05
   197   -3.337915748088e-05
   198    2.422288361480e-06
   199   -1.218740754891e-04
   200   -1.396239551405e-04
   201   -3.249786705357e-04
   202    2.194482004435e-05
   203   -1.156076205803e-05
   204    8.207770340433e-16
Sym=X
Ene= 0.005192
Spin=Alpha
Occup=0
     1   -6.580476762495e-16
     2   -3.427915807526e-15
     3    1.818244172501e-14
     4   -1.154423144030e-14
     5    2.235145241468e-02
     6    3.636451315651e-14
     7    3.470035381224e-14
     8   -2.755595335323e-14
     9    2.842457816530e-02
    10   -4.684609808111e-13
    11    2.639701745176e-13
    12   -2.863652485641e-13
    13    6.106319219360e-02
    14    6.467883654326e-13
    15   -2.238615924106e-12
    16    1.264759152402e-12
    17    6.475123791162e-01
    18   -7.337933778750e-16
    19    1.075789990262e-02
    20   -8.783358443068e-03
    21   -1.310385262283e-14
    22    1.653697427034e-16
    23   -3.038747306591e-15
    24   -1.284882673826e-13
    25    1.417953753746e-12
    26   -2.719423589605e-13
    27   -1.252890859059e-14
    28   -2.941240766380e-15
    29   -7.131755433672e-03
    30   -3.505938200474e-15
    31   -7.360159978414e-14
    32   -5.499218341913e-14
    33    2.892843086192e-14
    34    7.541332403161e-16
    35    4.285728098955e-15
    36    4.773008144878e-03
    37    1.889945651381e-15
    38    7.750747529726e-14
    39   -1.511792004272e-13
    40    2.223284842422e-13
    41   -4.279481280037e-15
    42    1.315115009379e-15
    43    4.550044310406e-03
    44    3.840278618333e-16
    45    1.588584187294e-15
    46   -6.098906828664e-15
    47   -9.034565530195e-15
    48   -2.906930285539e-02
    49    1.051295562878e-15
    50   -1.531796251267e-14
    51   -2.480135570776e-15
    52   -6.641290812816e-02
    53   -1.668439506930e-13
    54   -2.062667658231e-13
    55    3.180940623019e-13
    56   -5.286400992995e-02
    57   -1.933080304134e-12
    58   -1.437512647345e-12
    59   -6.066846915531e-13
    60    5.996357553373e-01
    61    5.805314134938e-15
    62   -4.864400531790e-03
    63    2.177058143087e-02
    64    1.386171930844e-14
    65   -2.017186980995e-14
    66    1.540142641047e-15
    67    2.655243456574e-15
    68    1.709978994052e-14
    69    9.947571402868e-15
    70    3.845315876306e-02
    71   -8.588832515162e-15
    72    3.434350235112e-14
    73    1.549643129208e-14
    74    5.392627326783e-02
    75   -8.541032723620e-14
    76   -9.883770310928e-14
    77   -4.620826969857e-14
    78    8.305927326294e-02
    79   -2.868075844203e-13
    80   -9.638211091902e-14
    81   -1.689829727260e-14
    82   -7.541503495823e-02
    83   -1.254890946968e-15
    84   -6.828805645752e-05
    85    3.719331248909e-04
    86    1.293469633107e-15
    87    5.181736922418e-16
    88    3.489864257671e-15
    89    1.848098471966e-15
    90    5.058231023464e-15
    91   -3.711639153316e-15
    92   -3.486737559267e-02
    93   -7.054069976817e-15
    94    3.759419912751e-14
    95   -2.424113346308e-14
    96   -2.831698360219e-02
    97   -1.552432491867e-13
    98    4.097943245696e-13
    99    1.959279023198e-13
   100   -1.471926979159e-01
   101    2.206416371489e-11
   102   -1.436101457479e-12
   103   -5.404010351467e-12
   104    1.241405343428e+00
   105   -1.015831336898e-14
   106   -2.206333300033e-02
   107   -2.308830857023e-02
   108    7.841271864799e-16
   109    2.869960870929e-15
   110    8.519372030309e-16
   111    1.141912296783e-15
   112   -1.185197918328e-15
   113    7.429280596279e-15
   114   -1.868555406312e-01
   115   -1.719972124638e-14
   116   -1.064047535992e-14
   117   -1.211203979137e-15
   118   -2.391830228721e-01
   119   -2.493125263798e-15
   120    7.937264013809e-14
   121    7.402836867152e-14
   122   -1.605030079700e-01
   123   -8.542495467268e-13
   124    8.874470036322e-14
   125    2.769538432066e-13
   126   -1.852795234065e-01
   127   -2.700001213975e-16
   128    9.885180592537e-03
   129    6.572916694485e-03
   130   -1.848309236379e-15
   131   -8.753433737634e-16
   132    1.135298801879e-15
   133    1.182985603870e-15
   134    6.073441485732e-15
   135   -5.361112135533e-15
   136    2.149342215001e-02
   137   -3.633850055168e-14
   138    1.728600537102e-14
   139    1.429573205995e-14
   140    1.898649995531e-02
   141    2.404120265654e-13
   142    1.312320209296e-13
   143   -3.214281111748e-13
   144    9.886562588049e-02
   145   -3.132161929372e-13
   146   -5.331944022948e-13
   147    1.043014798729e-12
   148   -4.689886209466e-01
   149    2.900068793552e-15
   150    2.754901677489e-03
   151    1.755023316667e-03
   152   -6.582327600455e-15
   153    3.340319785577e-16
   154    5.956214123405e-15
   155    1.172343266729e-14
   156    1.397005087802e-14
   157   -9.324365075154e-15
   158   -8.851009230308e-02
   159   -1.010000869865e-13
   160    9.281566729650e-15
   161   -7.354316037482e-15
   162   -1.523532029759e-01
   163    4.238245273087e-13
   164    1.395706688209e-13
   165    1.975676350652e-15
   166   -1.217046527183e-01
   167   -7.802820806983e-13
   168    2.451385271383e-12
   169    6.566265974660e-13
   170   -4.325940077165e-01
   171    1.322696130132e-17
   172   -1.108234304535e-04
   173   -6.286658619661e-03
   174    9.366213030639e-17
   175    8.773380969881e-15
   176   -4.336726708984e-15
   177   -1.119524405254e-15
   178    2.382072446306e-14
   179   -3.376200978623e-15
   180    4.127079882106e-02
   181   -2.298574250853e-14
   182    5.158308900505e-15
   183   -2.715803336605e-14
   184    9.109355380310e-02
   185    5.721456735415e-13
   186    1.312404575068e-13
   187    1.973143790966e-13
   188   -1.092403563390e-02
   189   -1.758622468049e-11
   190    1.592133617245e-12
   191   -7.460736563105e-12
   192   -6.134224868331e-01
   193   -1.173753717013e-14
   194    5.741125695717e-03
   195    8.034964016134e-03
   196    8.191406073488e-15
   197    3.308760683059e-16
   198   -6.442793070463e-15
   199    5.113382089166e-16
   200   -4.638815339069e-13
   201   -1.901769249851e-12
   202   -5.873941856422e-15
   203    3.777874417892e-15
   204    6.245898047409e-03
[5D]
