[Molden Format]
[Atoms] (Angs)
  C      1    6     -0.13173890     -1.79208980      0.00000000
  H      2    1     -2.14962000     -1.30978739      0.00000000
  H      3    1     -0.31599560     -2.86503115      0.00000000
  H      4    1      0.14407746      2.04280963     -0.00000000
  C      5    6     -1.17258876      0.48030861      0.00000000
  O      6    8     -2.25008207      1.06833796      0.00000000
  C      7    6      1.31158357      0.28308717     -0.00000000
  O      8    8      2.36361668      0.96389345     -0.00000000
  N      9    7      0.07017030      1.03138997     -0.00000000
  N     10    7     -1.19586868     -0.94982644      0.00000000
  C     11    6      1.19165158     -1.13169473     -0.00000000
  H     12    1      2.09970506     -1.73445456     -0.00000000
[GTO]
1    0
S    6    1.000000
   4.56324000E+03    1.96665000E-03 
   6.82024000E+02    1.52306000E-02 
   1.54973000E+02    7.61269000E-02 
   4.44553000E+01    2.60801000E-01 
   1.30290000E+01    6.16462000E-01 
   1.82773000E+00    2.21006000E-01 
SP   3    1.000000
   2.09642000E+01    1.14660000E-01   4.02487000E-02 
   4.80331000E+00    9.19999000E-01   2.37594000E-01 
   1.45933000E+00   -3.03068000E-03   8.15854000E-01 
SP   1    1.000000
   4.83456000E-01    1.00000000E+00   1.00000000E+00 
SP   1    1.000000
   1.45585000E-01    1.00000000E+00   1.00000000E+00 
SP   1    1.000000
   4.38000000E-02    1.00000000E+00   1.00000000E+00 
D    1    1.000000
   6.26000000E-01    1.00000000E+00 

2    0
S    3    1.000000
   3.38650000E+01    2.54938000E-02 
   5.09479000E+00    1.90373000E-01 
   1.15879000E+00    8.52161000E-01 
S    1    1.000000
   3.25840000E-01    1.00000000E+00 
S    1    1.000000
   1.02741000E-01    1.00000000E+00 
S    1    1.000000
   3.60000000E-02    1.00000000E+00 
P    1    1.000000
   7.50000000E-01    1.00000000E+00 

3    0
S    3    1.000000
   3.38650000E+01    2.54938000E-02 
   5.09479000E+00    1.90373000E-01 
   1.15879000E+00    8.52161000E-01 
S    1    1.000000
   3.25840000E-01    1.00000000E+00 
S    1    1.000000
   1.02741000E-01    1.00000000E+00 
S    1    1.000000
   3.60000000E-02    1.00000000E+00 
P    1    1.000000
   7.50000000E-01    1.00000000E+00 

4    0
S    3    1.000000
   3.38650000E+01    2.54938000E-02 
   5.09479000E+00    1.90373000E-01 
   1.15879000E+00    8.52161000E-01 
S    1    1.000000
   3.25840000E-01    1.00000000E+00 
S    1    1.000000
   1.02741000E-01    1.00000000E+00 
S    1    1.000000
   3.60000000E-02    1.00000000E+00 
P    1    1.000000
   7.50000000E-01    1.00000000E+00 

5    0
S    6    1.000000
   4.56324000E+03    1.96665000E-03 
   6.82024000E+02    1.52306000E-02 
   1.54973000E+02    7.61269000E-02 
   4.44553000E+01    2.60801000E-01 
   1.30290000E+01    6.16462000E-01 
   1.82773000E+00    2.21006000E-01 
SP   3    1.000000
   2.09642000E+01    1.14660000E-01   4.02487000E-02 
   4.80331000E+00    9.19999000E-01   2.37594000E-01 
   1.45933000E+00   -3.03068000E-03   8.15854000E-01 
SP   1    1.000000
   4.83456000E-01    1.00000000E+00   1.00000000E+00 
SP   1    1.000000
   1.45585000E-01    1.00000000E+00   1.00000000E+00 
SP   1    1.000000
   4.38000000E-02    1.00000000E+00   1.00000000E+00 
D    1    1.000000
   6.26000000E-01    1.00000000E+00 

6    0
S    6    1.000000
   8.58850000E+03    1.89515000E-03 
   1.29723000E+03    1.43859000E-02 
   2.99296000E+02    7.07320000E-02 
   8.73771000E+01    2.40001000E-01 
   2.56789000E+01    5.94797000E-01 
   3.74004000E+00    2.80802000E-01 
SP   3    1.000000
   4.21175000E+01    1.13889000E-01   3.65114000E-02 
   9.62837000E+00    9.20811000E-01   2.37153000E-01 
   2.85332000E+00   -3.27447000E-03   8.19702000E-01 
SP   1    1.000000
   9.05661000E-01    1.00000000E+00   1.00000000E+00 
SP   1    1.000000
   2.55611000E-01    1.00000000E+00   1.00000000E+00 
SP   1    1.000000
   8.45000000E-02    1.00000000E+00   1.00000000E+00 
D    1    1.000000
   1.29200000E+00    1.00000000E+00 

7    0
S    6    1.000000
   4.56324000E+03    1.96665000E-03 
   6.82024000E+02    1.52306000E-02 
   1.54973000E+02    7.61269000E-02 
   4.44553000E+01    2.60801000E-01 
   1.30290000E+01    6.16462000E-01 
   1.82773000E+00    2.21006000E-01 
SP   3    1.000000
   2.09642000E+01    1.14660000E-01   4.02487000E-02 
   4.80331000E+00    9.19999000E-01   2.37594000E-01 
   1.45933000E+00   -3.03068000E-03   8.15854000E-01 
SP   1    1.000000
   4.83456000E-01    1.00000000E+00   1.00000000E+00 
SP   1    1.000000
   1.45585000E-01    1.00000000E+00   1.00000000E+00 
SP   1    1.000000
   4.38000000E-02    1.00000000E+00   1.00000000E+00 
D    1    1.000000
   6.26000000E-01    1.00000000E+00 

8    0
S    6    1.000000
   8.58850000E+03    1.89515000E-03 
   1.29723000E+03    1.43859000E-02 
   2.99296000E+02    7.07320000E-02 
   8.73771000E+01    2.40001000E-01 
   2.56789000E+01    5.94797000E-01 
   3.74004000E+00    2.80802000E-01 
SP   3    1.000000
   4.21175000E+01    1.13889000E-01   3.65114000E-02 
   9.62837000E+00    9.20811000E-01   2.37153000E-01 
   2.85332000E+00   -3.27447000E-03   8.19702000E-01 
SP   1    1.000000
   9.05661000E-01    1.00000000E+00   1.00000000E+00 
SP   1    1.000000
   2.55611000E-01    1.00000000E+00   1.00000000E+00 
SP   1    1.000000
   8.45000000E-02    1.00000000E+00   1.00000000E+00 
D    1    1.000000
   1.29200000E+00    1.00000000E+00 

9    0
S    6    1.000000
   6.29348000E+03    1.96979000E-03 
   9.49044000E+02    1.49613000E-02 
   2.18776000E+02    7.35006000E-02 
   6.36916000E+01    2.48937000E-01 
   1.88282000E+01    6.02460000E-01 
   2.72023000E+00    2.56202000E-01 
SP   3    1.000000
   3.06331000E+01    1.11906000E-01   3.83119000E-02 
   7.02614000E+00    9.21666000E-01   2.37403000E-01 
   2.11205000E+00   -2.56919000E-03   8.17592000E-01 
SP   1    1.000000
   6.84009000E-01    1.00000000E+00   1.00000000E+00 
SP   1    1.000000
   2.00878000E-01    1.00000000E+00   1.00000000E+00 
SP   1    1.000000
   6.39000000E-02    1.00000000E+00   1.00000000E+00 
D    1    1.000000
   9.13000000E-01    1.00000000E+00 

10    0
S    6    1.000000
   6.29348000E+03    1.96979000E-03 
   9.49044000E+02    1.49613000E-02 
   2.18776000E+02    7.35006000E-02 
   6.36916000E+01    2.48937000E-01 
   1.88282000E+01    6.02460000E-01 
   2.72023000E+00    2.56202000E-01 
SP   3    1.000000
   3.06331000E+01    1.11906000E-01   3.83119000E-02 
   7.02614000E+00    9.21666000E-01   2.37403000E-01 
   2.11205000E+00   -2.56919000E-03   8.17592000E-01 
SP   1    1.000000
   6.84009000E-01    1.00000000E+00   1.00000000E+00 
SP   1    1.000000
   2.00878000E-01    1.00000000E+00   1.00000000E+00 
SP   1    1.000000
   6.39000000E-02    1.00000000E+00   1.00000000E+00 
D    1    1.000000
   9.13000000E-01    1.00000000E+00 

11    0
S    6    1.000000
   4.56324000E+03    1.96665000E-03 
   6.82024000E+02    1.52306000E-02 
   1.54973000E+02    7.61269000E-02 
   4.44553000E+01    2.60801000E-01 
   1.30290000E+01    6.16462000E-01 
   1.82773000E+00    2.21006000E-01 
SP   3    1.000000
   2.09642000E+01    1.14660000E-01   4.02487000E-02 
   4.80331000E+00    9.19999000E-01   2.37594000E-01 
   1.45933000E+00   -3.03068000E-03   8.15854000E-01 
SP   1    1.000000
   4.83456000E-01    1.00000000E+00   1.00000000E+00 
SP   1    1.000000
   1.45585000E-01    1.00000000E+00   1.00000000E+00 
SP   1    1.000000
   4.38000000E-02    1.00000000E+00   1.00000000E+00 
D    1    1.000000
   6.26000000E-01    1.00000000E+00 

12    0
S    3    1.000000
   3.38650000E+01    2.54938000E-02 
   5.09479000E+00    1.90373000E-01 
   1.15879000E+00    8.52161000E-01 
S    1    1.000000
   3.25840000E-01    1.00000000E+00 
S    1    1.000000
   1.02741000E-01    1.00000000E+00 
S    1    1.000000
   3.60000000E-02    1.00000000E+00 
P    1    1.000000
   7.50000000E-01    1.00000000E+00 

[MO]
Sym=X
Ene= -0.002384
Spin=Alpha
Occup=1
     1   -3.074965052369e-08
     2    1.611896485287e-06
     3   -1.728827978060e-06
     4    2.697899377710e-07
     5    9.338492572278e-16
     6   -1.663047813363e-05
     7    4.366284676546e-06
     8    3.658176874970e-07
     9   -2.031643469881e-15
    10    4.427044321296e-04
    11    1.083097818178e-04
    12    2.694461783432e-04
    13    3.445509774904e-15
    14    2.887846899311e-05
    15   -1.955908704603e-04
    16    5.775812505807e-04
    17   -6.162125664737e-15
    18   -2.746268980145e-06
    19   -1.397639419815e-15
    20    3.759926764373e-16
    21    5.481216342379e-06
    22   -4.967740614496e-06
    23   -7.025926611976e-08
    24   -9.679103429239e-06
    25    3.696828269612e-05
    26   -7.336330383931e-05
    27    2.784238972569e-06
    28   -2.028680377158e-06
    29   -2.576711755976e-16
    30    3.729949868923e-07
    31    1.764108819266e-05
    32    1.532239424985e-04
    33    3.077311930626e-04
    34   -4.006701243354e-06
    35    2.950827955559e-06
    36   -1.172088952075e-16
    37   -2.915949649696e-06
    38   -5.892581706786e-05
    39   -8.109190289148e-05
    40   -9.038680144116e-05
    41    8.564049256268e-06
    42    7.098920303417e-06
    43    5.821440577348e-18
    44    5.736907397402e-07
    45   -1.220030548203e-06
    46   -5.307368249255e-06
    47    8.481794566683e-08
    48    1.057820639072e-15
    49    9.847113097981e-06
    50    2.173468527599e-05
    51    4.890683194110e-07
    52   -2.964943674062e-15
    53    2.522299575676e-04
    54    1.220343006745e-04
    55   -1.280557512714e-06
    56    2.150459078425e-15
    57    2.057028731512e-04
    58   -2.462148016027e-05
    59    1.672058007444e-04
    60    4.272898127639e-15
    61   -3.619943375507e-06
    62   -2.926686035293e-16
    63   -4.494955679422e-16
    64    3.018829754278e-06
    65   -1.996308656729e-06
    66   -4.009015325045e-06
    67   -4.311226203848e-06
    68   -2.543048691235e-07
    69    2.991796248065e-07
    70    1.036829163095e-15
    71    7.736636687616e-06
    72    3.269741188919e-06
    73   -7.642158458100e-07
    74   -3.014396753886e-15
    75   -2.775496149114e-05
    76   -1.645990581386e-05
    77    8.442684600795e-07
    78    4.954932615320e-15
    79    2.184278498918e-04
    80    1.277047042482e-04
    81   -4.167638061571e-05
    82   -6.314474675568e-15
    83   -2.186568061820e-07
    84    5.747064817620e-16
    85    1.209963006512e-15
    86   -6.210670921581e-07
    87    8.358281095907e-08
    88   -3.692708221480e-06
    89    7.188646564414e-05
    90   -4.228267770674e-05
    91   -3.202046206404e-05
    92   -4.990433613237e-16
    93   -2.747730568941e-04
    94   -3.409240683935e-04
    95   -2.235810472005e-04
    96    8.777795743869e-17
    97    2.713044211084e-04
    98   -4.030710438392e-04
    99   -4.045193152063e-04
   100   -3.825679052799e-16
   101    2.198781908520e-03
   102    6.412526237690e-04
   103   -4.342779959767e-04
   104   -3.781580041664e-15
   105    5.589993169351e-05
   106   -6.548676107213e-16
   107    1.382632745824e-16
   108   -1.005943732920e-04
   109   -1.864516282705e-04
   110   -5.515109962478e-01
   111   -4.716913434700e-01
   112    1.500813196167e-03
   113    9.402519247189e-04
   114    9.844246867132e-16
   115   -5.396932419251e-03
   116   -6.300933506119e-04
   117   -4.036198002398e-04
   118   -1.264429983381e-15
   119    1.171897238223e-03
   120    1.588621613679e-04
   121    1.140302162178e-04
   122    2.029118397061e-15
   123   -1.304827453126e-03
   124    2.440033537885e-05
   125   -5.657891255278e-06
   126   -4.604497913135e-16
   127    9.219160792631e-05
   128   -4.773543334214e-16
   129    8.293926141748e-17
   130    4.073466075883e-05
   131    1.056144987640e-04
   132   -4.533178570477e-07
   133   -2.286017131856e-06
   134    1.153256599271e-05
   135   -3.769601463310e-06
   136   -6.074864963713e-16
   137    3.223183207157e-05
   138   -2.660342066730e-05
   139    8.601703804887e-06
   140    1.012207971870e-15
   141   -2.439784020170e-04
   142    9.475900313199e-05
   143    2.201345276776e-04
   144   -1.035136973728e-15
   145    2.151554496995e-04
   146    5.358360837727e-04
   147    5.485900904672e-05
   148    1.426683365195e-15
   149    8.034295846323e-06
   150   -1.079540127204e-15
   151   -4.010653289261e-16
   152   -1.589315741000e-05
   153    1.710305230423e-05
   154    6.975646877215e-09
   155   -5.737732355606e-07
   156   -2.826256096471e-07
   157   -3.220598575452e-07
   158    2.440575796520e-16
   159    9.720506604390e-06
   160    9.774981481366e-07
   161    1.836348612617e-06
   162   -4.217437993044e-16
   163   -1.505054310459e-04
   164   -7.892579935966e-05
   165   -5.319761951441e-06
   166   -1.197531321773e-15
   167   -2.224526616358e-04
   168    4.648732291347e-05
   169   -2.255069890652e-05
   170    1.262624392580e-15
   171   -3.743591940017e-07
   172   -1.007709081171e-16
   173   -6.796706226816e-17
   174    4.549991595068e-07
   175    1.652833224738e-06
   176   -1.481970071288e-06
   177   -1.560891101668e-07
   178    4.452613026627e-06
   179    1.731557374214e-05
   180   -1.376160708561e-15
   181    1.781558738455e-05
   182   -1.064256290263e-05
   183   -8.922364256742e-05
   184    3.424527979473e-15
   185   -6.082227093513e-04
   186    4.820533011393e-04
   187   -1.646283261857e-04
   188   -3.735120197582e-15
   189   -1.786450646418e-03
   190   -1.068027361009e-04
   191   -1.052955381134e-03
   192    5.759204641537e-15
   193    7.401023403495e-06
   194   -5.329071571912e-16
   195   -3.887893548737e-16
   196    3.335597668273e-05
   197   -3.337912801310e-05
   198    2.422265167798e-06
   199   -1.218739460739e-04
   200   -1.396235248998e-04
   201   -3.249748552573e-04
   202    2.194482835841e-05
   203   -1.156076983625e-05
   204    8.207658716556e-16
Sym=X
Ene= 0.002384
Spin=Alpha
Occup=0
     1   -1.269629937244e-15
     2   -2.723607026573e-15
     3   -1.628162982578e-14
     4   -6.502338930108e-17
     5   -2.895676462220e-02
     6   -2.332670284232e-14
     7    7.505990871680e-15
     8    5.094960104129e-14
     9   -2.066160663192e-02
    10    7.461260312384e-13
    11   -3.489899564168e-13
    12    1.230267348634e-13
    13   -1.874427058561e-01
    14   -6.055155122516e-12
    15    3.045262841883e-12
    16   -4.654427536330e-12
    17    8.285415280390e-01
    18   -7.265694751220e-15
    19    4.120449360010e-03
    20   -9.319315683552e-03
    21    2.975540407644e-14
    22    6.087780619727e-15
    23   -1.322493427402e-14
    24    1.096382287577e-13
    25   -1.498342884142e-12
    26    9.520307082953e-13
    27    1.761590435734e-14
    28    5.761607820264e-17
    29    1.342006043542e-03
    30    6.851927007053e-15
    31    7.222246636944e-14
    32   -3.556562586487e-13
    33   -1.359566260560e-12
    34   -6.200959761003e-15
    35   -1.252062995356e-14
    36    3.186365159142e-03
    37   -9.566225933169e-15
    38   -1.415414040909e-14
    39   -5.817780234073e-13
    40   -1.163022006563e-12
    41   -5.710435891407e-16
    42    2.196055834164e-15
    43   -2.339682276778e-02
    44   -3.909201211627e-15
    45   -1.368104249709e-16
    46    5.384504911998e-15
    47    5.793578523737e-15
    48    2.228070367456e-02
    49   -3.621446395971e-14
    50    4.082193809293e-14
    51   -4.408277268428e-14
    52    2.550409388570e-02
    53    5.631461847845e-13
    54    2.606383018216e-13
    55   -7.083697275608e-14
    56    1.784218545567e-01
    57    8.151589778118e-12
    58    2.787399467319e-12
    59   -2.205033426968e-13
    60    6.947843768089e-01
    61    9.552298659714e-15
    62   -1.523548081383e-02
    63    3.137049030976e-03
    64   -1.298529897299e-14
    65    2.521191760789e-14
    66    4.369396607818e-16
    67    2.183532190155e-15
    68   -1.781534236673e-14
    69   -4.634624581752e-15
    70    4.278825496659e-02
    71   -9.718322233838e-15
    72   -2.356612642697e-14
    73   -5.597122054720e-15
    74    6.188670717163e-02
    75    9.908225492524e-14
    76    9.155186324258e-14
    77    3.296691677584e-14
    78    5.388378191657e-02
    79   -6.711687758477e-14
    80    1.092615777427e-13
    81    1.817787596044e-13
    82   -1.812069267927e-01
    83    3.702831086481e-16
    84    1.909726151426e-03
    85   -2.451753005208e-03
    86    1.770088121190e-15
    87   -4.678187375535e-15
    88   -1.873367100545e-16
    89   -6.452723830836e-15
    90   -2.440126419180e-14
    91    8.954773378385e-15
    92    7.848398541822e-02
    93    1.350468825395e-14
    94   -1.370188457868e-14
    95    3.996538255966e-14
    96    1.194365167292e-01
    97    2.641349425002e-14
    98   -7.396840959150e-13
    99   -4.353303919854e-13
   100    2.441487293740e-01
   101   -3.337287093996e-11
   102    1.865727349785e-12
   103    7.422801920431e-12
   104   -1.042741697108e+00
   105    3.354801443861e-16
   106    3.454937383545e-02
   107    4.670074878674e-03
   108   -2.314296278654e-16
   109   -9.241342228283e-15
   110   -2.087459851918e-15
   111   -3.710235157846e-15
   112    2.268659131463e-16
   113   -5.887660660541e-15
   114    1.720864405332e-01
   115    3.484052648249e-14
   116    3.360275545451e-14
   117   -2.047135453671e-14
   118    2.221310613124e-01
   119    3.271394006222e-14
   120   -1.574203374933e-13
   121   -2.980180248279e-14
   122    1.721831051879e-01
   123    1.407275787427e-12
   124    6.049609841851e-14
   125   -6.313721682104e-13
   126    8.289136132803e-02
   127    2.019824500940e-15
   128   -1.127734369346e-02
   129   -1.034638246658e-02
   130    1.756705946528e-15
   131   -4.906129542740e-15
   132    2.037016940020e-15
   133    3.566065895208e-15
   134   -1.392186412808e-14
   135    1.383131067866e-14
   136   -1.367964830119e-01
   137    2.345018811264e-14
   138    2.217909692302e-16
   139   -1.086420898603e-14
   140   -2.086987873856e-01
   141   -3.361472104943e-13
   142   -1.803535807524e-13
   143    4.191557041232e-13
   144   -2.668187622010e-01
   145   -6.197616654746e-13
   146    2.275333175627e-12
   147   -2.646940739309e-14
   148   -2.658101864400e-01
   149   -8.214946760691e-16
   150   -1.981483462280e-03
   151   -9.942910345206e-03
   152    9.277184851645e-15
   153    3.439331392798e-15
   154   -4.855887058046e-15
   155   -3.673947492056e-15
   156   -2.326267319392e-15
   157    1.121809293295e-14
   158   -3.084934211606e-02
   159    9.827306819902e-14
   160    1.588317646143e-14
   161   -5.752950282864e-15
   162   -5.344566151250e-02
   163   -4.918027364728e-13
   164   -1.626061869747e-13
   165    1.127406255368e-13
   166   -5.207032826182e-02
   167    2.161184780758e-12
   168   -2.222514834427e-12
   169   -9.904356789498e-13
   170   -3.603182642844e-01
   171    4.958013268067e-15
   172   -4.913383596911e-03
   173    1.435337112126e-03
   174   -7.750911090868e-15
   175   -1.289836950055e-14
   176   -1.555613629815e-15
   177   -8.004161873654e-15
   178   -2.882122481492e-14
   179    2.950560530445e-15
   180   -3.896513427150e-03
   181    1.053347576374e-13
   182   -1.357563883011e-14
   183   -3.431698059370e-15
   184   -4.067734097173e-03
   185   -1.074107784348e-12
   186   -2.607185125091e-13
   187   -7.843965131310e-14
   188   -5.094285884546e-02
   189    2.824818612872e-11
   190   -3.196749472853e-12
   191    1.157700575825e-11
   192    3.580823621689e-01
   193    3.218944380833e-14
   194    4.355556701480e-03
   195    1.908591170205e-03
   196   -1.698286981467e-14
   197    1.829776437891e-14
   198    5.668252126508e-15
   199    1.287597451947e-13
   200    1.093027703097e-12
   201    3.066124055752e-12
   202   -2.018074644143e-14
   203    2.732818368053e-14
   204    1.993062697021e-03
[5D]
