[Molden Format]
[Atoms] (Angs)
  C      1    6     -0.13173890     -1.79208980      0.00000000
  H      2    1     -2.14962000     -1.30978739      0.00000000
  H      3    1     -0.31599560     -2.86503115      0.00000000
  H      4    1      0.14407746      2.04280963     -0.00000000
  C      5    6     -1.17258876      0.48030861      0.00000000
  O      6    8     -2.25008207      1.06833796      0.00000000
  C      7    6      1.31158357      0.28308717     -0.00000000
  O      8    8      2.36361668      0.96389345     -0.00000000
  N      9    7      0.07017030      1.03138997     -0.00000000
  N     10    7     -1.19586868     -0.94982644      0.00000000
  C     11    6      1.19165158     -1.13169473     -0.00000000
  H     12    1      2.09970506     -1.73445456     -0.00000000
[GTO]
1    0
S    6    1.000000
   4.56324000E+03    1.96665000E-03 
   6.82024000E+02    1.52306000E-02 
   1.54973000E+02    7.61269000E-02 
   4.44553000E+01    2.60801000E-01 
   1.30290000E+01    6.16462000E-01 
   1.82773000E+00    2.21006000E-01 
SP   3    1.000000
   2.09642000E+01    1.14660000E-01   4.02487000E-02 
   4.80331000E+00    9.19999000E-01   2.37594000E-01 
   1.45933000E+00   -3.03068000E-03   8.15854000E-01 
SP   1    1.000000
   4.83456000E-01    1.00000000E+00   1.00000000E+00 
SP   1    1.000000
   1.45585000E-01    1.00000000E+00   1.00000000E+00 
SP   1    1.000000
   4.38000000E-02    1.00000000E+00   1.00000000E+00 
D    1    1.000000
   6.26000000E-01    1.00000000E+00 

2    0
S    3    1.000000
   3.38650000E+01    2.54938000E-02 
   5.09479000E+00    1.90373000E-01 
   1.15879000E+00    8.52161000E-01 
S    1    1.000000
   3.25840000E-01    1.00000000E+00 
S    1    1.000000
   1.02741000E-01    1.00000000E+00 
S    1    1.000000
   3.60000000E-02    1.00000000E+00 
P    1    1.000000
   7.50000000E-01    1.00000000E+00 

3    0
S    3    1.000000
   3.38650000E+01    2.54938000E-02 
   5.09479000E+00    1.90373000E-01 
   1.15879000E+00    8.52161000E-01 
S    1    1.000000
   3.25840000E-01    1.00000000E+00 
S    1    1.000000
   1.02741000E-01    1.00000000E+00 
S    1    1.000000
   3.60000000E-02    1.00000000E+00 
P    1    1.000000
   7.50000000E-01    1.00000000E+00 

4    0
S    3    1.000000
   3.38650000E+01    2.54938000E-02 
   5.09479000E+00    1.90373000E-01 
   1.15879000E+00    8.52161000E-01 
S    1    1.000000
   3.25840000E-01    1.00000000E+00 
S    1    1.000000
   1.02741000E-01    1.00000000E+00 
S    1    1.000000
   3.60000000E-02    1.00000000E+00 
P    1    1.000000
   7.50000000E-01    1.00000000E+00 

5    0
S    6    1.000000
   4.56324000E+03    1.96665000E-03 
   6.82024000E+02    1.52306000E-02 
   1.54973000E+02    7.61269000E-02 
   4.44553000E+01    2.60801000E-01 
   1.30290000E+01    6.16462000E-01 
   1.82773000E+00    2.21006000E-01 
SP   3    1.000000
   2.09642000E+01    1.14660000E-01   4.02487000E-02 
   4.80331000E+00    9.19999000E-01   2.37594000E-01 
   1.45933000E+00   -3.03068000E-03   8.15854000E-01 
SP   1    1.000000
   4.83456000E-01    1.00000000E+00   1.00000000E+00 
SP   1    1.000000
   1.45585000E-01    1.00000000E+00   1.00000000E+00 
SP   1    1.000000
   4.38000000E-02    1.00000000E+00   1.00000000E+00 
D    1    1.000000
   6.26000000E-01    1.00000000E+00 

6    0
S    6    1.000000
   8.58850000E+03    1.89515000E-03 
   1.29723000E+03    1.43859000E-02 
   2.99296000E+02    7.07320000E-02 
   8.73771000E+01    2.40001000E-01 
   2.56789000E+01    5.94797000E-01 
   3.74004000E+00    2.80802000E-01 
SP   3    1.000000
   4.21175000E+01    1.13889000E-01   3.65114000E-02 
   9.62837000E+00    9.20811000E-01   2.37153000E-01 
   2.85332000E+00   -3.27447000E-03   8.19702000E-01 
SP   1    1.000000
   9.05661000E-01    1.00000000E+00   1.00000000E+00 
SP   1    1.000000
   2.55611000E-01    1.00000000E+00   1.00000000E+00 
SP   1    1.000000
   8.45000000E-02    1.00000000E+00   1.00000000E+00 
D    1    1.000000
   1.29200000E+00    1.00000000E+00 

7    0
S    6    1.000000
   4.56324000E+03    1.96665000E-03 
   6.82024000E+02    1.52306000E-02 
   1.54973000E+02    7.61269000E-02 
   4.44553000E+01    2.60801000E-01 
   1.30290000E+01    6.16462000E-01 
   1.82773000E+00    2.21006000E-01 
SP   3    1.000000
   2.09642000E+01    1.14660000E-01   4.02487000E-02 
   4.80331000E+00    9.19999000E-01   2.37594000E-01 
   1.45933000E+00   -3.03068000E-03   8.15854000E-01 
SP   1    1.000000
   4.83456000E-01    1.00000000E+00   1.00000000E+00 
SP   1    1.000000
   1.45585000E-01    1.00000000E+00   1.00000000E+00 
SP   1    1.000000
   4.38000000E-02    1.00000000E+00   1.00000000E+00 
D    1    1.000000
   6.26000000E-01    1.00000000E+00 

8    0
S    6    1.000000
   8.58850000E+03    1.89515000E-03 
   1.29723000E+03    1.43859000E-02 
   2.99296000E+02    7.07320000E-02 
   8.73771000E+01    2.40001000E-01 
   2.56789000E+01    5.94797000E-01 
   3.74004000E+00    2.80802000E-01 
SP   3    1.000000
   4.21175000E+01    1.13889000E-01   3.65114000E-02 
   9.62837000E+00    9.20811000E-01   2.37153000E-01 
   2.85332000E+00   -3.27447000E-03   8.19702000E-01 
SP   1    1.000000
   9.05661000E-01    1.00000000E+00   1.00000000E+00 
SP   1    1.000000
   2.55611000E-01    1.00000000E+00   1.00000000E+00 
SP   1    1.000000
   8.45000000E-02    1.00000000E+00   1.00000000E+00 
D    1    1.000000
   1.29200000E+00    1.00000000E+00 

9    0
S    6    1.000000
   6.29348000E+03    1.96979000E-03 
   9.49044000E+02    1.49613000E-02 
   2.18776000E+02    7.35006000E-02 
   6.36916000E+01    2.48937000E-01 
   1.88282000E+01    6.02460000E-01 
   2.72023000E+00    2.56202000E-01 
SP   3    1.000000
   3.06331000E+01    1.11906000E-01   3.83119000E-02 
   7.02614000E+00    9.21666000E-01   2.37403000E-01 
   2.11205000E+00   -2.56919000E-03   8.17592000E-01 
SP   1    1.000000
   6.84009000E-01    1.00000000E+00   1.00000000E+00 
SP   1    1.000000
   2.00878000E-01    1.00000000E+00   1.00000000E+00 
SP   1    1.000000
   6.39000000E-02    1.00000000E+00   1.00000000E+00 
D    1    1.000000
   9.13000000E-01    1.00000000E+00 

10    0
S    6    1.000000
   6.29348000E+03    1.96979000E-03 
   9.49044000E+02    1.49613000E-02 
   2.18776000E+02    7.35006000E-02 
   6.36916000E+01    2.48937000E-01 
   1.88282000E+01    6.02460000E-01 
   2.72023000E+00    2.56202000E-01 
SP   3    1.000000
   3.06331000E+01    1.11906000E-01   3.83119000E-02 
   7.02614000E+00    9.21666000E-01   2.37403000E-01 
   2.11205000E+00   -2.56919000E-03   8.17592000E-01 
SP   1    1.000000
   6.84009000E-01    1.00000000E+00   1.00000000E+00 
SP   1    1.000000
   2.00878000E-01    1.00000000E+00   1.00000000E+00 
SP   1    1.000000
   6.39000000E-02    1.00000000E+00   1.00000000E+00 
D    1    1.000000
   9.13000000E-01    1.00000000E+00 

11    0
S    6    1.000000
   4.56324000E+03    1.96665000E-03 
   6.82024000E+02    1.52306000E-02 
   1.54973000E+02    7.61269000E-02 
   4.44553000E+01    2.60801000E-01 
   1.30290000E+01    6.16462000E-01 
   1.82773000E+00    2.21006000E-01 
SP   3    1.000000
   2.09642000E+01    1.14660000E-01   4.02487000E-02 
   4.80331000E+00    9.19999000E-01   2.37594000E-01 
   1.45933000E+00   -3.03068000E-03   8.15854000E-01 
SP   1    1.000000
   4.83456000E-01    1.00000000E+00   1.00000000E+00 
SP   1    1.000000
   1.45585000E-01    1.00000000E+00   1.00000000E+00 
SP   1    1.000000
   4.38000000E-02    1.00000000E+00   1.00000000E+00 
D    1    1.000000
   6.26000000E-01    1.00000000E+00 

12    0
S    3    1.000000
   3.38650000E+01    2.54938000E-02 
   5.09479000E+00    1.90373000E-01 
   1.15879000E+00    8.52161000E-01 
S    1    1.000000
   3.25840000E-01    1.00000000E+00 
S    1    1.000000
   1.02741000E-01    1.00000000E+00 
S    1    1.000000
   3.60000000E-02    1.00000000E+00 
P    1    1.000000
   7.50000000E-01    1.00000000E+00 

[MO]
Sym=X
Ene= -0.010160
Spin=Alpha
Occup=1
     1   -3.075863356482e-08
     2    1.611895072458e-06
     3   -1.728912071263e-06
     4    2.699313863723e-07
     5    9.338532429257e-16
     6   -1.663049710160e-05
     7    4.366691505734e-06
     8    3.652423635981e-07
     9   -2.031675434906e-15
    10    4.426983293707e-04
    11    1.083115484804e-04
    12    2.694468850573e-04
    13    3.445558434585e-15
    14    2.889156826369e-05
    15   -1.955770723540e-04
    16    5.775884594920e-04
    17   -6.161968280299e-15
    18   -2.746237623534e-06
    19   -1.397638008598e-15
    20    3.760202175993e-16
    21    5.481307508470e-06
    22   -4.967662269392e-06
    23   -7.015530324417e-08
    24   -9.678144757509e-06
    25    3.697065076907e-05
    26   -7.335538141895e-05
    27    2.784536559982e-06
    28   -2.028934575332e-06
    29   -2.576509264579e-16
    30    3.728916133049e-07
    31    1.764185178216e-05
    32    1.532246454057e-04
    33    3.077354037143e-04
    34   -4.006722803629e-06
    35    2.950915279399e-06
    36   -1.171823877535e-16
    37   -2.915873217961e-06
    38   -5.892428300497e-05
    39   -8.108902524015e-05
    40   -9.037926733221e-05
    41    8.564260767500e-06
    42    7.098737988433e-06
    43    5.815685835816e-18
    44    5.738084351621e-07
    45   -1.222056473350e-06
    46   -5.308853340166e-06
    47    8.566058357806e-08
    48    1.057852885028e-15
    49    9.854913992144e-06
    50    2.172475539860e-05
    51    4.942628591258e-07
    52   -2.964984834509e-15
    53    2.522277643463e-04
    54    1.220226014535e-04
    55   -1.275928383527e-06
    56    2.150550739841e-15
    57    2.057122038577e-04
    58   -2.460330458643e-05
    59    1.671979456440e-04
    60    4.272814338082e-15
    61   -3.621519508448e-06
    62   -2.926376926090e-16
    63   -4.494980172296e-16
    64    3.021557467309e-06
    65   -2.001031269603e-06
    66    1.060922697315e-05
    67    8.191544583114e-06
    68   -2.117866763720e-07
    69    2.760059328335e-07
    70    1.036800001871e-15
    71    7.882076414338e-06
    72    3.252088318419e-06
    73   -7.548457455122e-07
    74   -3.014371465712e-15
    75   -2.778833350171e-05
    76   -1.645542941865e-05
    77    8.421963218195e-07
    78    4.954926989675e-15
    79    2.184671720832e-04
    80    1.277061271783e-04
    81   -4.167765798822e-05
    82   -6.314446186020e-15
    83   -2.207871472144e-07
    84    5.747168608559e-16
    85    1.209947287976e-15
    86   -6.225892935132e-07
    87    8.547866133801e-08
    88   -3.692717537899e-06
    89    7.188647827547e-05
    90   -4.228277085425e-05
    91   -3.202041351527e-05
    92   -4.990298866905e-16
    93   -2.747730955734e-04
    94   -3.409236878343e-04
    95   -2.235813343938e-04
    96    8.772721997351e-17
    97    2.712999230689e-04
    98   -4.030690225945e-04
    99   -4.045206759851e-04
   100   -3.825593106327e-16
   101    2.198806931287e-03
   102    6.412559935454e-04
   103   -4.342972315114e-04
   104   -3.781302724571e-15
   105    5.590001483996e-05
   106   -6.549029855431e-16
   107    1.382588769332e-16
   108   -1.005945744547e-04
   109   -1.864515547838e-04
   110   -5.515109961584e-01
   111   -4.716913433728e-01
   112    1.500813205060e-03
   113    9.402519101249e-04
   114    9.844540399108e-16
   115   -5.396932616928e-03
   116   -6.300933268773e-04
   117   -4.036197589022e-04
   118   -1.264508385278e-15
   119    1.171898231345e-03
   120    1.588618058423e-04
   121    1.140300053837e-04
   122    2.029252333945e-15
   123   -1.304831330697e-03
   124    2.440210243922e-05
   125   -5.656126085324e-06
   126   -4.605633701205e-16
   127    9.219161177214e-05
   128   -4.773615593102e-16
   129    8.292882986539e-17
   130    4.073468353128e-05
   131    1.056145078090e-04
   132   -4.533148459624e-07
   133   -2.285977438818e-06
   134    1.153287589573e-05
   135   -3.769655063109e-06
   136   -6.074692404154e-16
   137    3.223106992168e-05
   138   -2.660436837900e-05
   139    8.601916554763e-06
   140    1.012159411275e-15
   141   -2.439700710735e-04
   142    9.475895616345e-05
   143    2.201281199493e-04
   144   -1.035123554336e-15
   145    2.151544789559e-04
   146    5.358486619738e-04
   147    5.485538885572e-05
   148    1.426611014260e-15
   149    8.034092230251e-06
   150   -1.079523545562e-15
   151   -4.010463341853e-16
   152   -1.589245060655e-05
   153    1.710318603995e-05
   154    6.991148707393e-09
   155   -5.737361304838e-07
   156   -2.825508861348e-07
   157   -3.223515722039e-07
   158    2.440621812496e-16
   159    9.719928140410e-06
   160    9.773276683540e-07
   161    1.837042088598e-06
   162   -4.217137192063e-16
   163   -1.505007135842e-04
   164   -7.892044653591e-05
   165   -5.319438911866e-06
   166   -1.197607456921e-15
   167   -2.224563363990e-04
   168    4.649338090877e-05
   169   -2.256164619859e-05
   170    1.262559389238e-15
   171   -3.745658960756e-07
   172   -1.007855894625e-16
   173   -6.798947285200e-17
   174    4.544441346278e-07
   175    1.652671242790e-06
   176   -1.481965950094e-06
   177   -1.561084729354e-07
   178    4.452656641060e-06
   179    1.731555874320e-05
   180   -1.376187883733e-15
   181    1.781586528017e-05
   182   -1.064283064551e-05
   183   -8.922355273989e-05
   184    3.424533113036e-15
   185   -6.082239067811e-04
   186    4.820544378437e-04
   187   -1.646289855407e-04
   188   -3.735118380687e-15
   189   -1.786527061019e-03
   190   -1.067916210128e-04
   191   -1.052966501396e-03
   192    5.758968740940e-15
   193    7.401120786341e-06
   194   -5.328982760369e-16
   195   -3.887975144187e-16
   196    3.335600082477e-05
   197   -3.337916905350e-05
   198    2.422297472491e-06
   199   -1.218741263156e-04
   200   -1.396241241396e-04
   201   -3.249801692719e-04
   202    2.194481677614e-05
   203   -1.156075900134e-05
   204    8.207814189195e-16
Sym=X
Ene= 0.010160
Spin=Alpha
Occup=0
     1   -2.151037775454e-15
     2   -2.524497727322e-15
     3    1.490029026559e-15
     4   -5.505448729892e-15
     5    5.422113630317e-02
     6    4.873058388347e-15
     7   -4.559024620446e-15
     8    1.615758302073e-14
     9    8.822868197951e-02
    10    1.748930060325e-13
    11    3.642848388762e-14
    12    6.408950083174e-14
    13    3.949584569435e-02
    14   -1.734760485538e-12
    15    4.766624115369e-13
    16   -8.797193588207e-13
    17    7.171994328773e-01
    18   -4.050316618695e-15
    19    3.058607333697e-02
    20   -9.380191867464e-03
    21   -1.960232137216e-16
    22    8.735010119590e-16
    23    4.393123022441e-15
    24   -5.440580595083e-14
    25    1.689169786848e-13
    26    1.425094953219e-13
    27   -9.154161244936e-15
    28   -1.164164093713e-15
    29   -9.417954512357e-03
    30    7.087740667935e-16
    31    1.954015386490e-14
    32   -4.241836492208e-14
    33   -9.591362077464e-14
    34   -5.111871313273e-15
    35   -4.181094730599e-15
    36    1.047108524592e-02
    37   -8.538699291299e-15
    38    4.201988325762e-14
    39   -2.660309984304e-13
    40   -6.978721804721e-14
    41   -5.676080519724e-15
    42   -9.991863852521e-16
    43   -5.176680037703e-03
    44    3.978551997254e-16
    45    8.794272925331e-16
    46    1.894449129335e-15
    47   -1.659554444784e-15
    48   -5.493122479298e-03
    49   -1.381130067279e-14
    50    6.898908419404e-15
    51    4.458249386427e-15
    52   -1.398879818841e-02
    53    1.831132228617e-13
    54    5.471248618047e-14
    55    4.425099720116e-14
    56    3.630744095511e-02
    57    2.268054242496e-12
    58    1.608578042449e-13
    59   -7.143996973857e-13
    60    2.690113324072e-01
    61    7.735957532750e-15
    62   -1.519270980116e-02
    63    1.834184412071e-02
    64   -1.740183127975e-15
    65   -5.881436771441e-15
    66    8.581149940956e-16
    67    1.224354714478e-15
    68    3.119508375999e-15
    69    3.251685459948e-15
    70    6.476140536085e-02
    71   -1.371501560667e-15
    72    1.122519211933e-14
    73    4.010835239339e-15
    74    9.655212319658e-02
    75   -2.127821776202e-14
    76   -3.681871273581e-14
    77   -1.396736436969e-14
    78    1.002241090245e-01
    79    1.236892124379e-14
    80    1.091492230902e-13
    81    3.928955854231e-14
    82   -5.020301684014e-02
    83   -1.297236530877e-15
    84    2.177289110114e-03
    85   -8.481238822702e-04
    86    1.885587404127e-15
    87    6.796958542283e-16
    88    9.679958996159e-16
    89    2.081555401685e-15
    90    1.734354160456e-16
    91   -3.016367222919e-16
    92    4.826005217745e-02
    93   -8.871141261145e-15
    94    6.882903829292e-15
    95   -4.021136549354e-15
    96    8.587099322580e-02
    97    2.564657181194e-14
    98   -5.095259310544e-14
    99   -1.006859502360e-13
   100    9.699422978647e-02
   101   -1.796650022979e-12
   102   -1.489128858707e-13
   103    1.670963934624e-13
   104   -6.244331927485e-01
   105   -1.368501227629e-15
   106   -6.519624827145e-03
   107   -3.326789550732e-02
   108   -1.703435848164e-15
   109   -2.370245610944e-15
   110   -8.295343674136e-16
   111    9.730406348891e-16
   112    7.709570501076e-16
   113   -1.238493471770e-15
   114   -9.116998117886e-02
   115   -4.882067412328e-15
   116    4.436962555784e-15
   117   -7.926421178915e-15
   118   -1.144224074565e-01
   119    4.408696485919e-14
   120   -2.385296222737e-14
   121    2.245922648804e-14
   122   -9.903084039940e-02
   123    1.899565007142e-14
   124    9.505747046791e-14
   125   -2.162924929152e-14
   126    4.804567478699e-02
   127    2.507285352705e-15
   128    6.711070832044e-04
   129   -8.815238689215e-04
   130    2.080692095818e-16
   131    1.051678462825e-15
   132    4.348270001576e-16
   133   -5.765772966641e-16
   134    8.830576098404e-17
   135    5.235726439454e-15
   136   -3.232359363029e-02
   137   -3.206132009082e-16
   138    9.164800447870e-15
   139    3.375714345330e-15
   140   -4.930545883756e-02
   141   -2.943147074833e-14
   142    4.350916592275e-14
   143    9.695985459841e-15
   144   -7.048310450088e-02
   145   -2.282740652680e-13
   146    4.734276371770e-13
   147    3.232983568997e-13
   148   -5.862754961448e-03
   149    9.233225704225e-17
   150    1.278731150626e-03
   151   -2.630730779599e-03
   152    2.895922489465e-15
   153    5.028428124259e-15
   154    4.617020052574e-16
   155    2.778662973838e-15
   156    5.856549676937e-15
   157    1.835718401558e-15
   158   -1.252920346419e-01
   159    6.441689145684e-15
   160    6.221006390086e-15
   161    6.258003590769e-15
   162   -2.035423063008e-01
   163   -8.386979422957e-14
   164   -8.253919752183e-14
   165    2.082887726944e-14
   166   -2.134822715592e-01
   167    5.086352947540e-14
   168    4.222652051988e-13
   169   -4.091420044137e-13
   170   -3.146373298119e-01
   171   -2.315816237543e-15
   172    3.812618423939e-04
   173    6.946592777412e-04
   174    1.809270983745e-15
   175    3.281926417992e-15
   176   -9.099165052549e-16
   177   -5.208125493998e-15
   178    1.552053707104e-15
   179    5.606240222768e-16
   180    1.390452108446e-01
   181    2.715647968316e-14
   182   -3.458745633018e-15
   183   -4.482604837388e-15
   184    2.304672845978e-01
   185   -2.195754373636e-13
   186    6.850085479721e-14
   187   -2.941232682890e-14
   188    2.240783834173e-01
   189    1.408250438137e-12
   190    1.044331665687e-13
   191    8.535530356977e-13
   192    1.771742876095e-01
   193    7.762818707914e-15
   194   -4.493215787961e-03
   195    1.159431877329e-02
   196   -4.161976747710e-15
   197    8.206312613380e-15
   198    3.155757542785e-15
   199    1.503046446063e-14
   200    7.657224105030e-14
   201   -4.573998859355e-14
   202   -7.841669600697e-15
   203    6.685385570651e-15
   204    1.335128592392e-02
[5D]
