[Molden Format]
[Atoms] (Angs)
  C      1    6     -0.13173890     -1.79208980      0.00000000
  H      2    1     -2.14962000     -1.30978739      0.00000000
  H      3    1     -0.31599560     -2.86503115      0.00000000
  H      4    1      0.14407746      2.04280963     -0.00000000
  C      5    6     -1.17258876      0.48030861      0.00000000
  O      6    8     -2.25008207      1.06833796      0.00000000
  C      7    6      1.31158357      0.28308717     -0.00000000
  O      8    8      2.36361668      0.96389345     -0.00000000
  N      9    7      0.07017030      1.03138997     -0.00000000
  N     10    7     -1.19586868     -0.94982644      0.00000000
  C     11    6      1.19165158     -1.13169473     -0.00000000
  H     12    1      2.09970506     -1.73445456     -0.00000000
[GTO]
1    0
S    6    1.000000
   4.56324000E+03    1.96665000E-03 
   6.82024000E+02    1.52306000E-02 
   1.54973000E+02    7.61269000E-02 
   4.44553000E+01    2.60801000E-01 
   1.30290000E+01    6.16462000E-01 
   1.82773000E+00    2.21006000E-01 
SP   3    1.000000
   2.09642000E+01    1.14660000E-01   4.02487000E-02 
   4.80331000E+00    9.19999000E-01   2.37594000E-01 
   1.45933000E+00   -3.03068000E-03   8.15854000E-01 
SP   1    1.000000
   4.83456000E-01    1.00000000E+00   1.00000000E+00 
SP   1    1.000000
   1.45585000E-01    1.00000000E+00   1.00000000E+00 
SP   1    1.000000
   4.38000000E-02    1.00000000E+00   1.00000000E+00 
D    1    1.000000
   6.26000000E-01    1.00000000E+00 

2    0
S    3    1.000000
   3.38650000E+01    2.54938000E-02 
   5.09479000E+00    1.90373000E-01 
   1.15879000E+00    8.52161000E-01 
S    1    1.000000
   3.25840000E-01    1.00000000E+00 
S    1    1.000000
   1.02741000E-01    1.00000000E+00 
S    1    1.000000
   3.60000000E-02    1.00000000E+00 
P    1    1.000000
   7.50000000E-01    1.00000000E+00 

3    0
S    3    1.000000
   3.38650000E+01    2.54938000E-02 
   5.09479000E+00    1.90373000E-01 
   1.15879000E+00    8.52161000E-01 
S    1    1.000000
   3.25840000E-01    1.00000000E+00 
S    1    1.000000
   1.02741000E-01    1.00000000E+00 
S    1    1.000000
   3.60000000E-02    1.00000000E+00 
P    1    1.000000
   7.50000000E-01    1.00000000E+00 

4    0
S    3    1.000000
   3.38650000E+01    2.54938000E-02 
   5.09479000E+00    1.90373000E-01 
   1.15879000E+00    8.52161000E-01 
S    1    1.000000
   3.25840000E-01    1.00000000E+00 
S    1    1.000000
   1.02741000E-01    1.00000000E+00 
S    1    1.000000
   3.60000000E-02    1.00000000E+00 
P    1    1.000000
   7.50000000E-01    1.00000000E+00 

5    0
S    6    1.000000
   4.56324000E+03    1.96665000E-03 
   6.82024000E+02    1.52306000E-02 
   1.54973000E+02    7.61269000E-02 
   4.44553000E+01    2.60801000E-01 
   1.30290000E+01    6.16462000E-01 
   1.82773000E+00    2.21006000E-01 
SP   3    1.000000
   2.09642000E+01    1.14660000E-01   4.02487000E-02 
   4.80331000E+00    9.19999000E-01   2.37594000E-01 
   1.45933000E+00   -3.03068000E-03   8.15854000E-01 
SP   1    1.000000
   4.83456000E-01    1.00000000E+00   1.00000000E+00 
SP   1    1.000000
   1.45585000E-01    1.00000000E+00   1.00000000E+00 
SP   1    1.000000
   4.38000000E-02    1.00000000E+00   1.00000000E+00 
D    1    1.000000
   6.26000000E-01    1.00000000E+00 

6    0
S    6    1.000000
   8.58850000E+03    1.89515000E-03 
   1.29723000E+03    1.43859000E-02 
   2.99296000E+02    7.07320000E-02 
   8.73771000E+01    2.40001000E-01 
   2.56789000E+01    5.94797000E-01 
   3.74004000E+00    2.80802000E-01 
SP   3    1.000000
   4.21175000E+01    1.13889000E-01   3.65114000E-02 
   9.62837000E+00    9.20811000E-01   2.37153000E-01 
   2.85332000E+00   -3.27447000E-03   8.19702000E-01 
SP   1    1.000000
   9.05661000E-01    1.00000000E+00   1.00000000E+00 
SP   1    1.000000
   2.55611000E-01    1.00000000E+00   1.00000000E+00 
SP   1    1.000000
   8.45000000E-02    1.00000000E+00   1.00000000E+00 
D    1    1.000000
   1.29200000E+00    1.00000000E+00 

7    0
S    6    1.000000
   4.56324000E+03    1.96665000E-03 
   6.82024000E+02    1.52306000E-02 
   1.54973000E+02    7.61269000E-02 
   4.44553000E+01    2.60801000E-01 
   1.30290000E+01    6.16462000E-01 
   1.82773000E+00    2.21006000E-01 
SP   3    1.000000
   2.09642000E+01    1.14660000E-01   4.02487000E-02 
   4.80331000E+00    9.19999000E-01   2.37594000E-01 
   1.45933000E+00   -3.03068000E-03   8.15854000E-01 
SP   1    1.000000
   4.83456000E-01    1.00000000E+00   1.00000000E+00 
SP   1    1.000000
   1.45585000E-01    1.00000000E+00   1.00000000E+00 
SP   1    1.000000
   4.38000000E-02    1.00000000E+00   1.00000000E+00 
D    1    1.000000
   6.26000000E-01    1.00000000E+00 

8    0
S    6    1.000000
   8.58850000E+03    1.89515000E-03 
   1.29723000E+03    1.43859000E-02 
   2.99296000E+02    7.07320000E-02 
   8.73771000E+01    2.40001000E-01 
   2.56789000E+01    5.94797000E-01 
   3.74004000E+00    2.80802000E-01 
SP   3    1.000000
   4.21175000E+01    1.13889000E-01   3.65114000E-02 
   9.62837000E+00    9.20811000E-01   2.37153000E-01 
   2.85332000E+00   -3.27447000E-03   8.19702000E-01 
SP   1    1.000000
   9.05661000E-01    1.00000000E+00   1.00000000E+00 
SP   1    1.000000
   2.55611000E-01    1.00000000E+00   1.00000000E+00 
SP   1    1.000000
   8.45000000E-02    1.00000000E+00   1.00000000E+00 
D    1    1.000000
   1.29200000E+00    1.00000000E+00 

9    0
S    6    1.000000
   6.29348000E+03    1.96979000E-03 
   9.49044000E+02    1.49613000E-02 
   2.18776000E+02    7.35006000E-02 
   6.36916000E+01    2.48937000E-01 
   1.88282000E+01    6.02460000E-01 
   2.72023000E+00    2.56202000E-01 
SP   3    1.000000
   3.06331000E+01    1.11906000E-01   3.83119000E-02 
   7.02614000E+00    9.21666000E-01   2.37403000E-01 
   2.11205000E+00   -2.56919000E-03   8.17592000E-01 
SP   1    1.000000
   6.84009000E-01    1.00000000E+00   1.00000000E+00 
SP   1    1.000000
   2.00878000E-01    1.00000000E+00   1.00000000E+00 
SP   1    1.000000
   6.39000000E-02    1.00000000E+00   1.00000000E+00 
D    1    1.000000
   9.13000000E-01    1.00000000E+00 

10    0
S    6    1.000000
   6.29348000E+03    1.96979000E-03 
   9.49044000E+02    1.49613000E-02 
   2.18776000E+02    7.35006000E-02 
   6.36916000E+01    2.48937000E-01 
   1.88282000E+01    6.02460000E-01 
   2.72023000E+00    2.56202000E-01 
SP   3    1.000000
   3.06331000E+01    1.11906000E-01   3.83119000E-02 
   7.02614000E+00    9.21666000E-01   2.37403000E-01 
   2.11205000E+00   -2.56919000E-03   8.17592000E-01 
SP   1    1.000000
   6.84009000E-01    1.00000000E+00   1.00000000E+00 
SP   1    1.000000
   2.00878000E-01    1.00000000E+00   1.00000000E+00 
SP   1    1.000000
   6.39000000E-02    1.00000000E+00   1.00000000E+00 
D    1    1.000000
   9.13000000E-01    1.00000000E+00 

11    0
S    6    1.000000
   4.56324000E+03    1.96665000E-03 
   6.82024000E+02    1.52306000E-02 
   1.54973000E+02    7.61269000E-02 
   4.44553000E+01    2.60801000E-01 
   1.30290000E+01    6.16462000E-01 
   1.82773000E+00    2.21006000E-01 
SP   3    1.000000
   2.09642000E+01    1.14660000E-01   4.02487000E-02 
   4.80331000E+00    9.19999000E-01   2.37594000E-01 
   1.45933000E+00   -3.03068000E-03   8.15854000E-01 
SP   1    1.000000
   4.83456000E-01    1.00000000E+00   1.00000000E+00 
SP   1    1.000000
   1.45585000E-01    1.00000000E+00   1.00000000E+00 
SP   1    1.000000
   4.38000000E-02    1.00000000E+00   1.00000000E+00 
D    1    1.000000
   6.26000000E-01    1.00000000E+00 

12    0
S    3    1.000000
   3.38650000E+01    2.54938000E-02 
   5.09479000E+00    1.90373000E-01 
   1.15879000E+00    8.52161000E-01 
S    1    1.000000
   3.25840000E-01    1.00000000E+00 
S    1    1.000000
   1.02741000E-01    1.00000000E+00 
S    1    1.000000
   3.60000000E-02    1.00000000E+00 
P    1    1.000000
   7.50000000E-01    1.00000000E+00 

[MO]
Sym=X
Ene= -0.003791
Spin=Alpha
Occup=1
     1    3.388953551975e-07
     2    5.330289641833e-08
     3    3.172508829499e-06
     4   -5.336308282632e-06
     5   -1.503636281188e-16
     6    7.155644275486e-07
     7   -1.534808557143e-05
     8    2.170474613384e-05
     9    1.205913870394e-15
    10    2.302341226342e-04
    11   -6.664919394967e-05
    12   -2.666120553255e-05
    13   -1.835736643087e-15
    14   -4.941847759349e-04
    15   -5.205494641063e-04
    16   -2.719635190009e-04
    17   -5.937515000873e-15
    18   -1.182967627051e-06
    19   -5.324176018489e-17
    20   -1.039020987832e-15
    21   -3.439336168515e-06
    22   -2.955664870448e-06
    23   -3.922117308808e-06
    24   -3.616699053663e-05
    25   -8.933818076218e-05
    26   -2.988823845030e-04
    27   -1.122681820202e-05
    28    9.589911097653e-06
    29   -7.639220939595e-16
    30    3.899886182082e-06
    31   -2.880725316039e-05
    32   -2.651775114336e-05
    33   -1.588511635054e-04
    34    8.133800566149e-07
    35   -3.294386521110e-06
    36   -1.000023889047e-15
    37   -2.883477929288e-06
    38   -5.787434383873e-05
    39   -1.085627712014e-04
    40   -2.842329212590e-04
    41   -7.979488517679e-06
    42    6.878049365051e-06
    43    2.171041495618e-16
    44   -4.440192254705e-06
    45    7.643031867753e-05
    46    5.602672881680e-05
    47   -3.178946932502e-05
    48   -1.216513705239e-15
    49   -2.942975523419e-04
    50    3.746159004996e-04
    51   -1.959698925975e-04
    52    1.552820202538e-15
    53    8.274211576901e-05
    54    4.413665360271e-04
    55   -1.746391426034e-04
    56   -3.458027641598e-15
    57   -3.520111778378e-04
    58   -6.856941413715e-04
    59    2.963427945441e-04
    60    3.161062045444e-15
    61    5.946139492452e-05
    62   -1.166149891168e-15
    63    9.240149632996e-17
    64   -1.029060587959e-04
    65    1.781659159557e-04
    66   -5.514897451357e-01
    67   -4.716811867084e-01
    68   -1.604046971646e-03
    69    8.742537731588e-04
    70    1.100141664357e-15
    71   -5.486878382759e-03
    72    6.659745352751e-04
    73   -3.534976459969e-04
    74   -9.540293114031e-16
    75    1.258996851404e-03
    76   -1.688771019743e-04
    77    7.817376365283e-05
    78    2.122409343445e-16
    79   -1.483473888219e-03
    80   -5.368146585538e-05
    81    4.819026493772e-05
    82   -1.074809478416e-15
    83    8.036952764122e-05
    84   -3.915622477518e-16
    85    5.930013172846e-16
    86    5.742676905271e-05
    87   -7.152310238277e-05
    88    3.514671845653e-07
    89   -4.764284332478e-07
    90    3.514034941053e-06
    91   -1.831603266433e-06
    92   -5.083465100404e-16
    93    1.458830150376e-06
    94   -1.435751429207e-05
    95    1.083437388538e-05
    96    1.914128456985e-15
    97    1.696940199227e-04
    98   -7.625431935020e-05
    99    5.133634148120e-05
   100   -3.242433463017e-16
   101   -9.440090842317e-04
   102   -1.271277136542e-04
   103    7.256817086173e-04
   104   -1.046210681024e-14
   105   -3.136713960444e-06
   106    1.334554274760e-15
   107    1.659064930065e-16
   108    7.588945503606e-06
   109   -2.772635008166e-06
   110   -4.159600428333e-06
   111   -4.344274606823e-06
   112   -3.333723156743e-07
   113    5.519209149812e-07
   114   -1.107381211225e-15
   115    7.449847940709e-06
   116   -8.963151201198e-07
   117   -1.560087101976e-06
   118    2.957798533769e-15
   119   -3.746497775646e-05
   120    1.341283280033e-05
   121    7.954118476871e-06
   122   -5.052917712017e-15
   123    1.462838947736e-04
   124   -6.666431861050e-05
   125   -6.659304359669e-05
   126    4.284888458178e-15
   127   -1.449564316635e-07
   128    2.726041533922e-16
   129    3.935422344466e-16
   130   -8.590581305445e-07
   131   -3.410834194897e-07
   132   -1.135972508407e-07
   133   -1.497468086958e-06
   134   -1.169142623889e-05
   135    2.022107747728e-06
   136   -6.510013458607e-16
   137    2.875301357456e-05
   138    3.575345883849e-05
   139   -8.026217690598e-06
   140    1.832004877981e-15
   141   -3.142946260455e-04
   142    1.772076863596e-06
   143    2.417391230463e-04
   144   -5.062632361730e-16
   145    3.662270994305e-05
   146   -4.745261139553e-04
   147    1.365758837686e-04
   148    2.729523019894e-15
   149    7.681658390605e-06
   150   -6.255627628147e-16
   151   -7.165986820766e-16
   152   -2.666498334617e-05
   153   -5.045307009678e-06
   154   -5.848240873204e-07
   155   -1.399831864839e-06
   156   -2.819029527999e-06
   157    1.100526539152e-05
   158   -1.736001292068e-16
   159    2.182322260775e-05
   160    6.431544249430e-06
   161   -2.616216409058e-05
   162   -1.134806366292e-15
   163   -1.779718009221e-04
   164   -2.019414507233e-04
   165   -1.218704135990e-05
   166    2.872282956109e-15
   167    1.386342833430e-04
   168   -2.285446665386e-04
   169    4.129989585276e-04
   170    2.452326479812e-15
   171    7.798069277924e-06
   172    5.538702395240e-16
   173    8.454645570074e-16
   174    2.093894274892e-05
   175    6.110954784775e-06
   176   -1.554788179612e-07
   177    7.304821486598e-07
   178   -1.645397499054e-06
   179    5.658767668624e-07
   180    1.025212173828e-15
   181   -1.048390143001e-05
   182    1.010088833328e-05
   183   -3.388972974629e-06
   184   -1.936645638749e-16
   185    4.517352617715e-05
   186   -4.288277105223e-05
   187    2.487467806552e-05
   188   -6.854974953577e-17
   189    2.882824793910e-03
   190   -4.193294373382e-04
   191    4.195229938337e-04
   192    8.899625372871e-15
   193   -3.673867567626e-06
   194   -3.350523684629e-16
   195    3.078275161783e-16
   196   -9.107382635407e-07
   197    1.548247616030e-06
   198   -1.218727665228e-06
   199    6.799647464285e-06
   200    2.260679779254e-05
   201    2.004767559956e-04
   202    4.369856013037e-07
   203   -4.087756312265e-07
   204   -5.865369642714e-16
Sym=X
Ene= 0.003791
Spin=Alpha
Occup=0
     1    1.111566345120e-15
     2    5.911514944065e-15
     3    9.246625872662e-15
     4    4.759871853328e-15
     5   -1.219433428545e-02
     6   -1.833889997040e-14
     7    9.451057204414e-16
     8   -1.771456121532e-14
     9   -1.775968275661e-02
    10   -1.401603884523e-13
    11    2.790996495737e-13
    12    1.217451199825e-13
    13    4.500152797401e-02
    14   -2.280213565527e-12
    15    2.659257198266e-13
    16    4.522122139800e-13
    17   -4.335081122039e-01
    18   -1.526748165157e-15
    19    9.567296530922e-03
    20   -1.499754103840e-03
    21   -7.998290223007e-15
    22   -6.125517649345e-15
    23    1.040118304940e-14
    24    1.659547283482e-14
    25    5.509156319205e-13
    26    1.185642756836e-13
    27    1.980110496649e-15
    28   -2.164272146836e-15
    29   -9.031466997401e-03
    30    3.879980158500e-15
    31   -7.998376431924e-15
    32    5.254201348909e-13
    33    1.271522443840e-12
    34   -3.725423037462e-16
    35    3.466791302395e-15
    36   -2.979462294909e-03
    37    1.637724802404e-15
    38   -9.494141071513e-14
    39    8.658241928573e-13
    40   -2.626483204550e-13
    41   -8.045896242483e-16
    42    1.685746663957e-15
    43   -5.974109917126e-03
    44    6.433730727084e-15
    45    2.890232693745e-15
    46   -6.194259815507e-15
    47   -6.237733677900e-15
    48    6.036582555879e-02
    49    1.992020150358e-14
    50   -1.305015125182e-14
    51    2.760453150647e-14
    52    9.524134644593e-02
    53   -4.980811277026e-13
    54   -3.223711725729e-13
    55   -2.230649321552e-13
    56    1.663270442837e-01
    57    5.038073882995e-13
    58    5.143680410806e-13
    59    6.631451107064e-13
    60   -1.186626153719e+00
    61   -4.341611230118e-15
    62   -3.831990470134e-02
    63    1.643517406969e-02
    64    6.574322937084e-15
    65   -6.488317091617e-15
    66    1.952783137030e-15
    67   -7.265555819831e-17
    68    8.528802414267e-15
    69   -2.862222349181e-15
    70    2.273780979980e-01
    71   -1.744286716557e-15
    72   -8.806331837850e-15
    73   -2.159511272794e-14
    74    2.903810174085e-01
    75   -4.550659213373e-14
    76    2.476047088845e-14
    77    3.000718109111e-14
    78    2.049275694652e-01
    79   -1.392520899125e-13
    80   -1.980971270262e-13
    81   -2.011535902544e-13
    82    1.910939498523e-01
    83    1.452144848382e-15
    84    1.523740775889e-02
    85   -7.927169874420e-03
    86   -1.159408813646e-15
    87    1.817817817242e-15
    88    4.229553681296e-17
    89    8.646008028927e-15
    90    1.320751060986e-14
    91   -1.132370509907e-15
    92    1.948373261903e-02
    93   -1.308314412355e-14
    94   -8.222303554724e-15
    95   -1.648712917327e-14
    96    3.914809472612e-02
    97   -2.448551581866e-14
    98    3.301806101473e-14
    99    2.695806865984e-13
   100    2.387981961836e-02
   101   -1.489489201606e-11
   102    6.786171360038e-13
   103    5.124540048703e-12
   104   -3.289272998643e-01
   105   -9.791931631250e-16
   106    1.128225311262e-02
   107   -1.978808384627e-04
   108   -6.598315353078e-17
   109    6.092646227133e-15
   110   -4.536158940941e-15
   111   -4.576935954955e-15
   112   -9.924928078912e-16
   113    9.307933963310e-16
   114    3.761708675947e-02
   115    1.577663985536e-14
   116   -2.671429388216e-14
   117    2.731517554416e-14
   118    5.856795837676e-02
   119    3.569410292086e-14
   120    5.179599095413e-14
   121   -3.696200761874e-14
   122    4.990798375909e-02
   123    3.134938554913e-13
   124   -3.442223236569e-13
   125    1.213761919724e-13
   126    4.512666656287e-02
   127   -2.860609889883e-15
   128   -2.995368967258e-03
   129   -2.147463666639e-03
   130   -1.327797389290e-15
   131    3.904565665836e-15
   132   -5.939323450495e-15
   133   -1.050932785235e-14
   134    4.582265683202e-15
   135   -5.528813626747e-15
   136   -5.060444918979e-02
   137    1.792320747764e-14
   138    1.790034454539e-14
   139   -1.517002988539e-14
   140   -6.354512894600e-02
   141    2.764344933840e-13
   142   -1.042600799086e-13
   143    2.010213806788e-14
   144   -1.601338154400e-01
   145   -3.886387891978e-13
   146   -1.533816275045e-12
   147   -1.710938134340e-12
   148    4.850669515251e-01
   149   -2.371235636115e-15
   150   -7.135590443222e-04
   151   -9.918059386991e-04
   152   -3.050628442544e-15
   153   -2.137919216177e-15
   154   -9.117103165015e-16
   155   -4.729889797857e-15
   156    1.859879791976e-15
   157   -1.006819285419e-14
   158   -4.608018391577e-02
   159   -5.608240671705e-15
   160   -2.240521165412e-14
   161   -1.718899505320e-15
   162   -5.765044469315e-02
   163    6.401644354233e-14
   164    1.703176395327e-13
   165   -7.297074483753e-14
   166   -1.467413434101e-01
   167   -8.405388310466e-13
   168    1.176307100053e-13
   169   -6.406157359978e-13
   170    2.694484585248e-01
   171   -8.201399093398e-16
   172   -3.881210456398e-04
   173    4.155725420255e-03
   174    1.326530281746e-15
   175    6.432441150208e-15
   176    2.724080928181e-15
   177    7.189995437991e-17
   178    1.814947956603e-14
   179    2.697358025118e-15
   180    2.637293710958e-02
   181   -5.784478693289e-15
   182    4.248611195364e-15
   183    6.481089035808e-15
   184    4.841267044883e-02
   185    5.622048679571e-14
   186    4.212108161334e-13
   187    1.020786217361e-13
   188    4.057278971593e-02
   189    1.632047315838e-11
   190    5.678150388925e-13
   191    3.846516467803e-12
   192    3.809738936749e-01
   193   -6.187573555842e-15
   194    1.964158980564e-03
   195   -4.480176173985e-07
   196    6.394619032326e-15
   197   -4.660498642420e-15
   198   -1.245463329699e-15
   199   -8.047528829062e-14
   200   -8.545070045296e-13
   201   -3.171843761055e-13
   202    3.856792246938e-15
   203   -1.273306095329e-14
   204    2.613456167710e-03
[5D]
