[Molden Format]
[Atoms] (Angs)
  C      1    6     -0.13173890     -1.79208980      0.00000000
  H      2    1     -2.14962000     -1.30978739      0.00000000
  H      3    1     -0.31599560     -2.86503115      0.00000000
  H      4    1      0.14407746      2.04280963     -0.00000000
  C      5    6     -1.17258876      0.48030861      0.00000000
  O      6    8     -2.25008207      1.06833796      0.00000000
  C      7    6      1.31158357      0.28308717     -0.00000000
  O      8    8      2.36361668      0.96389345     -0.00000000
  N      9    7      0.07017030      1.03138997     -0.00000000
  N     10    7     -1.19586868     -0.94982644      0.00000000
  C     11    6      1.19165158     -1.13169473     -0.00000000
  H     12    1      2.09970506     -1.73445456     -0.00000000
[GTO]
1    0
S    6    1.000000
   4.56324000E+03    1.96665000E-03 
   6.82024000E+02    1.52306000E-02 
   1.54973000E+02    7.61269000E-02 
   4.44553000E+01    2.60801000E-01 
   1.30290000E+01    6.16462000E-01 
   1.82773000E+00    2.21006000E-01 
SP   3    1.000000
   2.09642000E+01    1.14660000E-01   4.02487000E-02 
   4.80331000E+00    9.19999000E-01   2.37594000E-01 
   1.45933000E+00   -3.03068000E-03   8.15854000E-01 
SP   1    1.000000
   4.83456000E-01    1.00000000E+00   1.00000000E+00 
SP   1    1.000000
   1.45585000E-01    1.00000000E+00   1.00000000E+00 
SP   1    1.000000
   4.38000000E-02    1.00000000E+00   1.00000000E+00 
D    1    1.000000
   6.26000000E-01    1.00000000E+00 

2    0
S    3    1.000000
   3.38650000E+01    2.54938000E-02 
   5.09479000E+00    1.90373000E-01 
   1.15879000E+00    8.52161000E-01 
S    1    1.000000
   3.25840000E-01    1.00000000E+00 
S    1    1.000000
   1.02741000E-01    1.00000000E+00 
S    1    1.000000
   3.60000000E-02    1.00000000E+00 
P    1    1.000000
   7.50000000E-01    1.00000000E+00 

3    0
S    3    1.000000
   3.38650000E+01    2.54938000E-02 
   5.09479000E+00    1.90373000E-01 
   1.15879000E+00    8.52161000E-01 
S    1    1.000000
   3.25840000E-01    1.00000000E+00 
S    1    1.000000
   1.02741000E-01    1.00000000E+00 
S    1    1.000000
   3.60000000E-02    1.00000000E+00 
P    1    1.000000
   7.50000000E-01    1.00000000E+00 

4    0
S    3    1.000000
   3.38650000E+01    2.54938000E-02 
   5.09479000E+00    1.90373000E-01 
   1.15879000E+00    8.52161000E-01 
S    1    1.000000
   3.25840000E-01    1.00000000E+00 
S    1    1.000000
   1.02741000E-01    1.00000000E+00 
S    1    1.000000
   3.60000000E-02    1.00000000E+00 
P    1    1.000000
   7.50000000E-01    1.00000000E+00 

5    0
S    6    1.000000
   4.56324000E+03    1.96665000E-03 
   6.82024000E+02    1.52306000E-02 
   1.54973000E+02    7.61269000E-02 
   4.44553000E+01    2.60801000E-01 
   1.30290000E+01    6.16462000E-01 
   1.82773000E+00    2.21006000E-01 
SP   3    1.000000
   2.09642000E+01    1.14660000E-01   4.02487000E-02 
   4.80331000E+00    9.19999000E-01   2.37594000E-01 
   1.45933000E+00   -3.03068000E-03   8.15854000E-01 
SP   1    1.000000
   4.83456000E-01    1.00000000E+00   1.00000000E+00 
SP   1    1.000000
   1.45585000E-01    1.00000000E+00   1.00000000E+00 
SP   1    1.000000
   4.38000000E-02    1.00000000E+00   1.00000000E+00 
D    1    1.000000
   6.26000000E-01    1.00000000E+00 

6    0
S    6    1.000000
   8.58850000E+03    1.89515000E-03 
   1.29723000E+03    1.43859000E-02 
   2.99296000E+02    7.07320000E-02 
   8.73771000E+01    2.40001000E-01 
   2.56789000E+01    5.94797000E-01 
   3.74004000E+00    2.80802000E-01 
SP   3    1.000000
   4.21175000E+01    1.13889000E-01   3.65114000E-02 
   9.62837000E+00    9.20811000E-01   2.37153000E-01 
   2.85332000E+00   -3.27447000E-03   8.19702000E-01 
SP   1    1.000000
   9.05661000E-01    1.00000000E+00   1.00000000E+00 
SP   1    1.000000
   2.55611000E-01    1.00000000E+00   1.00000000E+00 
SP   1    1.000000
   8.45000000E-02    1.00000000E+00   1.00000000E+00 
D    1    1.000000
   1.29200000E+00    1.00000000E+00 

7    0
S    6    1.000000
   4.56324000E+03    1.96665000E-03 
   6.82024000E+02    1.52306000E-02 
   1.54973000E+02    7.61269000E-02 
   4.44553000E+01    2.60801000E-01 
   1.30290000E+01    6.16462000E-01 
   1.82773000E+00    2.21006000E-01 
SP   3    1.000000
   2.09642000E+01    1.14660000E-01   4.02487000E-02 
   4.80331000E+00    9.19999000E-01   2.37594000E-01 
   1.45933000E+00   -3.03068000E-03   8.15854000E-01 
SP   1    1.000000
   4.83456000E-01    1.00000000E+00   1.00000000E+00 
SP   1    1.000000
   1.45585000E-01    1.00000000E+00   1.00000000E+00 
SP   1    1.000000
   4.38000000E-02    1.00000000E+00   1.00000000E+00 
D    1    1.000000
   6.26000000E-01    1.00000000E+00 

8    0
S    6    1.000000
   8.58850000E+03    1.89515000E-03 
   1.29723000E+03    1.43859000E-02 
   2.99296000E+02    7.07320000E-02 
   8.73771000E+01    2.40001000E-01 
   2.56789000E+01    5.94797000E-01 
   3.74004000E+00    2.80802000E-01 
SP   3    1.000000
   4.21175000E+01    1.13889000E-01   3.65114000E-02 
   9.62837000E+00    9.20811000E-01   2.37153000E-01 
   2.85332000E+00   -3.27447000E-03   8.19702000E-01 
SP   1    1.000000
   9.05661000E-01    1.00000000E+00   1.00000000E+00 
SP   1    1.000000
   2.55611000E-01    1.00000000E+00   1.00000000E+00 
SP   1    1.000000
   8.45000000E-02    1.00000000E+00   1.00000000E+00 
D    1    1.000000
   1.29200000E+00    1.00000000E+00 

9    0
S    6    1.000000
   6.29348000E+03    1.96979000E-03 
   9.49044000E+02    1.49613000E-02 
   2.18776000E+02    7.35006000E-02 
   6.36916000E+01    2.48937000E-01 
   1.88282000E+01    6.02460000E-01 
   2.72023000E+00    2.56202000E-01 
SP   3    1.000000
   3.06331000E+01    1.11906000E-01   3.83119000E-02 
   7.02614000E+00    9.21666000E-01   2.37403000E-01 
   2.11205000E+00   -2.56919000E-03   8.17592000E-01 
SP   1    1.000000
   6.84009000E-01    1.00000000E+00   1.00000000E+00 
SP   1    1.000000
   2.00878000E-01    1.00000000E+00   1.00000000E+00 
SP   1    1.000000
   6.39000000E-02    1.00000000E+00   1.00000000E+00 
D    1    1.000000
   9.13000000E-01    1.00000000E+00 

10    0
S    6    1.000000
   6.29348000E+03    1.96979000E-03 
   9.49044000E+02    1.49613000E-02 
   2.18776000E+02    7.35006000E-02 
   6.36916000E+01    2.48937000E-01 
   1.88282000E+01    6.02460000E-01 
   2.72023000E+00    2.56202000E-01 
SP   3    1.000000
   3.06331000E+01    1.11906000E-01   3.83119000E-02 
   7.02614000E+00    9.21666000E-01   2.37403000E-01 
   2.11205000E+00   -2.56919000E-03   8.17592000E-01 
SP   1    1.000000
   6.84009000E-01    1.00000000E+00   1.00000000E+00 
SP   1    1.000000
   2.00878000E-01    1.00000000E+00   1.00000000E+00 
SP   1    1.000000
   6.39000000E-02    1.00000000E+00   1.00000000E+00 
D    1    1.000000
   9.13000000E-01    1.00000000E+00 

11    0
S    6    1.000000
   4.56324000E+03    1.96665000E-03 
   6.82024000E+02    1.52306000E-02 
   1.54973000E+02    7.61269000E-02 
   4.44553000E+01    2.60801000E-01 
   1.30290000E+01    6.16462000E-01 
   1.82773000E+00    2.21006000E-01 
SP   3    1.000000
   2.09642000E+01    1.14660000E-01   4.02487000E-02 
   4.80331000E+00    9.19999000E-01   2.37594000E-01 
   1.45933000E+00   -3.03068000E-03   8.15854000E-01 
SP   1    1.000000
   4.83456000E-01    1.00000000E+00   1.00000000E+00 
SP   1    1.000000
   1.45585000E-01    1.00000000E+00   1.00000000E+00 
SP   1    1.000000
   4.38000000E-02    1.00000000E+00   1.00000000E+00 
D    1    1.000000
   6.26000000E-01    1.00000000E+00 

12    0
S    3    1.000000
   3.38650000E+01    2.54938000E-02 
   5.09479000E+00    1.90373000E-01 
   1.15879000E+00    8.52161000E-01 
S    1    1.000000
   3.25840000E-01    1.00000000E+00 
S    1    1.000000
   1.02741000E-01    1.00000000E+00 
S    1    1.000000
   3.60000000E-02    1.00000000E+00 
P    1    1.000000
   7.50000000E-01    1.00000000E+00 

[MO]
Sym=X
Ene= -0.002193
Spin=Alpha
Occup=1
     1    2.841188347344e-06
     2    3.356188755317e-06
     3    1.794828076308e-05
     4   -6.733132626480e-06
     5   -9.033416175318e-16
     6    2.489439187608e-06
     7    2.550723506095e-05
     8   -1.374440039893e-05
     9    2.101272448853e-15
    10   -5.335455223205e-04
    11    2.103315712180e-06
    12   -2.995797979492e-04
    13   -3.385480690567e-15
    14   -2.995186058175e-04
    15    2.605828385193e-04
    16   -6.824804122029e-04
    17    6.059222493437e-15
    18    2.637063812264e-06
    19    1.365338548266e-15
    20   -3.717236744196e-16
    21   -6.128669203144e-06
    22    4.232789215169e-08
    23   -3.879377685108e-06
    24   -3.301023282104e-06
    25   -2.162744308618e-04
    26   -6.962691303335e-05
    27    2.080826394375e-06
    28    1.913426687911e-06
    29    2.567900414688e-16
    30    4.766486444187e-07
    31   -6.018728302319e-06
    32   -1.596342525074e-04
    33   -3.144082587811e-04
    34    6.344943117664e-06
    35   -2.819498550752e-06
    36    1.222794285753e-16
    37   -3.392291534601e-07
    38    5.010107380245e-05
    39    8.774188500584e-05
    40    7.106700659487e-05
    41   -1.145246024253e-05
    42   -6.878623443558e-06
    43   -3.641514502770e-18
    44    4.369324012978e-06
    45    9.917515848331e-06
    46    1.044008547207e-05
    47    2.968112473925e-05
    48   -1.097685789826e-15
    49   -3.548044495737e-05
    50   -1.467382401905e-05
    51    5.147301984028e-05
    52    2.883798391986e-15
    53   -3.017451198941e-04
    54   -5.101603112294e-05
    55    1.599093162883e-04
    56   -2.188902813020e-15
    57   -5.586797652858e-05
    58    1.936144506813e-04
    59   -2.498698139418e-05
    60   -4.287827185579e-15
    61    9.048597915509e-07
    62    2.416086676693e-16
    63    4.718194299402e-16
    64   -1.207767061191e-05
    65    5.839523496546e-07
    66    2.916597275094e-05
    67    2.351412407973e-05
    68   -2.164567903581e-05
    69   -3.819437966591e-05
    70   -1.020585252797e-15
    71    8.885422807367e-06
    72   -3.599781288387e-05
    73   -5.861319536357e-05
    74    3.046052327820e-15
    75    5.765474649933e-05
    76   -1.495852826581e-05
    77   -5.075631121506e-05
    78   -4.991099056605e-15
    79   -2.540424258057e-04
    80   -1.291792338200e-04
    81    9.081839491831e-05
    82    6.455229330298e-15
    83    5.513990661500e-07
    84   -5.713853038395e-16
    85   -1.212337621325e-15
    86    4.111286636545e-06
    87    3.131655935854e-07
    88   -2.760953071964e-06
    89   -8.323931555528e-05
    90    3.731496391782e-05
    91    2.342843236659e-05
    92    4.911234666664e-16
    93    3.080006252639e-04
    94    3.314544043327e-04
    95    2.102277977062e-04
    96   -8.174212318793e-17
    97   -1.006924857330e-04
    98    3.803317531115e-04
    99    3.496890326018e-04
   100    3.768388623884e-16
   101   -2.140596055743e-03
   102   -5.189040414154e-04
   103    3.309989245126e-04
   104    3.575126563139e-15
   105   -5.498022087780e-05
   106    6.031728607549e-16
   107   -1.331659461604e-16
   108    1.041479504277e-04
   109    1.851176685848e-04
   110    5.515116400994e-01
   111    4.716925437212e-01
   112   -1.497046815314e-03
   113   -9.291492342816e-04
   114   -9.798011469042e-16
   115    5.393204751232e-03
   116    6.366642125502e-04
   117    4.216139660417e-04
   118    1.254609333966e-15
   119   -1.185657637450e-03
   120   -1.510956554100e-04
   121   -9.787366067235e-05
   122   -1.917564214317e-15
   123    1.281501514408e-03
   124   -3.545737406084e-05
   125    3.270681903807e-06
   126    3.559411367069e-16
   127   -9.176456406762e-05
   128    4.794062017358e-16
   129   -7.850920668664e-17
   130   -4.187770765493e-05
   131   -1.054118087572e-04
   132    2.810934131255e-06
   133    6.259119649696e-06
   134   -1.550323610284e-05
   135    5.118034732511e-06
   136    6.284347948246e-16
   137   -4.187127093913e-05
   138    1.962080840576e-05
   139   -7.689064029524e-06
   140   -9.717916723021e-16
   141    1.556406281831e-04
   142   -8.794314440154e-05
   143   -1.991301933689e-04
   144    1.060339878932e-15
   145   -4.315481005272e-04
   146   -5.135751580246e-04
   147   -3.534130619937e-05
   148   -1.374891316215e-15
   149   -8.937466748698e-06
   150    1.097991454712e-15
   151    4.050740861994e-16
   152    1.905940623862e-05
   153   -2.059473344128e-05
   154   -1.333336728485e-05
   155   -2.237784301599e-05
   156   -8.513088331052e-06
   157    9.860350751842e-06
   158   -2.430882443403e-16
   159    6.146536212963e-05
   160   -1.836372995494e-05
   161    1.344097018057e-05
   162    4.269470200095e-16
   163    4.298920043247e-04
   164    9.060325018698e-05
   165    2.387052053364e-05
   166    1.165408116363e-15
   167    7.547470828847e-04
   168   -9.187646364947e-05
   169   -3.515734620317e-06
   170   -1.295136532142e-15
   171    4.545680244881e-06
   172    1.017951660886e-16
   173    5.219294767637e-17
   174    4.303588061320e-06
   175    2.664494163086e-06
   176    6.716939044588e-06
   177    9.383559112547e-06
   178   -6.477016300884e-06
   179   -2.554339778978e-05
   180    1.348717047839e-15
   181   -4.952616107129e-05
   182    5.747490888672e-06
   183    7.430474851814e-05
   184   -3.430043856259e-15
   185    4.320940976979e-04
   186   -4.657839141772e-04
   187    1.231410482602e-04
   188    3.580182049294e-15
   189    1.645994933445e-03
   190   -5.550846449400e-05
   191    1.086836597763e-03
   192   -5.383163595524e-15
   193   -1.028699916200e-05
   194    5.291117000105e-16
   195    3.983152341670e-16
   196   -3.860595858406e-05
   197    3.513874133897e-05
   198   -4.000731042757e-06
   199    1.169181592839e-04
   200    1.569742985960e-04
   201    5.133277625685e-04
   202   -2.144521487050e-05
   203    1.024428768799e-05
   204   -8.181749568124e-16
Sym=X
Ene= 0.002193
Spin=Alpha
Occup=0
     1   -1.024681468268e-03
     2   -2.731735643912e-03
     3    2.064972146447e-02
     4    9.711218500091e-03
     5   -8.024164097184e-14
     6    2.817808068417e-02
     7    4.759250258046e-02
     8    2.227334206369e-02
     9   -1.407957112728e-13
    10   -1.751452233491e-01
    11    2.590947775717e-02
    12   -1.600129202431e-01
    13   -2.336975478046e-13
    14   -6.585867160486e+00
    15   -1.022871283826e+00
    16   -1.485127813782e+00
    17    4.563626877071e-13
    18   -6.305286023047e-03
    19   -4.493084909798e-15
    20    9.765312983852e-15
    21   -7.342882854232e-03
    22    9.852424124841e-03
    23    2.446419435343e-02
    24    1.097852341521e-01
    25    3.253368880135e-01
    26    1.447095136885e+00
    27    1.002942997251e-03
    28   -6.379371813178e-03
    29    7.289488411412e-15
    30    1.543089393179e-02
    31   -1.092745404632e-04
    32    1.006891749272e-01
    33    1.509473185124e-01
    34   -7.930340500783e-03
    35   -3.028059337187e-03
    36   -1.414805856673e-14
    37   -1.068561362875e-02
    38    3.644765767168e-02
    39   -4.742344035059e-03
    40   -4.284222168273e-01
    41    3.157098208138e-03
    42   -9.227638545237e-03
    43   -7.976453522942e-15
    44   -3.262206702383e-03
    45   -6.148542202592e-03
    46    2.081817369463e-03
    47    5.743193345013e-03
    48    6.751419193363e-14
    49    3.389411233806e-02
    50   -7.794743658763e-04
    51    2.060754207705e-03
    52    9.966433307579e-14
    53   -2.605119974990e-01
    54   -1.045773462468e-01
    55    1.169558289250e-01
    56    2.303724377507e-13
    57    1.477185525836e+00
    58    1.240758724444e+00
    59    2.751223559418e-01
    60    3.603790087119e-14
    61   -6.291002503779e-03
    62   -2.850226368655e-14
    63   -5.849306800895e-15
    64   -3.174967754084e-02
    65   -2.278748924769e-02
    66   -2.159382467322e-03
    67   -3.747162695008e-03
    68    6.347950321274e-02
    69    9.828627403309e-02
    70   -1.915817063305e-14
    71    1.225329959722e-02
    72    9.166886214856e-02
    73    1.512977001794e-01
    74   -5.631775331512e-14
    75   -3.998544711851e-02
    76    1.133554170010e-01
    77    1.417714311229e-01
    78   -1.158309162942e-13
    79    2.894139540905e-01
    80   -6.076253665490e-02
    81    2.687039498441e-02
    82   -1.363597971801e-14
    83   -1.665193966891e-03
    84    7.797136632895e-15
    85   -4.952614048691e-15
    86    7.925451309065e-03
    87    3.538255879428e-03
    88   -2.462039396374e-03
    89   -5.045829865871e-03
    90    1.014523874662e-03
    91    3.611227251246e-02
    92    3.456276160862e-14
    93    2.818872947423e-02
    94    3.376937628999e-03
    95    6.655055068752e-02
    96    3.652479452981e-14
    97   -1.914229037268e-01
    98    3.280631033972e-01
    99    2.604062302999e-01
   100    1.603107405151e-13
   101   -1.265102326422e+01
   102    3.469687979578e+00
   103    3.194307610465e+00
   104    1.100307267465e-12
   105   -8.647118348374e-03
   106   -1.531119875095e-14
   107   -1.435152343435e-14
   108    5.364013103176e-03
   109   -7.284648903526e-03
   110    1.775270950519e-02
   111    3.076153525728e-02
   112   -1.874193453517e-02
   113   -3.986536165308e-02
   114   -3.325621238935e-14
   115   -9.407493858253e-02
   116   -2.525556867921e-02
   117   -5.350306893069e-02
   118   -4.005974351780e-14
   119   -1.934190858144e-01
   120    5.439813873516e-02
   121    4.395549412799e-03
   122   -4.565212660641e-14
   123   -8.294733297455e-01
   124   -8.668237438438e-02
   125   -1.093054738969e-01
   126   -2.707768580943e-13
   127   -3.752413348210e-04
   128    4.043516376124e-15
   129    3.149585015260e-15
   130    1.225331222800e-03
   131    3.105083061876e-04
   132   -8.996717003174e-04
   133   -1.958286114891e-03
   134    4.382245114590e-02
   135   -7.031454871989e-03
   136   -4.175279358668e-14
   137    1.216133205871e-02
   138    6.233879209251e-02
   139   -8.750091954146e-03
   140   -1.027638415153e-13
   141    3.622945595885e-02
   142    5.104250333152e-02
   143   -1.513140739139e-01
   144   -7.168367109219e-14
   145    2.031508870202e+00
   146    3.723342497383e-01
   147   -5.895624913876e-01
   148   -4.393834493766e-13
   149   -4.091642056590e-03
   150    1.628786128841e-15
   151   -5.222863127823e-15
   152    8.228868989018e-03
   153    4.195932785540e-03
   154   -3.859531246986e-03
   155   -6.243280426164e-03
   156    1.405629420130e-02
   157    4.351124559027e-02
   158    2.353145156695e-14
   159    1.599882422202e-02
   160    2.276812406193e-02
   161    7.146316662047e-02
   162    5.192451716877e-14
   163    5.790290674400e-02
   164    1.489241812498e-01
   165    1.013838106341e-01
   166    8.288536717070e-14
   167    8.752286188344e-01
   168    5.899816391372e-01
   169    3.867855633132e-02
   170   -2.222321451440e-13
   171   -7.314334385184e-03
   172   -7.857579576778e-15
   173    1.475327906700e-14
   174    4.943131324931e-03
   175    1.579660430283e-03
   176   -3.663832102050e-03
   177   -7.498950651856e-03
   178    1.119178466903e-02
   179   -2.497443851990e-02
   180    7.009623909274e-14
   181    4.030829719231e-02
   182    9.738711908255e-03
   183   -5.590911463716e-02
   184    9.665479857485e-14
   185    3.869350118015e-01
   186   -8.397683521887e-02
   187    1.998341239777e-01
   188    2.336140221993e-13
   189    1.474946938291e+01
   190   -1.959173570321e+00
   191    2.502588491933e+00
   192   -1.060237978405e-12
   193   -6.775850447183e-03
   194    8.128667096173e-15
   195    2.597806577105e-14
   196    1.478769240087e-02
   197    8.746788158238e-03
   198    3.884800561011e-03
   199    3.061844513494e-02
   200    1.146911816907e-01
   201   -2.365760315628e-01
   202   -1.650864574175e-03
   203    1.102399916878e-02
   204    5.632249995926e-15
[5D]
