[Molden Format]
[Atoms] (Angs)
  C      1    6     -0.13173890     -1.79208980      0.00000000
  H      2    1     -2.14962000     -1.30978739      0.00000000
  H      3    1     -0.31599560     -2.86503115      0.00000000
  H      4    1      0.14407746      2.04280963     -0.00000000
  C      5    6     -1.17258876      0.48030861      0.00000000
  O      6    8     -2.25008207      1.06833796      0.00000000
  C      7    6      1.31158357      0.28308717     -0.00000000
  O      8    8      2.36361668      0.96389345     -0.00000000
  N      9    7      0.07017030      1.03138997     -0.00000000
  N     10    7     -1.19586868     -0.94982644      0.00000000
  C     11    6      1.19165158     -1.13169473     -0.00000000
  H     12    1      2.09970506     -1.73445456     -0.00000000
[GTO]
1    0
S    6    1.000000
   4.56324000E+03    1.96665000E-03 
   6.82024000E+02    1.52306000E-02 
   1.54973000E+02    7.61269000E-02 
   4.44553000E+01    2.60801000E-01 
   1.30290000E+01    6.16462000E-01 
   1.82773000E+00    2.21006000E-01 
SP   3    1.000000
   2.09642000E+01    1.14660000E-01   4.02487000E-02 
   4.80331000E+00    9.19999000E-01   2.37594000E-01 
   1.45933000E+00   -3.03068000E-03   8.15854000E-01 
SP   1    1.000000
   4.83456000E-01    1.00000000E+00   1.00000000E+00 
SP   1    1.000000
   1.45585000E-01    1.00000000E+00   1.00000000E+00 
SP   1    1.000000
   4.38000000E-02    1.00000000E+00   1.00000000E+00 
D    1    1.000000
   6.26000000E-01    1.00000000E+00 

2    0
S    3    1.000000
   3.38650000E+01    2.54938000E-02 
   5.09479000E+00    1.90373000E-01 
   1.15879000E+00    8.52161000E-01 
S    1    1.000000
   3.25840000E-01    1.00000000E+00 
S    1    1.000000
   1.02741000E-01    1.00000000E+00 
S    1    1.000000
   3.60000000E-02    1.00000000E+00 
P    1    1.000000
   7.50000000E-01    1.00000000E+00 

3    0
S    3    1.000000
   3.38650000E+01    2.54938000E-02 
   5.09479000E+00    1.90373000E-01 
   1.15879000E+00    8.52161000E-01 
S    1    1.000000
   3.25840000E-01    1.00000000E+00 
S    1    1.000000
   1.02741000E-01    1.00000000E+00 
S    1    1.000000
   3.60000000E-02    1.00000000E+00 
P    1    1.000000
   7.50000000E-01    1.00000000E+00 

4    0
S    3    1.000000
   3.38650000E+01    2.54938000E-02 
   5.09479000E+00    1.90373000E-01 
   1.15879000E+00    8.52161000E-01 
S    1    1.000000
   3.25840000E-01    1.00000000E+00 
S    1    1.000000
   1.02741000E-01    1.00000000E+00 
S    1    1.000000
   3.60000000E-02    1.00000000E+00 
P    1    1.000000
   7.50000000E-01    1.00000000E+00 

5    0
S    6    1.000000
   4.56324000E+03    1.96665000E-03 
   6.82024000E+02    1.52306000E-02 
   1.54973000E+02    7.61269000E-02 
   4.44553000E+01    2.60801000E-01 
   1.30290000E+01    6.16462000E-01 
   1.82773000E+00    2.21006000E-01 
SP   3    1.000000
   2.09642000E+01    1.14660000E-01   4.02487000E-02 
   4.80331000E+00    9.19999000E-01   2.37594000E-01 
   1.45933000E+00   -3.03068000E-03   8.15854000E-01 
SP   1    1.000000
   4.83456000E-01    1.00000000E+00   1.00000000E+00 
SP   1    1.000000
   1.45585000E-01    1.00000000E+00   1.00000000E+00 
SP   1    1.000000
   4.38000000E-02    1.00000000E+00   1.00000000E+00 
D    1    1.000000
   6.26000000E-01    1.00000000E+00 

6    0
S    6    1.000000
   8.58850000E+03    1.89515000E-03 
   1.29723000E+03    1.43859000E-02 
   2.99296000E+02    7.07320000E-02 
   8.73771000E+01    2.40001000E-01 
   2.56789000E+01    5.94797000E-01 
   3.74004000E+00    2.80802000E-01 
SP   3    1.000000
   4.21175000E+01    1.13889000E-01   3.65114000E-02 
   9.62837000E+00    9.20811000E-01   2.37153000E-01 
   2.85332000E+00   -3.27447000E-03   8.19702000E-01 
SP   1    1.000000
   9.05661000E-01    1.00000000E+00   1.00000000E+00 
SP   1    1.000000
   2.55611000E-01    1.00000000E+00   1.00000000E+00 
SP   1    1.000000
   8.45000000E-02    1.00000000E+00   1.00000000E+00 
D    1    1.000000
   1.29200000E+00    1.00000000E+00 

7    0
S    6    1.000000
   4.56324000E+03    1.96665000E-03 
   6.82024000E+02    1.52306000E-02 
   1.54973000E+02    7.61269000E-02 
   4.44553000E+01    2.60801000E-01 
   1.30290000E+01    6.16462000E-01 
   1.82773000E+00    2.21006000E-01 
SP   3    1.000000
   2.09642000E+01    1.14660000E-01   4.02487000E-02 
   4.80331000E+00    9.19999000E-01   2.37594000E-01 
   1.45933000E+00   -3.03068000E-03   8.15854000E-01 
SP   1    1.000000
   4.83456000E-01    1.00000000E+00   1.00000000E+00 
SP   1    1.000000
   1.45585000E-01    1.00000000E+00   1.00000000E+00 
SP   1    1.000000
   4.38000000E-02    1.00000000E+00   1.00000000E+00 
D    1    1.000000
   6.26000000E-01    1.00000000E+00 

8    0
S    6    1.000000
   8.58850000E+03    1.89515000E-03 
   1.29723000E+03    1.43859000E-02 
   2.99296000E+02    7.07320000E-02 
   8.73771000E+01    2.40001000E-01 
   2.56789000E+01    5.94797000E-01 
   3.74004000E+00    2.80802000E-01 
SP   3    1.000000
   4.21175000E+01    1.13889000E-01   3.65114000E-02 
   9.62837000E+00    9.20811000E-01   2.37153000E-01 
   2.85332000E+00   -3.27447000E-03   8.19702000E-01 
SP   1    1.000000
   9.05661000E-01    1.00000000E+00   1.00000000E+00 
SP   1    1.000000
   2.55611000E-01    1.00000000E+00   1.00000000E+00 
SP   1    1.000000
   8.45000000E-02    1.00000000E+00   1.00000000E+00 
D    1    1.000000
   1.29200000E+00    1.00000000E+00 

9    0
S    6    1.000000
   6.29348000E+03    1.96979000E-03 
   9.49044000E+02    1.49613000E-02 
   2.18776000E+02    7.35006000E-02 
   6.36916000E+01    2.48937000E-01 
   1.88282000E+01    6.02460000E-01 
   2.72023000E+00    2.56202000E-01 
SP   3    1.000000
   3.06331000E+01    1.11906000E-01   3.83119000E-02 
   7.02614000E+00    9.21666000E-01   2.37403000E-01 
   2.11205000E+00   -2.56919000E-03   8.17592000E-01 
SP   1    1.000000
   6.84009000E-01    1.00000000E+00   1.00000000E+00 
SP   1    1.000000
   2.00878000E-01    1.00000000E+00   1.00000000E+00 
SP   1    1.000000
   6.39000000E-02    1.00000000E+00   1.00000000E+00 
D    1    1.000000
   9.13000000E-01    1.00000000E+00 

10    0
S    6    1.000000
   6.29348000E+03    1.96979000E-03 
   9.49044000E+02    1.49613000E-02 
   2.18776000E+02    7.35006000E-02 
   6.36916000E+01    2.48937000E-01 
   1.88282000E+01    6.02460000E-01 
   2.72023000E+00    2.56202000E-01 
SP   3    1.000000
   3.06331000E+01    1.11906000E-01   3.83119000E-02 
   7.02614000E+00    9.21666000E-01   2.37403000E-01 
   2.11205000E+00   -2.56919000E-03   8.17592000E-01 
SP   1    1.000000
   6.84009000E-01    1.00000000E+00   1.00000000E+00 
SP   1    1.000000
   2.00878000E-01    1.00000000E+00   1.00000000E+00 
SP   1    1.000000
   6.39000000E-02    1.00000000E+00   1.00000000E+00 
D    1    1.000000
   9.13000000E-01    1.00000000E+00 

11    0
S    6    1.000000
   4.56324000E+03    1.96665000E-03 
   6.82024000E+02    1.52306000E-02 
   1.54973000E+02    7.61269000E-02 
   4.44553000E+01    2.60801000E-01 
   1.30290000E+01    6.16462000E-01 
   1.82773000E+00    2.21006000E-01 
SP   3    1.000000
   2.09642000E+01    1.14660000E-01   4.02487000E-02 
   4.80331000E+00    9.19999000E-01   2.37594000E-01 
   1.45933000E+00   -3.03068000E-03   8.15854000E-01 
SP   1    1.000000
   4.83456000E-01    1.00000000E+00   1.00000000E+00 
SP   1    1.000000
   1.45585000E-01    1.00000000E+00   1.00000000E+00 
SP   1    1.000000
   4.38000000E-02    1.00000000E+00   1.00000000E+00 
D    1    1.000000
   6.26000000E-01    1.00000000E+00 

12    0
S    3    1.000000
   3.38650000E+01    2.54938000E-02 
   5.09479000E+00    1.90373000E-01 
   1.15879000E+00    8.52161000E-01 
S    1    1.000000
   3.25840000E-01    1.00000000E+00 
S    1    1.000000
   1.02741000E-01    1.00000000E+00 
S    1    1.000000
   3.60000000E-02    1.00000000E+00 
P    1    1.000000
   7.50000000E-01    1.00000000E+00 

[MO]
Sym=X
Ene= -0.350987
Spin=Alpha
Occup=1
     1   -3.388957007238e-07
     2   -5.328478573995e-08
     3   -3.172528254306e-06
     4    5.336311314437e-06
     5    1.503741205254e-16
     6   -7.157512816370e-07
     7    1.534813463099e-05
     8   -2.170474202585e-05
     9   -1.205936697325e-15
    10   -2.302291485914e-04
    11    6.665041088585e-05
    12    2.666423293472e-05
    13    1.835775355771e-15
    14    4.941851004533e-04
    15    5.205472665713e-04
    16    2.719700085218e-04
    17    5.937445766071e-15
    18    1.182936771090e-06
    19    5.322605682114e-17
    20    1.039025212455e-15
    21    3.439397753822e-06
    22    2.955609055019e-06
    23    3.922116519800e-06
    24    3.616688178942e-05
    25    8.933859613348e-05
    26    2.988815602500e-04
    27    1.122684948587e-05
    28   -9.589933892146e-06
    29    7.639191989375e-16
    30   -3.899881991643e-06
    31    2.880745137219e-05
    32    2.651947271465e-05
    33    1.588546210776e-04
    34   -8.134250745385e-07
    35    3.294419675878e-06
    36    1.000022572232e-15
    37    2.883445167030e-06
    38    5.787368177553e-05
    39    1.085618600933e-04
    40    2.842319057346e-04
    41    7.979584741040e-06
    42   -6.877969604860e-06
    43   -2.171040841763e-16
    44    4.440198700939e-06
    45   -7.643033239314e-05
    46   -5.602678845416e-05
    47    3.178947028124e-05
    48    1.216525590652e-15
    49    2.942976630105e-04
    50   -3.746156563347e-04
    51    1.959698981125e-04
    52   -1.552853515727e-15
    53   -8.273928181320e-05
    54   -4.413651649390e-04
    55    1.746391282333e-04
    56    3.458051803727e-15
    57    3.520134890764e-04
    58    6.856938648033e-04
    59   -2.963409159106e-04
    60   -3.161014037033e-15
    61   -5.946143560294e-05
    62    1.166146602968e-15
    63   -9.240654670840e-17
    64    1.029060927249e-04
    65   -1.781659384036e-04
    66    5.514897451468e-01
    67    4.716811867080e-01
    68    1.604046968952e-03
    69   -8.742537698864e-04
    70   -1.100130015033e-15
    71    5.486878470244e-03
    72   -6.659744986053e-04
    73    3.534976374465e-04
    74    9.539954428326e-16
    75   -1.258997163377e-03
    76    1.688769170540e-04
    77   -7.817375417490e-05
    78   -2.121852625419e-16
    79    1.483476342546e-03
    80    5.368290070454e-05
    81   -4.819073320331e-05
    82    1.074738531381e-15
    83   -8.036953010616e-05
    84    3.915687049851e-16
    85   -5.929877226398e-16
    86   -5.742677603665e-05
    87    7.152310332917e-05
    88   -3.515086745300e-07
    89    4.772361235288e-07
    90   -3.514510014228e-06
    91    1.831243496332e-06
    92    5.083409030221e-16
    93   -1.461917400847e-06
    94    1.435368379446e-05
    95   -1.083688596197e-05
    96   -1.914127470939e-15
    97   -1.696909716620e-04
    98    7.624979059804e-05
    99   -5.134088651861e-05
   100    3.242390479406e-16
   101    9.440337890432e-04
   102    1.271349185488e-04
   103   -7.256865880811e-04
   104    1.046206432285e-14
   105    3.137342032104e-06
   106   -1.334561632751e-15
   107   -1.659049395475e-16
   108   -7.590075746241e-06
   109    2.770540105637e-06
   110   -2.036976921008e-06
   111   -9.554780992144e-07
   112    3.502349079699e-07
   113   -5.413565857323e-07
   114    1.107392271976e-15
   115   -7.510485914990e-06
   116    8.892356200544e-07
   117    1.555552176578e-06
   118   -2.957812740746e-15
   119    3.747814477223e-05
   120   -1.341104788412e-05
   121   -7.952837275567e-06
   122    5.052940510970e-15
   123   -1.462985553561e-04
   124    6.666459277060e-05
   125    6.659298003346e-05
   126   -4.284893632061e-15
   127    1.459922631185e-07
   128   -2.726095167999e-16
   129   -3.935413026113e-16
   130    8.595158104932e-07
   131    3.422700656933e-07
   132    1.135921575374e-07
   133    1.497442402252e-06
   134    1.169155581580e-05
   135   -2.022150101808e-06
   136    6.509945204293e-16
   137   -2.875265143233e-05
   138   -3.575375774851e-05
   139    8.026314337037e-06
   140   -1.831993505366e-15
   141    3.142918848247e-04
   142   -1.771012186017e-06
   143   -2.417366497193e-04
   144    5.062516058013e-16
   145   -3.662029253825e-05
   146    4.745321344634e-04
   147   -1.365752674066e-04
   148   -2.729506990475e-15
   149   -7.681568120956e-06
   150    6.255506335574e-16
   151    7.165941759252e-16
   152    2.666480477914e-05
   153    5.045499173879e-06
   154    5.848241657559e-07
   155    1.399825418274e-06
   156    2.819026352807e-06
   157   -1.100526901119e-05
   158    1.736028713668e-16
   159   -2.182311339389e-05
   160   -6.431533267271e-06
   161    2.616218472579e-05
   162    1.134801627847e-15
   163    1.779701099158e-04
   164    2.019405639622e-04
   165    1.218698159022e-05
   166   -2.872296411429e-15
   167   -1.386367827544e-04
   168    2.285451888766e-04
   169   -4.129992119412e-04
   170   -2.452312293673e-15
   171   -7.798073484882e-06
   172   -5.538713718058e-16
   173   -8.454653207468e-16
   174   -2.093893763884e-05
   175   -6.110936214763e-06
   176    1.554621670994e-07
   177   -7.304839024948e-07
   178    1.645447527165e-06
   179   -5.656822154192e-07
   180   -1.025227635974e-15
   181    1.048410160055e-05
   182   -1.010100791028e-05
   183    3.387970490515e-06
   184    1.937030406478e-16
   185   -4.518035995132e-05
   186    4.288818723250e-05
   187   -2.487652777217e-05
   188    6.850778308810e-17
   189   -2.882844866114e-03
   190    4.193282373842e-04
   191   -4.195348245009e-04
   192   -8.899560665445e-15
   193    3.673950723212e-06
   194    3.350463809457e-16
   195   -3.078318845057e-16
   196    9.111130392788e-07
   197   -1.548622651953e-06
   198    1.218754881044e-06
   199   -6.801016796394e-06
   200   -2.260836655408e-05
   201   -2.004804073155e-04
   202   -4.367390372228e-07
   203    4.086457386550e-07
   204    5.865461861585e-16
Sym=X
Ene= 0.350987
Spin=Alpha
Occup=0
     1   -3.922961804080e-16
     2    6.429310075266e-16
     3   -4.187691199104e-15
     4    6.460446785435e-15
     5   -4.441005409454e-03
     6   -1.340079393489e-14
     7   -3.298949392085e-14
     8   -9.496491708450e-16
     9   -9.232576285502e-03
    10    5.093529025104e-13
    11   -8.848511137680e-14
    12    6.068510665599e-13
    13    3.782248834376e-03
    14    1.235030766780e-11
    15    1.269060160161e-12
    16    4.309652068759e-12
    17    9.628271058281e-03
    18    5.902388245477e-15
    19   -1.616627066371e-03
    20    6.787663501707e-04
    21    3.861500286581e-15
    22   -1.416116842469e-14
    23    7.743603075856e-15
    24   -1.394667055457e-13
    25   -6.807547276839e-14
    26    1.022448244614e-14
    27   -9.584611329513e-15
    28    1.403397533819e-15
    29   -1.692390504584e-03
    30   -4.519184524797e-15
    31    8.481196698378e-14
    32    4.047719188163e-13
    33    1.262264787060e-12
    34    2.242673649413e-15
    35    8.067300735676e-15
    36   -2.645560533852e-04
    37    7.214524663817e-15
    38   -2.374992875954e-14
    39    2.521629809104e-13
    40    3.141053957846e-13
    41    1.748534453499e-15
    42   -7.134846934563e-15
    43    1.610160523949e-02
    44   -3.797713737348e-16
    45   -4.144978645634e-15
    46    7.267719008743e-15
    47    2.734844179936e-15
    48    9.768597712075e-03
    49    3.677513229127e-15
    50   -1.185665382069e-14
    51    7.548517857488e-15
    52    1.826571492526e-02
    53    2.927855120424e-13
    54    4.621269321462e-13
    55   -2.464162441871e-13
    56    2.678627890421e-03
    57   -4.834490839116e-12
    58   -1.174640291592e-12
    59    1.077053536924e-12
    60   -8.172936221711e-03
    61   -1.155311479682e-14
    62    5.581171035705e-02
    63    1.571379700387e-03
    64   -8.183073075701e-15
    65   -1.250637703953e-15
    66   -1.179760761279e-15
    67   -2.832813566567e-15
    68   -2.363999579726e-15
    69    7.885427162819e-16
    70   -2.007512478367e-01
    71    1.988204465212e-14
    72   -3.054543227502e-15
    73    2.015791358456e-15
    74   -2.534410410766e-01
    75    2.426259026885e-14
    76    2.046122777381e-14
    77    3.854936910497e-14
    78   -2.027207330327e-01
    79    8.000219497174e-13
    80    3.682031659082e-13
    81   -2.175204908608e-13
    82   -4.719305781544e-02
    83    1.418802674556e-15
    84   -7.842060095774e-03
    85    5.462742094992e-03
    86   -3.007840294737e-15
    87    3.145721341175e-15
    88   -1.998070823193e-15
    89    4.138429409281e-15
    90    7.240311803663e-15
    91    1.008755807514e-15
    92   -4.566321228574e-02
    93   -4.243213878260e-14
    94   -4.981440505336e-14
    95    7.873460156933e-15
    96   -7.692008037497e-02
    97    4.980106018282e-13
    98   -7.988616603615e-14
    99   -1.447616129896e-13
   100   -8.695401710851e-02
   101    1.497468539652e-11
   102   -1.729098911248e-12
   103   -3.361196981437e-12
   104   -9.775037187954e-03
   105    1.146698121576e-14
   106   -3.705192485327e-02
   107   -3.291896797288e-03
   108   -3.504332996645e-15
   109   -8.754986707018e-15
   110    9.486216008248e-16
   111    1.827313963591e-15
   112    6.304862551145e-15
   113   -6.052791327958e-15
   114   -1.298977749028e-01
   115   -1.440153643363e-14
   116    8.709849355493e-15
   117   -6.726650279865e-15
   118   -1.986216524663e-01
   119    8.185112985061e-14
   120   -2.378815139188e-14
   121   -5.455763655800e-14
   122   -1.820207634686e-01
   123   -5.797055463717e-13
   124    2.421446395930e-13
   125    2.901832995686e-13
   126   -4.134572670487e-02
   127   -5.818176820940e-16
   128    8.348845648810e-03
   129    5.354568533573e-03
   130    1.483021172425e-15
   131    3.977178108467e-15
   132    3.826587876858e-16
   133   -2.976446578624e-15
   134    7.520812045339e-15
   135    6.307003041584e-15
   136    1.873228031334e-01
   137    4.785685996012e-14
   138   -1.575981826755e-14
   139    2.170680229150e-14
   140    2.942437289446e-01
   141   -4.219264312545e-13
   142    6.987884330321e-14
   143    9.171693326380e-14
   144    3.363713854838e-01
   145   -3.378227966435e-14
   146    6.255796520646e-14
   147   -3.213966591878e-13
   148    7.276863157785e-02
   149    2.782330339524e-15
   150   -1.023483253297e-02
   151   -1.526481547274e-03
   152    7.250345778570e-16
   153   -1.715596693270e-15
   154   -1.442450666128e-15
   155   -9.846199320852e-15
   156   -2.807066399338e-15
   157    4.600036980994e-15
   158   -1.401556571298e-03
   159    8.039445320196e-14
   160    1.915447236312e-14
   161    1.652850455820e-14
   162   -2.243387684021e-03
   163   -4.403479302327e-13
   164   -4.140559201212e-13
   165   -1.150496732839e-13
   166   -3.558031607196e-03
   167   -1.684866660283e-12
   168   -4.835436804497e-13
   169    2.771161531956e-13
   170   -9.130446052253e-03
   171   -3.716482313507e-15
   172    1.843155766415e-03
   173    7.660455403340e-04
   174    4.487757347326e-15
   175    2.547664898212e-15
   176    4.625739041677e-16
   177    6.164090852737e-15
   178   -2.379446692248e-15
   179   -3.377609533110e-16
   180   -1.776121911374e-02
   181   -3.426507705583e-14
   182   -1.010756231761e-14
   183    1.920715718501e-14
   184   -3.232237591381e-02
   185   -1.506320548295e-13
   186    3.207614536759e-13
   187   -3.550722354909e-13
   188   -1.026448569322e-02
   189   -2.099106447203e-11
   190    4.269525561075e-12
   191   -4.172347606840e-12
   192   -7.022032061709e-03
   193    3.425707499238e-15
   194   -2.209849258724e-03
   195   -4.243422738363e-03
   196   -5.011664009581e-16
   197   -1.321955470240e-16
   198    4.793185388093e-15
   199   -7.533201832385e-14
   200   -3.833111661570e-13
   201   -2.147884020783e-12
   202    2.348596925319e-14
   203   -1.148348567289e-14
   204   -2.301716386676e-03
[5D]
