[Molden Format]
[Atoms] (Angs)
  C      1    6     -0.13173890     -1.79208980      0.00000000
  H      2    1     -2.14962000     -1.30978739      0.00000000
  H      3    1     -0.31599560     -2.86503115      0.00000000
  H      4    1      0.14407746      2.04280963     -0.00000000
  C      5    6     -1.17258876      0.48030861      0.00000000
  O      6    8     -2.25008207      1.06833796      0.00000000
  C      7    6      1.31158357      0.28308717     -0.00000000
  O      8    8      2.36361668      0.96389345     -0.00000000
  N      9    7      0.07017030      1.03138997     -0.00000000
  N     10    7     -1.19586868     -0.94982644      0.00000000
  C     11    6      1.19165158     -1.13169473     -0.00000000
  H     12    1      2.09970506     -1.73445456     -0.00000000
[GTO]
1    0
S    6    1.000000
   4.56324000E+03    1.96665000E-03 
   6.82024000E+02    1.52306000E-02 
   1.54973000E+02    7.61269000E-02 
   4.44553000E+01    2.60801000E-01 
   1.30290000E+01    6.16462000E-01 
   1.82773000E+00    2.21006000E-01 
SP   3    1.000000
   2.09642000E+01    1.14660000E-01   4.02487000E-02 
   4.80331000E+00    9.19999000E-01   2.37594000E-01 
   1.45933000E+00   -3.03068000E-03   8.15854000E-01 
SP   1    1.000000
   4.83456000E-01    1.00000000E+00   1.00000000E+00 
SP   1    1.000000
   1.45585000E-01    1.00000000E+00   1.00000000E+00 
SP   1    1.000000
   4.38000000E-02    1.00000000E+00   1.00000000E+00 
D    1    1.000000
   6.26000000E-01    1.00000000E+00 

2    0
S    3    1.000000
   3.38650000E+01    2.54938000E-02 
   5.09479000E+00    1.90373000E-01 
   1.15879000E+00    8.52161000E-01 
S    1    1.000000
   3.25840000E-01    1.00000000E+00 
S    1    1.000000
   1.02741000E-01    1.00000000E+00 
S    1    1.000000
   3.60000000E-02    1.00000000E+00 
P    1    1.000000
   7.50000000E-01    1.00000000E+00 

3    0
S    3    1.000000
   3.38650000E+01    2.54938000E-02 
   5.09479000E+00    1.90373000E-01 
   1.15879000E+00    8.52161000E-01 
S    1    1.000000
   3.25840000E-01    1.00000000E+00 
S    1    1.000000
   1.02741000E-01    1.00000000E+00 
S    1    1.000000
   3.60000000E-02    1.00000000E+00 
P    1    1.000000
   7.50000000E-01    1.00000000E+00 

4    0
S    3    1.000000
   3.38650000E+01    2.54938000E-02 
   5.09479000E+00    1.90373000E-01 
   1.15879000E+00    8.52161000E-01 
S    1    1.000000
   3.25840000E-01    1.00000000E+00 
S    1    1.000000
   1.02741000E-01    1.00000000E+00 
S    1    1.000000
   3.60000000E-02    1.00000000E+00 
P    1    1.000000
   7.50000000E-01    1.00000000E+00 

5    0
S    6    1.000000
   4.56324000E+03    1.96665000E-03 
   6.82024000E+02    1.52306000E-02 
   1.54973000E+02    7.61269000E-02 
   4.44553000E+01    2.60801000E-01 
   1.30290000E+01    6.16462000E-01 
   1.82773000E+00    2.21006000E-01 
SP   3    1.000000
   2.09642000E+01    1.14660000E-01   4.02487000E-02 
   4.80331000E+00    9.19999000E-01   2.37594000E-01 
   1.45933000E+00   -3.03068000E-03   8.15854000E-01 
SP   1    1.000000
   4.83456000E-01    1.00000000E+00   1.00000000E+00 
SP   1    1.000000
   1.45585000E-01    1.00000000E+00   1.00000000E+00 
SP   1    1.000000
   4.38000000E-02    1.00000000E+00   1.00000000E+00 
D    1    1.000000
   6.26000000E-01    1.00000000E+00 

6    0
S    6    1.000000
   8.58850000E+03    1.89515000E-03 
   1.29723000E+03    1.43859000E-02 
   2.99296000E+02    7.07320000E-02 
   8.73771000E+01    2.40001000E-01 
   2.56789000E+01    5.94797000E-01 
   3.74004000E+00    2.80802000E-01 
SP   3    1.000000
   4.21175000E+01    1.13889000E-01   3.65114000E-02 
   9.62837000E+00    9.20811000E-01   2.37153000E-01 
   2.85332000E+00   -3.27447000E-03   8.19702000E-01 
SP   1    1.000000
   9.05661000E-01    1.00000000E+00   1.00000000E+00 
SP   1    1.000000
   2.55611000E-01    1.00000000E+00   1.00000000E+00 
SP   1    1.000000
   8.45000000E-02    1.00000000E+00   1.00000000E+00 
D    1    1.000000
   1.29200000E+00    1.00000000E+00 

7    0
S    6    1.000000
   4.56324000E+03    1.96665000E-03 
   6.82024000E+02    1.52306000E-02 
   1.54973000E+02    7.61269000E-02 
   4.44553000E+01    2.60801000E-01 
   1.30290000E+01    6.16462000E-01 
   1.82773000E+00    2.21006000E-01 
SP   3    1.000000
   2.09642000E+01    1.14660000E-01   4.02487000E-02 
   4.80331000E+00    9.19999000E-01   2.37594000E-01 
   1.45933000E+00   -3.03068000E-03   8.15854000E-01 
SP   1    1.000000
   4.83456000E-01    1.00000000E+00   1.00000000E+00 
SP   1    1.000000
   1.45585000E-01    1.00000000E+00   1.00000000E+00 
SP   1    1.000000
   4.38000000E-02    1.00000000E+00   1.00000000E+00 
D    1    1.000000
   6.26000000E-01    1.00000000E+00 

8    0
S    6    1.000000
   8.58850000E+03    1.89515000E-03 
   1.29723000E+03    1.43859000E-02 
   2.99296000E+02    7.07320000E-02 
   8.73771000E+01    2.40001000E-01 
   2.56789000E+01    5.94797000E-01 
   3.74004000E+00    2.80802000E-01 
SP   3    1.000000
   4.21175000E+01    1.13889000E-01   3.65114000E-02 
   9.62837000E+00    9.20811000E-01   2.37153000E-01 
   2.85332000E+00   -3.27447000E-03   8.19702000E-01 
SP   1    1.000000
   9.05661000E-01    1.00000000E+00   1.00000000E+00 
SP   1    1.000000
   2.55611000E-01    1.00000000E+00   1.00000000E+00 
SP   1    1.000000
   8.45000000E-02    1.00000000E+00   1.00000000E+00 
D    1    1.000000
   1.29200000E+00    1.00000000E+00 

9    0
S    6    1.000000
   6.29348000E+03    1.96979000E-03 
   9.49044000E+02    1.49613000E-02 
   2.18776000E+02    7.35006000E-02 
   6.36916000E+01    2.48937000E-01 
   1.88282000E+01    6.02460000E-01 
   2.72023000E+00    2.56202000E-01 
SP   3    1.000000
   3.06331000E+01    1.11906000E-01   3.83119000E-02 
   7.02614000E+00    9.21666000E-01   2.37403000E-01 
   2.11205000E+00   -2.56919000E-03   8.17592000E-01 
SP   1    1.000000
   6.84009000E-01    1.00000000E+00   1.00000000E+00 
SP   1    1.000000
   2.00878000E-01    1.00000000E+00   1.00000000E+00 
SP   1    1.000000
   6.39000000E-02    1.00000000E+00   1.00000000E+00 
D    1    1.000000
   9.13000000E-01    1.00000000E+00 

10    0
S    6    1.000000
   6.29348000E+03    1.96979000E-03 
   9.49044000E+02    1.49613000E-02 
   2.18776000E+02    7.35006000E-02 
   6.36916000E+01    2.48937000E-01 
   1.88282000E+01    6.02460000E-01 
   2.72023000E+00    2.56202000E-01 
SP   3    1.000000
   3.06331000E+01    1.11906000E-01   3.83119000E-02 
   7.02614000E+00    9.21666000E-01   2.37403000E-01 
   2.11205000E+00   -2.56919000E-03   8.17592000E-01 
SP   1    1.000000
   6.84009000E-01    1.00000000E+00   1.00000000E+00 
SP   1    1.000000
   2.00878000E-01    1.00000000E+00   1.00000000E+00 
SP   1    1.000000
   6.39000000E-02    1.00000000E+00   1.00000000E+00 
D    1    1.000000
   9.13000000E-01    1.00000000E+00 

11    0
S    6    1.000000
   4.56324000E+03    1.96665000E-03 
   6.82024000E+02    1.52306000E-02 
   1.54973000E+02    7.61269000E-02 
   4.44553000E+01    2.60801000E-01 
   1.30290000E+01    6.16462000E-01 
   1.82773000E+00    2.21006000E-01 
SP   3    1.000000
   2.09642000E+01    1.14660000E-01   4.02487000E-02 
   4.80331000E+00    9.19999000E-01   2.37594000E-01 
   1.45933000E+00   -3.03068000E-03   8.15854000E-01 
SP   1    1.000000
   4.83456000E-01    1.00000000E+00   1.00000000E+00 
SP   1    1.000000
   1.45585000E-01    1.00000000E+00   1.00000000E+00 
SP   1    1.000000
   4.38000000E-02    1.00000000E+00   1.00000000E+00 
D    1    1.000000
   6.26000000E-01    1.00000000E+00 

12    0
S    3    1.000000
   3.38650000E+01    2.54938000E-02 
   5.09479000E+00    1.90373000E-01 
   1.15879000E+00    8.52161000E-01 
S    1    1.000000
   3.25840000E-01    1.00000000E+00 
S    1    1.000000
   1.02741000E-01    1.00000000E+00 
S    1    1.000000
   3.60000000E-02    1.00000000E+00 
P    1    1.000000
   7.50000000E-01    1.00000000E+00 

[MO]
Sym=X
Ene= -0.006028
Spin=Alpha
Occup=1
     1    3.076293110069e-08
     2   -1.611894396151e-06
     3    1.728952301551e-06
     4   -2.699990562070e-07
     5   -9.338551494766e-16
     6    1.663050617186e-05
     7   -4.366886134294e-06
     8   -3.649671249311e-07
     9    2.031690726671e-15
    10   -4.426954096624e-04
    11   -1.083123936360e-04
    12   -2.694472230868e-04
    13   -3.445581712827e-15
    14   -2.889783503005e-05
    15    1.955704712045e-04
    16   -5.775919081371e-04
    17    6.161892985061e-15
    18    2.746222621650e-06
    19    1.397637333115e-15
    20   -3.760333933712e-16
    21   -5.481351121540e-06
    22    4.967624787366e-06
    23    7.010556673259e-08
    24    9.677686120510e-06
    25   -3.697178366089e-05
    26    7.335159126494e-05
    27   -2.784678926983e-06
    28    2.029056184835e-06
    29    2.576412390780e-16
    30   -3.728421586372e-07
    31   -1.764221708379e-05
    32   -1.532249816428e-04
    33   -3.077374180401e-04
    34    4.006733117205e-06
    35   -2.950957054940e-06
    36    1.171697063914e-16
    37    2.915836651813e-06
    38    5.892354908499e-05
    39    8.108764853349e-05
    40    9.037566294459e-05
    41   -8.564361953678e-06
    42   -7.098650766033e-06
    43   -5.812932729784e-18
    44   -5.738647412504e-07
    45    1.223025688394e-06
    46    5.309563815691e-06
    47   -8.606370683983e-08
    48   -1.057868311434e-15
    49   -9.858645986586e-06
    50   -2.172000487734e-05
    51   -4.967479595130e-07
    52    2.965004525188e-15
    53   -2.522267150328e-04
    54   -1.220170044422e-04
    55    1.273713778657e-06
    56   -2.150594590705e-15
    57   -2.057166676754e-04
    58    2.459460927134e-05
    59   -1.671941876730e-04
    60   -4.272774251568e-15
    61    3.622273539472e-06
    62    2.926229045574e-16
    63    4.494991888724e-16
    64   -3.022862421650e-06
    65    2.003290596844e-06
    66   -1.760268613894e-05
    67   -1.417294885710e-05
    68    1.914457051646e-07
    69   -2.649194925974e-07
    70   -1.036786050701e-15
    71   -7.951655693498e-06
    72   -3.243643073202e-06
    73    7.503630303376e-07
    74    3.014359366942e-15
    75    2.780429887482e-05
    76    1.645328787891e-05
    77   -8.412049976188e-07
    78   -4.954924297099e-15
    79   -2.184859840129e-04
    80   -1.277068078853e-04
    81    4.167826908092e-05
    82    6.314432554872e-15
    83    2.218063157246e-07
    84   -5.747218261369e-16
    85   -1.209939767828e-15
    86    6.233175240724e-07
    87   -8.638564807645e-08
    88    3.692721994015e-06
    89   -7.188648430051e-05
    90    4.228281540610e-05
    91    3.202039028127e-05
    92    4.990234402171e-16
    93    2.747731140096e-04
    94    3.409235056877e-04
    95    2.235814717333e-04
    96   -8.770294682888e-17
    97   -2.712977711111e-04
    98    4.030680555182e-04
    99    4.045213268897e-04
   100    3.825551988043e-16
   101   -2.198818901790e-03
   102   -6.412576055083e-04
   103    4.343064338044e-04
   104    3.781170053387e-15
   105   -5.590005460385e-05
   106    6.549199089179e-16
   107   -1.382567730358e-16
   108    1.005946706672e-04
   109    1.864515195810e-04
   110    5.515109959786e-01
   111    4.716913432090e-01
   112   -1.500813208942e-03
   113   -9.402519029094e-04
   114   -9.844680824208e-16
   115    5.396932710156e-03
   116    6.300933153660e-04
   117    4.036197390257e-04
   118    1.264545892925e-15
   119   -1.171898706170e-03
   120   -1.588616357171e-04
   121   -1.140299044910e-04
   122   -2.029316409689e-15
   123    1.304833185427e-03
   124   -2.440294780596e-05
   125    5.655281615496e-06
   126    4.606177068225e-16
   127   -9.219161358910e-05
   128    4.773650161022e-16
   129   -8.292383932458e-17
   130   -4.073469441564e-05
   131   -1.056145121100e-04
   132    4.533134053277e-07
   133    2.285958448850e-06
   134   -1.153302415243e-05
   135    3.769680704655e-06
   136    6.074609849065e-16
   137   -3.223070529637e-05
   138    2.660482176363e-05
   139   -8.602018333506e-06
   140   -1.012136179330e-15
   141    2.439660854371e-04
   142   -9.475893366986e-05
   143   -2.201250543970e-04
   144    1.035117134157e-15
   145   -2.151540144926e-04
   146   -5.358546793313e-04
   147   -5.485365691992e-05
   148   -1.426576400762e-15
   149   -8.033994817043e-06
   150    1.079515612532e-15
   151    4.010372468820e-16
   152    1.589211246338e-05
   153   -1.710325001571e-05
   154   -6.998564878691e-09
   155    5.737183790387e-07
   156    2.825151378657e-07
   157    3.224911302535e-07
   158   -2.440643826222e-16
   159   -9.719651397185e-06
   160   -9.772461095101e-07
   161   -1.837373851417e-06
   162    4.216993285932e-16
   163    1.504984566834e-04
   164    7.891788569171e-05
   165    5.319284366378e-06
   166    1.197643880157e-15
   167    2.224580943735e-04
   168   -4.649627908032e-05
   169    2.256688344645e-05
   170   -1.262528290917e-15
   171    3.746647835563e-07
   172    1.007926130856e-16
   173    6.800019419954e-17
   174   -4.541786071178e-07
   175   -1.652593749196e-06
   176    1.481963978121e-06
   177    1.561177361669e-07
   178   -4.452677505373e-06
   179   -1.731555156331e-05
   180    1.376200884165e-15
   181   -1.781599822276e-05
   182    1.064295873275e-05
   183    8.922350974366e-05
   184   -3.424535568114e-15
   185    6.082244794880e-04
   186   -4.820549815304e-04
   187    1.646293009394e-04
   188    3.735117510545e-15
   189    1.786563617801e-03
   190    1.067863034582e-04
   191    1.052971821138e-03
   192   -5.758855883179e-15
   193   -7.401167373069e-06
   194    5.328940271043e-16
   195    3.888014178997e-16
   196   -3.335601236619e-05
   197    3.337918867919e-05
   198   -2.422312926657e-06
   199    1.218742125140e-04
   200    1.396244107849e-04
   201    3.249827114492e-04
   202   -2.194481122966e-05
   203    1.156075381498e-05
   204   -8.207888566245e-16
Sym=X
Ene= 0.006028
Spin=Alpha
Occup=0
     1   -3.562082441647e-15
     2   -1.425615209262e-15
     3    1.225198968974e-14
     4    1.028588933970e-14
     5    2.907306521146e-02
     6    2.176723598913e-14
     7   -2.327541846689e-14
     8    2.615369562268e-15
     9    4.326684693909e-02
    10   -2.347506256423e-13
    11    4.029783260780e-13
    12    2.472577611842e-13
    13    9.185561159373e-02
    14   -1.078114955125e-11
    15   -5.599342085534e-13
    16   -1.745760548247e-12
    17   -9.358372569219e-02
    18   -1.485466467218e-14
    19    7.902761369225e-03
    20   -1.526146812817e-02
    21   -2.400150275459e-14
    22    6.229675192922e-15
    23    3.487350178384e-14
    24   -9.386314741459e-14
    25    1.441376868788e-12
    26   -7.700247144184e-13
    27   -2.041608606007e-14
    28   -1.105394690608e-15
    29   -9.355779023311e-03
    30    1.749884903460e-14
    31    3.329619869758e-14
    32    9.695279838717e-13
    33    1.509370979752e-12
    34   -5.959200166130e-15
    35    4.048493076461e-15
    36    5.980465916646e-03
    37   -3.415526152953e-15
    38   -3.173116737126e-16
    39    6.004229920139e-13
    40   -7.420356037958e-13
    41    1.393149021777e-15
    42   -3.390276119010e-15
    43    6.475422927252e-04
    44    6.288522002777e-15
    45    4.104321732091e-15
    46    6.945324306045e-16
    47   -7.730920770394e-15
    48   -5.746867480509e-03
    49   -1.306756576396e-14
    50   -1.368597581860e-14
    51    4.229132737549e-14
    52   -1.167821324092e-02
    53   -2.045654230980e-13
    54   -2.265915586677e-13
    55   -6.739862408902e-14
    56   -1.203161203871e-02
    57    7.417363321564e-12
    58    6.133636308112e-13
    59   -2.228790325344e-12
    60   -1.446508131705e+00
    61    9.446113043047e-15
    62   -7.021086927861e-03
    63    2.414120361187e-02
    64    5.131454067190e-15
    65   -3.151244957816e-14
    66    6.097138930029e-15
    67    5.304935799278e-15
    68    1.457974831949e-14
    69    7.484421444060e-15
    70    6.898172830237e-02
    71   -1.805358098152e-14
    72    1.706189867572e-14
    73    1.056772628509e-14
    74    1.138225742131e-01
    75   -1.068042342535e-13
    76   -4.903097355064e-14
    77   -1.468515905793e-14
    78    7.847064198183e-02
    79   -2.851683194925e-13
    80   -8.187320643622e-14
    81   -1.313947571928e-13
    82    3.859800081491e-01
    83    3.996130502972e-15
    84    3.360814843808e-03
    85   -1.846282811993e-03
    86    9.387923746709e-16
    87    5.910548169317e-15
    88    2.453144250715e-15
    89    1.590850485936e-14
    90    1.883192412288e-14
    91   -2.225555217951e-15
    92    1.001902123141e-02
    93   -5.175621175137e-14
    94    3.599729861871e-14
    95   -2.360412308716e-14
    96    3.630584980856e-02
    97    1.297524088113e-13
    98    3.998005512194e-14
    99    1.437924994570e-13
   100   -3.824684659262e-03
   101   -1.447848608035e-11
   102   -2.062321106744e-13
   103    5.056211319568e-12
   104   -3.733018101461e-01
   105   -1.048880762286e-14
   106   -1.637960852963e-02
   107   -1.282543451750e-02
   108   -1.393926494340e-15
   109    4.365912355876e-16
   110   -4.225896742857e-15
   111   -4.438843779469e-15
   112   -3.299845955056e-15
   113   -7.365207352364e-15
   114   -1.235349772430e-01
   115    4.411225007455e-15
   116   -1.918361720269e-14
   117    1.507697514207e-17
   118   -1.514834912742e-01
   119    7.172779202222e-14
   120    4.704356051218e-14
   121   -1.356488141324e-15
   122   -1.428779771104e-01
   123    4.878361308257e-13
   124   -1.825984094047e-13
   125   -4.040822120375e-14
   126    1.774466975736e-02
   127   -3.528951999053e-15
   128    4.799700991483e-03
   129    1.432146246727e-03
   130   -1.717090245023e-15
   131    3.430018417873e-15
   132    2.612035211919e-16
   133    1.177811409757e-15
   134    2.711156762265e-14
   135   -6.608760835865e-15
   136    5.421888475839e-02
   137   -4.122964163275e-14
   138    3.642105151182e-14
   139    2.383299125740e-15
   140    9.070600686989e-02
   141    2.665829058269e-13
   142    5.801100489879e-14
   143   -2.008231664489e-13
   144    1.017023035391e-01
   145   -2.065563180458e-12
   146   -1.168229051353e-12
   147   -3.503410759621e-13
   148    3.413894318004e-01
   149    1.522578502405e-15
   150    2.182909066698e-03
   151   -2.266283211720e-03
   152   -4.415875142835e-15
   153    3.091592335395e-15
   154    1.067414912044e-14
   155    1.248530779658e-14
   156    2.122471501563e-14
   157   -3.144141875262e-15
   158   -9.119396456023e-02
   159   -8.552664932433e-14
   160    1.296468323413e-14
   161    3.302698672594e-17
   162   -1.349699906856e-01
   163    1.216719132525e-13
   164    8.414480831652e-14
   165    2.011627876596e-14
   166   -2.030529520394e-01
   167   -2.071801845187e-12
   168    1.850729109489e-12
   169   -1.755691608657e-12
   170    1.793537067854e-01
   171   -6.156765088110e-15
   172    5.077296449857e-04
   173   -6.131996454135e-03
   174    1.114575197613e-14
   175    1.140805746310e-14
   176   -5.274872983752e-15
   177   -1.584215665725e-14
   178    2.636204418111e-14
   179   -1.061193605675e-14
   180    3.385955522042e-02
   181    8.020794053759e-15
   182    3.438826751881e-14
   183    7.492030929700e-15
   184    9.966298790140e-02
   185    2.751580708470e-13
   186    4.105741656730e-13
   187   -1.123275321812e-13
   188   -1.698660564686e-01
   189    1.824129490631e-11
   190   -3.878746239575e-13
   191    4.432712730578e-12
   192    1.215890076789e+00
   193   -2.134137116773e-14
   194    1.416903824463e-02
   195    1.237000927432e-02
   196    1.693837399482e-14
   197   -1.698931445878e-14
   198    1.731584242129e-14
   199   -1.333461271206e-13
   200   -3.475815021572e-13
   201    1.027166966557e-12
   202    7.607115669924e-15
   203   -1.275066195691e-14
   204    9.334868638404e-03
[5D]
