[Molden Format]
[Atoms] (Angs)
  C      1    6     -0.13173890     -1.79208980      0.00000000
  H      2    1     -2.14962000     -1.30978739      0.00000000
  H      3    1     -0.31599560     -2.86503115      0.00000000
  H      4    1      0.14407746      2.04280963     -0.00000000
  C      5    6     -1.17258876      0.48030861      0.00000000
  O      6    8     -2.25008207      1.06833796      0.00000000
  C      7    6      1.31158357      0.28308717     -0.00000000
  O      8    8      2.36361668      0.96389345     -0.00000000
  N      9    7      0.07017030      1.03138997     -0.00000000
  N     10    7     -1.19586868     -0.94982644      0.00000000
  C     11    6      1.19165158     -1.13169473     -0.00000000
  H     12    1      2.09970506     -1.73445456     -0.00000000
[GTO]
1    0
S    6    1.000000
   4.56324000E+03    1.96665000E-03 
   6.82024000E+02    1.52306000E-02 
   1.54973000E+02    7.61269000E-02 
   4.44553000E+01    2.60801000E-01 
   1.30290000E+01    6.16462000E-01 
   1.82773000E+00    2.21006000E-01 
SP   3    1.000000
   2.09642000E+01    1.14660000E-01   4.02487000E-02 
   4.80331000E+00    9.19999000E-01   2.37594000E-01 
   1.45933000E+00   -3.03068000E-03   8.15854000E-01 
SP   1    1.000000
   4.83456000E-01    1.00000000E+00   1.00000000E+00 
SP   1    1.000000
   1.45585000E-01    1.00000000E+00   1.00000000E+00 
SP   1    1.000000
   4.38000000E-02    1.00000000E+00   1.00000000E+00 
D    1    1.000000
   6.26000000E-01    1.00000000E+00 

2    0
S    3    1.000000
   3.38650000E+01    2.54938000E-02 
   5.09479000E+00    1.90373000E-01 
   1.15879000E+00    8.52161000E-01 
S    1    1.000000
   3.25840000E-01    1.00000000E+00 
S    1    1.000000
   1.02741000E-01    1.00000000E+00 
S    1    1.000000
   3.60000000E-02    1.00000000E+00 
P    1    1.000000
   7.50000000E-01    1.00000000E+00 

3    0
S    3    1.000000
   3.38650000E+01    2.54938000E-02 
   5.09479000E+00    1.90373000E-01 
   1.15879000E+00    8.52161000E-01 
S    1    1.000000
   3.25840000E-01    1.00000000E+00 
S    1    1.000000
   1.02741000E-01    1.00000000E+00 
S    1    1.000000
   3.60000000E-02    1.00000000E+00 
P    1    1.000000
   7.50000000E-01    1.00000000E+00 

4    0
S    3    1.000000
   3.38650000E+01    2.54938000E-02 
   5.09479000E+00    1.90373000E-01 
   1.15879000E+00    8.52161000E-01 
S    1    1.000000
   3.25840000E-01    1.00000000E+00 
S    1    1.000000
   1.02741000E-01    1.00000000E+00 
S    1    1.000000
   3.60000000E-02    1.00000000E+00 
P    1    1.000000
   7.50000000E-01    1.00000000E+00 

5    0
S    6    1.000000
   4.56324000E+03    1.96665000E-03 
   6.82024000E+02    1.52306000E-02 
   1.54973000E+02    7.61269000E-02 
   4.44553000E+01    2.60801000E-01 
   1.30290000E+01    6.16462000E-01 
   1.82773000E+00    2.21006000E-01 
SP   3    1.000000
   2.09642000E+01    1.14660000E-01   4.02487000E-02 
   4.80331000E+00    9.19999000E-01   2.37594000E-01 
   1.45933000E+00   -3.03068000E-03   8.15854000E-01 
SP   1    1.000000
   4.83456000E-01    1.00000000E+00   1.00000000E+00 
SP   1    1.000000
   1.45585000E-01    1.00000000E+00   1.00000000E+00 
SP   1    1.000000
   4.38000000E-02    1.00000000E+00   1.00000000E+00 
D    1    1.000000
   6.26000000E-01    1.00000000E+00 

6    0
S    6    1.000000
   8.58850000E+03    1.89515000E-03 
   1.29723000E+03    1.43859000E-02 
   2.99296000E+02    7.07320000E-02 
   8.73771000E+01    2.40001000E-01 
   2.56789000E+01    5.94797000E-01 
   3.74004000E+00    2.80802000E-01 
SP   3    1.000000
   4.21175000E+01    1.13889000E-01   3.65114000E-02 
   9.62837000E+00    9.20811000E-01   2.37153000E-01 
   2.85332000E+00   -3.27447000E-03   8.19702000E-01 
SP   1    1.000000
   9.05661000E-01    1.00000000E+00   1.00000000E+00 
SP   1    1.000000
   2.55611000E-01    1.00000000E+00   1.00000000E+00 
SP   1    1.000000
   8.45000000E-02    1.00000000E+00   1.00000000E+00 
D    1    1.000000
   1.29200000E+00    1.00000000E+00 

7    0
S    6    1.000000
   4.56324000E+03    1.96665000E-03 
   6.82024000E+02    1.52306000E-02 
   1.54973000E+02    7.61269000E-02 
   4.44553000E+01    2.60801000E-01 
   1.30290000E+01    6.16462000E-01 
   1.82773000E+00    2.21006000E-01 
SP   3    1.000000
   2.09642000E+01    1.14660000E-01   4.02487000E-02 
   4.80331000E+00    9.19999000E-01   2.37594000E-01 
   1.45933000E+00   -3.03068000E-03   8.15854000E-01 
SP   1    1.000000
   4.83456000E-01    1.00000000E+00   1.00000000E+00 
SP   1    1.000000
   1.45585000E-01    1.00000000E+00   1.00000000E+00 
SP   1    1.000000
   4.38000000E-02    1.00000000E+00   1.00000000E+00 
D    1    1.000000
   6.26000000E-01    1.00000000E+00 

8    0
S    6    1.000000
   8.58850000E+03    1.89515000E-03 
   1.29723000E+03    1.43859000E-02 
   2.99296000E+02    7.07320000E-02 
   8.73771000E+01    2.40001000E-01 
   2.56789000E+01    5.94797000E-01 
   3.74004000E+00    2.80802000E-01 
SP   3    1.000000
   4.21175000E+01    1.13889000E-01   3.65114000E-02 
   9.62837000E+00    9.20811000E-01   2.37153000E-01 
   2.85332000E+00   -3.27447000E-03   8.19702000E-01 
SP   1    1.000000
   9.05661000E-01    1.00000000E+00   1.00000000E+00 
SP   1    1.000000
   2.55611000E-01    1.00000000E+00   1.00000000E+00 
SP   1    1.000000
   8.45000000E-02    1.00000000E+00   1.00000000E+00 
D    1    1.000000
   1.29200000E+00    1.00000000E+00 

9    0
S    6    1.000000
   6.29348000E+03    1.96979000E-03 
   9.49044000E+02    1.49613000E-02 
   2.18776000E+02    7.35006000E-02 
   6.36916000E+01    2.48937000E-01 
   1.88282000E+01    6.02460000E-01 
   2.72023000E+00    2.56202000E-01 
SP   3    1.000000
   3.06331000E+01    1.11906000E-01   3.83119000E-02 
   7.02614000E+00    9.21666000E-01   2.37403000E-01 
   2.11205000E+00   -2.56919000E-03   8.17592000E-01 
SP   1    1.000000
   6.84009000E-01    1.00000000E+00   1.00000000E+00 
SP   1    1.000000
   2.00878000E-01    1.00000000E+00   1.00000000E+00 
SP   1    1.000000
   6.39000000E-02    1.00000000E+00   1.00000000E+00 
D    1    1.000000
   9.13000000E-01    1.00000000E+00 

10    0
S    6    1.000000
   6.29348000E+03    1.96979000E-03 
   9.49044000E+02    1.49613000E-02 
   2.18776000E+02    7.35006000E-02 
   6.36916000E+01    2.48937000E-01 
   1.88282000E+01    6.02460000E-01 
   2.72023000E+00    2.56202000E-01 
SP   3    1.000000
   3.06331000E+01    1.11906000E-01   3.83119000E-02 
   7.02614000E+00    9.21666000E-01   2.37403000E-01 
   2.11205000E+00   -2.56919000E-03   8.17592000E-01 
SP   1    1.000000
   6.84009000E-01    1.00000000E+00   1.00000000E+00 
SP   1    1.000000
   2.00878000E-01    1.00000000E+00   1.00000000E+00 
SP   1    1.000000
   6.39000000E-02    1.00000000E+00   1.00000000E+00 
D    1    1.000000
   9.13000000E-01    1.00000000E+00 

11    0
S    6    1.000000
   4.56324000E+03    1.96665000E-03 
   6.82024000E+02    1.52306000E-02 
   1.54973000E+02    7.61269000E-02 
   4.44553000E+01    2.60801000E-01 
   1.30290000E+01    6.16462000E-01 
   1.82773000E+00    2.21006000E-01 
SP   3    1.000000
   2.09642000E+01    1.14660000E-01   4.02487000E-02 
   4.80331000E+00    9.19999000E-01   2.37594000E-01 
   1.45933000E+00   -3.03068000E-03   8.15854000E-01 
SP   1    1.000000
   4.83456000E-01    1.00000000E+00   1.00000000E+00 
SP   1    1.000000
   1.45585000E-01    1.00000000E+00   1.00000000E+00 
SP   1    1.000000
   4.38000000E-02    1.00000000E+00   1.00000000E+00 
D    1    1.000000
   6.26000000E-01    1.00000000E+00 

12    0
S    3    1.000000
   3.38650000E+01    2.54938000E-02 
   5.09479000E+00    1.90373000E-01 
   1.15879000E+00    8.52161000E-01 
S    1    1.000000
   3.25840000E-01    1.00000000E+00 
S    1    1.000000
   1.02741000E-01    1.00000000E+00 
S    1    1.000000
   3.60000000E-02    1.00000000E+00 
P    1    1.000000
   7.50000000E-01    1.00000000E+00 

[MO]
Sym=X
Ene= -0.006715
Spin=Alpha
Occup=1
     1   -3.073339834707e-08
     2    1.611899038501e-06
     3   -1.728675833516e-06
     4    2.695340284212e-07
     5    9.338420446343e-16
     6   -1.663044378707e-05
     7    4.365548633216e-06
     8    3.668585630799e-07
     9   -2.031585635117e-15
    10    4.427154724530e-04
    11    1.083065853776e-04
    12    2.694448992746e-04
    13    3.445421733637e-15
    14    2.885476973576e-05
    15   -1.956158336506e-04
    16    5.775682071840e-04
    17   -6.162410393727e-15
    18   -2.746325705638e-06
    19   -1.397641970494e-15
    20    3.759428482842e-16
    21    5.481051394864e-06
    22   -4.967882347621e-06
    23   -7.044735567159e-08
    24   -9.680837841250e-06
    25    3.696399831156e-05
    26   -7.337763695450e-05
    27    2.783700572325e-06
    28   -2.028220478093e-06
    29   -2.577078098894e-16
    30    3.731820097634e-07
    31    1.763970667474e-05
    32    1.532226705249e-04
    33    3.077235746004e-04
    34   -4.006662229342e-06
    35    2.950669963963e-06
    36   -1.172568522950e-16
    37   -2.916087924816e-06
    38   -5.892859238985e-05
    39   -8.109710899467e-05
    40   -9.040043199280e-05
    41    8.563666574768e-06
    42    7.099250135086e-06
    43    5.831852047717e-18
    44    5.734778041098e-07
    45   -1.216365241410e-06
    46   -5.304681412687e-06
    47    8.329344465737e-08
    48    1.057762297785e-15
    49    9.832999699448e-06
    50    2.175265037546e-05
    51    4.796703551342e-07
    52   -2.964869201272e-15
    53    2.522339250940e-04
    54    1.220554666921e-04
    55   -1.288932532865e-06
    56    2.150293240714e-15
    57    2.056859916657e-04
    58   -2.465436337204e-05
    59    1.672200118966e-04
    60    4.273049712111e-15
    61   -3.617091828673e-06
    62   -2.927245270565e-16
    63   -4.494911358880e-16
    64    3.013894769341e-06
    65   -1.987764499996e-06
    66   -3.045634533913e-05
    67   -2.693124428295e-05
    68   -3.312288006077e-07
    69    3.411054773891e-07
    70    1.036881919741e-15
    71    7.473507059972e-06
    72    3.301678763702e-06
    73   -7.811682337855e-07
    74   -3.014442499879e-15
    75   -2.769458478623e-05
    76   -1.646800448053e-05
    77    8.480173719700e-07
    78    4.954942784394e-15
    79    2.183567077769e-04
    80    1.277021296545e-04
    81   -4.167406951843e-05
    82   -6.314526207595e-15
    83   -2.148025919132e-07
    84    5.746877028750e-16
    85    1.209991442335e-15
    86   -6.183131237269e-07
    87    8.015283751892e-08
    88   -3.692691359617e-06
    89    7.188644266318e-05
    90   -4.228250910872e-05
    91   -3.202054984133e-05
    92   -4.990677387446e-16
    93   -2.747729864247e-04
    94   -3.409247562926e-04
    95   -2.235805272110e-04
    96    8.786975152498e-17
    97    2.713125584788e-04
    98   -4.030746999561e-04
    99   -4.045168525626e-04
   100   -3.825834540362e-16
   101    2.198736633393e-03
   102    6.412465260232e-04
   103   -4.342431942640e-04
   104   -3.782081757113e-15
   105    5.589978116511e-05
   106   -6.548036094099e-16
   107    1.382712305642e-16
   108   -1.005940091688e-04
   109   -1.864517608897e-04
   110   -5.515109954247e-01
   111   -4.716913428038e-01
   112    1.500813177397e-03
   113    9.402519494436e-04
   114    9.843715791384e-16
   115   -5.396932051979e-03
   116   -6.300933924275e-04
   117   -4.036198743073e-04
   118   -1.264288136379e-15
   119    1.171895439374e-03
   120    1.588628043013e-04
   121    1.140305974554e-04
   122    2.028876074772e-15
   123   -1.304820435493e-03
   124    2.439713836893e-05
   125   -5.661084791390e-06
   126   -4.602443036667e-16
   127    9.219160080382e-05
   128   -4.773412594882e-16
   129    8.295813403776e-17
   130    4.073461948617e-05
   131    1.056144822111e-04
   132   -4.533233038950e-07
   133   -2.286088940435e-06
   134    1.153200529543e-05
   135   -3.769504483800e-06
   136   -6.075177147691e-16
   137    3.223321089590e-05
   138   -2.660170601941e-05
   139    8.601318882366e-06
   140    1.012295825911e-15
   141   -2.439934739278e-04
   142    9.475908793831e-05
   143    2.201461201494e-04
   144   -1.035161250249e-15
   145    2.151572055851e-04
   146    5.358133263294e-04
   147    5.486555859984e-05
   148    1.426814259991e-15
   149    8.034664214259e-06
   150   -1.079570124790e-15
   151   -4.010996935030e-16
   152   -1.589443613072e-05
   153    1.710281031897e-05
   154    6.947600947255e-09
   155   -5.738403650565e-07
   156   -2.827607989520e-07
   157   -3.215320866888e-07
   158    2.440492540041e-16
   159    9.721553144305e-06
   160    9.778065784843e-07
   161    1.835093972305e-06
   162   -4.217982194772e-16
   163   -1.505139656109e-04
   164   -7.893548354969e-05
   165   -5.320346385273e-06
   166   -1.197393575894e-15
   167   -2.224460128556e-04
   168    4.647636270286e-05
   169   -2.253089302089e-05
   170    1.262741994398e-15
   171   -3.739852278558e-07
   172   -1.007443464408e-16
   173   -6.792651690925e-17
   174    4.560033099353e-07
   175    1.653126279594e-06
   176   -1.481977524707e-06
   177   -1.560540787592e-07
   178    4.452534111427e-06
   179    1.731560084731e-05
   180   -1.376111540771e-15
   181    1.781508458387e-05
   182   -1.064207848309e-05
   183   -8.922380492412e-05
   184    3.424518685715e-15
   185   -6.082205418748e-04
   186    4.820512437525e-04
   187   -1.646271329865e-04
   188   -3.735123478039e-15
   189   -1.786312393901e-03
   190   -1.068228453321e-04
   191   -1.052935260470e-03
   192    5.759631422710e-15
   193    7.400847205195e-06
   194   -5.329232240279e-16
   195   -3.887745919275e-16
   196    3.335593294537e-05
   197   -3.337905370321e-05
   198    2.422206717809e-06
   199   -1.218736197629e-04
   200   -1.396224405058e-04
   201   -3.249652405595e-04
   202    2.194484927387e-05
   203   -1.156078941812e-05
   204    8.207377420738e-16
Sym=X
Ene= 0.006715
Spin=Alpha
Occup=0
     1   -1.239073075492e-15
     2   -3.224248705135e-15
     3    1.701130846320e-14
     4   -3.047368363526e-15
     5    8.816465980004e-02
     6    4.498383177229e-14
     7    1.643844549404e-14
     8   -1.972263700103e-14
     9    1.469691546536e-01
    10   -7.019427069255e-13
    11    2.391842874791e-13
    12   -3.776323606694e-13
    13    1.485451755466e-01
    14    7.855106520284e-13
    15   -1.460461093988e-12
    16    1.231493412377e-12
    17    3.707077733760e-01
    18   -4.503756503000e-15
    19    1.553601425157e-02
    20    9.022734271410e-04
    21   -3.063683710475e-14
    22    5.652043363640e-15
    23    1.648223618027e-14
    24   -8.702794410039e-14
    25    1.460819360323e-12
    26   -2.327815788754e-13
    27   -2.498516216232e-14
    28   -5.411313268190e-15
    29   -7.210975552620e-03
    30    3.290784362051e-15
    31   -1.074477616415e-13
    32    1.592056354013e-13
    33    4.827325335229e-13
    34    2.632942292348e-15
    35   -2.837286004206e-15
    36    9.217100065899e-03
    37   -2.312707553007e-15
    38    1.187410401434e-13
    39    1.240499327653e-13
    40    4.113535280417e-14
    41   -3.673069880574e-15
    42   -1.473461859202e-15
    43    5.637059010293e-03
    44    2.237776013028e-15
    45    3.961352512324e-15
    46   -7.858711908515e-15
    47   -7.559993593758e-15
    48   -4.077855563225e-02
    49    1.472834824729e-15
    50   -1.636116777841e-14
    51    2.278385130623e-14
    52   -7.601153300745e-02
    53   -3.888281285358e-13
    54   -3.648633950344e-13
    55    4.413993548754e-13
    56   -5.535185417102e-02
    57   -1.088904066154e-12
    58   -1.134850180070e-12
    59   -7.114151190091e-13
    60    2.753025039889e-01
    61    7.885088261046e-15
    62    7.041041840600e-03
    63    1.466247901269e-02
    64    1.178485236211e-14
    65   -2.989865014576e-14
    66    2.517120291065e-15
    67    4.358549283833e-15
    68    1.981772428094e-14
    69    1.084233304341e-14
    70   -1.360497632514e-02
    71   -1.646823836234e-14
    72    4.082154625049e-14
    73    1.933933857107e-14
    74   -2.280252319045e-02
    75   -1.316323759585e-13
    76   -1.396080754871e-13
    77   -6.864792596123e-14
    78   -1.734519184973e-03
    79   -4.591848946531e-13
    80   -1.556108838684e-13
    81    6.087404299960e-16
    82   -5.009675128088e-02
    83   -2.100107376847e-15
    84   -2.119271815207e-03
    85    1.779612699057e-03
    86    2.235735540153e-15
    87    4.598112796197e-15
    88    3.296800206030e-15
    89    4.372682274593e-15
    90    9.546711875671e-15
    91   -6.852985280924e-15
    92   -9.983737136650e-03
    93    2.101176226373e-15
    94    4.973291999630e-14
    95   -4.162577187250e-14
    96   -8.660505826124e-03
    97   -3.202702173986e-13
    98    6.152727122605e-13
    99    3.047195605011e-13
   100   -6.720899188255e-02
   101    1.379212640502e-11
   102   -1.401318641877e-12
   103   -2.672020660437e-12
   104    7.876072784838e-01
   105   -1.534750203987e-14
   106   -3.271179195777e-02
   107   -2.869467835943e-02
   108    4.954676457058e-15
   109    7.803970459979e-15
   110    7.675080014110e-16
   111    9.475084060038e-16
   112   -4.364002888990e-15
   113    4.523292653429e-15
   114   -2.193954128238e-01
   115   -2.038161385142e-14
   116   -1.903775250172e-14
   117   -2.793784140537e-15
   118   -2.753625317261e-01
   119   -3.654113481034e-14
   120    1.012410534493e-13
   121    8.238319208591e-14
   122   -2.048475911122e-01
   123   -7.161366409167e-13
   124    2.824897862890e-14
   125    2.525721574242e-13
   126   -1.523253005889e-01
   127    1.564149407323e-15
   128    1.066762283297e-02
   129    5.262808566174e-03
   130   -3.015845394099e-15
   131    2.652230179973e-15
   132    9.628362572140e-16
   133    1.395251692485e-15
   134    1.363582249004e-14
   135   -9.053231252443e-15
   136    4.165975811652e-02
   137   -5.737688406500e-14
   138    2.339072192007e-14
   139    6.699655032333e-15
   140    5.728967709011e-02
   141    4.182611836684e-13
   142    1.919244251216e-13
   143   -4.655576957824e-13
   144    1.123431396749e-01
   145   -3.654957023262e-13
   146   -9.952171197334e-13
   147    3.977652412654e-13
   148   -2.982993815461e-01
   149   -1.297721701510e-15
   150    3.647843978060e-03
   151   -2.931194028295e-04
   152   -6.405616054443e-15
   153    4.625088612487e-15
   154    8.342844097675e-15
   155    1.607516101158e-14
   156    1.763880178746e-14
   157   -5.896304344091e-15
   158   -7.156113425006e-02
   159   -1.438276062570e-13
   160    3.904433146464e-15
   161   -4.896438126383e-15
   162   -1.191151745868e-01
   163    6.435612968505e-13
   164    2.366476338326e-13
   165    9.547484074364e-14
   166   -1.223676483401e-01
   167   -1.040776833602e-12
   168    2.250942626071e-12
   169    3.156637688240e-13
   170   -2.551748259064e-01
   171   -5.434201158466e-15
   172    6.658839877257e-03
   173   -1.058006653844e-02
   174    9.642250533276e-15
   175    9.307160122819e-15
   176   -3.160555790405e-15
   177   -1.809933212428e-15
   178    2.953699217564e-14
   179   -6.250976361376e-15
   180    8.058946812696e-02
   181   -4.369793693606e-14
   182    1.582127211384e-14
   183   -1.019652989672e-14
   184    1.246188633573e-01
   185    8.792739813459e-13
   186    1.905538447716e-14
   187    1.883440043595e-13
   188    1.203305996509e-01
   189   -1.068554282148e-11
   190    2.274534568731e-12
   191   -4.691062184884e-12
   192   -2.616815098641e-01
   193   -2.033295249817e-14
   194   -1.007971692795e-02
   195    5.238991072110e-03
   196    1.189372612828e-14
   197   -5.343007361319e-15
   198   -6.787057688852e-15
   199   -9.231608081267e-15
   200   -5.986202335243e-13
   201   -1.790392368218e-12
   202   -8.478447918790e-15
   203    2.020353526930e-15
   204    7.487813779555e-03
[5D]
