[Molden Format]
[Atoms] (Angs)
  C      1    6     -0.13173890     -1.79208980      0.00000000
  H      2    1     -2.14962000     -1.30978739      0.00000000
  H      3    1     -0.31599560     -2.86503115      0.00000000
  H      4    1      0.14407746      2.04280963     -0.00000000
  C      5    6     -1.17258876      0.48030861      0.00000000
  O      6    8     -2.25008207      1.06833796      0.00000000
  C      7    6      1.31158357      0.28308717     -0.00000000
  O      8    8      2.36361668      0.96389345     -0.00000000
  N      9    7      0.07017030      1.03138997     -0.00000000
  N     10    7     -1.19586868     -0.94982644      0.00000000
  C     11    6      1.19165158     -1.13169473     -0.00000000
  H     12    1      2.09970506     -1.73445456     -0.00000000
[GTO]
1    0
S    6    1.000000
   4.56324000E+03    1.96665000E-03 
   6.82024000E+02    1.52306000E-02 
   1.54973000E+02    7.61269000E-02 
   4.44553000E+01    2.60801000E-01 
   1.30290000E+01    6.16462000E-01 
   1.82773000E+00    2.21006000E-01 
SP   3    1.000000
   2.09642000E+01    1.14660000E-01   4.02487000E-02 
   4.80331000E+00    9.19999000E-01   2.37594000E-01 
   1.45933000E+00   -3.03068000E-03   8.15854000E-01 
SP   1    1.000000
   4.83456000E-01    1.00000000E+00   1.00000000E+00 
SP   1    1.000000
   1.45585000E-01    1.00000000E+00   1.00000000E+00 
SP   1    1.000000
   4.38000000E-02    1.00000000E+00   1.00000000E+00 
D    1    1.000000
   6.26000000E-01    1.00000000E+00 

2    0
S    3    1.000000
   3.38650000E+01    2.54938000E-02 
   5.09479000E+00    1.90373000E-01 
   1.15879000E+00    8.52161000E-01 
S    1    1.000000
   3.25840000E-01    1.00000000E+00 
S    1    1.000000
   1.02741000E-01    1.00000000E+00 
S    1    1.000000
   3.60000000E-02    1.00000000E+00 
P    1    1.000000
   7.50000000E-01    1.00000000E+00 

3    0
S    3    1.000000
   3.38650000E+01    2.54938000E-02 
   5.09479000E+00    1.90373000E-01 
   1.15879000E+00    8.52161000E-01 
S    1    1.000000
   3.25840000E-01    1.00000000E+00 
S    1    1.000000
   1.02741000E-01    1.00000000E+00 
S    1    1.000000
   3.60000000E-02    1.00000000E+00 
P    1    1.000000
   7.50000000E-01    1.00000000E+00 

4    0
S    3    1.000000
   3.38650000E+01    2.54938000E-02 
   5.09479000E+00    1.90373000E-01 
   1.15879000E+00    8.52161000E-01 
S    1    1.000000
   3.25840000E-01    1.00000000E+00 
S    1    1.000000
   1.02741000E-01    1.00000000E+00 
S    1    1.000000
   3.60000000E-02    1.00000000E+00 
P    1    1.000000
   7.50000000E-01    1.00000000E+00 

5    0
S    6    1.000000
   4.56324000E+03    1.96665000E-03 
   6.82024000E+02    1.52306000E-02 
   1.54973000E+02    7.61269000E-02 
   4.44553000E+01    2.60801000E-01 
   1.30290000E+01    6.16462000E-01 
   1.82773000E+00    2.21006000E-01 
SP   3    1.000000
   2.09642000E+01    1.14660000E-01   4.02487000E-02 
   4.80331000E+00    9.19999000E-01   2.37594000E-01 
   1.45933000E+00   -3.03068000E-03   8.15854000E-01 
SP   1    1.000000
   4.83456000E-01    1.00000000E+00   1.00000000E+00 
SP   1    1.000000
   1.45585000E-01    1.00000000E+00   1.00000000E+00 
SP   1    1.000000
   4.38000000E-02    1.00000000E+00   1.00000000E+00 
D    1    1.000000
   6.26000000E-01    1.00000000E+00 

6    0
S    6    1.000000
   8.58850000E+03    1.89515000E-03 
   1.29723000E+03    1.43859000E-02 
   2.99296000E+02    7.07320000E-02 
   8.73771000E+01    2.40001000E-01 
   2.56789000E+01    5.94797000E-01 
   3.74004000E+00    2.80802000E-01 
SP   3    1.000000
   4.21175000E+01    1.13889000E-01   3.65114000E-02 
   9.62837000E+00    9.20811000E-01   2.37153000E-01 
   2.85332000E+00   -3.27447000E-03   8.19702000E-01 
SP   1    1.000000
   9.05661000E-01    1.00000000E+00   1.00000000E+00 
SP   1    1.000000
   2.55611000E-01    1.00000000E+00   1.00000000E+00 
SP   1    1.000000
   8.45000000E-02    1.00000000E+00   1.00000000E+00 
D    1    1.000000
   1.29200000E+00    1.00000000E+00 

7    0
S    6    1.000000
   4.56324000E+03    1.96665000E-03 
   6.82024000E+02    1.52306000E-02 
   1.54973000E+02    7.61269000E-02 
   4.44553000E+01    2.60801000E-01 
   1.30290000E+01    6.16462000E-01 
   1.82773000E+00    2.21006000E-01 
SP   3    1.000000
   2.09642000E+01    1.14660000E-01   4.02487000E-02 
   4.80331000E+00    9.19999000E-01   2.37594000E-01 
   1.45933000E+00   -3.03068000E-03   8.15854000E-01 
SP   1    1.000000
   4.83456000E-01    1.00000000E+00   1.00000000E+00 
SP   1    1.000000
   1.45585000E-01    1.00000000E+00   1.00000000E+00 
SP   1    1.000000
   4.38000000E-02    1.00000000E+00   1.00000000E+00 
D    1    1.000000
   6.26000000E-01    1.00000000E+00 

8    0
S    6    1.000000
   8.58850000E+03    1.89515000E-03 
   1.29723000E+03    1.43859000E-02 
   2.99296000E+02    7.07320000E-02 
   8.73771000E+01    2.40001000E-01 
   2.56789000E+01    5.94797000E-01 
   3.74004000E+00    2.80802000E-01 
SP   3    1.000000
   4.21175000E+01    1.13889000E-01   3.65114000E-02 
   9.62837000E+00    9.20811000E-01   2.37153000E-01 
   2.85332000E+00   -3.27447000E-03   8.19702000E-01 
SP   1    1.000000
   9.05661000E-01    1.00000000E+00   1.00000000E+00 
SP   1    1.000000
   2.55611000E-01    1.00000000E+00   1.00000000E+00 
SP   1    1.000000
   8.45000000E-02    1.00000000E+00   1.00000000E+00 
D    1    1.000000
   1.29200000E+00    1.00000000E+00 

9    0
S    6    1.000000
   6.29348000E+03    1.96979000E-03 
   9.49044000E+02    1.49613000E-02 
   2.18776000E+02    7.35006000E-02 
   6.36916000E+01    2.48937000E-01 
   1.88282000E+01    6.02460000E-01 
   2.72023000E+00    2.56202000E-01 
SP   3    1.000000
   3.06331000E+01    1.11906000E-01   3.83119000E-02 
   7.02614000E+00    9.21666000E-01   2.37403000E-01 
   2.11205000E+00   -2.56919000E-03   8.17592000E-01 
SP   1    1.000000
   6.84009000E-01    1.00000000E+00   1.00000000E+00 
SP   1    1.000000
   2.00878000E-01    1.00000000E+00   1.00000000E+00 
SP   1    1.000000
   6.39000000E-02    1.00000000E+00   1.00000000E+00 
D    1    1.000000
   9.13000000E-01    1.00000000E+00 

10    0
S    6    1.000000
   6.29348000E+03    1.96979000E-03 
   9.49044000E+02    1.49613000E-02 
   2.18776000E+02    7.35006000E-02 
   6.36916000E+01    2.48937000E-01 
   1.88282000E+01    6.02460000E-01 
   2.72023000E+00    2.56202000E-01 
SP   3    1.000000
   3.06331000E+01    1.11906000E-01   3.83119000E-02 
   7.02614000E+00    9.21666000E-01   2.37403000E-01 
   2.11205000E+00   -2.56919000E-03   8.17592000E-01 
SP   1    1.000000
   6.84009000E-01    1.00000000E+00   1.00000000E+00 
SP   1    1.000000
   2.00878000E-01    1.00000000E+00   1.00000000E+00 
SP   1    1.000000
   6.39000000E-02    1.00000000E+00   1.00000000E+00 
D    1    1.000000
   9.13000000E-01    1.00000000E+00 

11    0
S    6    1.000000
   4.56324000E+03    1.96665000E-03 
   6.82024000E+02    1.52306000E-02 
   1.54973000E+02    7.61269000E-02 
   4.44553000E+01    2.60801000E-01 
   1.30290000E+01    6.16462000E-01 
   1.82773000E+00    2.21006000E-01 
SP   3    1.000000
   2.09642000E+01    1.14660000E-01   4.02487000E-02 
   4.80331000E+00    9.19999000E-01   2.37594000E-01 
   1.45933000E+00   -3.03068000E-03   8.15854000E-01 
SP   1    1.000000
   4.83456000E-01    1.00000000E+00   1.00000000E+00 
SP   1    1.000000
   1.45585000E-01    1.00000000E+00   1.00000000E+00 
SP   1    1.000000
   4.38000000E-02    1.00000000E+00   1.00000000E+00 
D    1    1.000000
   6.26000000E-01    1.00000000E+00 

12    0
S    3    1.000000
   3.38650000E+01    2.54938000E-02 
   5.09479000E+00    1.90373000E-01 
   1.15879000E+00    8.52161000E-01 
S    1    1.000000
   3.25840000E-01    1.00000000E+00 
S    1    1.000000
   1.02741000E-01    1.00000000E+00 
S    1    1.000000
   3.60000000E-02    1.00000000E+00 
P    1    1.000000
   7.50000000E-01    1.00000000E+00 

[MO]
Sym=X
Ene= -0.007723
Spin=Alpha
Occup=1
     1   -3.075301519746e-08
     2    1.611895956233e-06
     3   -1.728859475996e-06
     4    2.698429185185e-07
     5    9.338507501803e-16
     6   -1.663048523960e-05
     7    4.366437058090e-06
     8    3.656021952769e-07
     9   -2.031655442809e-15
    10    4.427021463280e-04
    11    1.083104435445e-04
    12    2.694464430709e-04
    13    3.445528001067e-15
    14    2.888337543393e-05
    15   -1.955857022833e-04
    16    5.775839507846e-04
    17   -6.162066715622e-15
    18   -2.746257235497e-06
    19   -1.397638891347e-15
    20    3.760029922347e-16
    21    5.481250489832e-06
    22   -4.967711270108e-06
    23   -7.022032598410e-08
    24   -9.678744351734e-06
    25    3.696916968016e-05
    26   -7.336033643830e-05
    27    2.784350436586e-06
    28   -2.028775589320e-06
    29   -2.576635911387e-16
    30    3.729562675042e-07
    31    1.764137420278e-05
    32    1.532242057907e-04
    33    3.077327702218e-04
    34   -4.006709319261e-06
    35    2.950860663657e-06
    36   -1.171989666344e-16
    37   -2.915921021807e-06
    38   -5.892524247696e-05
    39   -8.109082505042e-05
    40   -9.038397948676e-05
    41    8.564128480227e-06
    42    7.098852016440e-06
    43    5.819285092535e-18
    44    5.737348235659e-07
    45   -1.220789375061e-06
    46   -5.307924502583e-06
    47    8.513356256375e-08
    48    1.057832717144e-15
    49    9.850034987209e-06
    50    2.173096596136e-05
    51    4.910139765917e-07
    52   -2.964959091287e-15
    53    2.522291360994e-04
    54    1.220299186461e-04
    55   -1.278823634796e-06
    56    2.150493411132e-15
    57    2.057063680602e-04
    58   -2.461467235315e-05
    59    1.672028585664e-04
    60    4.272866743930e-15
    61   -3.620533729230e-06
    62   -2.926570256166e-16
    63   -4.494964853798e-16
    64    3.019851441649e-06
    65   -1.998077549993e-06
    66    1.466366338898e-06
    67    3.717883828506e-07
    68   -2.383793338960e-07
    69    2.904997298386e-07
    70    1.036818240607e-15
    71    7.791112321965e-06
    72    3.263129162825e-06
    73   -7.607061985216e-07
    74   -3.014387282243e-15
    75   -2.776746125168e-05
    76   -1.645822914494e-05
    77    8.434923238943e-07
    78    4.954930508597e-15
    79    2.184425783567e-04
    80    1.277052372288e-04
    81   -4.167685906942e-05
    82   -6.314464005096e-15
    83   -2.194547427775e-07
    84    5.747103693834e-16
    85    1.209957119106e-15
    86   -6.216372451195e-07
    87    8.429291716011e-08
    88   -3.692711711324e-06
    89    7.188647038122e-05
    90   -4.228271259938e-05
    91   -3.202044388234e-05
    92   -4.990383143312e-16
    93   -2.747730714044e-04
    94   -3.409239258800e-04
    95   -2.235811547895e-04
    96    8.775895331526e-17
    97    2.713027363534e-04
    98   -4.030702867987e-04
    99   -4.045198249304e-04
   100   -3.825646861163e-16
   101    2.198791281182e-03
   102    6.412538859990e-04
   103   -4.342852008386e-04
   104   -3.781476170600e-15
   105    5.589996284129e-05
   106   -6.548808607027e-16
   107    1.382616274184e-16
   108   -1.005944486474e-04
   109   -1.864516007608e-04
   110   -5.515109962597e-01
   111   -4.716913434724e-01
   112    1.500813199621e-03
   113    9.402519193300e-04
   114    9.844356812734e-16
   115   -5.396932493737e-03
   116   -6.300933417738e-04
   117   -4.036197847897e-04
   118   -1.264459349554e-15
   119    1.171897610301e-03
   120    1.588620282159e-04
   121    1.140301372576e-04
   122    2.029168564378e-15
   123   -1.304828905609e-03
   124    2.440099724770e-05
   125   -5.657230096967e-06
   126   -4.604923332182e-16
   127    9.219160937438e-05
   128   -4.773570399762e-16
   129    8.293535420155e-17
   130    4.073466929179e-05
   131    1.056145021605e-04
   132   -4.533167292584e-07
   133   -2.286002264693e-06
   134    1.153268207036e-05
   135   -3.769621539862e-06
   136   -6.074800330625e-16
   137    3.223154660478e-05
   138   -2.660377564262e-05
   139    8.601783492793e-06
   140    1.012189783187e-15
   141   -2.439752816144e-04
   142    9.475898554734e-05
   143    2.201321276289e-04
   144   -1.035131947470e-15
   145    2.151550861173e-04
   146    5.358407950845e-04
   147    5.485765307922e-05
   148    1.426656265681e-15
   149    8.034219580926e-06
   150   -1.079533916504e-15
   151   -4.010582143243e-16
   152   -1.589289267232e-05
   153    1.710310239744e-05
   154    6.981453214467e-09
   155   -5.737593375992e-07
   156   -2.825976213705e-07
   157   -3.221691216721e-07
   158    2.440593032380e-16
   159    9.720289936797e-06
   160    9.774342936266e-07
   161    1.836608359842e-06
   162   -4.217325325935e-16
   163   -1.505036640946e-04
   164   -7.892379442244e-05
   165   -5.319640954777e-06
   166   -1.197559838911e-15
   167   -2.224540380666e-04
   168    4.648959198876e-05
   169   -2.255479930574e-05
   170    1.262600045153e-15
   171   -3.744366159773e-07
   172   -1.007764071428e-16
   173   -6.797545634039e-17
   174    4.547912704572e-07
   175    1.652772553217e-06
   176   -1.481968527783e-06
   177   -1.560963626623e-07
   178    4.452629363134e-06
   179    1.731556812559e-05
   180   -1.376170887356e-15
   181    1.781569147408e-05
   182   -1.064266318878e-05
   183   -8.922360892913e-05
   184    3.424529902573e-15
   185   -6.082231579085e-04
   186    4.820537269409e-04
   187   -1.646285731661e-04
   188   -3.735119517356e-15
   189   -1.786479268276e-03
   190   -1.067985728630e-04
   191   -1.052959546405e-03
   192    5.759116283522e-15
   193    7.401059879642e-06
   194   -5.329038307264e-16
   195   -3.887924111297e-16
   196    3.335598572807e-05
   197   -3.337914338786e-05
   198    2.422277267983e-06
   199   -1.218740135949e-04
   200   -1.396237493615e-04
   201   -3.249768456915e-04
   202    2.194482402198e-05
   203   -1.156076577890e-05
   204    8.207716950774e-16
Sym=X
Ene= 0.007723
Spin=Alpha
Occup=0
     1   -3.248614339782e-15
     2   -5.117900401495e-15
     3   -1.363137328821e-14
     4   -1.256661538588e-14
     5   -7.521326469258e-02
     6    7.720503002602e-15
     7    1.432937395589e-14
     8   -1.308371224133e-16
     9   -1.242628591604e-01
    10    2.156778731701e-13
    11   -3.394286889797e-13
    12    1.163801695129e-15
    13   -2.422573824958e-01
    14    3.723346485828e-12
    15    1.982649143129e-12
    16   -4.470011763555e-13
    17    1.073836055079e+00
    18    3.396298838975e-18
    19   -1.635635537173e-02
    20   -8.338352847055e-03
    21    1.354466832759e-14
    22    8.762731333419e-15
    23   -1.026541203183e-14
    24    1.376126443888e-15
    25   -8.080325931041e-13
    26    7.992279972783e-13
    27    4.135925001198e-15
    28   -1.980479369423e-15
    29    1.348539356148e-02
    30   -7.486395772993e-15
    31    3.754228316699e-14
    32   -4.317517548921e-13
    33   -6.233788368930e-13
    34   -1.541647350595e-15
    35    5.019324477181e-15
    36    4.779710468041e-03
    37   -7.096833699258e-15
    38   -6.638960443448e-14
    39   -5.526811191030e-13
    40   -6.422273341699e-13
    41    2.057812818514e-15
    42    7.117276554210e-15
    43   -7.501193880018e-03
    44   -4.864296465861e-15
    45   -2.904374220267e-15
    46   -2.510815395464e-16
    47    7.220290214407e-15
    48    3.442645070477e-02
    49   -1.060903814380e-14
    50    1.303422042498e-14
    51   -1.447797133523e-14
    52    6.047529793437e-02
    53    5.155869856549e-13
    54    2.648691450672e-13
    55    3.626046680554e-17
    56    1.151071343833e-01
    57    8.648489579151e-13
    58    4.156747321986e-13
    59    6.790473617913e-13
    60    5.170066429878e-01
    61    1.806836973391e-15
    62    3.054018216051e-03
    63   -2.853639801906e-02
    64   -9.335681050384e-15
    65    1.608592630971e-14
    66    6.268198373401e-16
    67    2.315165812990e-15
    68   -1.212752629875e-14
    69   -1.470215596829e-15
    70   -6.133155069861e-02
    71   -8.867847240165e-15
    72   -1.124585614329e-14
    73    6.547103920165e-15
    74   -9.419257986794e-02
    75    5.583691225475e-14
    76    1.701284064033e-14
    77    9.757315993026e-15
    78   -1.059575674603e-01
    79    3.897943051513e-14
    80    2.284506409517e-13
    81    9.625673909472e-14
    82   -1.577649823052e-01
    83   -2.299743542586e-16
    84   -1.132710632416e-03
    85   -5.088827795743e-06
    86    2.497271000216e-16
    87   -2.097371008503e-15
    88   -3.163846922890e-15
    89   -7.132017739673e-15
    90   -1.085546837769e-14
    91    1.226605504442e-15
    92    9.166984945929e-03
    93    1.098209420243e-14
    94   -1.407160755398e-14
    95    2.751552961924e-14
    96   -9.287158341854e-03
    97    1.750977539319e-13
    98   -2.671011780307e-13
    99   -4.539019113184e-13
   100    1.545048292282e-01
   101   -2.168037127973e-12
   102    1.515795147178e-13
   103   -1.693381215175e-13
   104   -8.486080770617e-01
   105    4.574611310312e-15
   106    2.203936630580e-02
   107    2.130274091529e-02
   108   -4.336061193699e-15
   109   -6.657065638473e-16
   110    2.390857155356e-15
   111    5.354159822360e-15
   112    4.412847453592e-15
   113    2.293604397146e-15
   114    1.521189934825e-01
   115   -1.675021064755e-14
   116    2.328489252785e-14
   117   -5.394311799308e-17
   118    1.975919665816e-01
   119    4.667954229440e-14
   120   -7.527499399484e-14
   121   -2.857815760959e-15
   122    1.252148872143e-01
   123    6.981564744855e-14
   124    2.202866948770e-13
   125   -2.307857396438e-13
   126    1.647974805593e-01
   127    1.029932531371e-15
   128   -6.390666137939e-03
   129   -4.771575638973e-03
   130    2.850726868281e-15
   131   -2.791681377544e-15
   132    3.738107285082e-15
   133    6.562544359343e-15
   134   -1.143969570299e-14
   135    5.874490873870e-15
   136   -5.242687791073e-02
   137   -9.590328237777e-15
   138   -2.653033756634e-14
   139   -6.743214958165e-15
   140   -8.319947183949e-02
   141   -1.608486938028e-13
   142    3.289408407264e-14
   143    2.737302840887e-13
   144   -1.107748743052e-01
   145   -1.410295129764e-13
   146    1.712310320201e-12
   147    7.154726950463e-13
   148   -1.735404805943e-01
   149   -1.080099912002e-15
   150   -3.544825413259e-03
   151   -2.207974771827e-03
   152    3.433070388364e-15
   153    5.834411110248e-16
   154   -1.205607160076e-15
   155    1.693096450449e-16
   156   -1.262277430462e-14
   157    7.876522267956e-15
   158    7.926359304996e-02
   159    2.753068451738e-14
   160   -1.920911780532e-14
   161   -1.022962499273e-15
   162    1.124192223667e-01
   163   -2.173438754295e-13
   164   -6.824281930693e-14
   165    1.615925257048e-14
   166    1.925653626897e-01
   167    1.419046648260e-12
   168   -9.924131911750e-13
   169    2.445122098972e-13
   170   -2.593902988303e-01
   171    2.625721590414e-15
   172   -7.998912351083e-03
   173    9.301581533666e-03
   174   -2.591450194122e-15
   175   -6.575995203304e-15
   176   -9.535173063720e-16
   177    9.801053075752e-18
   178   -2.053472163102e-14
   179   -5.958908018184e-15
   180   -7.964500145126e-02
   181    3.853661206990e-14
   182   -2.587166127949e-14
   183   -8.212541768539e-15
   184   -1.108350086456e-01
   185   -5.521557990563e-13
   186   -2.923791765158e-13
   187   -2.134963935011e-13
   188   -2.292726148974e-01
   189   -2.972364759965e-12
   190   -1.255120601548e-13
   191    1.837429336777e-12
   192    7.055523365348e-02
   193    9.571787266364e-15
   194    5.885631731544e-03
   195    1.297271647428e-03
   196   -8.859771697628e-15
   197    4.010385929971e-15
   198    1.029927407730e-14
   199    7.137416025785e-14
   200    7.378946554156e-13
   201    4.153739289076e-13
   202   -8.951757142726e-15
   203    1.288969363673e-14
   204   -3.832364851611e-03
[5D]
