[Molden Format]
[Atoms] (Angs)
  C      1    6     -0.13173890     -1.79208980      0.00000000
  H      2    1     -2.14962000     -1.30978739      0.00000000
  H      3    1     -0.31599560     -2.86503115      0.00000000
  H      4    1      0.14407746      2.04280963     -0.00000000
  C      5    6     -1.17258876      0.48030861      0.00000000
  O      6    8     -2.25008207      1.06833796      0.00000000
  C      7    6      1.31158357      0.28308717     -0.00000000
  O      8    8      2.36361668      0.96389345     -0.00000000
  N      9    7      0.07017030      1.03138997     -0.00000000
  N     10    7     -1.19586868     -0.94982644      0.00000000
  C     11    6      1.19165158     -1.13169473     -0.00000000
  H     12    1      2.09970506     -1.73445456     -0.00000000
[GTO]
1    0
S    6    1.000000
   4.56324000E+03    1.96665000E-03 
   6.82024000E+02    1.52306000E-02 
   1.54973000E+02    7.61269000E-02 
   4.44553000E+01    2.60801000E-01 
   1.30290000E+01    6.16462000E-01 
   1.82773000E+00    2.21006000E-01 
SP   3    1.000000
   2.09642000E+01    1.14660000E-01   4.02487000E-02 
   4.80331000E+00    9.19999000E-01   2.37594000E-01 
   1.45933000E+00   -3.03068000E-03   8.15854000E-01 
SP   1    1.000000
   4.83456000E-01    1.00000000E+00   1.00000000E+00 
SP   1    1.000000
   1.45585000E-01    1.00000000E+00   1.00000000E+00 
SP   1    1.000000
   4.38000000E-02    1.00000000E+00   1.00000000E+00 
D    1    1.000000
   6.26000000E-01    1.00000000E+00 

2    0
S    3    1.000000
   3.38650000E+01    2.54938000E-02 
   5.09479000E+00    1.90373000E-01 
   1.15879000E+00    8.52161000E-01 
S    1    1.000000
   3.25840000E-01    1.00000000E+00 
S    1    1.000000
   1.02741000E-01    1.00000000E+00 
S    1    1.000000
   3.60000000E-02    1.00000000E+00 
P    1    1.000000
   7.50000000E-01    1.00000000E+00 

3    0
S    3    1.000000
   3.38650000E+01    2.54938000E-02 
   5.09479000E+00    1.90373000E-01 
   1.15879000E+00    8.52161000E-01 
S    1    1.000000
   3.25840000E-01    1.00000000E+00 
S    1    1.000000
   1.02741000E-01    1.00000000E+00 
S    1    1.000000
   3.60000000E-02    1.00000000E+00 
P    1    1.000000
   7.50000000E-01    1.00000000E+00 

4    0
S    3    1.000000
   3.38650000E+01    2.54938000E-02 
   5.09479000E+00    1.90373000E-01 
   1.15879000E+00    8.52161000E-01 
S    1    1.000000
   3.25840000E-01    1.00000000E+00 
S    1    1.000000
   1.02741000E-01    1.00000000E+00 
S    1    1.000000
   3.60000000E-02    1.00000000E+00 
P    1    1.000000
   7.50000000E-01    1.00000000E+00 

5    0
S    6    1.000000
   4.56324000E+03    1.96665000E-03 
   6.82024000E+02    1.52306000E-02 
   1.54973000E+02    7.61269000E-02 
   4.44553000E+01    2.60801000E-01 
   1.30290000E+01    6.16462000E-01 
   1.82773000E+00    2.21006000E-01 
SP   3    1.000000
   2.09642000E+01    1.14660000E-01   4.02487000E-02 
   4.80331000E+00    9.19999000E-01   2.37594000E-01 
   1.45933000E+00   -3.03068000E-03   8.15854000E-01 
SP   1    1.000000
   4.83456000E-01    1.00000000E+00   1.00000000E+00 
SP   1    1.000000
   1.45585000E-01    1.00000000E+00   1.00000000E+00 
SP   1    1.000000
   4.38000000E-02    1.00000000E+00   1.00000000E+00 
D    1    1.000000
   6.26000000E-01    1.00000000E+00 

6    0
S    6    1.000000
   8.58850000E+03    1.89515000E-03 
   1.29723000E+03    1.43859000E-02 
   2.99296000E+02    7.07320000E-02 
   8.73771000E+01    2.40001000E-01 
   2.56789000E+01    5.94797000E-01 
   3.74004000E+00    2.80802000E-01 
SP   3    1.000000
   4.21175000E+01    1.13889000E-01   3.65114000E-02 
   9.62837000E+00    9.20811000E-01   2.37153000E-01 
   2.85332000E+00   -3.27447000E-03   8.19702000E-01 
SP   1    1.000000
   9.05661000E-01    1.00000000E+00   1.00000000E+00 
SP   1    1.000000
   2.55611000E-01    1.00000000E+00   1.00000000E+00 
SP   1    1.000000
   8.45000000E-02    1.00000000E+00   1.00000000E+00 
D    1    1.000000
   1.29200000E+00    1.00000000E+00 

7    0
S    6    1.000000
   4.56324000E+03    1.96665000E-03 
   6.82024000E+02    1.52306000E-02 
   1.54973000E+02    7.61269000E-02 
   4.44553000E+01    2.60801000E-01 
   1.30290000E+01    6.16462000E-01 
   1.82773000E+00    2.21006000E-01 
SP   3    1.000000
   2.09642000E+01    1.14660000E-01   4.02487000E-02 
   4.80331000E+00    9.19999000E-01   2.37594000E-01 
   1.45933000E+00   -3.03068000E-03   8.15854000E-01 
SP   1    1.000000
   4.83456000E-01    1.00000000E+00   1.00000000E+00 
SP   1    1.000000
   1.45585000E-01    1.00000000E+00   1.00000000E+00 
SP   1    1.000000
   4.38000000E-02    1.00000000E+00   1.00000000E+00 
D    1    1.000000
   6.26000000E-01    1.00000000E+00 

8    0
S    6    1.000000
   8.58850000E+03    1.89515000E-03 
   1.29723000E+03    1.43859000E-02 
   2.99296000E+02    7.07320000E-02 
   8.73771000E+01    2.40001000E-01 
   2.56789000E+01    5.94797000E-01 
   3.74004000E+00    2.80802000E-01 
SP   3    1.000000
   4.21175000E+01    1.13889000E-01   3.65114000E-02 
   9.62837000E+00    9.20811000E-01   2.37153000E-01 
   2.85332000E+00   -3.27447000E-03   8.19702000E-01 
SP   1    1.000000
   9.05661000E-01    1.00000000E+00   1.00000000E+00 
SP   1    1.000000
   2.55611000E-01    1.00000000E+00   1.00000000E+00 
SP   1    1.000000
   8.45000000E-02    1.00000000E+00   1.00000000E+00 
D    1    1.000000
   1.29200000E+00    1.00000000E+00 

9    0
S    6    1.000000
   6.29348000E+03    1.96979000E-03 
   9.49044000E+02    1.49613000E-02 
   2.18776000E+02    7.35006000E-02 
   6.36916000E+01    2.48937000E-01 
   1.88282000E+01    6.02460000E-01 
   2.72023000E+00    2.56202000E-01 
SP   3    1.000000
   3.06331000E+01    1.11906000E-01   3.83119000E-02 
   7.02614000E+00    9.21666000E-01   2.37403000E-01 
   2.11205000E+00   -2.56919000E-03   8.17592000E-01 
SP   1    1.000000
   6.84009000E-01    1.00000000E+00   1.00000000E+00 
SP   1    1.000000
   2.00878000E-01    1.00000000E+00   1.00000000E+00 
SP   1    1.000000
   6.39000000E-02    1.00000000E+00   1.00000000E+00 
D    1    1.000000
   9.13000000E-01    1.00000000E+00 

10    0
S    6    1.000000
   6.29348000E+03    1.96979000E-03 
   9.49044000E+02    1.49613000E-02 
   2.18776000E+02    7.35006000E-02 
   6.36916000E+01    2.48937000E-01 
   1.88282000E+01    6.02460000E-01 
   2.72023000E+00    2.56202000E-01 
SP   3    1.000000
   3.06331000E+01    1.11906000E-01   3.83119000E-02 
   7.02614000E+00    9.21666000E-01   2.37403000E-01 
   2.11205000E+00   -2.56919000E-03   8.17592000E-01 
SP   1    1.000000
   6.84009000E-01    1.00000000E+00   1.00000000E+00 
SP   1    1.000000
   2.00878000E-01    1.00000000E+00   1.00000000E+00 
SP   1    1.000000
   6.39000000E-02    1.00000000E+00   1.00000000E+00 
D    1    1.000000
   9.13000000E-01    1.00000000E+00 

11    0
S    6    1.000000
   4.56324000E+03    1.96665000E-03 
   6.82024000E+02    1.52306000E-02 
   1.54973000E+02    7.61269000E-02 
   4.44553000E+01    2.60801000E-01 
   1.30290000E+01    6.16462000E-01 
   1.82773000E+00    2.21006000E-01 
SP   3    1.000000
   2.09642000E+01    1.14660000E-01   4.02487000E-02 
   4.80331000E+00    9.19999000E-01   2.37594000E-01 
   1.45933000E+00   -3.03068000E-03   8.15854000E-01 
SP   1    1.000000
   4.83456000E-01    1.00000000E+00   1.00000000E+00 
SP   1    1.000000
   1.45585000E-01    1.00000000E+00   1.00000000E+00 
SP   1    1.000000
   4.38000000E-02    1.00000000E+00   1.00000000E+00 
D    1    1.000000
   6.26000000E-01    1.00000000E+00 

12    0
S    3    1.000000
   3.38650000E+01    2.54938000E-02 
   5.09479000E+00    1.90373000E-01 
   1.15879000E+00    8.52161000E-01 
S    1    1.000000
   3.25840000E-01    1.00000000E+00 
S    1    1.000000
   1.02741000E-01    1.00000000E+00 
S    1    1.000000
   3.60000000E-02    1.00000000E+00 
P    1    1.000000
   7.50000000E-01    1.00000000E+00 

[MO]
Sym=X
Ene= -0.005539
Spin=Alpha
Occup=1
     1    3.388960155148e-07
     2    5.326828409163e-08
     3    3.172545952974e-06
     4   -5.336314076296e-06
     5   -1.503836807218e-16
     6    7.159215346700e-07
     7   -1.534817933018e-05
     8    2.170473828045e-05
     9    1.205957496074e-15
    10    2.302246164401e-04
    11   -6.665151969650e-05
    12   -2.666699136562e-05
    13   -1.835810628840e-15
    14   -4.941853960856e-04
    15   -5.205452642182e-04
    16   -2.719759214540e-04
    17   -5.937382681754e-15
    18   -1.182908656385e-06
    19   -5.321174861061e-17
    20   -1.039029061629e-15
    21   -3.439453867229e-06
    22   -2.955558198165e-06
    23   -3.922115800460e-06
    24   -3.616678269984e-05
    25   -8.933897459147e-05
    26   -2.988808091945e-04
    27   -1.122687798907e-05
    28    9.589954660418e-06
    29   -7.639165610386e-16
    30    3.899878173073e-06
    31   -2.880763197077e-05
    32   -2.652104133073e-05
    33   -1.588577714457e-04
    34    8.134660927732e-07
    35   -3.294449884661e-06
    36   -1.000021372299e-15
    37   -2.883415315205e-06
    38   -5.787307852672e-05
    39   -1.085610299203e-04
    40   -2.842309804029e-04
    41   -7.979672414599e-06
    42    6.877896930175e-06
    43    2.171040245761e-16
    44   -4.440204573971e-06
    45    7.643034488178e-05
    46    5.602684278692e-05
    47   -3.178947114902e-05
    48   -1.216536419976e-15
    49   -2.942977638144e-04
    50    3.746154338214e-04
    51   -1.959699031159e-04
    52    1.552883869049e-15
    53    8.273669962996e-05
    54    4.413639156161e-04
    55   -1.746391151207e-04
    56   -3.458073818802e-15
    57   -3.520155949353e-04
    58   -6.856936127313e-04
    59    2.963392041510e-04
    60    3.160970293564e-15
    61    5.946147266078e-05
    62   -1.166143606779e-15
    63    9.241114837784e-17
    64   -1.029061236281e-04
    65    1.781659588376e-04
    66   -5.514897450963e-01
    67   -4.716811866558e-01
    68   -1.604046966321e-03
    69    8.742537668086e-04
    70    1.100119400567e-15
    71   -5.486878549353e-03
    72    6.659744651203e-04
    73   -3.534976296168e-04
    74   -9.539645831968e-16
    75    1.258997447494e-03
    76   -1.688767485443e-04
    77    7.817374553044e-05
    78    2.121345368550e-16
    79   -1.483478578657e-03
    80   -5.368420806921e-05
    81    4.819115986073e-05
    82   -1.074673887488e-15
    83    8.036953234326e-05
    84   -3.915745884851e-16
    85    5.929753357407e-16
    86    5.742678239378e-05
    87   -7.152310418361e-05
    88    3.515464782971e-07
    89   -4.779720548382e-07
    90    3.514942879332e-06
    91   -1.830915689659e-06
    92   -5.083357941012e-16
    93    1.464730365626e-06
    94   -1.435019361430e-05
    95    1.083917485293e-05
    96    1.914126572287e-15
    97    1.696881942042e-04
    98   -7.624566419266e-05
    99    5.134502774835e-05
   100   -3.242351314301e-16
   101   -9.440562988619e-04
   102   -1.271414833135e-04
   103    7.256910339512e-04
   104   -1.046202560908e-14
   105   -3.137914302644e-06
   106    1.334568336877e-15
   107    1.659035240866e-16
   108    7.591105572087e-06
   109   -2.768631323579e-06
   110    7.683021840117e-06
   111    5.784376401006e-06
   112   -3.655993499758e-07
   113    5.317308400201e-07
   114   -1.107402349918e-15
   115    7.565736531934e-06
   116   -8.827850952353e-07
   117   -1.551420154637e-06
   118    2.957825685186e-15
   119   -3.749014196565e-05
   120    1.340942154660e-05
   121    7.951669901204e-06
   122   -5.052961283803e-15
   123    1.463119134089e-04
   124   -6.666484256573e-05
   125   -6.659292211016e-05
   126    4.284898345802e-15
   127   -1.469360665271e-07
   128    2.726144036679e-16
   129    3.935404535212e-16
   130   -8.599328279559e-07
   131   -3.433512847533e-07
   132   -1.135875167340e-07
   133   -1.497418999329e-06
   134   -1.169167387922e-05
   135    2.022188692734e-06
   136   -6.509883013290e-16
   137    2.875232146131e-05
   138    3.575403009805e-05
   139   -8.026402396080e-06
   140    1.831983142946e-15
   141   -3.142893871121e-04
   142    1.770042099094e-06
   143    2.417343961074e-04
   144   -5.062410086697e-16
   145    3.661808990279e-05
   146   -4.745376200296e-04
   147    1.365747057901e-04
   148    2.729492384884e-15
   149    7.681485870433e-06
   150   -6.255395818504e-16
   151   -7.165900700422e-16
   152   -2.666464207389e-05
   153   -5.045674264774e-06
   154   -5.848242371583e-07
   155   -1.399819544297e-06
   156   -2.819023459404e-06
   157    1.100527230806e-05
   158   -1.736053698817e-16
   159    2.182301388069e-05
   160    6.431523260110e-06
   161   -2.616220352480e-05
   162   -1.134797310263e-15
   163   -1.779685691268e-04
   164   -2.019397559629e-04
   165   -1.218692712942e-05
   166    2.872308671000e-15
   167    1.386390600915e-04
   168   -2.285456647825e-04
   169    4.129994427949e-04
   170    2.452299367625e-15
   171    7.798077317218e-06
   172    5.538724034295e-16
   173    8.454660165391e-16
   174    2.093893298047e-05
   175    6.110919293925e-06
   176   -1.554469955595e-07
   177    7.304855004307e-07
   178   -1.645493110368e-06
   179    5.655049487588e-07
   180    1.025241724280e-15
   181   -1.048428398587e-05
   182    1.010111686240e-05
   183   -3.387057071328e-06
   184   -1.937380989460e-16
   185    4.518658657660e-05
   186   -4.289312220969e-05
   187    2.487821313963e-05
   188   -6.846954512512e-17
   189    2.882863154695e-03
   190   -4.193271439935e-04
   191    4.195456040310e-04
   192    8.899501705946e-15
   193   -3.674026490470e-06
   194   -3.350409253502e-16
   195    3.078358646970e-16
   196   -9.114545181167e-07
   197    1.548964367789e-06
   198   -1.218779678748e-06
   199    6.802264469994e-06
   200    2.260979593715e-05
   201    2.004837342133e-04
   202    4.365143789809e-07
   203   -4.085273862917e-07
   204   -5.865545886663e-16
Sym=X
Ene= 0.005539
Spin=Alpha
Occup=0
     1   -4.637138702242e-15
     2   -4.827516376519e-15
     3    9.429779857521e-15
     4   -1.135664006540e-14
     5    3.025253581553e-02
     6    3.046945334301e-14
     7    7.925907068040e-15
     8   -2.933250452946e-14
     9    5.741237707914e-02
    10   -3.220597136691e-13
    11    1.464634394939e-13
    12   -1.227062055037e-13
    13   -1.074908267539e-01
    14    4.883832705685e-12
    15   -1.927806774521e-13
    16    2.401055223525e-12
    17    1.335883943288e+00
    18    1.098790222156e-15
    19    1.258444882109e-02
    20   -1.065173992158e-02
    21   -1.292097714213e-14
    22    3.336097421445e-15
    23    2.080896473419e-14
    24   -8.231358801330e-14
    25    9.375644530913e-13
    26    3.556430097402e-13
    27   -1.739280296463e-14
    28   -7.648260596679e-15
    29   -3.883182211209e-04
    30   -5.150097937151e-15
    31   -4.239857971756e-14
    32    5.269547654922e-14
    33    9.964714984090e-13
    34   -6.055661863784e-15
    35    3.093267546512e-15
    36    1.268777824760e-02
    37   -9.626008505142e-15
    38    3.995292514041e-14
    39   -2.674551479012e-13
    40   -7.554867850778e-13
    41   -3.230286457227e-15
    42   -2.471898086437e-15
    43   -6.545546564013e-03
    44    1.020186498323e-15
    45   -2.182584625235e-15
    46   -5.301559122954e-15
    47   -6.185193814797e-15
    48   -5.388697132509e-03
    49    4.498521089009e-15
    50   -6.042464545605e-15
    51    1.671081489084e-14
    52   -1.629939104913e-02
    53    1.119103818961e-13
    54   -1.879544415174e-13
    55    1.654750612503e-14
    56    2.139262826954e-02
    57   -2.612390014320e-12
    58   -1.317256264715e-12
    59    9.353811525233e-13
    60   -6.134157793250e-01
    61   -2.118558058965e-15
    62   -1.747985504970e-02
    63    1.578544326366e-02
    64    1.212439374240e-15
    65   -1.167749728457e-14
    66    4.507589134081e-15
    67    4.674848518072e-15
    68    6.882182617377e-15
    69   -1.251378904614e-15
    70    1.192899237326e-01
    71   -1.433465451509e-14
    72    4.944007874338e-15
    73   -6.943404063737e-15
    74    1.481933562691e-01
    75   -1.034437618384e-13
    76   -5.849388693499e-14
    77    1.188138165420e-14
    78    1.205904894496e-01
    79   -3.690752146227e-13
    80    2.327683518312e-14
    81   -1.325308806709e-13
    82    9.101053683191e-02
    83    1.465152581312e-15
    84    5.128060018357e-03
    85   -3.457075887165e-03
    86    9.775463817087e-16
    87    3.513912600225e-15
    88   -1.159089571549e-15
    89    4.290271000300e-15
    90    1.086802477112e-14
    91   -9.478463961609e-15
    92    3.045051318179e-02
    93   -1.396307974376e-14
    94   -8.052989767066e-15
    95   -1.286038161090e-14
    96    5.635033882266e-02
    97    1.271210188822e-13
    98    1.786287456714e-13
    99   -1.516638186186e-13
   100    6.685411680121e-02
   101    1.372144061168e-11
   102   -1.231568254564e-12
   103   -2.819589679456e-12
   104    1.152013959120e-01
   105   -2.104946758581e-15
   106   -1.360200132799e-02
   107   -2.704551978246e-02
   108   -5.810562285257e-15
   109   -1.464767697459e-15
   110   -8.123828309236e-16
   111    2.155877478730e-15
   112    1.909349079302e-15
   113    2.585152564544e-15
   114   -6.227063245003e-02
   115   -2.082661757444e-14
   116   -9.672889971178e-15
   117    1.394698559279e-14
   118   -9.235150274551e-02
   119    1.116478950192e-13
   120    5.284386976381e-15
   121    9.208748729941e-15
   122   -1.106297311805e-01
   123   -6.833917942241e-13
   124    1.054763598975e-13
   125    2.198083289975e-13
   126   -3.610886180883e-02
   127    3.141629216458e-16
   128    3.125232035555e-03
   129    7.003042323476e-04
   130    2.962286273039e-16
   131    3.840952012281e-15
   132    3.019347894106e-15
   133    2.403604448683e-15
   134    7.415451957757e-15
   135   -1.591178869175e-14
   136   -2.565208697424e-02
   137   -3.144539627226e-14
   138    8.310836835576e-15
   139   -3.840553966729e-14
   140   -4.208948199108e-02
   141    1.902846186370e-13
   142    1.200474596743e-13
   143   -7.227293441651e-14
   144   -3.482931720116e-02
   145   -2.868079168496e-13
   146   -2.284807763475e-13
   147    8.478746021513e-13
   148   -4.964902361804e-02
   149    7.123927621489e-16
   150    3.709112390994e-03
   151   -3.540293224716e-03
   152   -1.977174752004e-15
   153    1.786123096450e-15
   154    5.105074895523e-15
   155    5.320051013978e-15
   156    3.652863859549e-15
   157   -4.270460655732e-15
   158   -7.818384788099e-02
   159   -3.529460327971e-14
   160   -3.100760588870e-14
   161    2.422748013545e-15
   162   -1.287557665123e-01
   163    3.999760255485e-14
   164    1.723099449908e-13
   165   -9.562765437929e-14
   166   -1.337097173357e-01
   167   -1.288841478332e-13
   168    1.536482513095e-12
   169    5.503764820239e-13
   170   -3.322867066497e-02
   171   -2.472413922750e-15
   172   -1.274131459598e-03
   173   -2.932852874920e-03
   174    6.085532559909e-15
   175    4.392640357609e-15
   176   -3.693223973970e-15
   177   -5.170659402844e-15
   178    2.503087147882e-14
   179   -1.317105863149e-14
   180    7.468580380552e-02
   181    9.667790777871e-15
   182   -7.722112357157e-15
   183   -2.040564404764e-14
   184    1.255249088686e-01
   185    8.397414215755e-14
   186    1.524450039345e-13
   187   -9.132219086044e-14
   188    8.946843799053e-02
   189   -1.411389976459e-11
   190    2.349568480970e-12
   191   -3.890637265241e-12
   192   -2.996728312688e-01
   193   -7.307004659160e-15
   194   -7.984991620052e-04
   195    1.426534652146e-02
   196    1.135164008494e-15
   197    1.924981257838e-15
   198    3.170031133817e-15
   199   -1.491946800837e-14
   200   -2.740645915186e-13
   201   -1.671861434299e-12
   202   -9.006727377004e-15
   203    3.790291001031e-15
   204    9.737626510719e-03
[5D]
