[Molden Format]
[Atoms] (Angs)
  C      1    6     -0.13173890     -1.79208980      0.00000000
  H      2    1     -2.14962000     -1.30978739      0.00000000
  H      3    1     -0.31599560     -2.86503115      0.00000000
  H      4    1      0.14407746      2.04280963     -0.00000000
  C      5    6     -1.17258876      0.48030861      0.00000000
  O      6    8     -2.25008207      1.06833796      0.00000000
  C      7    6      1.31158357      0.28308717     -0.00000000
  O      8    8      2.36361668      0.96389345     -0.00000000
  N      9    7      0.07017030      1.03138997     -0.00000000
  N     10    7     -1.19586868     -0.94982644      0.00000000
  C     11    6      1.19165158     -1.13169473     -0.00000000
  H     12    1      2.09970506     -1.73445456     -0.00000000
[GTO]
1    0
S    6    1.000000
   4.56324000E+03    1.96665000E-03 
   6.82024000E+02    1.52306000E-02 
   1.54973000E+02    7.61269000E-02 
   4.44553000E+01    2.60801000E-01 
   1.30290000E+01    6.16462000E-01 
   1.82773000E+00    2.21006000E-01 
SP   3    1.000000
   2.09642000E+01    1.14660000E-01   4.02487000E-02 
   4.80331000E+00    9.19999000E-01   2.37594000E-01 
   1.45933000E+00   -3.03068000E-03   8.15854000E-01 
SP   1    1.000000
   4.83456000E-01    1.00000000E+00   1.00000000E+00 
SP   1    1.000000
   1.45585000E-01    1.00000000E+00   1.00000000E+00 
SP   1    1.000000
   4.38000000E-02    1.00000000E+00   1.00000000E+00 
D    1    1.000000
   6.26000000E-01    1.00000000E+00 

2    0
S    3    1.000000
   3.38650000E+01    2.54938000E-02 
   5.09479000E+00    1.90373000E-01 
   1.15879000E+00    8.52161000E-01 
S    1    1.000000
   3.25840000E-01    1.00000000E+00 
S    1    1.000000
   1.02741000E-01    1.00000000E+00 
S    1    1.000000
   3.60000000E-02    1.00000000E+00 
P    1    1.000000
   7.50000000E-01    1.00000000E+00 

3    0
S    3    1.000000
   3.38650000E+01    2.54938000E-02 
   5.09479000E+00    1.90373000E-01 
   1.15879000E+00    8.52161000E-01 
S    1    1.000000
   3.25840000E-01    1.00000000E+00 
S    1    1.000000
   1.02741000E-01    1.00000000E+00 
S    1    1.000000
   3.60000000E-02    1.00000000E+00 
P    1    1.000000
   7.50000000E-01    1.00000000E+00 

4    0
S    3    1.000000
   3.38650000E+01    2.54938000E-02 
   5.09479000E+00    1.90373000E-01 
   1.15879000E+00    8.52161000E-01 
S    1    1.000000
   3.25840000E-01    1.00000000E+00 
S    1    1.000000
   1.02741000E-01    1.00000000E+00 
S    1    1.000000
   3.60000000E-02    1.00000000E+00 
P    1    1.000000
   7.50000000E-01    1.00000000E+00 

5    0
S    6    1.000000
   4.56324000E+03    1.96665000E-03 
   6.82024000E+02    1.52306000E-02 
   1.54973000E+02    7.61269000E-02 
   4.44553000E+01    2.60801000E-01 
   1.30290000E+01    6.16462000E-01 
   1.82773000E+00    2.21006000E-01 
SP   3    1.000000
   2.09642000E+01    1.14660000E-01   4.02487000E-02 
   4.80331000E+00    9.19999000E-01   2.37594000E-01 
   1.45933000E+00   -3.03068000E-03   8.15854000E-01 
SP   1    1.000000
   4.83456000E-01    1.00000000E+00   1.00000000E+00 
SP   1    1.000000
   1.45585000E-01    1.00000000E+00   1.00000000E+00 
SP   1    1.000000
   4.38000000E-02    1.00000000E+00   1.00000000E+00 
D    1    1.000000
   6.26000000E-01    1.00000000E+00 

6    0
S    6    1.000000
   8.58850000E+03    1.89515000E-03 
   1.29723000E+03    1.43859000E-02 
   2.99296000E+02    7.07320000E-02 
   8.73771000E+01    2.40001000E-01 
   2.56789000E+01    5.94797000E-01 
   3.74004000E+00    2.80802000E-01 
SP   3    1.000000
   4.21175000E+01    1.13889000E-01   3.65114000E-02 
   9.62837000E+00    9.20811000E-01   2.37153000E-01 
   2.85332000E+00   -3.27447000E-03   8.19702000E-01 
SP   1    1.000000
   9.05661000E-01    1.00000000E+00   1.00000000E+00 
SP   1    1.000000
   2.55611000E-01    1.00000000E+00   1.00000000E+00 
SP   1    1.000000
   8.45000000E-02    1.00000000E+00   1.00000000E+00 
D    1    1.000000
   1.29200000E+00    1.00000000E+00 

7    0
S    6    1.000000
   4.56324000E+03    1.96665000E-03 
   6.82024000E+02    1.52306000E-02 
   1.54973000E+02    7.61269000E-02 
   4.44553000E+01    2.60801000E-01 
   1.30290000E+01    6.16462000E-01 
   1.82773000E+00    2.21006000E-01 
SP   3    1.000000
   2.09642000E+01    1.14660000E-01   4.02487000E-02 
   4.80331000E+00    9.19999000E-01   2.37594000E-01 
   1.45933000E+00   -3.03068000E-03   8.15854000E-01 
SP   1    1.000000
   4.83456000E-01    1.00000000E+00   1.00000000E+00 
SP   1    1.000000
   1.45585000E-01    1.00000000E+00   1.00000000E+00 
SP   1    1.000000
   4.38000000E-02    1.00000000E+00   1.00000000E+00 
D    1    1.000000
   6.26000000E-01    1.00000000E+00 

8    0
S    6    1.000000
   8.58850000E+03    1.89515000E-03 
   1.29723000E+03    1.43859000E-02 
   2.99296000E+02    7.07320000E-02 
   8.73771000E+01    2.40001000E-01 
   2.56789000E+01    5.94797000E-01 
   3.74004000E+00    2.80802000E-01 
SP   3    1.000000
   4.21175000E+01    1.13889000E-01   3.65114000E-02 
   9.62837000E+00    9.20811000E-01   2.37153000E-01 
   2.85332000E+00   -3.27447000E-03   8.19702000E-01 
SP   1    1.000000
   9.05661000E-01    1.00000000E+00   1.00000000E+00 
SP   1    1.000000
   2.55611000E-01    1.00000000E+00   1.00000000E+00 
SP   1    1.000000
   8.45000000E-02    1.00000000E+00   1.00000000E+00 
D    1    1.000000
   1.29200000E+00    1.00000000E+00 

9    0
S    6    1.000000
   6.29348000E+03    1.96979000E-03 
   9.49044000E+02    1.49613000E-02 
   2.18776000E+02    7.35006000E-02 
   6.36916000E+01    2.48937000E-01 
   1.88282000E+01    6.02460000E-01 
   2.72023000E+00    2.56202000E-01 
SP   3    1.000000
   3.06331000E+01    1.11906000E-01   3.83119000E-02 
   7.02614000E+00    9.21666000E-01   2.37403000E-01 
   2.11205000E+00   -2.56919000E-03   8.17592000E-01 
SP   1    1.000000
   6.84009000E-01    1.00000000E+00   1.00000000E+00 
SP   1    1.000000
   2.00878000E-01    1.00000000E+00   1.00000000E+00 
SP   1    1.000000
   6.39000000E-02    1.00000000E+00   1.00000000E+00 
D    1    1.000000
   9.13000000E-01    1.00000000E+00 

10    0
S    6    1.000000
   6.29348000E+03    1.96979000E-03 
   9.49044000E+02    1.49613000E-02 
   2.18776000E+02    7.35006000E-02 
   6.36916000E+01    2.48937000E-01 
   1.88282000E+01    6.02460000E-01 
   2.72023000E+00    2.56202000E-01 
SP   3    1.000000
   3.06331000E+01    1.11906000E-01   3.83119000E-02 
   7.02614000E+00    9.21666000E-01   2.37403000E-01 
   2.11205000E+00   -2.56919000E-03   8.17592000E-01 
SP   1    1.000000
   6.84009000E-01    1.00000000E+00   1.00000000E+00 
SP   1    1.000000
   2.00878000E-01    1.00000000E+00   1.00000000E+00 
SP   1    1.000000
   6.39000000E-02    1.00000000E+00   1.00000000E+00 
D    1    1.000000
   9.13000000E-01    1.00000000E+00 

11    0
S    6    1.000000
   4.56324000E+03    1.96665000E-03 
   6.82024000E+02    1.52306000E-02 
   1.54973000E+02    7.61269000E-02 
   4.44553000E+01    2.60801000E-01 
   1.30290000E+01    6.16462000E-01 
   1.82773000E+00    2.21006000E-01 
SP   3    1.000000
   2.09642000E+01    1.14660000E-01   4.02487000E-02 
   4.80331000E+00    9.19999000E-01   2.37594000E-01 
   1.45933000E+00   -3.03068000E-03   8.15854000E-01 
SP   1    1.000000
   4.83456000E-01    1.00000000E+00   1.00000000E+00 
SP   1    1.000000
   1.45585000E-01    1.00000000E+00   1.00000000E+00 
SP   1    1.000000
   4.38000000E-02    1.00000000E+00   1.00000000E+00 
D    1    1.000000
   6.26000000E-01    1.00000000E+00 

12    0
S    3    1.000000
   3.38650000E+01    2.54938000E-02 
   5.09479000E+00    1.90373000E-01 
   1.15879000E+00    8.52161000E-01 
S    1    1.000000
   3.25840000E-01    1.00000000E+00 
S    1    1.000000
   1.02741000E-01    1.00000000E+00 
S    1    1.000000
   3.60000000E-02    1.00000000E+00 
P    1    1.000000
   7.50000000E-01    1.00000000E+00 

[MO]
Sym=X
Ene= -0.035640
Spin=Alpha
Occup=1
     1   -3.388949083233e-07
     2   -5.332631587719e-08
     3   -3.172483710097e-06
     4    5.336304361113e-06
     5    1.503500600407e-16
     6   -7.153228007118e-07
     7    1.534802212816e-05
     8   -2.170475144193e-05
     9   -1.205884351969e-15
    10   -2.302405546772e-04
    11    6.664762028002e-05
    12    2.665729070177e-05
    13    1.835686582194e-15
    14    4.941843561979e-04
    15    5.205523057082e-04
    16    2.719551271531e-04
    17    5.937604529390e-15
    18    1.183007527611e-06
    19    5.326206667207e-17
    20    1.039015524649e-15
    21    3.439256530037e-06
    22    2.955737046524e-06
    23    3.922118328364e-06
    24    3.616713115418e-05
    25    8.933764361619e-05
    26    2.988834503136e-04
    27    1.122677774584e-05
    28   -9.589881619606e-06
    29    7.639258374574e-16
    30   -3.899891600136e-06
    31    2.880699684130e-05
    32    2.651552492220e-05
    33    1.588466923840e-04
    34   -8.133218424169e-07
    35    3.294343647056e-06
    36    1.000025591673e-15
    37    2.883520294620e-06
    38    5.787519996195e-05
    39    1.085639493627e-04
    40    2.842342344112e-04
    41    7.979364086831e-06
    42   -6.878152504092e-06
    43   -2.171042340731e-16
    44    4.440183918054e-06
    45   -7.643030092716e-05
    46   -5.602665168741e-05
    47    3.178946808255e-05
    48    1.216498335623e-15
    49    2.942974091779e-04
    50   -3.746162161665e-04
    51    1.959698854293e-04
    52   -1.552777123950e-15
    53   -8.274578042796e-05
    54   -4.413683089403e-04
    55    1.746391611531e-04
    56    3.457996396166e-15
    57    3.520081890389e-04
    58    6.856944988818e-04
    59   -2.963452238067e-04
    60   -3.161124125987e-15
    61   -5.946134231088e-05
    62    1.166154143020e-15
    63   -9.239496551473e-17
    64    1.029060149021e-04
    65   -1.781658868942e-04
    66    5.514897450181e-01
    67    4.716811866206e-01
    68    1.604046974829e-03
    69   -8.742537772268e-04
    70   -1.100156728246e-15
    71    5.486878268602e-03
    72   -6.659745825693e-04
    73    3.534976569876e-04
    74    9.540731077029e-16
    75   -1.258996447747e-03
    76    1.688773410688e-04
    77   -7.817377589440e-05
    78   -2.123129252055e-16
    79    1.483470714177e-03
    80    5.367961039824e-05
    81   -4.818965940022e-05
    82    1.074901221984e-15
    83   -8.036952443870e-05
    84    3.915538976338e-16
    85   -5.930188968220e-16
    86   -5.742676001083e-05
    87    7.152310114558e-05
    88   -3.514135325642e-07
    89    4.753839842965e-07
    90   -3.513420608826e-06
    91    1.832068495748e-06
    92    5.083537605510e-16
    93   -1.454837932645e-06
    94    1.436246762232e-05
    95   -1.083112544073e-05
    96   -1.914129731713e-15
    97   -1.696979616896e-04
    98    7.626017560305e-05
    99   -5.133046414551e-05
   100    3.242489045824e-16
   101    9.439771375121e-04
   102    1.271183967620e-04
   103   -7.256753986984e-04
   104    1.046216175003e-14
   105    3.135901781296e-06
   106   -1.334544759669e-15
   107   -1.659085018006e-16
   108   -7.587483951067e-06
   109    2.775343989808e-06
   110    1.217258301990e-05
   111    1.119754598202e-05
   112    3.115667847663e-07
   113   -5.655819702638e-07
   114    1.107366908024e-15
   115   -7.371435130930e-06
   116    9.054698367572e-07
   117    1.565951351612e-06
   118   -2.957780161740e-15
   119    3.744795108098e-05
   120   -1.341514092725e-05
   121   -7.955775235749e-06
   122    5.052888229053e-15
   123   -1.462649367012e-04
   124    6.666396407326e-05
   125    6.659312577977e-05
   126   -4.284881766870e-15
   127    1.436169664851e-07
   128   -2.725972177555e-16
   129   -3.935434393576e-16
   130    8.584662905251e-07
   131    3.395489311369e-07
   132    1.136038371248e-07
   133    1.497501300353e-06
   134    1.169125867685e-05
   135   -2.022052978001e-06
   136    6.510101719118e-16
   137   -2.875348186632e-05
   138   -3.575307230216e-05
   139    8.026092712647e-06
   140   -1.832019583912e-15
   141    3.142981707425e-04
   142   -1.773453630218e-06
   143   -2.417423213354e-04
   144    5.062782756656e-16
   145   -3.662583595585e-05
   146    4.745183285645e-04
   147   -1.365766807795e-04
   148   -2.729543747511e-15
   149   -7.681775119596e-06
   150    6.255784474090e-16
   151    7.166045089839e-16
   152    2.666521425164e-05
   153    5.045058515362e-06
   154    5.848239857838e-07
   155    1.399840200827e-06
   156    2.819033633408e-06
   157   -1.100526070876e-05
   158    1.735965832038e-16
   159   -2.182336383143e-05
   160   -6.431558449590e-06
   161    2.616213740167e-05
   162    1.134812493506e-15
   163    1.779739875804e-04
   164    2.019425973832e-04
   165    1.218711864760e-05
   166   -2.872265556088e-15
   167   -1.386310512520e-04
   168    2.285439910447e-04
   169   -4.129986307536e-04
   170   -2.452344823882e-15
   171   -7.798063836318e-06
   172   -5.538687752324e-16
   173   -8.454635692346e-16
   174   -2.093894935299e-05
   175   -6.110978797078e-06
   176    1.555003496680e-07
   177   -7.304798805857e-07
   178    1.645332805874e-06
   179   -5.661283471436e-07
   180   -1.025192179064e-15
   181    1.048364258144e-05
   182   -1.010073370273e-05
   183    3.390269316685e-06
   184    1.936148083535e-16
   185   -4.516468920752e-05
   186    4.287576721681e-05
   187   -2.487228614896e-05
   188    6.860401761252e-17
   189   -2.882798837392e-03
   190    4.193309889568e-04
   191   -4.195076951597e-04
   192   -8.899709046346e-15
   193    3.673760035920e-06
   194    3.350601110408e-16
   195   -3.078218673037e-16
   196    9.102536294670e-07
   197   -1.547762645384e-06
   198    1.218692471400e-06
   199   -6.797876738024e-06
   200   -2.260476917505e-05
   201   -2.004720343252e-04
   202   -4.373044407320e-07
   203    4.089435991841e-07
   204    5.865250390590e-16
Sym=X
Ene= 0.035640
Spin=Alpha
Occup=0
     1    7.630194879088e-16
     2    9.784964882741e-16
     3   -6.649786929943e-15
     4    7.836036653883e-16
     5   -8.509569919854e-02
     6   -3.972652103307e-15
     7   -4.924980867922e-16
     8    4.885455876615e-15
     9   -1.393389537639e-01
    10    5.157541852840e-15
    11   -1.688832992688e-13
    12   -6.887516746957e-15
    13   -1.763103502739e-01
    14    4.853446651013e-12
    15    1.013124990101e-12
    16    8.607485506650e-13
    17    6.467271883454e-02
    18    4.999103815254e-15
    19   -2.707278142956e-02
    20   -4.672689186689e-03
    21    5.934942824900e-15
    22   -3.022228301742e-15
    23   -8.264218078220e-15
    24    4.474515625386e-14
    25   -4.138155414973e-13
    26    3.176534448617e-13
    27    8.759209078013e-15
    28    6.916455213864e-15
    29    1.625243965732e-02
    30   -3.974984620258e-15
    31    2.243901016190e-14
    32   -1.280848200076e-13
    33   -5.034219114899e-14
    34    4.127474719051e-15
    35    5.210935661810e-15
    36   -5.126114301331e-03
    37    5.573206765002e-15
    38    7.163928718751e-15
    39    7.741330063682e-14
    40   -2.830408200888e-13
    41    3.473650974684e-15
    42   -2.054550041294e-16
    43   -2.625050715306e-03
    44   -8.345596268843e-16
    45    1.760422842957e-15
    46    3.989018628669e-15
    47    5.930934531523e-15
    48    1.743341726092e-02
    49   -6.516672555842e-15
    50    3.585904118187e-15
    51    1.493586719357e-15
    52    4.431865616046e-02
    53   -1.270016269408e-14
    54    8.027088087890e-14
    55    9.872188882236e-14
    56   -1.712024581755e-02
    57   -1.652380751170e-12
    58    1.541382628644e-13
    59    9.262716346268e-13
    60    7.298593352628e-02
    61   -1.181442640630e-15
    62    3.361867769345e-03
    63   -2.809397268287e-02
    64    1.599680681424e-15
    65    2.624721487609e-15
    66   -1.000834107089e-15
    67   -5.891935946654e-16
    68   -2.900335373967e-15
    69   -4.844123262739e-15
    70   -9.768104123973e-02
    71    1.492638732036e-15
    72   -2.235733124634e-15
    73   -4.608957791864e-16
    74   -1.211431132288e-01
    75    2.743005439746e-14
    76    1.316104011434e-14
    77   -2.072401623761e-14
    78   -1.039882976479e-01
    79   -5.564857587167e-14
    80   -8.487321670263e-14
    81    1.596740661564e-14
    82    1.500975740074e-03
    83    1.780293844480e-15
    84   -4.047820832951e-03
    85    3.470155157791e-04
    86    5.023061246788e-16
    87   -3.041910747436e-15
    88   -1.386969794402e-15
    89   -4.351351610126e-15
    90    5.520255591162e-17
    91   -1.418921248501e-15
    92    2.425835190364e-02
    93    1.639798854050e-14
    94    7.514016909828e-15
    95    5.371868739551e-15
    96    3.245718881060e-02
    97    1.807026046315e-14
    98    6.577989556549e-14
    99   -4.917410542658e-14
   100    1.123809059022e-01
   101   -1.658405714631e-12
   102    1.649456623121e-13
   103    6.159289554932e-13
   104   -3.280135233816e-01
   105   -4.041573543778e-16
   106    2.869069679279e-02
   107    3.265500411135e-02
   108    6.859706587141e-16
   109   -9.395645578984e-16
   110    1.321192049660e-15
   111    1.625899935152e-15
   112   -1.986539551519e-15
   113    1.455852193472e-15
   114    1.281978284504e-01
   115   -2.512358248907e-15
   116    2.863192872108e-15
   117   -6.367888590650e-15
   118    1.980001235021e-01
   119   -4.714912777019e-14
   120    8.183336953341e-15
   121    3.265938088228e-14
   122    1.698779164220e-01
   123   -2.667270372040e-14
   124   -2.003163069123e-14
   125   -7.831323028865e-14
   126    1.648589713338e-01
   127   -3.099021148790e-15
   128   -8.396340404365e-03
   129   -3.717685165653e-03
   130    8.014161841403e-16
   131   -4.397618525734e-15
   132    6.369642480769e-16
   133    2.295236448048e-15
   134   -9.121593928817e-16
   135   -5.122906819389e-16
   136   -1.786866429476e-02
   137   -6.602588504113e-16
   138   -1.208298921214e-14
   139    7.812381986776e-15
   140   -2.778552861724e-02
   141   -7.927268959823e-14
   142    3.151539004198e-14
   143   -4.847682519822e-14
   144   -3.533169356000e-02
   145    3.377563485238e-13
   146    5.772090438486e-14
   147   -2.139705186183e-13
   148   -2.921678305089e-02
   149    3.193418487129e-15
   150    9.254117912182e-04
   151   -2.599630987177e-04
   152   -1.092146404362e-15
   153   -4.302279228763e-15
   154   -1.998194105989e-15
   155   -1.766735844996e-15
   156   -2.755003594765e-15
   157    2.541103832926e-15
   158    1.134941443161e-01
   159    3.285307308279e-15
   160    1.103347431887e-14
   161    2.162942236625e-15
   162    1.793325780939e-01
   163    4.440764973543e-14
   164   -5.410524464814e-14
   165    4.852913629147e-14
   166    2.189276278398e-01
   167    3.191362521749e-13
   168   -8.343840108252e-13
   169    4.034311513141e-13
   170    2.066558329027e-01
   171    3.289341036300e-15
   172   -8.710549090634e-03
   173    9.271969539405e-03
   174   -2.208846723756e-15
   175   -3.174494207838e-15
   176    1.460958251546e-15
   177    3.868997113907e-15
   178   -5.033888034626e-15
   179    2.056194132692e-16
   180   -1.425110981999e-01
   181   -9.822806685423e-15
   182    4.519058342287e-15
   183    1.226734433084e-14
   184   -2.311721998493e-01
   185    5.470532533891e-15
   186   -1.806050671756e-13
   187   -7.191224011334e-14
   188   -2.550137543979e-01
   189   -1.811518444391e-12
   190    6.733292832005e-13
   191    8.871330670739e-13
   192   -1.747131864726e-01
   193    4.817092491080e-15
   194    1.183040792958e-02
   195    4.369338675326e-03
   196   -1.370989926611e-15
   197   -5.798082510333e-16
   198   -2.930611221709e-15
   199    1.875018924964e-14
   200    1.078472141194e-13
   201    3.087210678142e-14
   202    2.610783914676e-15
   203    9.551726684472e-16
   204   -1.352197693840e-02
[5D]
