[Molden Format]
[Atoms] (Angs)
  C      1    6     -0.13173890     -1.79208980      0.00000000
  H      2    1     -2.14962000     -1.30978739      0.00000000
  H      3    1     -0.31599560     -2.86503115      0.00000000
  H      4    1      0.14407746      2.04280963     -0.00000000
  C      5    6     -1.17258876      0.48030861      0.00000000
  O      6    8     -2.25008207      1.06833796      0.00000000
  C      7    6      1.31158357      0.28308717     -0.00000000
  O      8    8      2.36361668      0.96389345     -0.00000000
  N      9    7      0.07017030      1.03138997     -0.00000000
  N     10    7     -1.19586868     -0.94982644      0.00000000
  C     11    6      1.19165158     -1.13169473     -0.00000000
  H     12    1      2.09970506     -1.73445456     -0.00000000
[GTO]
1    0
S    6    1.000000
   4.56324000E+03    1.96665000E-03 
   6.82024000E+02    1.52306000E-02 
   1.54973000E+02    7.61269000E-02 
   4.44553000E+01    2.60801000E-01 
   1.30290000E+01    6.16462000E-01 
   1.82773000E+00    2.21006000E-01 
SP   3    1.000000
   2.09642000E+01    1.14660000E-01   4.02487000E-02 
   4.80331000E+00    9.19999000E-01   2.37594000E-01 
   1.45933000E+00   -3.03068000E-03   8.15854000E-01 
SP   1    1.000000
   4.83456000E-01    1.00000000E+00   1.00000000E+00 
SP   1    1.000000
   1.45585000E-01    1.00000000E+00   1.00000000E+00 
SP   1    1.000000
   4.38000000E-02    1.00000000E+00   1.00000000E+00 
D    1    1.000000
   6.26000000E-01    1.00000000E+00 

2    0
S    3    1.000000
   3.38650000E+01    2.54938000E-02 
   5.09479000E+00    1.90373000E-01 
   1.15879000E+00    8.52161000E-01 
S    1    1.000000
   3.25840000E-01    1.00000000E+00 
S    1    1.000000
   1.02741000E-01    1.00000000E+00 
S    1    1.000000
   3.60000000E-02    1.00000000E+00 
P    1    1.000000
   7.50000000E-01    1.00000000E+00 

3    0
S    3    1.000000
   3.38650000E+01    2.54938000E-02 
   5.09479000E+00    1.90373000E-01 
   1.15879000E+00    8.52161000E-01 
S    1    1.000000
   3.25840000E-01    1.00000000E+00 
S    1    1.000000
   1.02741000E-01    1.00000000E+00 
S    1    1.000000
   3.60000000E-02    1.00000000E+00 
P    1    1.000000
   7.50000000E-01    1.00000000E+00 

4    0
S    3    1.000000
   3.38650000E+01    2.54938000E-02 
   5.09479000E+00    1.90373000E-01 
   1.15879000E+00    8.52161000E-01 
S    1    1.000000
   3.25840000E-01    1.00000000E+00 
S    1    1.000000
   1.02741000E-01    1.00000000E+00 
S    1    1.000000
   3.60000000E-02    1.00000000E+00 
P    1    1.000000
   7.50000000E-01    1.00000000E+00 

5    0
S    6    1.000000
   4.56324000E+03    1.96665000E-03 
   6.82024000E+02    1.52306000E-02 
   1.54973000E+02    7.61269000E-02 
   4.44553000E+01    2.60801000E-01 
   1.30290000E+01    6.16462000E-01 
   1.82773000E+00    2.21006000E-01 
SP   3    1.000000
   2.09642000E+01    1.14660000E-01   4.02487000E-02 
   4.80331000E+00    9.19999000E-01   2.37594000E-01 
   1.45933000E+00   -3.03068000E-03   8.15854000E-01 
SP   1    1.000000
   4.83456000E-01    1.00000000E+00   1.00000000E+00 
SP   1    1.000000
   1.45585000E-01    1.00000000E+00   1.00000000E+00 
SP   1    1.000000
   4.38000000E-02    1.00000000E+00   1.00000000E+00 
D    1    1.000000
   6.26000000E-01    1.00000000E+00 

6    0
S    6    1.000000
   8.58850000E+03    1.89515000E-03 
   1.29723000E+03    1.43859000E-02 
   2.99296000E+02    7.07320000E-02 
   8.73771000E+01    2.40001000E-01 
   2.56789000E+01    5.94797000E-01 
   3.74004000E+00    2.80802000E-01 
SP   3    1.000000
   4.21175000E+01    1.13889000E-01   3.65114000E-02 
   9.62837000E+00    9.20811000E-01   2.37153000E-01 
   2.85332000E+00   -3.27447000E-03   8.19702000E-01 
SP   1    1.000000
   9.05661000E-01    1.00000000E+00   1.00000000E+00 
SP   1    1.000000
   2.55611000E-01    1.00000000E+00   1.00000000E+00 
SP   1    1.000000
   8.45000000E-02    1.00000000E+00   1.00000000E+00 
D    1    1.000000
   1.29200000E+00    1.00000000E+00 

7    0
S    6    1.000000
   4.56324000E+03    1.96665000E-03 
   6.82024000E+02    1.52306000E-02 
   1.54973000E+02    7.61269000E-02 
   4.44553000E+01    2.60801000E-01 
   1.30290000E+01    6.16462000E-01 
   1.82773000E+00    2.21006000E-01 
SP   3    1.000000
   2.09642000E+01    1.14660000E-01   4.02487000E-02 
   4.80331000E+00    9.19999000E-01   2.37594000E-01 
   1.45933000E+00   -3.03068000E-03   8.15854000E-01 
SP   1    1.000000
   4.83456000E-01    1.00000000E+00   1.00000000E+00 
SP   1    1.000000
   1.45585000E-01    1.00000000E+00   1.00000000E+00 
SP   1    1.000000
   4.38000000E-02    1.00000000E+00   1.00000000E+00 
D    1    1.000000
   6.26000000E-01    1.00000000E+00 

8    0
S    6    1.000000
   8.58850000E+03    1.89515000E-03 
   1.29723000E+03    1.43859000E-02 
   2.99296000E+02    7.07320000E-02 
   8.73771000E+01    2.40001000E-01 
   2.56789000E+01    5.94797000E-01 
   3.74004000E+00    2.80802000E-01 
SP   3    1.000000
   4.21175000E+01    1.13889000E-01   3.65114000E-02 
   9.62837000E+00    9.20811000E-01   2.37153000E-01 
   2.85332000E+00   -3.27447000E-03   8.19702000E-01 
SP   1    1.000000
   9.05661000E-01    1.00000000E+00   1.00000000E+00 
SP   1    1.000000
   2.55611000E-01    1.00000000E+00   1.00000000E+00 
SP   1    1.000000
   8.45000000E-02    1.00000000E+00   1.00000000E+00 
D    1    1.000000
   1.29200000E+00    1.00000000E+00 

9    0
S    6    1.000000
   6.29348000E+03    1.96979000E-03 
   9.49044000E+02    1.49613000E-02 
   2.18776000E+02    7.35006000E-02 
   6.36916000E+01    2.48937000E-01 
   1.88282000E+01    6.02460000E-01 
   2.72023000E+00    2.56202000E-01 
SP   3    1.000000
   3.06331000E+01    1.11906000E-01   3.83119000E-02 
   7.02614000E+00    9.21666000E-01   2.37403000E-01 
   2.11205000E+00   -2.56919000E-03   8.17592000E-01 
SP   1    1.000000
   6.84009000E-01    1.00000000E+00   1.00000000E+00 
SP   1    1.000000
   2.00878000E-01    1.00000000E+00   1.00000000E+00 
SP   1    1.000000
   6.39000000E-02    1.00000000E+00   1.00000000E+00 
D    1    1.000000
   9.13000000E-01    1.00000000E+00 

10    0
S    6    1.000000
   6.29348000E+03    1.96979000E-03 
   9.49044000E+02    1.49613000E-02 
   2.18776000E+02    7.35006000E-02 
   6.36916000E+01    2.48937000E-01 
   1.88282000E+01    6.02460000E-01 
   2.72023000E+00    2.56202000E-01 
SP   3    1.000000
   3.06331000E+01    1.11906000E-01   3.83119000E-02 
   7.02614000E+00    9.21666000E-01   2.37403000E-01 
   2.11205000E+00   -2.56919000E-03   8.17592000E-01 
SP   1    1.000000
   6.84009000E-01    1.00000000E+00   1.00000000E+00 
SP   1    1.000000
   2.00878000E-01    1.00000000E+00   1.00000000E+00 
SP   1    1.000000
   6.39000000E-02    1.00000000E+00   1.00000000E+00 
D    1    1.000000
   9.13000000E-01    1.00000000E+00 

11    0
S    6    1.000000
   4.56324000E+03    1.96665000E-03 
   6.82024000E+02    1.52306000E-02 
   1.54973000E+02    7.61269000E-02 
   4.44553000E+01    2.60801000E-01 
   1.30290000E+01    6.16462000E-01 
   1.82773000E+00    2.21006000E-01 
SP   3    1.000000
   2.09642000E+01    1.14660000E-01   4.02487000E-02 
   4.80331000E+00    9.19999000E-01   2.37594000E-01 
   1.45933000E+00   -3.03068000E-03   8.15854000E-01 
SP   1    1.000000
   4.83456000E-01    1.00000000E+00   1.00000000E+00 
SP   1    1.000000
   1.45585000E-01    1.00000000E+00   1.00000000E+00 
SP   1    1.000000
   4.38000000E-02    1.00000000E+00   1.00000000E+00 
D    1    1.000000
   6.26000000E-01    1.00000000E+00 

12    0
S    3    1.000000
   3.38650000E+01    2.54938000E-02 
   5.09479000E+00    1.90373000E-01 
   1.15879000E+00    8.52161000E-01 
S    1    1.000000
   3.25840000E-01    1.00000000E+00 
S    1    1.000000
   1.02741000E-01    1.00000000E+00 
S    1    1.000000
   3.60000000E-02    1.00000000E+00 
P    1    1.000000
   7.50000000E-01    1.00000000E+00 

[MO]
Sym=X
Ene= -0.008889
Spin=Alpha
Occup=1
     1   -3.074915301232e-08
     2    1.611896563501e-06
     3   -1.728823320663e-06
     4    2.697821038706e-07
     5    9.338490364674e-16
     6   -1.663047708277e-05
     7    4.366262144901e-06
     8    3.658495508440e-07
     9   -2.031641699510e-15
    10    4.427047701116e-04
    11    1.083096839719e-04
    12    2.694461391975e-04
    13    3.445507079898e-15
    14    2.887774351125e-05
    15   -1.955916346414e-04
    16    5.775808513153e-04
    17   -6.162134381086e-15
    18   -2.746270716723e-06
    19   -1.397639497944e-15
    20    3.759911511082e-16
    21    5.481211293185e-06
    22   -4.967744953407e-06
    23   -7.026502392874e-08
    24   -9.679156523475e-06
    25    3.696815154359e-05
    26   -7.336374260784e-05
    27    2.784222491129e-06
    28   -2.028666298774e-06
    29   -2.576722970571e-16
    30    3.730007120584e-07
    31    1.764104590217e-05
    32    1.532239035660e-04
    33    3.077309598564e-04
    34   -4.006700049192e-06
    35    2.950823119213e-06
    36   -1.172103632762e-16
    37   -2.915953882680e-06
    38   -5.892590202816e-05
    39   -8.109206226374e-05
    40   -9.038721870336e-05
    41    8.564037541895e-06
    42    7.098930400482e-06
    43    5.821759293990e-18
    44    5.736842213637e-07
    45   -1.219918345693e-06
    46   -5.307285999863e-06
    47    8.477127756994e-08
    48    1.057818853161e-15
    49    9.846681058267e-06
    50    2.173523522524e-05
    51    4.887806284832e-07
    52   -2.964941394399e-15
    53    2.522300790303e-04
    54    1.220349486139e-04
    55   -1.280813889286e-06
    56    2.150454001866e-15
    57    2.057023563813e-04
    58   -2.462248678361e-05
    59    1.672062357826e-04
    60    4.272902768096e-15
    61   -3.619856083938e-06
    62   -2.926703154731e-16
    63   -4.494954322833e-16
    64    3.018678684379e-06
    65   -1.996047102651e-06
    66   -4.818622291862e-06
    67   -5.003671309551e-06
    68   -2.566596683048e-07
    69    3.004630610773e-07
    70    1.036830778119e-15
    71    7.728581750782e-06
    72    3.270718863640e-06
    73   -7.647347931703e-07
    74   -3.014398154368e-15
    75   -2.775311323743e-05
    76   -1.646015373120e-05
    77    8.443832219836e-07
    78    4.954932926786e-15
    79    2.184256720934e-04
    80    1.277046254390e-04
    81   -4.167630986971e-05
    82   -6.314476253284e-15
    83   -2.185388207928e-07
    84    5.747059069214e-16
    85    1.209963877032e-15
    86   -6.209827875622e-07
    87    8.347781244631e-08
    88   -3.692707705430e-06
    89    7.188646494310e-05
    90   -4.228267254705e-05
    91   -3.202046475217e-05
    92   -4.990441075835e-16
    93   -2.747730547462e-04
    94   -3.409240894631e-04
    95   -2.235810312901e-04
    96    8.778076744677e-17
    97    2.713046702192e-04
    98   -4.030711557742e-04
    99   -4.045192398336e-04
   100   -3.825683812723e-16
   101    2.198780522631e-03
   102    6.412524371264e-04
   103   -4.342769306398e-04
   104   -3.781595400331e-15
   105    5.589992708743e-05
   106   -6.548656515324e-16
   107    1.382635181360e-16
   108   -1.005943621489e-04
   109   -1.864516323366e-04
   110   -5.515109962414e-01
   111   -4.716913434657e-01
   112    1.500813195643e-03
   113    9.402519255079e-04
   114    9.844230610151e-16
   115   -5.396932408192e-03
   116   -6.300933519135e-04
   117   -4.036198025210e-04
   118   -1.264425641197e-15
   119    1.171897183197e-03
   120    1.588621810548e-04
   121    1.140302278922e-04
   122    2.029110979148e-15
   123   -1.304827238346e-03
   124    2.440023751266e-05
   125   -5.657989016156e-06
   126   -4.604435009312e-16
   127    9.219160771142e-05
   128   -4.773539332178e-16
   129    8.293983914989e-17
   130    4.073465949678e-05
   131    1.056144982608e-04
   132   -4.533180238023e-07
   133   -2.286019330142e-06
   134    1.153254882901e-05
   135   -3.769598494697e-06
   136   -6.074874520511e-16
   137    3.223187428131e-05
   138   -2.660336817932e-05
   139    8.601692021914e-06
   140    1.012210661297e-15
   141   -2.439788634074e-04
   142    9.475900573132e-05
   143    2.201348825545e-04
   144   -1.035137716917e-15
   145    2.151555034581e-04
   146    5.358353871390e-04
   147    5.485920954384e-05
   148    1.426687372202e-15
   149    8.034307123094e-06
   150   -1.079541045529e-15
   151   -4.010663809099e-16
   152   -1.589319655480e-05
   153    1.710304489715e-05
   154    6.974788334062e-09
   155   -5.737752905516e-07
   156   -2.826297480784e-07
   157   -3.220437014088e-07
   158    2.440573247952e-16
   159    9.720538641453e-06
   160    9.775075898550e-07
   161    1.836310205568e-06
   162   -4.217454652318e-16
   163   -1.505056923116e-04
   164   -7.892609581525e-05
   165   -5.319779842340e-06
   166   -1.197527105130e-15
   167   -2.224524581106e-04
   168    4.648698740055e-05
   169   -2.255009260854e-05
   170    1.262627992655e-15
   171   -3.743477461445e-07
   172   -1.007700950132e-16
   173   -6.796582109396e-17
   174    4.550298986246e-07
   175    1.652842195804e-06
   176   -1.481970299503e-06
   177   -1.560880377890e-07
   178    4.452610611023e-06
   179    1.731557457248e-05
   180   -1.376159203481e-15
   181    1.781557199340e-05
   182   -1.064254807392e-05
   183   -8.922364754054e-05
   184    3.424527695089e-15
   185   -6.082226430212e-04
   186    4.820532381749e-04
   187   -1.646282896651e-04
   188   -3.735120298131e-15
   189   -1.786446414286e-03
   190   -1.068033516893e-04
   191   -1.052954765235e-03
   192    5.759217706379e-15
   193    7.401018009957e-06
   194   -5.329076490482e-16
   195   -3.887889029630e-16
   196    3.335597534497e-05
   197   -3.337912573946e-05
   198    2.422263378606e-06
   199   -1.218739360890e-04
   200   -1.396234917091e-04
   201   -3.249745609428e-04
   202    2.194482899942e-05
   203   -1.156077043608e-05
   204    8.207650105794e-16
Sym=X
Ene= 0.008889
Spin=Alpha
Occup=0
     1   -1.339597985305e-15
     2   -2.565315074386e-15
     3    1.722855666836e-14
     4   -4.396656260164e-15
     5    8.631458533985e-03
     6    3.983193880467e-14
     7    5.703826891505e-15
     8   -4.228016869007e-14
     9    1.658381520123e-02
    10   -6.363023709488e-13
    11    2.989288003309e-13
    12   -7.913776639991e-14
    13    8.459470581914e-03
    14    8.264439705578e-12
    15   -9.560470414902e-13
    16    3.998196514083e-12
    17    2.519938010004e-01
    18    3.695060764176e-15
    19    3.889168782884e-03
    20   -1.006563341225e-03
    21   -2.455684620864e-14
    22   -3.310168910105e-15
    23    1.089452171381e-14
    24   -1.364021834886e-13
    25    1.419244627384e-12
    26   -4.989245888216e-13
    27   -1.873218175507e-14
    28   -3.275836723432e-15
    29   -3.094418090125e-03
    30   -3.621987137055e-15
    31   -4.744875193407e-14
    32    2.819835755055e-13
    33    1.263803351012e-12
    34    5.653401455438e-15
    35    9.368348323271e-15
    36    2.036831250392e-03
    37    4.775353243079e-15
    38    4.157282825507e-14
    39    4.129444711856e-13
    40    6.711388243234e-13
    41    2.806806211369e-17
    42   -1.680606179389e-15
    43    1.538851338398e-02
    44    1.350499303551e-15
    45   -6.726607182374e-17
    46   -7.746026817160e-15
    47   -8.790710251597e-15
    48   -1.863811866931e-02
    49    2.905947860509e-14
    50   -3.537639644363e-14
    51    2.463786108395e-14
    52   -3.679186336009e-02
    53   -3.137824934969e-13
    54   -1.844175233849e-13
    55    2.100588172245e-13
    56   -6.578106385008e-02
    57   -4.860348461426e-12
    58   -2.189615940848e-12
    59   -2.392449660472e-13
    60    2.324150069841e-01
    61   -1.509990256969e-15
    62    3.588271036530e-02
    63   -6.967406227807e-04
    64    1.252682334657e-14
    65   -2.697365472994e-14
    66    9.950538492221e-16
    67    1.297086263556e-15
    68    2.013452729445e-14
    69    1.451774015923e-14
    70   -9.385198505800e-02
    71   -1.781503382832e-15
    72    3.592918127767e-14
    73    1.814782552904e-14
    74   -1.440692060586e-01
    75   -1.147494029946e-13
    76   -1.248203194036e-13
    77   -2.984038775372e-14
    78   -1.264487661961e-01
    79    5.868862724399e-14
    80    3.962381233465e-14
    81   -1.444181774888e-13
    82   -6.920256601954e-02
    83    4.019593950436e-16
    84   -5.926359749602e-03
    85    4.075465954558e-03
    86    4.256442610022e-16
    87    3.030166739756e-15
    88    2.610486213537e-15
    89    7.727362948275e-15
    90    1.522836775933e-14
    91   -7.088080763663e-15
    92   -4.497320143039e-02
    93   -2.843368030800e-14
    94    1.757626896289e-14
    95   -3.708889377655e-14
    96   -7.364276175009e-02
    97    1.013630124800e-15
    98    6.897664141524e-13
    99    2.849838703040e-13
   100   -9.570019827145e-02
   101    2.755197689491e-11
   102   -2.584096304962e-12
   103   -5.969770961240e-12
   104    6.501022933406e-01
   105   -6.835755086579e-15
   106   -4.352654263326e-02
   107   -7.394569470361e-03
   108    1.172498304111e-15
   109    6.094652303067e-15
   110    1.771457927948e-15
   111    3.316023471942e-15
   112    2.850668413507e-16
   113    5.209771290102e-15
   114   -2.319617519280e-01
   115   -3.131089384979e-14
   116   -1.856116710227e-14
   117    3.879183156710e-15
   118   -2.937053697380e-01
   119   -3.700435344286e-14
   120    1.152695082757e-13
   121    6.720139831066e-14
   122   -2.257402343465e-01
   123   -1.218533501504e-12
   124    1.309868150048e-13
   125    5.045917367261e-13
   126   -1.106521866503e-01
   127   -9.851919278811e-16
   128    1.223275357635e-02
   129    9.508320462506e-03
   130   -2.070259603797e-15
   131    1.796654429094e-15
   132   -9.413777448012e-16
   133   -3.055912427202e-15
   134    1.272378770671e-14
   135   -5.979920559197e-15
   136    1.468064134290e-01
   137   -2.298019501410e-14
   138    9.094268599814e-15
   139    1.759079061160e-14
   140    2.193050986058e-01
   141    2.893570455492e-13
   142    2.089789432199e-13
   143   -3.781612953930e-13
   144    3.110172885312e-01
   145   -1.944880214545e-13
   146   -1.297219461450e-12
   147    5.670318808098e-14
   148   -9.886176039690e-02
   149    1.930432014392e-15
   150    2.270195443220e-03
   151   -1.503998062981e-04
   152   -8.180567096661e-15
   153   -7.889041335365e-16
   154    6.754036817326e-15
   155    9.860848399521e-15
   156    1.126489575394e-14
   157   -7.774106417744e-15
   158   -2.076210729371e-02
   159   -1.069278478453e-13
   160   -1.676230903476e-15
   161    7.938355213035e-15
   162   -3.876448445404e-02
   163    4.381186981556e-13
   164    1.149918662399e-13
   165   -5.349679997685e-14
   166   -1.157522078741e-02
   167   -1.831830823651e-12
   168    2.175065484660e-12
   169    3.649634803110e-13
   170   -1.976681774820e-01
   171   -3.617412403940e-15
   172    2.148828918590e-03
   173   -1.784483449581e-03
   174    5.788355347359e-15
   175    1.128360374952e-14
   176   -1.714264211865e-15
   177    4.757169040515e-15
   178    2.772001603038e-14
   179   -4.153481623865e-15
   180   -1.247224887473e-03
   181   -8.197084416242e-14
   182    7.987737593117e-15
   183    2.728035403941e-15
   184    1.485016418304e-03
   185    8.877150104510e-13
   186    2.040577110913e-13
   187    1.650548653901e-14
   188   -2.710329433637e-02
   189   -2.736682904789e-11
   190    4.973279118000e-12
   191   -8.770589388769e-12
   192   -3.007285868311e-01
   193   -2.272079889538e-14
   194   -3.846282450601e-03
   195   -4.985781986583e-03
   196    1.456999525310e-14
   197   -1.024057841979e-14
   198   -5.177162411281e-15
   199   -6.092557231122e-14
   200   -9.459786741790e-13
   201   -3.256184159748e-12
   202    1.042335030639e-14
   203   -9.211727230013e-15
   204    6.846862797614e-04
[5D]
