[Molden Format]
[Atoms] (Angs)
  C      1    6     -0.13173890     -1.79208980      0.00000000
  H      2    1     -2.14962000     -1.30978739      0.00000000
  H      3    1     -0.31599560     -2.86503115      0.00000000
  H      4    1      0.14407746      2.04280963     -0.00000000
  C      5    6     -1.17258876      0.48030861      0.00000000
  O      6    8     -2.25008207      1.06833796      0.00000000
  C      7    6      1.31158357      0.28308717     -0.00000000
  O      8    8      2.36361668      0.96389345     -0.00000000
  N      9    7      0.07017030      1.03138997     -0.00000000
  N     10    7     -1.19586868     -0.94982644      0.00000000
  C     11    6      1.19165158     -1.13169473     -0.00000000
  H     12    1      2.09970506     -1.73445456     -0.00000000
[GTO]
1    0
S    6    1.000000
   4.56324000E+03    1.96665000E-03 
   6.82024000E+02    1.52306000E-02 
   1.54973000E+02    7.61269000E-02 
   4.44553000E+01    2.60801000E-01 
   1.30290000E+01    6.16462000E-01 
   1.82773000E+00    2.21006000E-01 
SP   3    1.000000
   2.09642000E+01    1.14660000E-01   4.02487000E-02 
   4.80331000E+00    9.19999000E-01   2.37594000E-01 
   1.45933000E+00   -3.03068000E-03   8.15854000E-01 
SP   1    1.000000
   4.83456000E-01    1.00000000E+00   1.00000000E+00 
SP   1    1.000000
   1.45585000E-01    1.00000000E+00   1.00000000E+00 
SP   1    1.000000
   4.38000000E-02    1.00000000E+00   1.00000000E+00 
D    1    1.000000
   6.26000000E-01    1.00000000E+00 

2    0
S    3    1.000000
   3.38650000E+01    2.54938000E-02 
   5.09479000E+00    1.90373000E-01 
   1.15879000E+00    8.52161000E-01 
S    1    1.000000
   3.25840000E-01    1.00000000E+00 
S    1    1.000000
   1.02741000E-01    1.00000000E+00 
S    1    1.000000
   3.60000000E-02    1.00000000E+00 
P    1    1.000000
   7.50000000E-01    1.00000000E+00 

3    0
S    3    1.000000
   3.38650000E+01    2.54938000E-02 
   5.09479000E+00    1.90373000E-01 
   1.15879000E+00    8.52161000E-01 
S    1    1.000000
   3.25840000E-01    1.00000000E+00 
S    1    1.000000
   1.02741000E-01    1.00000000E+00 
S    1    1.000000
   3.60000000E-02    1.00000000E+00 
P    1    1.000000
   7.50000000E-01    1.00000000E+00 

4    0
S    3    1.000000
   3.38650000E+01    2.54938000E-02 
   5.09479000E+00    1.90373000E-01 
   1.15879000E+00    8.52161000E-01 
S    1    1.000000
   3.25840000E-01    1.00000000E+00 
S    1    1.000000
   1.02741000E-01    1.00000000E+00 
S    1    1.000000
   3.60000000E-02    1.00000000E+00 
P    1    1.000000
   7.50000000E-01    1.00000000E+00 

5    0
S    6    1.000000
   4.56324000E+03    1.96665000E-03 
   6.82024000E+02    1.52306000E-02 
   1.54973000E+02    7.61269000E-02 
   4.44553000E+01    2.60801000E-01 
   1.30290000E+01    6.16462000E-01 
   1.82773000E+00    2.21006000E-01 
SP   3    1.000000
   2.09642000E+01    1.14660000E-01   4.02487000E-02 
   4.80331000E+00    9.19999000E-01   2.37594000E-01 
   1.45933000E+00   -3.03068000E-03   8.15854000E-01 
SP   1    1.000000
   4.83456000E-01    1.00000000E+00   1.00000000E+00 
SP   1    1.000000
   1.45585000E-01    1.00000000E+00   1.00000000E+00 
SP   1    1.000000
   4.38000000E-02    1.00000000E+00   1.00000000E+00 
D    1    1.000000
   6.26000000E-01    1.00000000E+00 

6    0
S    6    1.000000
   8.58850000E+03    1.89515000E-03 
   1.29723000E+03    1.43859000E-02 
   2.99296000E+02    7.07320000E-02 
   8.73771000E+01    2.40001000E-01 
   2.56789000E+01    5.94797000E-01 
   3.74004000E+00    2.80802000E-01 
SP   3    1.000000
   4.21175000E+01    1.13889000E-01   3.65114000E-02 
   9.62837000E+00    9.20811000E-01   2.37153000E-01 
   2.85332000E+00   -3.27447000E-03   8.19702000E-01 
SP   1    1.000000
   9.05661000E-01    1.00000000E+00   1.00000000E+00 
SP   1    1.000000
   2.55611000E-01    1.00000000E+00   1.00000000E+00 
SP   1    1.000000
   8.45000000E-02    1.00000000E+00   1.00000000E+00 
D    1    1.000000
   1.29200000E+00    1.00000000E+00 

7    0
S    6    1.000000
   4.56324000E+03    1.96665000E-03 
   6.82024000E+02    1.52306000E-02 
   1.54973000E+02    7.61269000E-02 
   4.44553000E+01    2.60801000E-01 
   1.30290000E+01    6.16462000E-01 
   1.82773000E+00    2.21006000E-01 
SP   3    1.000000
   2.09642000E+01    1.14660000E-01   4.02487000E-02 
   4.80331000E+00    9.19999000E-01   2.37594000E-01 
   1.45933000E+00   -3.03068000E-03   8.15854000E-01 
SP   1    1.000000
   4.83456000E-01    1.00000000E+00   1.00000000E+00 
SP   1    1.000000
   1.45585000E-01    1.00000000E+00   1.00000000E+00 
SP   1    1.000000
   4.38000000E-02    1.00000000E+00   1.00000000E+00 
D    1    1.000000
   6.26000000E-01    1.00000000E+00 

8    0
S    6    1.000000
   8.58850000E+03    1.89515000E-03 
   1.29723000E+03    1.43859000E-02 
   2.99296000E+02    7.07320000E-02 
   8.73771000E+01    2.40001000E-01 
   2.56789000E+01    5.94797000E-01 
   3.74004000E+00    2.80802000E-01 
SP   3    1.000000
   4.21175000E+01    1.13889000E-01   3.65114000E-02 
   9.62837000E+00    9.20811000E-01   2.37153000E-01 
   2.85332000E+00   -3.27447000E-03   8.19702000E-01 
SP   1    1.000000
   9.05661000E-01    1.00000000E+00   1.00000000E+00 
SP   1    1.000000
   2.55611000E-01    1.00000000E+00   1.00000000E+00 
SP   1    1.000000
   8.45000000E-02    1.00000000E+00   1.00000000E+00 
D    1    1.000000
   1.29200000E+00    1.00000000E+00 

9    0
S    6    1.000000
   6.29348000E+03    1.96979000E-03 
   9.49044000E+02    1.49613000E-02 
   2.18776000E+02    7.35006000E-02 
   6.36916000E+01    2.48937000E-01 
   1.88282000E+01    6.02460000E-01 
   2.72023000E+00    2.56202000E-01 
SP   3    1.000000
   3.06331000E+01    1.11906000E-01   3.83119000E-02 
   7.02614000E+00    9.21666000E-01   2.37403000E-01 
   2.11205000E+00   -2.56919000E-03   8.17592000E-01 
SP   1    1.000000
   6.84009000E-01    1.00000000E+00   1.00000000E+00 
SP   1    1.000000
   2.00878000E-01    1.00000000E+00   1.00000000E+00 
SP   1    1.000000
   6.39000000E-02    1.00000000E+00   1.00000000E+00 
D    1    1.000000
   9.13000000E-01    1.00000000E+00 

10    0
S    6    1.000000
   6.29348000E+03    1.96979000E-03 
   9.49044000E+02    1.49613000E-02 
   2.18776000E+02    7.35006000E-02 
   6.36916000E+01    2.48937000E-01 
   1.88282000E+01    6.02460000E-01 
   2.72023000E+00    2.56202000E-01 
SP   3    1.000000
   3.06331000E+01    1.11906000E-01   3.83119000E-02 
   7.02614000E+00    9.21666000E-01   2.37403000E-01 
   2.11205000E+00   -2.56919000E-03   8.17592000E-01 
SP   1    1.000000
   6.84009000E-01    1.00000000E+00   1.00000000E+00 
SP   1    1.000000
   2.00878000E-01    1.00000000E+00   1.00000000E+00 
SP   1    1.000000
   6.39000000E-02    1.00000000E+00   1.00000000E+00 
D    1    1.000000
   9.13000000E-01    1.00000000E+00 

11    0
S    6    1.000000
   4.56324000E+03    1.96665000E-03 
   6.82024000E+02    1.52306000E-02 
   1.54973000E+02    7.61269000E-02 
   4.44553000E+01    2.60801000E-01 
   1.30290000E+01    6.16462000E-01 
   1.82773000E+00    2.21006000E-01 
SP   3    1.000000
   2.09642000E+01    1.14660000E-01   4.02487000E-02 
   4.80331000E+00    9.19999000E-01   2.37594000E-01 
   1.45933000E+00   -3.03068000E-03   8.15854000E-01 
SP   1    1.000000
   4.83456000E-01    1.00000000E+00   1.00000000E+00 
SP   1    1.000000
   1.45585000E-01    1.00000000E+00   1.00000000E+00 
SP   1    1.000000
   4.38000000E-02    1.00000000E+00   1.00000000E+00 
D    1    1.000000
   6.26000000E-01    1.00000000E+00 

12    0
S    3    1.000000
   3.38650000E+01    2.54938000E-02 
   5.09479000E+00    1.90373000E-01 
   1.15879000E+00    8.52161000E-01 
S    1    1.000000
   3.25840000E-01    1.00000000E+00 
S    1    1.000000
   1.02741000E-01    1.00000000E+00 
S    1    1.000000
   3.60000000E-02    1.00000000E+00 
P    1    1.000000
   7.50000000E-01    1.00000000E+00 

[MO]
Sym=X
Ene= -0.004776
Spin=Alpha
Occup=1
     1    2.854963513023e-06
     2    3.130445829417e-06
     3   -1.649092230434e-05
     4    3.684550324033e-06
     5   -9.789542547129e-16
     6    5.999517495858e-06
     7   -3.476564401069e-05
     8    6.585948757079e-06
     9    1.935219340023e-15
    10   -5.541933776375e-04
    11   -2.500653304710e-04
    12   -2.988234488408e-04
    13   -3.516783259600e-15
    14   -3.509213577812e-04
    15   -8.031199927378e-05
    16   -5.348759958969e-04
    17    6.172067190623e-15
    18    1.847710634585e-06
    19    1.405579691112e-15
    20   -3.740335630075e-16
    21   -7.283732321947e-06
    22    1.202963093426e-05
    23    2.843355343908e-06
    24    2.853096204520e-05
    25    1.280264002368e-04
    26    1.873177207352e-04
    27   -5.519135468068e-06
    28    1.085573312753e-06
    29    2.579860684823e-16
    30    3.835447237571e-06
    31   -1.384327957199e-05
    32   -1.283708986505e-04
    33   -2.521335194113e-04
    34    1.481393903055e-06
    35   -4.046573877615e-06
    36    1.100533331337e-16
    37    7.777165054914e-06
    38    7.424574762517e-05
    39    1.299630485808e-04
    40    1.363649726735e-04
    41   -5.535941855485e-06
    42   -6.913988953613e-06
    43   -8.871370156198e-18
    44   -4.647968911057e-06
    45   -5.864449012546e-06
    46    6.504839827636e-06
    47   -1.847191732045e-05
    48   -1.023010491453e-15
    49    1.005992659424e-05
    50   -1.735406902474e-05
    51   -3.224506903338e-05
    52    3.025408091354e-15
    53   -2.107834962206e-04
    54   -1.367138252457e-04
    55   -9.276587154849e-05
    56   -2.077199942423e-15
    57   -4.609203220912e-04
    58   -1.607074231032e-04
    59   -2.611946654091e-04
    60   -4.276158516122e-15
    61    5.082313021723e-06
    62    2.934107626656e-16
    63    4.435622666852e-16
    64    2.581456013133e-06
    65    4.349363704343e-07
    66   -3.086696312993e-06
    67    1.701890613642e-07
    68    1.337214837880e-05
    69    1.668226028633e-05
    70   -1.047880339620e-15
    71   -2.142589488463e-05
    72    1.654294744023e-05
    73    2.765284699015e-05
    74    2.993534034754e-15
    75    1.005080560480e-05
    76    3.495437240161e-05
    77    2.274216692683e-05
    78   -4.952183879762e-15
    79   -1.598058586366e-04
    80   -1.027660624932e-04
    81    1.469694882976e-05
    82    6.125173089580e-15
    83    2.682365349301e-07
    84   -5.713451233550e-16
    85   -1.211216528102e-15
    86   -1.275977435871e-06
    87    8.059118678203e-08
    88    9.361504873573e-06
    89   -6.201975435385e-05
    90    3.682970747402e-05
    91    5.055106678365e-05
    92    5.112680401618e-16
    93    2.501022119837e-04
    94    3.358500874333e-04
    95    2.550538967979e-04
    96   -8.484916976176e-17
    97   -4.176512470572e-04
    98    3.432465291277e-04
    99    5.722155976747e-04
   100    3.924427226297e-16
   101   -1.723750535365e-03
   102   -9.864557876221e-04
   103    5.306212645311e-04
   104    3.798078145056e-15
   105   -5.929617320055e-05
   106    6.638312959902e-16
   107   -1.428025238104e-16
   108    9.441394426409e-05
   109    1.955696978115e-04
   110    5.515049686858e-01
   111    4.716808885139e-01
   112   -1.484543068059e-03
   113   -9.799921964100e-04
   114   -1.001513813136e-15
   115    5.434384767881e-03
   116    6.547705905791e-04
   117    3.421888827426e-04
   118    1.248846982574e-15
   119   -1.119788933683e-03
   120   -1.389173525514e-04
   121   -1.676402998639e-04
   122   -2.117584132913e-15
   123    1.327363214289e-03
   124   -2.139523491072e-05
   125    4.440032930920e-05
   126    5.859395804090e-16
   127   -9.166384658619e-05
   128    4.780148493718e-16
   129   -8.407790652983e-17
   130   -3.688910132455e-05
   131   -1.051829745060e-04
   132    2.650144167913e-06
   133    6.030569133486e-06
   134   -1.129632786328e-05
   135    3.519322354442e-06
   136    5.768731032757e-16
   137   -4.286735175811e-05
   138    2.903304999015e-05
   139   -1.024350083798e-05
   140   -1.059561307111e-15
   141    1.941481904197e-04
   142   -1.225239108368e-04
   143   -2.179629401830e-04
   144    9.482797579051e-16
   145   -3.765059629008e-04
   146   -5.671502443591e-04
   147   -5.673042055829e-05
   148   -1.269370261210e-15
   149   -8.980793303057e-06
   150    1.076839838130e-15
   151    3.977608027134e-16
   152    1.496489885345e-05
   153   -1.487109296245e-05
   154    9.244599708895e-06
   155    1.651136429985e-05
   156    8.540108575761e-06
   157   -4.039511918354e-06
   158   -2.376749411876e-16
   159   -5.913557344594e-05
   160    1.340634360506e-05
   161   -9.858970260224e-06
   162    4.331128048798e-16
   163   -3.293477940595e-05
   164    1.007297473194e-04
   165    1.454545432829e-06
   166    1.210662078742e-15
   167   -1.088440561631e-04
   168    8.329972549708e-05
   169    7.790962567446e-05
   170   -1.167506395459e-15
   171   -2.494192321995e-06
   172    9.798858987785e-17
   173    7.576727268692e-17
   174   -4.292361382847e-06
   175   -3.192328461179e-06
   176   -1.050150322311e-05
   177   -2.082619342475e-05
   178    2.429788194919e-06
   179   -9.207559056141e-06
   180    1.405651705126e-15
   181    4.691930639514e-05
   182    2.755605793016e-05
   183    1.071939112449e-04
   184   -3.415685241977e-15
   185    1.025388906267e-03
   186   -5.461689847053e-04
   187    2.243768163696e-04
   188    3.912453828037e-15
   189    2.338130144353e-03
   190    2.543353137905e-04
   191    7.140341392976e-04
   192   -6.043171639724e-15
   193   -2.370710669342e-06
   194    5.378090949906e-16
   195    3.926149688609e-16
   196   -2.930497446665e-05
   197    2.240922361820e-05
   198    3.193536215887e-06
   199    1.428795690936e-04
   200    7.754895706833e-05
   201   -1.572163411887e-04
   202   -2.564874587560e-05
   203    1.242433957622e-05
   204   -8.192667095311e-16
Sym=X
Ene= 0.004776
Spin=Alpha
Occup=0
     1    6.718250664540e-03
     2    1.223604711864e-02
     3    1.761998368255e-02
     4    1.497015049074e-02
     5   -6.005865607285e-14
     6   -3.768162363796e-02
     7    2.920071016887e-02
     8    2.167668470643e-02
     9   -1.054662854391e-13
    10   -2.387849308286e-01
    11   -5.611718477033e-02
    12    1.041160387554e-01
    13   -1.637375820181e-13
    14    2.282185189818e+00
    15    2.220546499757e-01
    16    1.770864693310e+00
    17    3.407240393311e-14
    18   -4.292013184434e-04
    19   -1.041600260960e-15
    20    9.900946011306e-15
    21   -5.995434031715e-03
    22    8.652214813789e-03
    23    1.404394860443e-02
    24    2.894739178233e-02
    25    2.353024887808e-01
    26    2.949664794881e-01
    27   -3.013260610887e-03
    28   -5.915807363830e-03
    29   -2.598583165950e-15
    30    2.067262503981e-03
    31    1.696243524918e-02
    32    2.299756334601e-01
    33    1.686349750031e+00
    34   -1.185188871373e-03
    35   -4.988785099933e-03
    36   -8.317202501434e-15
    37    1.233347447100e-02
    38    1.372092131602e-02
    39    2.759573448751e-01
    40    5.558576169776e-01
    41    1.590586901159e-04
    42    3.701664845509e-03
    43    6.820185619120e-16
    44    1.891731038976e-03
    45    3.457162961916e-03
    46   -2.491677238909e-02
    47   -5.882629724876e-03
    48    2.731982926475e-14
    49   -1.565434342034e-02
    50   -4.640523365930e-02
    51   -6.207753500880e-03
    52    2.797088357085e-14
    53    1.343966917116e-02
    54    3.153636944828e-03
    55    1.906157297272e-02
    56    2.049969592682e-13
    57   -1.044978401410e+00
    58   -2.146833814047e-01
    59    1.230977826567e-01
    60   -1.831435028346e-13
    61    6.630651816203e-04
    62   -2.890229493321e-14
    63    1.797071133145e-15
    64   -1.729453946740e-02
    65   -2.029709345774e-02
    66    5.664548442487e-03
    67    9.528660423345e-03
    68    5.684404894916e-02
    69    5.478850631535e-02
    70   -2.250912453853e-14
    71   -2.583756779499e-02
    72    8.353078084916e-02
    73    8.424873526809e-02
    74   -6.844538636385e-15
    75   -5.907523355117e-02
    76    7.196611935273e-02
    77    9.184809446977e-02
    78   -8.330840001474e-14
    79    1.424943616135e-01
    80    8.026792033706e-02
    81   -4.508538726939e-02
    82   -4.662176686652e-14
    83   -5.780382301526e-04
    84    5.769375211729e-15
    85    3.023258762565e-15
    86    3.638519354954e-03
    87    1.708659004018e-03
    88    3.445651206753e-03
    89    6.191326954064e-03
    90   -5.217047732304e-03
    91    8.028972117147e-03
    92    2.610439146070e-14
    93   -1.536352725077e-02
    94   -1.104636357633e-02
    95    1.809826611462e-02
    96    4.506638695515e-14
    97   -2.808147274379e-03
    98   -2.507715902082e-02
    99   -1.352716135675e-01
   100    4.815086857726e-14
   101    3.932403547677e+00
   102   -1.030374386868e+00
   103   -6.722200257835e-01
   104    2.788331165469e-13
   105   -1.852084524290e-03
   106   -1.858552945841e-14
   107   -1.065105344165e-14
   108    4.481987148398e-02
   109   -1.893717830652e-02
   110   -1.077904963257e-02
   111   -1.878298226822e-02
   112    1.480123829906e-01
   113   -2.287492369017e-01
   114   -1.957895029293e-14
   115    6.085761879159e-02
   116    1.874152269549e-01
   117   -2.906960500934e-01
   118   -3.934670644734e-14
   119    8.107811350886e-02
   120    1.343444216372e-01
   121   -2.481995494680e-01
   122   -1.485546486555e-14
   123    2.803568552578e-01
   124    3.511335441982e-02
   125   -3.836799648295e-02
   126   -1.029869896387e-13
   127   -1.203639773615e-03
   128    5.050522767007e-16
   129   -1.862350525001e-15
   130   -1.219350846019e-02
   131    6.879655706833e-03
   132   -1.434627440564e-03
   133   -2.354696191092e-03
   134    5.837252424657e-02
   135   -1.173628048096e-02
   136   -3.865357952970e-14
   137    5.003225535968e-03
   138    8.780089757683e-02
   139   -1.767305005732e-02
   140   -4.249354259337e-14
   141    3.915098873283e-03
   142    1.066562111768e-01
   143   -2.841966348205e-02
   144   -1.596048619194e-13
   145   -5.390827023450e-01
   146   -6.332641766463e-02
   147   -3.367266760766e-01
   148    1.182317142298e-13
   149   -2.365590838356e-04
   150    7.269141847857e-15
   151   -1.251567067138e-15
   152   -3.320885026903e-03
   153    4.797170341457e-04
   154    1.778899432960e-03
   155    3.702494473604e-03
   156    5.547368157778e-03
   157    2.424722227334e-02
   158    2.143677886376e-14
   159   -2.403341677078e-02
   160    9.247091183643e-03
   161    3.711404650100e-02
   162    3.837468167350e-14
   163   -5.356974631194e-02
   164    1.609488707612e-02
   165    5.281292240981e-02
   166    2.801501328469e-14
   167   -7.158462357277e-01
   168    2.657275394820e-01
   169   -1.244513933739e-01
   170    5.072374624373e-14
   171   -8.028227826307e-04
   172   -4.086359476380e-15
   173   -6.156970467086e-16
   174    2.336700689660e-03
   175    2.554580560951e-03
   176    7.944847491551e-03
   177    1.222807620745e-02
   178   -2.519054179220e-02
   179   -3.637385688832e-02
   180    4.863588964767e-14
   181   -2.259394686273e-02
   182   -4.382807857602e-02
   183   -4.433880405300e-02
   184    4.323137012320e-14
   185   -2.577926542269e-02
   186   -3.371445708525e-02
   187   -2.010360717308e-01
   188    1.694637416109e-13
   189   -4.694458958105e+00
   190    2.097456413747e+00
   191   -1.866674616709e+00
   192   -3.183486610836e-13
   193    1.918297793677e-03
   194    4.480947808531e-15
   195    1.143069796389e-14
   196   -3.638060805554e-03
   197   -1.163640177394e-02
   198   -1.607770131674e-02
   199    9.530545155411e-03
   200   -2.678615519236e-01
   201   -2.271887260228e+00
   202   -3.871237431218e-03
   203   -1.047840839010e-03
   204    5.592712036647e-15
[5D]
