[Molden Format]
[Atoms] (Angs)
  C      1    6     -0.13173890     -1.79208980      0.00000000
  H      2    1     -2.14962000     -1.30978739      0.00000000
  H      3    1     -0.31599560     -2.86503115      0.00000000
  H      4    1      0.14407746      2.04280963     -0.00000000
  C      5    6     -1.17258876      0.48030861      0.00000000
  O      6    8     -2.25008207      1.06833796      0.00000000
  C      7    6      1.31158357      0.28308717     -0.00000000
  O      8    8      2.36361668      0.96389345     -0.00000000
  N      9    7      0.07017030      1.03138997     -0.00000000
  N     10    7     -1.19586868     -0.94982644      0.00000000
  C     11    6      1.19165158     -1.13169473     -0.00000000
  H     12    1      2.09970506     -1.73445456     -0.00000000
[GTO]
1    0
S    6    1.000000
   4.56324000E+03    1.96665000E-03 
   6.82024000E+02    1.52306000E-02 
   1.54973000E+02    7.61269000E-02 
   4.44553000E+01    2.60801000E-01 
   1.30290000E+01    6.16462000E-01 
   1.82773000E+00    2.21006000E-01 
SP   3    1.000000
   2.09642000E+01    1.14660000E-01   4.02487000E-02 
   4.80331000E+00    9.19999000E-01   2.37594000E-01 
   1.45933000E+00   -3.03068000E-03   8.15854000E-01 
SP   1    1.000000
   4.83456000E-01    1.00000000E+00   1.00000000E+00 
SP   1    1.000000
   1.45585000E-01    1.00000000E+00   1.00000000E+00 
SP   1    1.000000
   4.38000000E-02    1.00000000E+00   1.00000000E+00 
D    1    1.000000
   6.26000000E-01    1.00000000E+00 

2    0
S    3    1.000000
   3.38650000E+01    2.54938000E-02 
   5.09479000E+00    1.90373000E-01 
   1.15879000E+00    8.52161000E-01 
S    1    1.000000
   3.25840000E-01    1.00000000E+00 
S    1    1.000000
   1.02741000E-01    1.00000000E+00 
S    1    1.000000
   3.60000000E-02    1.00000000E+00 
P    1    1.000000
   7.50000000E-01    1.00000000E+00 

3    0
S    3    1.000000
   3.38650000E+01    2.54938000E-02 
   5.09479000E+00    1.90373000E-01 
   1.15879000E+00    8.52161000E-01 
S    1    1.000000
   3.25840000E-01    1.00000000E+00 
S    1    1.000000
   1.02741000E-01    1.00000000E+00 
S    1    1.000000
   3.60000000E-02    1.00000000E+00 
P    1    1.000000
   7.50000000E-01    1.00000000E+00 

4    0
S    3    1.000000
   3.38650000E+01    2.54938000E-02 
   5.09479000E+00    1.90373000E-01 
   1.15879000E+00    8.52161000E-01 
S    1    1.000000
   3.25840000E-01    1.00000000E+00 
S    1    1.000000
   1.02741000E-01    1.00000000E+00 
S    1    1.000000
   3.60000000E-02    1.00000000E+00 
P    1    1.000000
   7.50000000E-01    1.00000000E+00 

5    0
S    6    1.000000
   4.56324000E+03    1.96665000E-03 
   6.82024000E+02    1.52306000E-02 
   1.54973000E+02    7.61269000E-02 
   4.44553000E+01    2.60801000E-01 
   1.30290000E+01    6.16462000E-01 
   1.82773000E+00    2.21006000E-01 
SP   3    1.000000
   2.09642000E+01    1.14660000E-01   4.02487000E-02 
   4.80331000E+00    9.19999000E-01   2.37594000E-01 
   1.45933000E+00   -3.03068000E-03   8.15854000E-01 
SP   1    1.000000
   4.83456000E-01    1.00000000E+00   1.00000000E+00 
SP   1    1.000000
   1.45585000E-01    1.00000000E+00   1.00000000E+00 
SP   1    1.000000
   4.38000000E-02    1.00000000E+00   1.00000000E+00 
D    1    1.000000
   6.26000000E-01    1.00000000E+00 

6    0
S    6    1.000000
   8.58850000E+03    1.89515000E-03 
   1.29723000E+03    1.43859000E-02 
   2.99296000E+02    7.07320000E-02 
   8.73771000E+01    2.40001000E-01 
   2.56789000E+01    5.94797000E-01 
   3.74004000E+00    2.80802000E-01 
SP   3    1.000000
   4.21175000E+01    1.13889000E-01   3.65114000E-02 
   9.62837000E+00    9.20811000E-01   2.37153000E-01 
   2.85332000E+00   -3.27447000E-03   8.19702000E-01 
SP   1    1.000000
   9.05661000E-01    1.00000000E+00   1.00000000E+00 
SP   1    1.000000
   2.55611000E-01    1.00000000E+00   1.00000000E+00 
SP   1    1.000000
   8.45000000E-02    1.00000000E+00   1.00000000E+00 
D    1    1.000000
   1.29200000E+00    1.00000000E+00 

7    0
S    6    1.000000
   4.56324000E+03    1.96665000E-03 
   6.82024000E+02    1.52306000E-02 
   1.54973000E+02    7.61269000E-02 
   4.44553000E+01    2.60801000E-01 
   1.30290000E+01    6.16462000E-01 
   1.82773000E+00    2.21006000E-01 
SP   3    1.000000
   2.09642000E+01    1.14660000E-01   4.02487000E-02 
   4.80331000E+00    9.19999000E-01   2.37594000E-01 
   1.45933000E+00   -3.03068000E-03   8.15854000E-01 
SP   1    1.000000
   4.83456000E-01    1.00000000E+00   1.00000000E+00 
SP   1    1.000000
   1.45585000E-01    1.00000000E+00   1.00000000E+00 
SP   1    1.000000
   4.38000000E-02    1.00000000E+00   1.00000000E+00 
D    1    1.000000
   6.26000000E-01    1.00000000E+00 

8    0
S    6    1.000000
   8.58850000E+03    1.89515000E-03 
   1.29723000E+03    1.43859000E-02 
   2.99296000E+02    7.07320000E-02 
   8.73771000E+01    2.40001000E-01 
   2.56789000E+01    5.94797000E-01 
   3.74004000E+00    2.80802000E-01 
SP   3    1.000000
   4.21175000E+01    1.13889000E-01   3.65114000E-02 
   9.62837000E+00    9.20811000E-01   2.37153000E-01 
   2.85332000E+00   -3.27447000E-03   8.19702000E-01 
SP   1    1.000000
   9.05661000E-01    1.00000000E+00   1.00000000E+00 
SP   1    1.000000
   2.55611000E-01    1.00000000E+00   1.00000000E+00 
SP   1    1.000000
   8.45000000E-02    1.00000000E+00   1.00000000E+00 
D    1    1.000000
   1.29200000E+00    1.00000000E+00 

9    0
S    6    1.000000
   6.29348000E+03    1.96979000E-03 
   9.49044000E+02    1.49613000E-02 
   2.18776000E+02    7.35006000E-02 
   6.36916000E+01    2.48937000E-01 
   1.88282000E+01    6.02460000E-01 
   2.72023000E+00    2.56202000E-01 
SP   3    1.000000
   3.06331000E+01    1.11906000E-01   3.83119000E-02 
   7.02614000E+00    9.21666000E-01   2.37403000E-01 
   2.11205000E+00   -2.56919000E-03   8.17592000E-01 
SP   1    1.000000
   6.84009000E-01    1.00000000E+00   1.00000000E+00 
SP   1    1.000000
   2.00878000E-01    1.00000000E+00   1.00000000E+00 
SP   1    1.000000
   6.39000000E-02    1.00000000E+00   1.00000000E+00 
D    1    1.000000
   9.13000000E-01    1.00000000E+00 

10    0
S    6    1.000000
   6.29348000E+03    1.96979000E-03 
   9.49044000E+02    1.49613000E-02 
   2.18776000E+02    7.35006000E-02 
   6.36916000E+01    2.48937000E-01 
   1.88282000E+01    6.02460000E-01 
   2.72023000E+00    2.56202000E-01 
SP   3    1.000000
   3.06331000E+01    1.11906000E-01   3.83119000E-02 
   7.02614000E+00    9.21666000E-01   2.37403000E-01 
   2.11205000E+00   -2.56919000E-03   8.17592000E-01 
SP   1    1.000000
   6.84009000E-01    1.00000000E+00   1.00000000E+00 
SP   1    1.000000
   2.00878000E-01    1.00000000E+00   1.00000000E+00 
SP   1    1.000000
   6.39000000E-02    1.00000000E+00   1.00000000E+00 
D    1    1.000000
   9.13000000E-01    1.00000000E+00 

11    0
S    6    1.000000
   4.56324000E+03    1.96665000E-03 
   6.82024000E+02    1.52306000E-02 
   1.54973000E+02    7.61269000E-02 
   4.44553000E+01    2.60801000E-01 
   1.30290000E+01    6.16462000E-01 
   1.82773000E+00    2.21006000E-01 
SP   3    1.000000
   2.09642000E+01    1.14660000E-01   4.02487000E-02 
   4.80331000E+00    9.19999000E-01   2.37594000E-01 
   1.45933000E+00   -3.03068000E-03   8.15854000E-01 
SP   1    1.000000
   4.83456000E-01    1.00000000E+00   1.00000000E+00 
SP   1    1.000000
   1.45585000E-01    1.00000000E+00   1.00000000E+00 
SP   1    1.000000
   4.38000000E-02    1.00000000E+00   1.00000000E+00 
D    1    1.000000
   6.26000000E-01    1.00000000E+00 

12    0
S    3    1.000000
   3.38650000E+01    2.54938000E-02 
   5.09479000E+00    1.90373000E-01 
   1.15879000E+00    8.52161000E-01 
S    1    1.000000
   3.25840000E-01    1.00000000E+00 
S    1    1.000000
   1.02741000E-01    1.00000000E+00 
S    1    1.000000
   3.60000000E-02    1.00000000E+00 
P    1    1.000000
   7.50000000E-01    1.00000000E+00 

[MO]
Sym=X
Ene= -0.002619
Spin=Alpha
Occup=1
     1   -6.192528551379e-06
     2   -8.901278743909e-06
     3    9.944842999873e-06
     4   -1.530841117770e-06
     5    9.321526023890e-16
     6    1.192509864668e-05
     7    2.213399062873e-05
     8   -1.731478919392e-06
     9   -2.006354206942e-15
    10    6.171585746310e-04
    11    1.706268030051e-04
    12    3.351970696823e-04
    13    3.312766245357e-15
    14    1.102646701236e-03
    15   -4.670798962896e-06
    16    7.814815787887e-04
    17   -6.184383598193e-15
    18   -3.728428912623e-06
    19   -1.386184791389e-15
    20    3.767819767205e-16
    21    5.392518809452e-06
    22   -7.300122720854e-06
    23   -1.742435408576e-06
    24   -1.696422172577e-05
    25   -2.697958057776e-05
    26   -1.520755208035e-04
    27    4.018370976069e-06
    28   -1.353940873112e-06
    29   -2.503138019937e-16
    30   -2.088577137903e-06
    31    1.830266672388e-05
    32    1.512624481551e-04
    33    2.553904292120e-04
    34   -2.559760166951e-06
    35    4.474590703480e-06
    36   -1.180826717010e-16
    37   -1.199243360755e-05
    38   -8.111474780692e-05
    39   -2.619695534627e-04
    40   -2.252162965375e-04
    41    6.579303261886e-06
    42    7.781319681954e-07
    43    1.767486672089e-18
    44    5.949933001902e-06
    45    7.977326763970e-06
    46   -1.987718463994e-05
    47   -6.551772720721e-06
    48    1.024504900785e-15
    49   -1.116784353120e-05
    50   -8.143944286952e-06
    51   -1.385737404688e-05
    52   -3.022193312494e-15
    53    8.377233520461e-05
    54    4.674059957849e-05
    55   -1.107869748773e-05
    56    2.095429598233e-15
    57   -1.596213189866e-04
    58   -1.213815469772e-04
    59    2.479223165545e-04
    60    3.161550470550e-15
    61   -5.445403183337e-06
    62   -2.659900683996e-16
    63   -4.651348122929e-16
    64    1.596143552363e-06
    65   -5.600634889639e-06
    66   -4.582675537960e-06
    67   -7.036696798556e-06
    68    7.553456727714e-06
    69    6.906827185432e-06
    70    1.010824356136e-15
    71    2.161992643781e-05
    72    1.510919230071e-05
    73    8.947142980092e-06
    74   -3.032485553758e-15
    75   -5.363668981469e-06
    76    2.982155720304e-06
    77    1.774141182958e-05
    78    4.790978228410e-15
    79    1.734640227562e-04
    80    1.168390278991e-04
    81   -3.203377315750e-05
    82   -5.504893775580e-15
    83   -5.720719006941e-07
    84    5.635704806327e-16
    85    1.211533856522e-15
    86   -2.995323154647e-07
    87   -3.906290715972e-07
    88    1.689839856127e-06
    89    8.121579135454e-05
    90   -9.152023453094e-08
    91   -6.857539726612e-05
    92   -5.101297710038e-16
    93   -2.997890661671e-04
    94   -2.673842581251e-04
    95   -2.822759390030e-04
    96    7.646943950456e-17
    97    2.469308517474e-04
    98   -2.042481345774e-04
    99   -7.295850050351e-04
   100   -3.972888726996e-16
   101    2.814684587778e-03
   102    6.394567481986e-04
   103   -8.611928963947e-04
   104   -2.332994324614e-15
   105    5.020539587277e-05
   106   -6.474052931253e-16
   107    1.300906914967e-16
   108   -8.184755699267e-05
   109   -2.068598324573e-04
   110   -5.515135483552e-01
   111   -4.716958656814e-01
   112    1.466678219281e-03
   113    1.010323703068e-03
   114    1.026843449593e-15
   115   -5.381705611089e-03
   116   -6.842524826110e-04
   117   -2.963956355384e-04
   118   -1.235679834739e-15
   119    1.217334208826e-03
   120    1.133907625006e-04
   121    1.968282453408e-04
   122    2.307022341478e-15
   123   -1.290831056129e-03
   124    6.778058515182e-05
   125   -1.791845316518e-05
   126   -1.421261887649e-15
   127    9.190100396097e-05
   128   -4.812146069863e-16
   129    8.045352012412e-17
   130    3.506363053297e-05
   131    1.097330559241e-04
   132   -2.043102798917e-05
   133   -3.686260818586e-05
   134    4.405395710660e-05
   135   -6.713361654317e-06
   136   -5.912368944846e-16
   137    1.436298765364e-04
   138    2.663781929557e-05
   139    8.756933243097e-06
   140    1.036103616769e-15
   141    1.642326049562e-04
   142    1.755291330229e-04
   143    1.569571545413e-04
   144   -9.641909696119e-16
   145    9.046851913310e-04
   146    4.703905621012e-04
   147    3.737436653723e-05
   148    1.221446944720e-15
   149    1.395963509516e-05
   150   -1.086180833908e-15
   151   -4.011149887294e-16
   152   -2.193458970333e-05
   153    1.971762255672e-05
   154   -3.682775397419e-06
   155   -6.918161305714e-06
   156   -3.905405649780e-06
   157    3.665904159635e-06
   158    2.356435332995e-16
   159    3.041652734074e-05
   160   -4.782346920990e-06
   161    9.449880876128e-06
   162   -4.331745648558e-16
   163   -1.123759418889e-04
   164   -9.962130372282e-05
   165    1.201561683972e-05
   166   -1.232091651569e-15
   167   -1.600575881621e-04
   168   -4.226040990854e-05
   169   -2.929437190934e-05
   170    1.791461598883e-15
   171   -6.282222196995e-07
   172   -1.032476080599e-16
   173   -6.401858776227e-17
   174    9.185485667065e-07
   175    3.881157868037e-07
   176    2.416986756683e-07
   177    2.716994969080e-06
   178    1.024068872376e-05
   179    1.638596911116e-05
   180   -1.362502999807e-15
   181    1.588198074205e-05
   182   -7.500628166251e-06
   183   -9.459913620648e-05
   184    3.488881283519e-15
   185   -9.159580680205e-04
   186    5.464285065925e-04
   187   -2.689689147352e-04
   188   -3.748409840848e-15
   189   -3.387493068693e-03
   190    2.457318633995e-04
   191   -1.186405068690e-03
   192    5.289437817322e-15
   193    3.989019574580e-06
   194   -5.371244529152e-16
   195   -3.924852435320e-16
   196    3.423285365878e-05
   197   -2.174459259819e-05
   198   -6.170351372878e-06
   199   -1.470461508756e-04
   200   -2.048411825756e-04
   201   -5.070358731789e-04
   202    2.235145303392e-05
   203   -8.705969227251e-06
   204    8.139974834058e-16
Sym=X
Ene= 0.002619
Spin=Alpha
Occup=0
     1   -3.392255087290e-03
     2   -5.738464540238e-03
     3   -1.044516897408e-02
     4   -1.902523427423e-02
     5    6.894195387230e-14
     6    9.520632063085e-03
     7   -2.119398853073e-02
     8   -2.904820628583e-02
     9    1.250116024772e-13
    10    1.319792574845e-01
    11    2.716947228356e-02
    12   -1.031072832770e-01
    13    1.526044904253e-13
    14   -2.691404375990e+00
    15   -2.772813176545e-01
    16   -1.971715595294e+00
    17   -2.348759250106e-13
    18   -5.760316330122e-04
    19    7.450361725479e-15
    20   -1.184434929797e-14
    21   -2.227977358540e-03
    22   -8.154817459025e-04
    23   -9.707157354455e-03
    24   -1.433012093309e-02
    25   -2.414727696181e-01
    26   -3.436340589061e-01
    27    4.118586186751e-03
    28    4.315900755685e-03
    29    1.992561459964e-15
    30    1.004945417523e-02
    31    1.124205755305e-02
    32   -2.056393498631e-01
    33   -1.809807260607e+00
    34    1.350969084465e-03
    35    2.765046397827e-03
    36    1.012368424278e-14
    37   -4.029708044423e-02
    38   -1.029446494608e-01
    39   -4.558518619505e-01
    40   -8.470324199635e-01
    41   -7.049870273744e-04
    42   -6.912194663229e-03
    43   -1.414759122226e-15
    44   -1.954511154596e-03
    45   -3.686721395910e-03
    46    8.556078043231e-03
    47    3.532111203671e-04
    48   -4.050665118270e-14
    49    2.263960065359e-02
    50    1.958422728413e-02
    51   -2.801260492431e-03
    52   -6.133534393905e-14
    53   -3.944867353415e-02
    54   -1.986507880861e-02
    55    4.440567916186e-02
    56   -1.748913634336e-13
    57    1.251723585071e+00
    58    3.207791950315e-01
    59   -1.002679977927e-01
    60    3.214611856754e-13
    61   -3.102665866370e-03
    62    4.109943778603e-14
    63   -9.490294941571e-15
    64   -6.322284941907e-03
    65    1.332854937812e-02
    66   -4.347597063638e-03
    67   -7.453967202091e-03
    68   -1.822037087476e-02
    69    1.744803470232e-03
    70    3.151380689029e-14
    71    2.204174211678e-02
    72   -2.501328320243e-02
    73    1.680972047227e-03
    74    1.548037113621e-14
    75    4.847384990977e-02
    76   -1.785706374391e-02
    77   -7.412426618330e-03
    78    1.291344596606e-13
    79   -1.624458477668e-01
    80   -9.757416998065e-02
    81    8.162176432936e-02
    82   -7.796783990365e-14
    83   -5.604205343377e-04
    84   -4.891948313619e-15
    85    3.083399225170e-16
    86   -2.899402682076e-05
    87   -9.770814771003e-04
    88   -8.063409503146e-03
    89   -1.459506701090e-02
    90   -5.001840611788e-03
    91   -1.139718535644e-02
    92   -2.280600198384e-14
    93    3.835794535406e-02
    94   -5.325668088322e-03
    95   -2.155139135789e-02
    96   -3.174391183298e-14
    97    1.699127696423e-01
    98    7.113211461240e-02
    99    1.390946067713e-01
   100   -9.347272468274e-14
   101   -3.955850998790e+00
   102    1.337177764237e+00
   103    7.235009052099e-01
   104   -4.871731080071e-13
   105    5.390062341963e-03
   106    3.183289587724e-14
   107    9.371423989327e-15
   108   -4.792805117780e-02
   109    8.048912122456e-03
   110    1.067363265450e-02
   111    1.855608032181e-02
   112   -1.122861777819e-01
   113    2.398678775116e-01
   114    1.512219144789e-14
   115   -5.558240836805e-02
   116   -1.436282964272e-01
   117    3.063656236190e-01
   118    4.223837482799e-14
   119   -1.346606942941e-01
   120   -8.348696137220e-02
   121    2.648130211069e-01
   122   -4.147823497251e-14
   123   -3.846828240758e-01
   124   -4.609834109693e-02
   125    3.779634551607e-02
   126    3.133958037570e-13
   127    1.941364758076e-03
   128   -1.168976314169e-17
   129    2.304215594784e-17
   130    1.189920795208e-02
   131   -8.594640316951e-03
   132    1.207721888179e-03
   133    7.148944539326e-04
   134   -3.717964140695e-02
   135    3.622674566853e-02
   136    4.708003300994e-14
   137    2.073482367969e-02
   138   -6.106846314947e-02
   139    6.056553136762e-02
   140    5.430551431018e-14
   141    5.833000005613e-02
   142   -7.432256696365e-02
   143    9.286998487939e-02
   144    2.002233868743e-13
   145    5.994065114456e-01
   146    5.325147384522e-02
   147    3.671598789151e-01
   148   -2.705025400600e-13
   149    3.649988419122e-03
   150   -1.016661381272e-14
   151    1.517095807111e-15
   152    9.229824583050e-03
   153   -3.597017855584e-03
   154   -7.044351495546e-03
   155   -1.206099815938e-02
   156   -7.042317731883e-03
   157    6.509079359866e-03
   158   -2.608897158937e-14
   159    3.377674891195e-02
   160   -1.250938818804e-02
   161    1.098715159555e-02
   162   -3.728684810713e-14
   163    1.307821713482e-01
   164   -6.920663943189e-03
   165    2.693350119314e-02
   166   -7.985575794669e-14
   167    8.978794365829e-01
   168   -2.770891828789e-01
   169    9.167877596995e-02
   170    1.339640933007e-13
   171   -7.887134017657e-04
   172    4.698607394682e-15
   173    1.287398722219e-15
   174   -3.252819965588e-03
   175   -2.551081629746e-03
   176   -5.750527038250e-03
   177   -8.727687263329e-03
   178    6.812314489615e-03
   179    3.853526741196e-02
   180   -5.242756699983e-14
   181    2.018896043472e-02
   182    1.475080513505e-02
   183    3.835135790228e-02
   184   -6.161131025156e-14
   185    6.045328005681e-03
   186   -4.515611779841e-02
   187    1.578729590057e-01
   188   -1.646268214552e-13
   189    4.969837754737e+00
   190   -2.517196350354e+00
   191    1.957183902306e+00
   192    5.348928446923e-13
   193   -4.947292025043e-04
   194   -4.426408576956e-15
   195   -1.298741995610e-14
   196    1.605881542282e-03
   197    5.817529647717e-03
   198   -3.164121335174e-03
   199   -3.477313126803e-02
   200    2.971228568896e-01
   201    2.526683164464e+00
   202    3.951260886885e-03
   203   -1.047681021808e-03
   204   -7.625914316277e-15
[5D]
