[Molden Format]
[Atoms] (Angs)
  C      1    6     -0.13173890     -1.79208980      0.00000000
  H      2    1     -2.14962000     -1.30978739      0.00000000
  H      3    1     -0.31599560     -2.86503115      0.00000000
  H      4    1      0.14407746      2.04280963     -0.00000000
  C      5    6     -1.17258876      0.48030861      0.00000000
  O      6    8     -2.25008207      1.06833796      0.00000000
  C      7    6      1.31158357      0.28308717     -0.00000000
  O      8    8      2.36361668      0.96389345     -0.00000000
  N      9    7      0.07017030      1.03138997     -0.00000000
  N     10    7     -1.19586868     -0.94982644      0.00000000
  C     11    6      1.19165158     -1.13169473     -0.00000000
  H     12    1      2.09970506     -1.73445456     -0.00000000
[GTO]
1    0
S    6    1.000000
   4.56324000E+03    1.96665000E-03 
   6.82024000E+02    1.52306000E-02 
   1.54973000E+02    7.61269000E-02 
   4.44553000E+01    2.60801000E-01 
   1.30290000E+01    6.16462000E-01 
   1.82773000E+00    2.21006000E-01 
SP   3    1.000000
   2.09642000E+01    1.14660000E-01   4.02487000E-02 
   4.80331000E+00    9.19999000E-01   2.37594000E-01 
   1.45933000E+00   -3.03068000E-03   8.15854000E-01 
SP   1    1.000000
   4.83456000E-01    1.00000000E+00   1.00000000E+00 
SP   1    1.000000
   1.45585000E-01    1.00000000E+00   1.00000000E+00 
SP   1    1.000000
   4.38000000E-02    1.00000000E+00   1.00000000E+00 
D    1    1.000000
   6.26000000E-01    1.00000000E+00 

2    0
S    3    1.000000
   3.38650000E+01    2.54938000E-02 
   5.09479000E+00    1.90373000E-01 
   1.15879000E+00    8.52161000E-01 
S    1    1.000000
   3.25840000E-01    1.00000000E+00 
S    1    1.000000
   1.02741000E-01    1.00000000E+00 
S    1    1.000000
   3.60000000E-02    1.00000000E+00 
P    1    1.000000
   7.50000000E-01    1.00000000E+00 

3    0
S    3    1.000000
   3.38650000E+01    2.54938000E-02 
   5.09479000E+00    1.90373000E-01 
   1.15879000E+00    8.52161000E-01 
S    1    1.000000
   3.25840000E-01    1.00000000E+00 
S    1    1.000000
   1.02741000E-01    1.00000000E+00 
S    1    1.000000
   3.60000000E-02    1.00000000E+00 
P    1    1.000000
   7.50000000E-01    1.00000000E+00 

4    0
S    3    1.000000
   3.38650000E+01    2.54938000E-02 
   5.09479000E+00    1.90373000E-01 
   1.15879000E+00    8.52161000E-01 
S    1    1.000000
   3.25840000E-01    1.00000000E+00 
S    1    1.000000
   1.02741000E-01    1.00000000E+00 
S    1    1.000000
   3.60000000E-02    1.00000000E+00 
P    1    1.000000
   7.50000000E-01    1.00000000E+00 

5    0
S    6    1.000000
   4.56324000E+03    1.96665000E-03 
   6.82024000E+02    1.52306000E-02 
   1.54973000E+02    7.61269000E-02 
   4.44553000E+01    2.60801000E-01 
   1.30290000E+01    6.16462000E-01 
   1.82773000E+00    2.21006000E-01 
SP   3    1.000000
   2.09642000E+01    1.14660000E-01   4.02487000E-02 
   4.80331000E+00    9.19999000E-01   2.37594000E-01 
   1.45933000E+00   -3.03068000E-03   8.15854000E-01 
SP   1    1.000000
   4.83456000E-01    1.00000000E+00   1.00000000E+00 
SP   1    1.000000
   1.45585000E-01    1.00000000E+00   1.00000000E+00 
SP   1    1.000000
   4.38000000E-02    1.00000000E+00   1.00000000E+00 
D    1    1.000000
   6.26000000E-01    1.00000000E+00 

6    0
S    6    1.000000
   8.58850000E+03    1.89515000E-03 
   1.29723000E+03    1.43859000E-02 
   2.99296000E+02    7.07320000E-02 
   8.73771000E+01    2.40001000E-01 
   2.56789000E+01    5.94797000E-01 
   3.74004000E+00    2.80802000E-01 
SP   3    1.000000
   4.21175000E+01    1.13889000E-01   3.65114000E-02 
   9.62837000E+00    9.20811000E-01   2.37153000E-01 
   2.85332000E+00   -3.27447000E-03   8.19702000E-01 
SP   1    1.000000
   9.05661000E-01    1.00000000E+00   1.00000000E+00 
SP   1    1.000000
   2.55611000E-01    1.00000000E+00   1.00000000E+00 
SP   1    1.000000
   8.45000000E-02    1.00000000E+00   1.00000000E+00 
D    1    1.000000
   1.29200000E+00    1.00000000E+00 

7    0
S    6    1.000000
   4.56324000E+03    1.96665000E-03 
   6.82024000E+02    1.52306000E-02 
   1.54973000E+02    7.61269000E-02 
   4.44553000E+01    2.60801000E-01 
   1.30290000E+01    6.16462000E-01 
   1.82773000E+00    2.21006000E-01 
SP   3    1.000000
   2.09642000E+01    1.14660000E-01   4.02487000E-02 
   4.80331000E+00    9.19999000E-01   2.37594000E-01 
   1.45933000E+00   -3.03068000E-03   8.15854000E-01 
SP   1    1.000000
   4.83456000E-01    1.00000000E+00   1.00000000E+00 
SP   1    1.000000
   1.45585000E-01    1.00000000E+00   1.00000000E+00 
SP   1    1.000000
   4.38000000E-02    1.00000000E+00   1.00000000E+00 
D    1    1.000000
   6.26000000E-01    1.00000000E+00 

8    0
S    6    1.000000
   8.58850000E+03    1.89515000E-03 
   1.29723000E+03    1.43859000E-02 
   2.99296000E+02    7.07320000E-02 
   8.73771000E+01    2.40001000E-01 
   2.56789000E+01    5.94797000E-01 
   3.74004000E+00    2.80802000E-01 
SP   3    1.000000
   4.21175000E+01    1.13889000E-01   3.65114000E-02 
   9.62837000E+00    9.20811000E-01   2.37153000E-01 
   2.85332000E+00   -3.27447000E-03   8.19702000E-01 
SP   1    1.000000
   9.05661000E-01    1.00000000E+00   1.00000000E+00 
SP   1    1.000000
   2.55611000E-01    1.00000000E+00   1.00000000E+00 
SP   1    1.000000
   8.45000000E-02    1.00000000E+00   1.00000000E+00 
D    1    1.000000
   1.29200000E+00    1.00000000E+00 

9    0
S    6    1.000000
   6.29348000E+03    1.96979000E-03 
   9.49044000E+02    1.49613000E-02 
   2.18776000E+02    7.35006000E-02 
   6.36916000E+01    2.48937000E-01 
   1.88282000E+01    6.02460000E-01 
   2.72023000E+00    2.56202000E-01 
SP   3    1.000000
   3.06331000E+01    1.11906000E-01   3.83119000E-02 
   7.02614000E+00    9.21666000E-01   2.37403000E-01 
   2.11205000E+00   -2.56919000E-03   8.17592000E-01 
SP   1    1.000000
   6.84009000E-01    1.00000000E+00   1.00000000E+00 
SP   1    1.000000
   2.00878000E-01    1.00000000E+00   1.00000000E+00 
SP   1    1.000000
   6.39000000E-02    1.00000000E+00   1.00000000E+00 
D    1    1.000000
   9.13000000E-01    1.00000000E+00 

10    0
S    6    1.000000
   6.29348000E+03    1.96979000E-03 
   9.49044000E+02    1.49613000E-02 
   2.18776000E+02    7.35006000E-02 
   6.36916000E+01    2.48937000E-01 
   1.88282000E+01    6.02460000E-01 
   2.72023000E+00    2.56202000E-01 
SP   3    1.000000
   3.06331000E+01    1.11906000E-01   3.83119000E-02 
   7.02614000E+00    9.21666000E-01   2.37403000E-01 
   2.11205000E+00   -2.56919000E-03   8.17592000E-01 
SP   1    1.000000
   6.84009000E-01    1.00000000E+00   1.00000000E+00 
SP   1    1.000000
   2.00878000E-01    1.00000000E+00   1.00000000E+00 
SP   1    1.000000
   6.39000000E-02    1.00000000E+00   1.00000000E+00 
D    1    1.000000
   9.13000000E-01    1.00000000E+00 

11    0
S    6    1.000000
   4.56324000E+03    1.96665000E-03 
   6.82024000E+02    1.52306000E-02 
   1.54973000E+02    7.61269000E-02 
   4.44553000E+01    2.60801000E-01 
   1.30290000E+01    6.16462000E-01 
   1.82773000E+00    2.21006000E-01 
SP   3    1.000000
   2.09642000E+01    1.14660000E-01   4.02487000E-02 
   4.80331000E+00    9.19999000E-01   2.37594000E-01 
   1.45933000E+00   -3.03068000E-03   8.15854000E-01 
SP   1    1.000000
   4.83456000E-01    1.00000000E+00   1.00000000E+00 
SP   1    1.000000
   1.45585000E-01    1.00000000E+00   1.00000000E+00 
SP   1    1.000000
   4.38000000E-02    1.00000000E+00   1.00000000E+00 
D    1    1.000000
   6.26000000E-01    1.00000000E+00 

12    0
S    3    1.000000
   3.38650000E+01    2.54938000E-02 
   5.09479000E+00    1.90373000E-01 
   1.15879000E+00    8.52161000E-01 
S    1    1.000000
   3.25840000E-01    1.00000000E+00 
S    1    1.000000
   1.02741000E-01    1.00000000E+00 
S    1    1.000000
   3.60000000E-02    1.00000000E+00 
P    1    1.000000
   7.50000000E-01    1.00000000E+00 

[MO]
Sym=X
Ene= -0.004724
Spin=Alpha
Occup=1
     1    3.072108205427e-08
     2   -1.611900970911e-06
     3    1.728560532491e-06
     4   -2.693400944500e-07
     5   -9.338365773468e-16
     6    1.663041773304e-05
     7   -4.364990837209e-06
     8   -3.676473602142e-07
     9    2.031541803588e-15
    10   -4.427238383672e-04
    11   -1.083041628812e-04
    12   -2.694439295564e-04
    13   -3.445355008812e-15
    14   -2.883680988937e-05
    15    1.956347509885e-04
    16   -5.775583217353e-04
    17    6.162626157983e-15
    18    2.746368689217e-06
    19    1.397643901312e-15
    20   -3.759050868723e-16
    21   -5.480926385726e-06
    22    4.967989748393e-06
    23    7.058989383388e-08
    24    9.682152200800e-06
    25   -3.696075145702e-05
    26    7.338849878221e-05
    27   -2.783292556885e-06
    28    2.027871953675e-06
    29    2.577355717416e-16
    30   -3.733237391087e-07
    31   -1.763865970399e-05
    32   -1.532217063615e-04
    33   -3.077178006960e-04
    34    4.006632657555e-06
    35   -2.950550230046e-06
    36    1.172931950182e-16
    37    2.916192708182e-06
    38    5.893069549773e-05
    39    8.110105416638e-05
    40    9.041076137680e-05
    41   -8.563376557455e-06
    42   -7.099500077677e-06
    43   -5.839742072877e-18
    44   -5.733164360734e-07
    45    1.213587591959e-06
    46    5.302645262560e-06
    47   -8.213814518082e-08
    48   -1.057718083895e-15
    49   -9.822304250249e-06
    50   -2.176626467732e-05
    51   -4.725483768182e-07
    52    2.964812759664e-15
    53   -2.522369313837e-04
    54   -1.220715065643e-04
    55    1.295279299620e-06
    56   -2.150167562069e-15
    57   -2.056731982012e-04
    58    2.467928293283e-05
    59   -1.672307811544e-04
    60   -4.273164579509e-15
    61    3.614930860182e-06
    62    2.927669066487e-16
    63    4.494877764943e-16
    64   -3.010154927985e-06
    65    1.981289552920e-06
    66    5.049869551771e-05
    67    4.407317593010e-05
    68    3.895233944768e-07
    69   -3.728777813110e-07
    70   -1.036921898264e-15
    71   -7.274101809919e-06
    72   -3.325881733341e-06
    73    7.940151134187e-07
    74    3.014477162549e-15
    75    2.764882999031e-05
    76    1.647414179747e-05
    77   -8.508583759836e-07
    78   -4.954950483144e-15
    79   -2.183027944318e-04
    80   -1.277001783770e-04
    81    4.167231805582e-05
    82    6.314565249991e-15
    83    2.118817858857e-07
    84   -5.746734709540e-16
    85   -1.210012989753e-15
    86    6.162261068210e-07
    87   -7.755353043723e-08
    88    3.692678575682e-06
    89   -7.188642513760e-05
    90    4.228238127679e-05
    91    3.202061631178e-05
    92    4.990862117091e-16
    93    2.747729326007e-04
    94    3.409252770750e-04
    95    2.235801328094e-04
    96   -8.793931490492e-17
    97   -2.713187247359e-04
    98    4.030774700220e-04
    99    4.045149856990e-04
   100    3.825952366289e-16
   101   -2.198702319570e-03
   102   -6.412419040393e-04
   103    4.342168201194e-04
   104    3.782461961977e-15
   105   -5.589966700586e-05
   106    6.547551068493e-16
   107   -1.382772595650e-16
   108    1.005937330744e-04
   109    1.864518611058e-04
   110    5.515109939562e-01
   111    4.716913415764e-01
   112   -1.500813160874e-03
   113   -9.402519667403e-04
   114   -9.843313315787e-16
   115    5.396931765385e-03
   116    6.300934231511e-04
   117    4.036199298189e-04
   118    1.264180639762e-15
   119   -1.171894074372e-03
   120   -1.588632912866e-04
   121   -1.140308861906e-04
   122   -2.028692434671e-15
   123    1.304815115382e-03
   124   -2.439471556932e-05
   125    5.663504912431e-06
   126    4.600885800444e-16
   127   -9.219159526504e-05
   128    4.773313510518e-16
   129   -8.297243598447e-17
   130   -4.073458814648e-05
   131   -1.056144695052e-04
   132    4.533274309377e-07
   133    2.286143355005e-06
   134   -1.153158036941e-05
   135    3.769430984886e-06
   136    6.075413718057e-16
   137   -3.223425574899e-05
   138    2.660040658196e-05
   139   -8.601027166701e-06
   140   -1.012362402025e-15
   141    2.440048953692e-04
   142   -9.475915206119e-05
   143   -2.201549048342e-04
   144    1.035179645928e-15
   145   -2.151585359031e-04
   146   -5.357960794332e-04
   147   -5.487052190671e-05
   148   -1.426913452670e-15
   149   -8.034943359023e-06
   150    1.079592855946e-15
   151    4.011257350972e-16
   152    1.589540514818e-05
   153   -1.710262691119e-05
   154   -6.926347133275e-09
   155    5.738912363400e-07
   156    2.828632478546e-07
   157    3.211321301956e-07
   158   -2.440429442769e-16
   159   -9.722346219661e-06
   160   -9.780403120761e-07
   161   -1.834143176333e-06
   162    4.218394595977e-16
   163    1.505204330555e-04
   164    7.894282231433e-05
   165    5.320789273537e-06
   166    1.197289187297e-15
   167    2.224409739276e-04
   168   -4.646805675054e-05
   169    2.251588366423e-05
   170   -1.262831113627e-15
   171    3.737018277691e-07
   172    1.007242172823e-16
   173    6.789579066827e-17
   174   -4.567642758281e-07
   175   -1.653348360276e-06
   176    1.481983170797e-06
   177    1.560275309730e-07
   178   -4.452474300987e-06
   179   -1.731562136166e-05
   180    1.376074278265e-15
   181   -1.781470352352e-05
   182    1.064171136334e-05
   183    8.922392782482e-05
   184   -3.424511637462e-15
   185    6.082188983833e-04
   186   -4.820496838826e-04
   187    1.646262285025e-04
   188    3.735125958319e-15
   189    1.786207620462e-03
   190    1.068380843724e-04
   191    1.052920010989e-03
   192   -5.759954837755e-15
   193   -7.400713667033e-06
   194    5.329353990028e-16
   195    3.887634036568e-16
   196   -3.335589974918e-05
   197    3.337899733846e-05
   198   -2.422162419451e-06
   199    1.218733722909e-04
   200    1.396216185150e-04
   201    3.249579538389e-04
   202   -2.194486509044e-05
   203    1.156080423997e-05
   204   -8.207164236201e-16
Sym=X
Ene= 0.004724
Spin=Alpha
Occup=0
     1   -3.294590247084e-15
     2   -2.484092650875e-15
     3    1.725065502818e-14
     4    9.702683265432e-15
     5    7.998940705346e-02
     6    3.743989451695e-14
     7    2.108869780584e-15
     8    2.397988710636e-14
     9    1.412289753416e-01
    10   -5.439683437702e-13
    11    3.432521427141e-13
    12   -1.991241008865e-13
    13    1.428288799391e-01
    14   -1.412811309639e-11
    15   -6.537812886391e-13
    16   -3.519401209432e-12
    17   -2.080850908330e-01
    18   -1.747804230515e-14
    19    1.543166265542e-02
    20   -6.160733276402e-03
    21   -2.880999115100e-14
    22    1.633118519658e-14
    23    3.075133118964e-14
    24   -4.016152988593e-14
    25    1.467209328265e-12
    26   -8.153766419411e-13
    27   -2.908864442714e-14
    28   -5.089056633967e-15
    29   -8.608163816666e-03
    30    1.599679612481e-14
    31   -2.914907156521e-14
    32    6.302740348167e-13
    33    7.174335538323e-13
    34   -4.186121358927e-15
    35   -3.792309305239e-15
    36    1.138373934142e-02
    37   -6.388532617918e-15
    38    1.113908190928e-13
    39    1.430473074907e-13
    40   -4.002585940761e-13
    41    1.578102608390e-16
    42    1.118723406853e-15
    43   -3.219952581993e-03
    44    5.311607984200e-15
    45    6.545518694572e-15
    46   -2.234821208542e-15
    47   -7.133892006271e-15
    48    4.275543583615e-03
    49   -2.475992790518e-14
    50   -6.517383971042e-15
    51    3.014068739957e-14
    52    4.262894166201e-03
    53   -3.244851070204e-13
    54   -4.000071398948e-13
    55    3.136786189934e-13
    56    1.425212967428e-02
    57    9.653471118553e-12
    58    1.022970099932e-12
    59   -3.384961169019e-12
    60   -9.090350018292e-01
    61    1.954204633806e-14
    62   -2.328901494032e-02
    63    2.598742687004e-02
    64    3.247813580304e-15
    65   -3.453951274239e-14
    66    5.804717166920e-15
    67    6.591302940223e-15
    68    1.444912744772e-14
    69    1.069758878922e-14
    70    9.406863368988e-02
    71   -2.490980844151e-14
    72    2.631244043274e-14
    73    2.500351609496e-14
    74    1.507400401046e-01
    75   -1.592128183398e-13
    76   -9.187620462548e-14
    77   -6.604250233044e-14
    78    1.142476426059e-01
    79   -4.349844738202e-13
    80   -1.637733560644e-13
    81    4.568737103851e-14
    82    3.409404354162e-01
    83   -1.073396812546e-15
    84    7.171951245172e-03
    85   -3.397090493876e-03
    86    1.602426458464e-15
    87    8.042244172593e-15
    88    3.356825084958e-15
    89    1.147134391444e-14
    90    9.105466638875e-15
    91   -4.880484059916e-15
    92    2.906497133775e-02
    93   -9.366759870420e-15
    94    5.119228281488e-14
    95   -3.613525209799e-14
    96    7.994528039444e-02
    97   -3.921467973153e-13
    98    2.839278072995e-13
    99    2.234658827811e-13
   100   -1.548811043656e-02
   101   -1.530828671233e-11
   102    1.632107986882e-13
   103    4.416741648460e-12
   104   -5.539872426428e-01
   105   -1.695029418221e-14
   106   -1.088007407062e-02
   107   -2.654123124154e-02
   108    6.766691507759e-15
   109    8.757730967240e-15
   110   -3.725255960102e-15
   111   -3.670978979425e-15
   112   -6.899548402618e-15
   113   -4.447778849501e-15
   114   -1.165104731683e-01
   115   -6.535635069191e-16
   116   -1.732707408946e-14
   117   -3.564495996201e-15
   118   -1.351874097125e-01
   119    3.060320337129e-14
   120    4.136288403603e-14
   121    2.771562126534e-14
   122   -1.386647229622e-01
   123    4.249817868263e-13
   124   -1.057019320864e-13
   125   -8.277937044348e-14
   126    9.474956337392e-02
   127    1.754048644362e-15
   128    4.980128731574e-03
   129   -8.006908952670e-04
   130   -2.349568874709e-15
   131    4.570785678142e-15
   132    1.872056133739e-15
   133    5.706004513369e-15
   134    2.404565275535e-14
   135   -9.154659969958e-15
   136   -3.961691224646e-03
   137   -7.772600174358e-14
   138    3.808979241755e-14
   139   -2.764784669798e-15
   140   -2.906583178388e-03
   141    4.648861733852e-13
   142    1.185880779516e-13
   143   -3.841519908120e-13
   144   -1.192465722460e-02
   145   -1.461420010903e-12
   146   -5.958330870169e-13
   147    1.507081390614e-13
   148    2.275109569199e-01
   149   -4.475087657098e-15
   150    2.713279227593e-03
   151   -2.201668899287e-03
   152   -4.046044416752e-15
   153    7.382995059608e-15
   154    1.172896712272e-14
   155    1.978708498219e-14
   156    2.488933893514e-14
   157   -1.636291380642e-15
   158   -8.646049587877e-02
   159   -1.403778130630e-13
   160    1.744431677759e-14
   161   -1.310520711037e-14
   162   -1.332813440194e-01
   163    5.127642179048e-13
   164    2.570899404343e-13
   165    1.824529507664e-13
   166   -1.948119782746e-01
   167   -1.348465434641e-12
   168    2.196288758416e-12
   169   -1.858721154568e-12
   170    6.088394701785e-02
   171   -1.022264244324e-14
   172    4.897321012676e-03
   173   -9.802496881242e-03
   174    1.276974770980e-14
   175    1.287664071292e-14
   176   -6.461379828465e-15
   177   -2.030584883756e-14
   178    2.216948115112e-14
   179   -1.380096084290e-14
   180    5.547045054597e-02
   181    2.376236413207e-14
   182    4.322004262782e-14
   183   -7.962781737028e-15
   184    9.102476583039e-02
   185    6.065861515910e-13
   186    6.316789916221e-14
   187    1.450995029881e-13
   188   -1.660531382666e-02
   189    1.947026478827e-11
   190   -1.421376363390e-12
   191    4.755716731765e-12
   192    1.344289201955e+00
   193   -2.519933216902e-14
   194   -2.553945383715e-03
   195    1.293681755990e-02
   196    1.641316343786e-14
   197   -1.339043698145e-14
   198    1.860972283791e-14
   199   -7.473166708356e-14
   200    2.831898502325e-14
   201    1.567734713589e-12
   202   -3.770033647195e-15
   203   -2.264566701802e-15
   204    1.500840516619e-02
[5D]
