[Molden Format]
[Atoms] (Angs)
  C      1    6     -0.13173890     -1.79208980      0.00000000
  H      2    1     -2.14962000     -1.30978739      0.00000000
  H      3    1     -0.31599560     -2.86503115      0.00000000
  H      4    1      0.14407746      2.04280963     -0.00000000
  C      5    6     -1.17258876      0.48030861      0.00000000
  O      6    8     -2.25008207      1.06833796      0.00000000
  C      7    6      1.31158357      0.28308717     -0.00000000
  O      8    8      2.36361668      0.96389345     -0.00000000
  N      9    7      0.07017030      1.03138997     -0.00000000
  N     10    7     -1.19586868     -0.94982644      0.00000000
  C     11    6      1.19165158     -1.13169473     -0.00000000
  H     12    1      2.09970506     -1.73445456     -0.00000000
[GTO]
1    0
S    6    1.000000
   4.56324000E+03    1.96665000E-03 
   6.82024000E+02    1.52306000E-02 
   1.54973000E+02    7.61269000E-02 
   4.44553000E+01    2.60801000E-01 
   1.30290000E+01    6.16462000E-01 
   1.82773000E+00    2.21006000E-01 
SP   3    1.000000
   2.09642000E+01    1.14660000E-01   4.02487000E-02 
   4.80331000E+00    9.19999000E-01   2.37594000E-01 
   1.45933000E+00   -3.03068000E-03   8.15854000E-01 
SP   1    1.000000
   4.83456000E-01    1.00000000E+00   1.00000000E+00 
SP   1    1.000000
   1.45585000E-01    1.00000000E+00   1.00000000E+00 
SP   1    1.000000
   4.38000000E-02    1.00000000E+00   1.00000000E+00 
D    1    1.000000
   6.26000000E-01    1.00000000E+00 

2    0
S    3    1.000000
   3.38650000E+01    2.54938000E-02 
   5.09479000E+00    1.90373000E-01 
   1.15879000E+00    8.52161000E-01 
S    1    1.000000
   3.25840000E-01    1.00000000E+00 
S    1    1.000000
   1.02741000E-01    1.00000000E+00 
S    1    1.000000
   3.60000000E-02    1.00000000E+00 
P    1    1.000000
   7.50000000E-01    1.00000000E+00 

3    0
S    3    1.000000
   3.38650000E+01    2.54938000E-02 
   5.09479000E+00    1.90373000E-01 
   1.15879000E+00    8.52161000E-01 
S    1    1.000000
   3.25840000E-01    1.00000000E+00 
S    1    1.000000
   1.02741000E-01    1.00000000E+00 
S    1    1.000000
   3.60000000E-02    1.00000000E+00 
P    1    1.000000
   7.50000000E-01    1.00000000E+00 

4    0
S    3    1.000000
   3.38650000E+01    2.54938000E-02 
   5.09479000E+00    1.90373000E-01 
   1.15879000E+00    8.52161000E-01 
S    1    1.000000
   3.25840000E-01    1.00000000E+00 
S    1    1.000000
   1.02741000E-01    1.00000000E+00 
S    1    1.000000
   3.60000000E-02    1.00000000E+00 
P    1    1.000000
   7.50000000E-01    1.00000000E+00 

5    0
S    6    1.000000
   4.56324000E+03    1.96665000E-03 
   6.82024000E+02    1.52306000E-02 
   1.54973000E+02    7.61269000E-02 
   4.44553000E+01    2.60801000E-01 
   1.30290000E+01    6.16462000E-01 
   1.82773000E+00    2.21006000E-01 
SP   3    1.000000
   2.09642000E+01    1.14660000E-01   4.02487000E-02 
   4.80331000E+00    9.19999000E-01   2.37594000E-01 
   1.45933000E+00   -3.03068000E-03   8.15854000E-01 
SP   1    1.000000
   4.83456000E-01    1.00000000E+00   1.00000000E+00 
SP   1    1.000000
   1.45585000E-01    1.00000000E+00   1.00000000E+00 
SP   1    1.000000
   4.38000000E-02    1.00000000E+00   1.00000000E+00 
D    1    1.000000
   6.26000000E-01    1.00000000E+00 

6    0
S    6    1.000000
   8.58850000E+03    1.89515000E-03 
   1.29723000E+03    1.43859000E-02 
   2.99296000E+02    7.07320000E-02 
   8.73771000E+01    2.40001000E-01 
   2.56789000E+01    5.94797000E-01 
   3.74004000E+00    2.80802000E-01 
SP   3    1.000000
   4.21175000E+01    1.13889000E-01   3.65114000E-02 
   9.62837000E+00    9.20811000E-01   2.37153000E-01 
   2.85332000E+00   -3.27447000E-03   8.19702000E-01 
SP   1    1.000000
   9.05661000E-01    1.00000000E+00   1.00000000E+00 
SP   1    1.000000
   2.55611000E-01    1.00000000E+00   1.00000000E+00 
SP   1    1.000000
   8.45000000E-02    1.00000000E+00   1.00000000E+00 
D    1    1.000000
   1.29200000E+00    1.00000000E+00 

7    0
S    6    1.000000
   4.56324000E+03    1.96665000E-03 
   6.82024000E+02    1.52306000E-02 
   1.54973000E+02    7.61269000E-02 
   4.44553000E+01    2.60801000E-01 
   1.30290000E+01    6.16462000E-01 
   1.82773000E+00    2.21006000E-01 
SP   3    1.000000
   2.09642000E+01    1.14660000E-01   4.02487000E-02 
   4.80331000E+00    9.19999000E-01   2.37594000E-01 
   1.45933000E+00   -3.03068000E-03   8.15854000E-01 
SP   1    1.000000
   4.83456000E-01    1.00000000E+00   1.00000000E+00 
SP   1    1.000000
   1.45585000E-01    1.00000000E+00   1.00000000E+00 
SP   1    1.000000
   4.38000000E-02    1.00000000E+00   1.00000000E+00 
D    1    1.000000
   6.26000000E-01    1.00000000E+00 

8    0
S    6    1.000000
   8.58850000E+03    1.89515000E-03 
   1.29723000E+03    1.43859000E-02 
   2.99296000E+02    7.07320000E-02 
   8.73771000E+01    2.40001000E-01 
   2.56789000E+01    5.94797000E-01 
   3.74004000E+00    2.80802000E-01 
SP   3    1.000000
   4.21175000E+01    1.13889000E-01   3.65114000E-02 
   9.62837000E+00    9.20811000E-01   2.37153000E-01 
   2.85332000E+00   -3.27447000E-03   8.19702000E-01 
SP   1    1.000000
   9.05661000E-01    1.00000000E+00   1.00000000E+00 
SP   1    1.000000
   2.55611000E-01    1.00000000E+00   1.00000000E+00 
SP   1    1.000000
   8.45000000E-02    1.00000000E+00   1.00000000E+00 
D    1    1.000000
   1.29200000E+00    1.00000000E+00 

9    0
S    6    1.000000
   6.29348000E+03    1.96979000E-03 
   9.49044000E+02    1.49613000E-02 
   2.18776000E+02    7.35006000E-02 
   6.36916000E+01    2.48937000E-01 
   1.88282000E+01    6.02460000E-01 
   2.72023000E+00    2.56202000E-01 
SP   3    1.000000
   3.06331000E+01    1.11906000E-01   3.83119000E-02 
   7.02614000E+00    9.21666000E-01   2.37403000E-01 
   2.11205000E+00   -2.56919000E-03   8.17592000E-01 
SP   1    1.000000
   6.84009000E-01    1.00000000E+00   1.00000000E+00 
SP   1    1.000000
   2.00878000E-01    1.00000000E+00   1.00000000E+00 
SP   1    1.000000
   6.39000000E-02    1.00000000E+00   1.00000000E+00 
D    1    1.000000
   9.13000000E-01    1.00000000E+00 

10    0
S    6    1.000000
   6.29348000E+03    1.96979000E-03 
   9.49044000E+02    1.49613000E-02 
   2.18776000E+02    7.35006000E-02 
   6.36916000E+01    2.48937000E-01 
   1.88282000E+01    6.02460000E-01 
   2.72023000E+00    2.56202000E-01 
SP   3    1.000000
   3.06331000E+01    1.11906000E-01   3.83119000E-02 
   7.02614000E+00    9.21666000E-01   2.37403000E-01 
   2.11205000E+00   -2.56919000E-03   8.17592000E-01 
SP   1    1.000000
   6.84009000E-01    1.00000000E+00   1.00000000E+00 
SP   1    1.000000
   2.00878000E-01    1.00000000E+00   1.00000000E+00 
SP   1    1.000000
   6.39000000E-02    1.00000000E+00   1.00000000E+00 
D    1    1.000000
   9.13000000E-01    1.00000000E+00 

11    0
S    6    1.000000
   4.56324000E+03    1.96665000E-03 
   6.82024000E+02    1.52306000E-02 
   1.54973000E+02    7.61269000E-02 
   4.44553000E+01    2.60801000E-01 
   1.30290000E+01    6.16462000E-01 
   1.82773000E+00    2.21006000E-01 
SP   3    1.000000
   2.09642000E+01    1.14660000E-01   4.02487000E-02 
   4.80331000E+00    9.19999000E-01   2.37594000E-01 
   1.45933000E+00   -3.03068000E-03   8.15854000E-01 
SP   1    1.000000
   4.83456000E-01    1.00000000E+00   1.00000000E+00 
SP   1    1.000000
   1.45585000E-01    1.00000000E+00   1.00000000E+00 
SP   1    1.000000
   4.38000000E-02    1.00000000E+00   1.00000000E+00 
D    1    1.000000
   6.26000000E-01    1.00000000E+00 

12    0
S    3    1.000000
   3.38650000E+01    2.54938000E-02 
   5.09479000E+00    1.90373000E-01 
   1.15879000E+00    8.52161000E-01 
S    1    1.000000
   3.25840000E-01    1.00000000E+00 
S    1    1.000000
   1.02741000E-01    1.00000000E+00 
S    1    1.000000
   3.60000000E-02    1.00000000E+00 
P    1    1.000000
   7.50000000E-01    1.00000000E+00 

[MO]
Sym=X
Ene= -0.059083
Spin=Alpha
Occup=1
     1    3.388898171090e-07
     2    5.359286759293e-08
     3    3.172197762211e-06
     4   -5.336259648318e-06
     5   -1.501956304418e-16
     6    7.125726736000e-07
     7   -1.534729980960e-05
     8    2.170481153408e-05
     9    1.205548365118e-15
    10    2.303137586308e-04
    11   -6.662970830295e-05
    12   -2.661273300048e-05
    13   -1.835116778425e-15
    14   -4.941795715398e-04
    15   -5.205846401351e-04
    16   -2.718596098813e-04
    17   -5.938623424938e-15
    18   -1.183461644945e-06
    19   -5.349318757795e-17
    20   -1.038953329058e-15
    21   -3.438350060160e-06
    22   -2.956558486697e-06
    23   -3.922129874277e-06
    24   -3.616873107854e-05
    25   -8.933152867001e-05
    26   -2.988955765715e-04
    27   -1.122631711993e-05
    28    9.589545967615e-06
    29   -7.639684333461e-16
    30    3.899953208623e-06
    31   -2.880407907395e-05
    32   -2.649018641741e-05
    33   -1.587958012011e-04
    34    8.126592556363e-07
    35   -3.293855619797e-06
    36   -1.000044955523e-15
    37   -2.884002439884e-06
    38   -5.788494321143e-05
    39   -1.085773571889e-04
    40   -2.842491760460e-04
    41   -7.977947737526e-06
    42    6.879326296119e-06
    43    2.171051927236e-16
    44   -4.440088967013e-06
    45    7.643009776147e-05
    46    5.602577299302e-05
    47   -3.178945346833e-05
    48   -1.216323385658e-15
    49   -2.942957753557e-04
    50    3.746198034103e-04
    51   -1.959698009279e-04
    52    1.552286794658e-15
    53    8.278748912915e-05
    54    4.413884810845e-04
    55   -1.746393696822e-04
    56   -3.457640719593e-15
    57   -3.519741662860e-04
    58   -6.856985577470e-04
    59    2.963728684599e-04
    60    3.161830659111e-15
    61    5.946074259545e-05
    62   -1.166202518847e-15
    63    9.232063256887e-17
    64   -1.029055137865e-04
    65    1.781655534761e-04
    66   -5.514897354764e-01
    67   -4.716811786057e-01
    68   -1.604046987202e-03
    69    8.742538105240e-04
    70    1.100328164070e-15
    71   -5.486876887699e-03
    72    6.659751109500e-04
    73   -3.534977768218e-04
    74   -9.545715684615e-16
    75    1.258991834727e-03
    76   -1.688800598510e-04
    77    7.817391406110e-05
    78    2.131322981360e-16
    79   -1.483434566210e-03
    80   -5.365849140245e-05
    81    4.818276665661e-05
    82   -1.075945400841e-15
    83    8.036948679318e-05
    84   -3.914588535378e-16
    85    5.932189724626e-16
    86    5.742665624491e-05
    87   -7.152308600039e-05
    88    3.508028780674e-07
    89   -4.634964058798e-07
    90    3.506428431037e-06
    91   -1.837363554167e-06
    92   -5.084362758959e-16
    93    1.409399813668e-06
    94   -1.441884456974e-05
    95    1.079415256068e-05
    96    1.914144211775e-15
    97    1.697428230475e-04
    98   -7.632682839526e-05
    99    5.126356949772e-05
   100   -3.243121622661e-16
   101   -9.436135165101e-04
   102   -1.270123530968e-04
   103    7.256035705019e-04
   104   -1.046278690080e-14
   105   -3.126657781120e-06
   106    1.334436442208e-15
   107    1.659313627606e-16
   108    7.570848932252e-06
   109   -2.806176678554e-06
   110   -1.033736914531e-04
   111   -8.919920623440e-05
   112   -6.338346387094e-08
   113    7.210675594256e-07
   114   -1.107204097266e-15
   115    6.478966442972e-06
   116   -1.009665769902e-06
   117   -1.632696271529e-06
   118    2.957571013417e-15
   119   -3.725415855419e-05
   120    1.344141106227e-05
   121    7.974631797126e-06
   122   -5.052552588579e-15
   123    1.460491600371e-04
   124   -6.665992785647e-05
   125   -6.659406016979e-05
   126    4.284805544893e-15
   127   -1.283716162116e-07
   128    2.725182745856e-16
   129    3.935571474006e-16
   130   -8.517301510684e-07
   131   -3.220838889015e-07
   132   -1.136787983352e-07
   133   -1.497879301909e-06
   134   -1.168935136744e-05
   135    2.021429577072e-06
   136   -6.511106174130e-16
   137    2.875881137998e-05
   138    3.574867234217e-05
   139   -8.024670135699e-06
   140    1.832186934689e-15
   141   -3.143385106333e-04
   142    1.789123504620e-06
   143    2.417787196051e-04
   144   -5.064494426481e-16
   145    3.666141465131e-05
   146   -4.744297107714e-04
   147    1.365857500614e-04
   148    2.729779621774e-15
   149    7.683103575965e-06
   150   -6.257569549512e-16
   151   -7.166708182506e-16
   152   -2.666784194441e-05
   153   -5.042230160484e-06
   154   -5.848228214283e-07
   155   -1.399935057448e-06
   156   -2.819080317882e-06
   157    1.100520724740e-05
   158   -1.735562211919e-16
   159    2.182497086787e-05
   160    6.431719975437e-06
   161   -2.616183324814e-05
   162   -1.134882214548e-15
   163   -1.779988727523e-04
   164   -2.019556452818e-04
   165   -1.218799812928e-05
   166    2.872067472104e-15
   167    1.385942626037e-04
   168   -2.285362993981e-04
   169    4.129948939951e-04
   170    2.452553573515e-15
   171    7.798001785783e-06
   172    5.538521009125e-16
   173    8.454523141564e-16
   174    2.093902420688e-05
   175    6.111252006245e-06
   176   -1.557454140956e-07
   177    7.304540552540e-07
   178   -1.644596465097e-06
   179    5.689917419910e-07
   180    1.024964590049e-15
   181   -1.048069629693e-05
   182    1.009897359891e-05
   183   -3.405023801325e-06
   184   -1.930485046418e-16
   185    4.506410908003e-05
   186   -4.279605124860e-05
   187    2.484506177848e-05
   188   -6.922167783182e-17
   189    2.882503366042e-03
   190   -4.193486427275e-04
   191    4.193335644899e-04
   192    8.900661257689e-15
   193   -3.672536091095e-06
   194   -3.351482295091e-16
   195    3.077575691088e-16
   196   -9.047376717370e-07
   197    1.542242847417e-06
   198   -1.218291888806e-06
   199    6.777722818254e-06
   200    2.258167978784e-05
   201    2.004182908585e-04
   202    4.409333587890e-07
   203   -4.108553486503e-07
   204   -5.863893015244e-16
Sym=X
Ene= 0.059083
Spin=Alpha
Occup=0
     1    1.536827558075e-16
     2   -3.569808795098e-16
     3   -3.487856287937e-15
     4   -7.722135479555e-16
     5   -4.526028088027e-02
     6    2.656923300323e-15
     7    6.426854363526e-15
     8    9.182106099632e-15
     9   -7.701692750584e-02
    10   -1.187166339635e-13
    11   -7.665182105797e-14
    12   -1.499805327909e-13
    13   -1.133620625553e-01
    14   -1.537718248238e-12
    15    6.874475805399e-14
    16   -8.712883401250e-13
    17   -1.111843989501e-02
    18    3.360975605416e-15
    19   -3.018653156064e-02
    20    5.723111643645e-03
    21    2.489136404770e-15
    22    2.138309530427e-15
    23   -8.018478121143e-15
    24    4.334933335628e-14
    25   -2.870847970363e-13
    26    7.965435150116e-14
    27    5.134212302366e-16
    28    4.220595542873e-15
    29    1.762289899822e-02
    30   -5.730291345163e-15
    31    3.606267923392e-15
    32   -1.861353145838e-13
    33   -3.476961470552e-13
    34    4.242484053434e-16
    35    5.932885154339e-15
    36   -3.361385108350e-03
    37    3.149892350148e-15
    38    1.167722845904e-14
    39    1.779493985694e-14
    40   -2.617211128655e-13
    41    1.483323389257e-15
    42    2.987781355276e-15
    43   -5.584080699276e-03
    44   -1.023942007794e-15
    45    2.073716102410e-15
    46    1.389865594448e-16
    47    4.895527694540e-15
    48   -2.580238128072e-03
    49   -5.855176907872e-15
    50    8.700807748137e-16
    51   -2.512427293979e-15
    52    7.153509720759e-03
    53    3.140655823439e-14
    54   -5.087936338761e-14
    55    2.058582602940e-13
    56   -4.009678975257e-02
    57    8.091692961273e-13
    58    4.158772604613e-13
    59    2.132497471976e-13
    60   -4.095293214428e-02
    61    3.643983394830e-15
    62   -1.052993286533e-02
    63   -4.728136291207e-02
    64    3.696725710363e-15
    65    1.591479571385e-15
    66   -3.113078388730e-16
    67    3.911672741762e-16
    68   -2.861165625393e-15
    69   -3.455301015977e-15
    70   -7.774028016074e-02
    71   -5.770168743423e-17
    72    4.086347746582e-16
    73    1.700630716548e-15
    74   -9.982023439873e-02
    75   -1.926897275245e-14
    76   -2.126783223651e-14
    77   -2.022266241461e-14
    78   -7.454537985889e-02
    79   -3.038239101575e-13
    80   -1.342674521445e-13
    81    6.911934358313e-14
    82   -1.652380790311e-03
    83   -1.526216879037e-15
    84   -4.298518638161e-03
    85    1.239709872569e-03
    86   -6.577376423778e-16
    87   -1.189951315604e-15
    88   -1.297073236498e-16
    89   -3.273366548611e-15
    90   -3.853912408592e-16
    91   -2.932512910329e-15
    92   -6.959327996840e-03
    93    2.094599942613e-14
    94    1.914588297228e-14
    95   -1.082781998244e-15
    96   -1.029374411880e-02
    97   -2.031774472056e-13
    98    6.351715549978e-14
    99   -3.418504810719e-14
   100    1.986645582869e-02
   101   -5.230439852376e-12
   102    5.300171238679e-13
   103    1.310240816276e-12
   104    3.944757447396e-02
   105   -1.147909717067e-15
   106    2.959923536029e-02
   107    3.118252033610e-02
   108    1.993046312276e-15
   109    1.741329470473e-15
   110    1.314966249415e-15
   111    9.924369523137e-16
   112   -2.803976779807e-15
   113    3.075290460050e-15
   114    1.203828625182e-01
   115   -4.475681128306e-15
   116    1.875626307628e-15
   117   -2.479814917820e-15
   118    1.816002376801e-01
   119   -2.984033603695e-14
   120   -2.287284492051e-15
   121    3.237375338655e-14
   122    1.843826693073e-01
   123    1.816850413231e-13
   124   -6.518046026190e-14
   125   -1.531666765636e-13
   126    4.665744622438e-02
   127   -2.049854672897e-16
   128   -6.603186397228e-03
   129   -2.973919647282e-03
   130    9.248293507300e-16
   131   -2.253275935029e-15
   132   -2.060990487726e-16
   133    1.894044007189e-15
   134   -5.364245136924e-16
   135   -1.457162326619e-16
   136   -7.637050195210e-02
   137   -9.039504905671e-15
   138   -7.869529033493e-15
   139    6.973956895158e-15
   140   -1.195719181409e-01
   141    4.301427057365e-14
   142    6.313897466646e-14
   143   -7.127419769044e-14
   144   -1.316847015068e-01
   145    3.508226443230e-14
   146    1.603772891120e-13
   147   -9.440404398445e-14
   148   -1.655824372064e-02
   149    3.382968905296e-16
   150    3.720294938818e-03
   151    2.496473066669e-03
   152   -1.070513916587e-15
   153   -2.148692785198e-15
   154   -1.554061907417e-16
   155    9.936523360279e-16
   156   -4.084495535314e-15
   157    2.755156929876e-15
   158    1.735610901069e-01
   159   -1.694448129971e-14
   160    2.406870255943e-15
   161   -1.789481228015e-16
   162    2.713859175979e-01
   163    1.585591122033e-13
   164    3.754532072007e-14
   165    6.338669008546e-14
   166    3.404071582825e-01
   167    7.759930432720e-13
   168   -3.484802855897e-13
   169    5.991348823630e-14
   170    1.078546400938e-01
   171   -1.801370430988e-15
   172   -3.920075743174e-03
   173    6.349173394715e-03
   174   -1.700557926869e-15
   175    1.736963143905e-15
   176   -6.067925495118e-16
   177    7.242364217607e-16
   178   -4.811086396274e-15
   179   -1.411345847096e-15
   180   -1.334543820018e-01
   181    5.387982741035e-15
   182    8.264806347581e-15
   183    3.751939774464e-15
   184   -2.170307343447e-01
   185    4.167712903414e-14
   186   -1.917838039625e-13
   187    1.814609464479e-14
   188   -2.516589918467e-01
   189    5.421182092081e-12
   190   -9.793372042649e-13
   191    1.638061976363e-12
   192   -6.886451145908e-02
   193   -2.380107133460e-16
   194    3.574433476552e-03
   195   -5.942599437979e-03
   196   -3.703639166207e-16
   197    1.336712338379e-15
   198    1.644437796678e-15
   199    1.930170428693e-14
   200    1.620829452983e-13
   201    7.057549280574e-13
   202   -1.983275177309e-15
   203    2.708016776752e-16
   204   -1.072137739138e-02
[5D]
