[Molden Format]
[Atoms] (Angs)
  C      1    6     -0.13173890     -1.79208980      0.00000000
  H      2    1     -2.14962000     -1.30978739      0.00000000
  H      3    1     -0.31599560     -2.86503115      0.00000000
  H      4    1      0.14407746      2.04280963     -0.00000000
  C      5    6     -1.17258876      0.48030861      0.00000000
  O      6    8     -2.25008207      1.06833796      0.00000000
  C      7    6      1.31158357      0.28308717     -0.00000000
  O      8    8      2.36361668      0.96389345     -0.00000000
  N      9    7      0.07017030      1.03138997     -0.00000000
  N     10    7     -1.19586868     -0.94982644      0.00000000
  C     11    6      1.19165158     -1.13169473     -0.00000000
  H     12    1      2.09970506     -1.73445456     -0.00000000
[GTO]
1    0
S    6    1.000000
   4.56324000E+03    1.96665000E-03 
   6.82024000E+02    1.52306000E-02 
   1.54973000E+02    7.61269000E-02 
   4.44553000E+01    2.60801000E-01 
   1.30290000E+01    6.16462000E-01 
   1.82773000E+00    2.21006000E-01 
SP   3    1.000000
   2.09642000E+01    1.14660000E-01   4.02487000E-02 
   4.80331000E+00    9.19999000E-01   2.37594000E-01 
   1.45933000E+00   -3.03068000E-03   8.15854000E-01 
SP   1    1.000000
   4.83456000E-01    1.00000000E+00   1.00000000E+00 
SP   1    1.000000
   1.45585000E-01    1.00000000E+00   1.00000000E+00 
SP   1    1.000000
   4.38000000E-02    1.00000000E+00   1.00000000E+00 
D    1    1.000000
   6.26000000E-01    1.00000000E+00 

2    0
S    3    1.000000
   3.38650000E+01    2.54938000E-02 
   5.09479000E+00    1.90373000E-01 
   1.15879000E+00    8.52161000E-01 
S    1    1.000000
   3.25840000E-01    1.00000000E+00 
S    1    1.000000
   1.02741000E-01    1.00000000E+00 
S    1    1.000000
   3.60000000E-02    1.00000000E+00 
P    1    1.000000
   7.50000000E-01    1.00000000E+00 

3    0
S    3    1.000000
   3.38650000E+01    2.54938000E-02 
   5.09479000E+00    1.90373000E-01 
   1.15879000E+00    8.52161000E-01 
S    1    1.000000
   3.25840000E-01    1.00000000E+00 
S    1    1.000000
   1.02741000E-01    1.00000000E+00 
S    1    1.000000
   3.60000000E-02    1.00000000E+00 
P    1    1.000000
   7.50000000E-01    1.00000000E+00 

4    0
S    3    1.000000
   3.38650000E+01    2.54938000E-02 
   5.09479000E+00    1.90373000E-01 
   1.15879000E+00    8.52161000E-01 
S    1    1.000000
   3.25840000E-01    1.00000000E+00 
S    1    1.000000
   1.02741000E-01    1.00000000E+00 
S    1    1.000000
   3.60000000E-02    1.00000000E+00 
P    1    1.000000
   7.50000000E-01    1.00000000E+00 

5    0
S    6    1.000000
   4.56324000E+03    1.96665000E-03 
   6.82024000E+02    1.52306000E-02 
   1.54973000E+02    7.61269000E-02 
   4.44553000E+01    2.60801000E-01 
   1.30290000E+01    6.16462000E-01 
   1.82773000E+00    2.21006000E-01 
SP   3    1.000000
   2.09642000E+01    1.14660000E-01   4.02487000E-02 
   4.80331000E+00    9.19999000E-01   2.37594000E-01 
   1.45933000E+00   -3.03068000E-03   8.15854000E-01 
SP   1    1.000000
   4.83456000E-01    1.00000000E+00   1.00000000E+00 
SP   1    1.000000
   1.45585000E-01    1.00000000E+00   1.00000000E+00 
SP   1    1.000000
   4.38000000E-02    1.00000000E+00   1.00000000E+00 
D    1    1.000000
   6.26000000E-01    1.00000000E+00 

6    0
S    6    1.000000
   8.58850000E+03    1.89515000E-03 
   1.29723000E+03    1.43859000E-02 
   2.99296000E+02    7.07320000E-02 
   8.73771000E+01    2.40001000E-01 
   2.56789000E+01    5.94797000E-01 
   3.74004000E+00    2.80802000E-01 
SP   3    1.000000
   4.21175000E+01    1.13889000E-01   3.65114000E-02 
   9.62837000E+00    9.20811000E-01   2.37153000E-01 
   2.85332000E+00   -3.27447000E-03   8.19702000E-01 
SP   1    1.000000
   9.05661000E-01    1.00000000E+00   1.00000000E+00 
SP   1    1.000000
   2.55611000E-01    1.00000000E+00   1.00000000E+00 
SP   1    1.000000
   8.45000000E-02    1.00000000E+00   1.00000000E+00 
D    1    1.000000
   1.29200000E+00    1.00000000E+00 

7    0
S    6    1.000000
   4.56324000E+03    1.96665000E-03 
   6.82024000E+02    1.52306000E-02 
   1.54973000E+02    7.61269000E-02 
   4.44553000E+01    2.60801000E-01 
   1.30290000E+01    6.16462000E-01 
   1.82773000E+00    2.21006000E-01 
SP   3    1.000000
   2.09642000E+01    1.14660000E-01   4.02487000E-02 
   4.80331000E+00    9.19999000E-01   2.37594000E-01 
   1.45933000E+00   -3.03068000E-03   8.15854000E-01 
SP   1    1.000000
   4.83456000E-01    1.00000000E+00   1.00000000E+00 
SP   1    1.000000
   1.45585000E-01    1.00000000E+00   1.00000000E+00 
SP   1    1.000000
   4.38000000E-02    1.00000000E+00   1.00000000E+00 
D    1    1.000000
   6.26000000E-01    1.00000000E+00 

8    0
S    6    1.000000
   8.58850000E+03    1.89515000E-03 
   1.29723000E+03    1.43859000E-02 
   2.99296000E+02    7.07320000E-02 
   8.73771000E+01    2.40001000E-01 
   2.56789000E+01    5.94797000E-01 
   3.74004000E+00    2.80802000E-01 
SP   3    1.000000
   4.21175000E+01    1.13889000E-01   3.65114000E-02 
   9.62837000E+00    9.20811000E-01   2.37153000E-01 
   2.85332000E+00   -3.27447000E-03   8.19702000E-01 
SP   1    1.000000
   9.05661000E-01    1.00000000E+00   1.00000000E+00 
SP   1    1.000000
   2.55611000E-01    1.00000000E+00   1.00000000E+00 
SP   1    1.000000
   8.45000000E-02    1.00000000E+00   1.00000000E+00 
D    1    1.000000
   1.29200000E+00    1.00000000E+00 

9    0
S    6    1.000000
   6.29348000E+03    1.96979000E-03 
   9.49044000E+02    1.49613000E-02 
   2.18776000E+02    7.35006000E-02 
   6.36916000E+01    2.48937000E-01 
   1.88282000E+01    6.02460000E-01 
   2.72023000E+00    2.56202000E-01 
SP   3    1.000000
   3.06331000E+01    1.11906000E-01   3.83119000E-02 
   7.02614000E+00    9.21666000E-01   2.37403000E-01 
   2.11205000E+00   -2.56919000E-03   8.17592000E-01 
SP   1    1.000000
   6.84009000E-01    1.00000000E+00   1.00000000E+00 
SP   1    1.000000
   2.00878000E-01    1.00000000E+00   1.00000000E+00 
SP   1    1.000000
   6.39000000E-02    1.00000000E+00   1.00000000E+00 
D    1    1.000000
   9.13000000E-01    1.00000000E+00 

10    0
S    6    1.000000
   6.29348000E+03    1.96979000E-03 
   9.49044000E+02    1.49613000E-02 
   2.18776000E+02    7.35006000E-02 
   6.36916000E+01    2.48937000E-01 
   1.88282000E+01    6.02460000E-01 
   2.72023000E+00    2.56202000E-01 
SP   3    1.000000
   3.06331000E+01    1.11906000E-01   3.83119000E-02 
   7.02614000E+00    9.21666000E-01   2.37403000E-01 
   2.11205000E+00   -2.56919000E-03   8.17592000E-01 
SP   1    1.000000
   6.84009000E-01    1.00000000E+00   1.00000000E+00 
SP   1    1.000000
   2.00878000E-01    1.00000000E+00   1.00000000E+00 
SP   1    1.000000
   6.39000000E-02    1.00000000E+00   1.00000000E+00 
D    1    1.000000
   9.13000000E-01    1.00000000E+00 

11    0
S    6    1.000000
   4.56324000E+03    1.96665000E-03 
   6.82024000E+02    1.52306000E-02 
   1.54973000E+02    7.61269000E-02 
   4.44553000E+01    2.60801000E-01 
   1.30290000E+01    6.16462000E-01 
   1.82773000E+00    2.21006000E-01 
SP   3    1.000000
   2.09642000E+01    1.14660000E-01   4.02487000E-02 
   4.80331000E+00    9.19999000E-01   2.37594000E-01 
   1.45933000E+00   -3.03068000E-03   8.15854000E-01 
SP   1    1.000000
   4.83456000E-01    1.00000000E+00   1.00000000E+00 
SP   1    1.000000
   1.45585000E-01    1.00000000E+00   1.00000000E+00 
SP   1    1.000000
   4.38000000E-02    1.00000000E+00   1.00000000E+00 
D    1    1.000000
   6.26000000E-01    1.00000000E+00 

12    0
S    3    1.000000
   3.38650000E+01    2.54938000E-02 
   5.09479000E+00    1.90373000E-01 
   1.15879000E+00    8.52161000E-01 
S    1    1.000000
   3.25840000E-01    1.00000000E+00 
S    1    1.000000
   1.02741000E-01    1.00000000E+00 
S    1    1.000000
   3.60000000E-02    1.00000000E+00 
P    1    1.000000
   7.50000000E-01    1.00000000E+00 

[MO]
Sym=X
Ene= -0.010422
Spin=Alpha
Occup=1
     1   -4.003978582050e-15
     2   -8.477618290070e-15
     3    3.954047121344e-14
     4   -1.080171199630e-14
     5   -2.285663401643e-02
     6    1.600011883843e-13
     7    1.404602204241e-13
     8   -1.070003749988e-13
     9   -3.503386628698e-02
    10   -3.014295854837e-12
    11    3.935989418254e-13
    12   -1.972534508394e-12
    13   -6.458689372060e-02
    14   -1.790757433698e-11
    15   -4.949652032541e-12
    16   -4.439713226781e-12
    17    1.145065722074e-02
    18   -2.897899705724e-14
    19   -2.136204878448e-02
    20   -9.377621903068e-06
    21   -9.520415154818e-14
    22    7.663774034647e-14
    23    3.883411908529e-15
    24   -1.138092053325e-13
    25    3.272916515675e-12
    26   -1.867021602656e-12
    27   -4.099217907071e-14
    28   -1.770162916139e-14
    29    1.399198385243e-02
    30    1.413700060614e-14
    31   -3.975896931874e-13
    32    1.846794191313e-14
    33   -6.410645141769e-13
    34    1.821299914263e-14
    35    1.157635798354e-14
    36   -3.007535737536e-03
    37   -4.501580261562e-15
    38    1.951333499887e-13
    39    1.623500124304e-13
    40    9.000331791385e-13
    41    9.190553575851e-15
    42    1.017463029984e-14
    43    1.113919191554e-02
    44    8.844925000895e-16
    45    6.851786607236e-15
    46   -2.785713594765e-14
    47   -3.044202714547e-14
    48   -1.737183288522e-01
    49    6.042704905576e-14
    50   -8.586973660515e-14
    51    4.175328393963e-14
    52   -2.956819219214e-01
    53   -1.914609432531e-12
    54   -1.228263676379e-12
    55    1.564986659873e-12
    56   -5.330235523246e-01
    57    7.338057191511e-12
    58   -7.515067332345e-13
    59   -5.058541087815e-12
    60   -1.984125943007e-01
    61    3.133420591316e-14
    62   -3.658219662992e-02
    63   -2.224080007515e-02
    64    3.480384173972e-14
    65   -6.266811727006e-14
    66    9.127699041330e-15
    67    1.774246313089e-14
    68    2.620320347056e-14
    69    3.142770550212e-14
    70    4.556811370260e-02
    71   -9.888706386208e-14
    72    8.134171472048e-14
    73    1.247426953934e-13
    74    6.101976031644e-02
    75   -2.639497743234e-13
    76   -3.431630965600e-13
    77   -3.374896790705e-13
    78    1.295732473491e-01
    79   -1.182682935136e-12
    80   -3.131651653354e-13
    81    3.650684323413e-13
    82    1.067490773975e-01
    83    1.930969513833e-16
    84   -1.084928008114e-02
    85    1.460438577848e-03
    86    4.274396886462e-15
    87    4.185186453550e-15
    88    3.293364171787e-15
    89   -1.080959864955e-15
    90    1.098498519035e-14
    91   -8.941438723367e-15
    92    8.599046090614e-02
    93    1.156399560607e-13
    94    1.127374127892e-13
    95   -4.822789086909e-14
    96    1.478264096120e-01
    97   -1.882009129313e-12
    98    1.971975246176e-12
    99    1.131956485272e-12
   100    2.305361071541e-01
   101    1.157548625765e-11
   102   -7.782912549459e-13
   103   -2.852297367238e-12
   104    1.815666267412e-01
   105   -5.510835252956e-14
   106   -4.273099222589e-02
   107    5.734277989038e-02
   108    2.539788898743e-14
   109    5.683591747599e-14
   110    4.920485789667e-15
   111    9.226792143423e-15
   112   -2.153059947711e-14
   113    1.391464585263e-14
   114    4.329930915399e-02
   115   -7.687306784559e-14
   116   -6.799451222172e-14
   117    1.611588140266e-14
   118    6.660737054790e-02
   119   -2.770164422609e-13
   120    3.728050943696e-13
   121    2.091314476340e-13
   122    6.257765647046e-02
   123   -1.258925587794e-12
   124   -5.454773222026e-14
   125    2.700791497050e-13
   126    6.701507089568e-02
   127   -7.139153214659e-15
   128   -1.095431332213e-02
   129   -1.122685029182e-03
   130   -3.019430952103e-15
   131   -8.902830679372e-15
   132    7.736317318187e-15
   133    2.269722778977e-14
   134    1.690407854524e-14
   135   -1.895790200813e-14
   136    8.227328037893e-02
   137   -2.943280616292e-13
   138   -2.460111883530e-14
   139    1.462570670071e-14
   140    1.268011765239e-01
   141    1.839351195036e-12
   142    4.320725026033e-13
   143   -1.280256324077e-12
   144    2.168279959622e-01
   145   -1.124848156597e-12
   146   -1.291829893711e-12
   147    1.179342507121e-12
   148    1.169287006023e-01
   149   -4.901029185313e-15
   150    4.466625881047e-02
   151    5.476716261079e-04
   152   -2.754378800301e-14
   153   -6.875057163124e-16
   154    3.108992375705e-14
   155    7.129551420667e-14
   156    1.968046682017e-14
   157   -2.026473718552e-14
   158    1.025313137742e-01
   159   -6.641889227759e-13
   160   -5.024255993761e-14
   161   -9.202251136834e-14
   162    1.556091900600e-01
   163    2.974509953755e-12
   164    1.319780583338e-12
   165    5.573483472637e-13
   166    2.581497820635e-01
   167   -1.014596464605e-12
   168    5.293657985188e-12
   169   -3.759831111734e-13
   170    2.245104549872e-01
   171   -6.887532073595e-15
   172   -5.732330321387e-03
   173   -1.386994815828e-02
   174    1.317363077246e-14
   175    1.693850945946e-14
   176   -8.549610850465e-15
   177   -1.634408546254e-14
   178    3.181440845370e-14
   179   -3.582537626239e-14
   180   -1.263792457044e-01
   181   -1.106713838288e-13
   182    3.711347643365e-14
   183   -6.764807386989e-14
   184   -1.998152963928e-01
   185    3.283104136659e-12
   186   -9.804504848033e-13
   187    1.101057145557e-12
   188   -3.303632708288e-01
   189    1.062039997561e-12
   190   -1.993919087445e-12
   191   -4.183873437484e-12
   192   -2.088652647156e-01
   193   -1.118005303718e-13
   194   -3.349004371557e-03
   195    1.042809035158e-02
   196    6.025226353903e-14
   197   -8.506030666749e-14
   198    2.984280660096e-14
   199   -6.520487857801e-14
   200    3.060102174143e-13
   201    8.881031148655e-13
   202   -6.853346017497e-16
   203   -1.250443001256e-14
   204   -1.088214057269e-02
Sym=X
Ene= -0.410475
Spin=Alpha
Occup=1
     1    2.199572087189e-16
     2   -8.356466781796e-16
     3   -2.156113312173e-16
     4   -4.187410825381e-15
     5    2.750960570347e-03
     6    1.403609070076e-14
     7    1.543620617142e-14
     8    1.761454813709e-14
     9    8.144117606550e-03
    10   -3.340020633155e-13
    11    1.146707187029e-14
    12   -4.939380614550e-13
    13   -4.020903328996e-03
    14   -1.045055716822e-11
    15   -8.404412366224e-13
    16   -3.849806275019e-12
    17    1.777750474053e-03
    18   -2.739818280969e-15
    19    2.246301226094e-03
    20   -1.789617415778e-03
    21   -1.829945785291e-15
    22    8.744483057426e-15
    23   -7.952708016483e-15
    24    9.550367405275e-14
    25   -2.462518931726e-13
    26    1.232908314609e-13
    27    2.617795013652e-15
    28    1.599104098855e-15
    29    1.707513175299e-03
    30   -9.461832764680e-16
    31   -5.028223018090e-14
    32   -4.414784846778e-13
    33   -1.192738411396e-12
    34   -8.827854152413e-16
    35   -5.411738891341e-15
    36    5.000582361826e-04
    37   -7.458811292799e-15
    38    8.380964712572e-14
    39   -2.051971689920e-13
    40   -3.245600632497e-13
    41   -4.667714255305e-16
    42   -1.302445068405e-15
    43   -1.513765328469e-02
    44    1.438337917141e-16
    45    3.689121788710e-15
    46   -2.825284795436e-15
    47    2.120380094464e-15
    48   -6.548780633486e-04
    49   -1.059613715455e-14
    50    8.692998934744e-15
    51   -6.860923710724e-15
    52    4.911917853848e-04
    53   -2.387358977779e-13
    54   -3.264350063152e-13
    55    3.707617642098e-13
    56    1.185322677124e-02
    57    4.120879536228e-12
    58    1.211480966364e-12
    59   -6.147835447253e-13
    60    1.861756779246e-03
    61    1.154561794159e-14
    62   -5.791702202662e-02
    63    3.561056882640e-03
    64    5.549473292404e-15
    65   -5.316533542056e-16
    66    2.607135218858e-16
    67    1.429650157065e-15
    68   -1.699833629778e-15
    69   -5.477834889021e-15
    70    1.370230773175e-01
    71   -1.222222895874e-14
    72    4.389382954843e-15
    73    2.301156248594e-15
    74    2.122435610199e-01
    75   -2.294792865033e-14
    76   -3.040148796799e-14
    77   -5.894033298935e-14
    78    2.162992658460e-01
    79   -7.415297449259e-13
    80   -3.567460846355e-13
    81    2.061841000009e-13
    82    4.877364052761e-02
    83   -2.100757471012e-15
    84    8.283306038038e-03
    85   -5.664854597730e-03
    86    2.060310099356e-15
    87   -2.933717432416e-15
    88    1.760030811502e-15
    89   -4.321807023453e-15
    90   -4.129884059177e-15
    91   -1.298805929432e-15
    92    5.045835313722e-02
    93    4.332122820149e-14
    94    4.978737123110e-14
    95   -8.191068028338e-15
    96    8.952748737008e-02
    97   -5.391933723962e-13
    98    1.409739769981e-13
    99    1.709696166242e-13
   100    9.861426119136e-02
   101   -1.558663033083e-11
   102    1.784869186152e-12
   103    3.469296293353e-12
   104    8.661625252087e-03
   105   -7.984496363997e-15
   106    4.231257239749e-02
   107    2.535928025647e-03
   108    2.514737767261e-15
   109    4.184509502706e-15
   110   -1.522302882410e-16
   111   -3.589570012257e-16
   112   -7.605650453927e-15
   113    6.538227996241e-15
   114    1.332607262387e-01
   115    9.595912697599e-15
   116   -6.036212706742e-15
   117    2.105677222170e-15
   118    2.089064206470e-01
   119   -1.058545630253e-13
   120    2.517929420546e-14
   121    5.968918293607e-14
   122    2.020799430400e-01
   123    5.014910691464e-13
   124   -1.967444948556e-13
   125   -2.869575217202e-13
   126    4.493753988224e-02
   127    6.011984702274e-16
   128   -9.959394834935e-03
   129   -6.944339844380e-03
   130   -5.559582113739e-16
   131   -3.617910645492e-15
   132   -7.958740214198e-16
   133    1.752987172649e-15
   134   -3.204604254816e-15
   135   -1.580735417723e-16
   136   -1.940535299323e-01
   137   -3.239555333866e-14
   138    7.212952195486e-15
   139    2.142083702744e-15
   140   -3.120392151756e-01
   141    2.641791605554e-13
   142   -2.498252689583e-14
   143   -1.970093128291e-13
   144   -3.526715964437e-01
   145    3.399981685882e-13
   146    1.397738213558e-13
   147    7.064884906597e-14
   148   -5.492913685935e-02
   149   -7.723842796090e-17
   150    8.062308693001e-03
   151    2.487369025747e-03
   152    1.502407016438e-15
   153    1.159622710847e-15
   154    3.694508506491e-16
   155    7.398770705852e-15
   156    2.156264780757e-15
   157   -1.191011596312e-15
   158   -2.340892332082e-03
   159   -6.411890343633e-14
   160    2.463139616787e-15
   161   -1.495487026625e-14
   162   -2.959778150007e-03
   163    4.435761778556e-13
   164    2.053118056682e-13
   165    1.591792882465e-13
   166   -8.938468151889e-03
   167    1.810709841554e-12
   168    1.125995667041e-14
   169   -2.290288399542e-13
   170    1.158087833646e-03
   171    8.840214194569e-16
   172   -2.385866381839e-03
   173   -2.194217444633e-04
   174   -2.547599641256e-15
   175   -1.328920057436e-15
   176    6.080804937829e-16
   177   -3.873172039267e-15
   178    7.932215669946e-16
   179    2.409312262797e-15
   180    1.376795524386e-02
   181    2.532165514719e-14
   182    1.548735415560e-14
   183    9.355688645642e-17
   184    2.625973360887e-02
   185    1.479822555718e-13
   186   -3.372634515668e-13
   187    2.935947875381e-13
   188    7.415763785643e-03
   189    2.024746760392e-11
   190   -3.908070689325e-12
   191    4.373626764403e-12
   192   -3.604439989095e-05
   193    2.179140334083e-15
   194    3.490833513811e-03
   195    6.672359814745e-03
   196   -1.005108721632e-15
   197    2.092521570342e-15
   198   -5.345170746427e-15
   199    6.631838061352e-14
   200    3.401728781354e-13
   201    1.974481944100e-12
   202   -1.844194258802e-14
   203    9.035610644366e-15
   204    2.314779228052e-03
Sym=X
Ene= 0.410475
Spin=Alpha
Occup=0
     1   -2.648999517224e-16
     2    1.388151241376e-16
     3   -1.880936767744e-16
     4    2.023105017060e-15
     5    1.061694035561e-01
     6   -1.683274183752e-15
     7   -1.177027909914e-14
     8    1.128543240386e-14
     9    1.827790850024e-01
    10    1.076571121648e-13
    11    5.656623307873e-14
    12    2.555338235888e-14
    13    2.293167225857e-01
    14   -1.462359849270e-12
    15   -2.647853947815e-13
    16   -4.933371235641e-13
    17    4.972908425166e-02
    18   -3.052483163529e-15
    19    3.064951829316e-02
    20   -3.818930797567e-03
    21   -6.035598206116e-15
    22    9.851712760634e-16
    23    8.619366886524e-15
    24   -3.299309883456e-14
    25    2.326051130447e-13
    26    2.033873521607e-13
    27   -1.217724985629e-14
    28   -4.182479858455e-15
    29   -1.600545056701e-02
    30    4.224249894730e-15
    31   -7.915373528075e-15
    32    7.792568872729e-14
    33   -1.827825236620e-13
    34   -2.541896284314e-15
    35   -6.138171399396e-15
    36    8.771691010633e-03
    37   -5.557026547873e-15
    38    3.278685885891e-14
    39   -1.531242995958e-13
    40    3.967211151185e-14
    41   -3.276311417204e-15
    42   -1.277772068248e-15
    43    7.282937981296e-04
    44    8.578058110866e-16
    45   -1.169287639550e-15
    46    9.324835457036e-16
    47   -3.578344503054e-15
    48   -1.304430709433e-02
    49   -2.148422219508e-15
    50    3.058960292892e-15
    51   -1.802193592579e-15
    52   -2.938730054264e-02
    53   -4.089687686718e-14
    54    1.421275882260e-14
    55   -4.796347347423e-14
    56    1.421009921010e-02
    57    9.454672027210e-13
    58    2.162142924771e-13
    59   -3.260163466287e-13
    60    3.074801653234e-02
    61    2.657621628630e-15
    62   -1.265704546332e-02
    63    3.739015260285e-02
    64   -3.795916906075e-15
    65   -3.276232074848e-15
    66    4.559927687129e-16
    67    3.325662374384e-16
    68    1.256929190458e-15
    69    1.695967793030e-15
    70    7.906707581335e-02
    71   -5.223543036401e-16
    72    1.093225510876e-15
    73    3.248061142769e-15
    74    1.187202708431e-01
    75   -1.593250090529e-15
    76    1.535340174647e-14
    77   -1.866858158085e-15
    78    1.251996227871e-01
    79    1.497618474272e-13
    80    5.482449622915e-14
    81   -1.423755188118e-14
    82    3.118529843558e-02
    83   -2.595948550817e-15
    84    4.336076247039e-03
    85   -8.843853066947e-04
    86   -2.524454302156e-17
    87    3.133825868902e-15
    88    7.696555614633e-16
    89    2.801537887123e-15
    90    9.891872723328e-16
    91    3.689829507987e-15
    92    1.085655810572e-02
    93   -9.597614966125e-15
    94   -8.065642199989e-15
    95    1.147024106077e-15
    96    2.233843589031e-02
    97   -1.776975338094e-14
    98   -5.499527152661e-14
    99    6.176526959088e-14
   100    1.016167001052e-02
   101   -1.772724483921e-12
   102   -4.914763477705e-15
   103    2.850877238095e-13
   104   -3.355616347272e-02
   105   -1.567647289209e-15
   106   -2.186618472542e-02
   107   -3.825553885853e-02
   108    6.687298644067e-17
   109    2.159507942181e-16
   110   -1.331621263097e-15
   111   -8.373815440464e-16
   112    1.252144547997e-15
   113   -3.862322732335e-15
   114   -1.079623177534e-01
   115    1.171188694735e-15
   116    1.796175151583e-16
   117   -1.900824070401e-15
   118   -1.600482492272e-01
   119    3.054331774058e-14
   120   -5.944939979704e-15
   121   -2.900464005045e-14
   122   -1.725931157973e-01
   123    1.920935407653e-14
   124    5.346917238697e-14
   125    5.554097233293e-14
   126   -4.724009905951e-02
   127    3.194125412275e-15
   128    5.339623432536e-03
   129    1.807795449820e-03
   130    2.779508806306e-16
   131    3.885025819731e-15
   132    2.352704083456e-16
   133   -7.911411809519e-16
   134    1.271900696828e-15
   135    2.091517611073e-15
   136    5.611812244655e-03
   137    1.000041064841e-15
   138    7.682772283037e-15
   139   -2.354250289566e-15
   140    9.380729889050e-03
   141   -1.143645717916e-14
   142   -3.486629127268e-14
   143    1.154086809312e-14
   144    5.147806779143e-03
   145   -4.076273186587e-14
   146    1.444063460438e-13
   147    1.090770024459e-13
   148    3.373878364181e-03
   149   -2.761250061266e-15
   150   -1.562081594408e-03
   151   -4.131526107890e-04
   152    1.922971290491e-15
   153    5.407709457122e-15
   154    1.183230553420e-15
   155    2.224731615060e-15
   156    5.717798964717e-15
   157    6.532861051721e-16
   158   -1.580078288915e-01
   159    1.594972351343e-15
   160    5.738890013945e-15
   161   -1.522239832672e-15
   162   -2.473379125938e-01
   163   -4.089202096523e-14
   164   -2.806688986184e-14
   165    6.069335102419e-15
   166   -3.216939502961e-01
   167   -3.580144707222e-13
   168    3.068415038374e-13
   169   -7.887998028492e-14
   170   -1.241337197341e-01
   171   -5.241248410601e-15
   172    8.099851199206e-03
   173   -1.107578885976e-02
   174    4.566474786889e-15
   175    2.299106334515e-15
   176   -9.567793113773e-16
   177   -4.573077642044e-15
   178    3.658436752693e-15
   179    1.788492918114e-15
   180    1.374871266154e-01
   181    1.537809506404e-14
   182    3.981654623879e-15
   183   -5.367801689136e-15
   184    2.222217041196e-01
   185   -1.751486643876e-14
   186    9.165237324499e-14
   187    6.535239191594e-14
   188    2.325490313819e-01
   189    2.728588978398e-12
   190    4.832229798067e-14
   191    3.543588351852e-13
   192    4.873065030967e-02
   193    2.486228443429e-15
   194   -8.091313940520e-03
   195    5.387521804999e-03
   196    6.828524648001e-17
   197    3.788364010988e-15
   198    3.472292059190e-15
   199   -6.901691739096e-15
   200   -4.253456394167e-14
   201   -3.767059754171e-13
   202   -3.055175636024e-15
   203    9.313293490549e-16
   204    1.151680645620e-02
Sym=X
Ene= 0.010422
Spin=Alpha
Occup=0
     1   -3.319657251456e-15
     2   -3.924076221567e-15
     3   -1.000632563510e-14
     4    4.333819032461e-15
     5    1.621870553491e-01
     6    1.095605021297e-14
     7   -4.755849858342e-14
     8    3.017140355570e-15
     9    2.665653162443e-01
    10    1.339597642121e-13
    11   -1.247992047587e-13
    12    3.030209365436e-13
    13    4.356059794356e-01
    14    1.379365894066e-11
    15   -2.866560749844e-14
    16    3.755542837840e-12
    17    3.373136679144e-01
    18    7.964840766906e-15
    19   -7.742224587690e-04
    20   -7.096956736056e-03
    21    4.909760444396e-15
    22   -1.448371779339e-14
    23    1.201826980810e-14
    24   -7.299869313427e-14
    25    6.768764976589e-13
    26    1.867879249077e-12
    27   -9.115671670925e-15
    28   -5.429515393961e-15
    29   -7.707821205230e-03
    30   -6.064534281318e-15
    31    8.141970071111e-14
    32    8.914470178992e-15
    33   -4.189037702365e-13
    34   -6.905865800914e-15
    35    1.570432123033e-14
    36    1.766914492811e-02
    37    3.803138082845e-15
    38   -1.336212800295e-14
    39   -2.029782136950e-13
    40    4.323515251564e-13
    41    2.476475824681e-15
    42   -4.849706568736e-15
    43    1.571078895957e-02
    44   -4.394227092887e-15
    45   -1.308940597001e-14
    46    1.097967867643e-14
    47   -3.375557858657e-15
    48   -1.170346715453e-02
    49    4.058599833794e-14
    50   -1.721779487200e-14
    51   -7.363388466799e-15
    52   -1.511446071168e-02
    53    3.541343739495e-13
    54    3.426706380181e-13
    55   -3.474838702133e-13
    56   -6.183976244025e-02
    57   -5.411685274176e-12
    58   -1.086339171573e-12
    59    7.446574535729e-13
    60   -3.901584837022e-02
    61   -1.631130270896e-14
    62    2.358109563732e-02
    63    1.307465059577e-02
    64   -5.189280529303e-15
    65   -1.694670412980e-15
    66    5.760666916630e-17
    67   -1.310671533930e-16
    68    2.195524081114e-15
    69    7.815607081010e-15
    70   -2.876382479698e-02
    71    1.845161651156e-14
    72   -1.253122439304e-14
    73    2.175182959655e-15
    74   -4.018322811201e-02
    75   -6.087530533706e-14
    76    3.098532489703e-14
    77    7.922640208258e-14
    78   -3.960820389247e-02
    79    1.116327035279e-12
    80    4.843788962977e-13
    81   -1.907358674575e-13
    82    6.475107665389e-03
    83    4.551038850646e-15
    84   -2.072280454605e-03
    85    2.580258942711e-03
    86   -4.434684088474e-15
    87    5.477024640661e-16
    88   -1.446498745764e-15
    89    7.989056720091e-15
    90    6.505028047484e-15
    91    2.304975348833e-15
    92   -1.514461372466e-01
    93   -6.444897977342e-14
    94   -7.351622916551e-14
    95    1.843962281756e-14
    96   -2.512106481371e-01
    97    6.451699426249e-13
    98    3.796391880545e-14
    99   -1.495936855549e-13
   100   -3.794815100374e-01
   101    2.983087294479e-11
   102   -2.498228608523e-12
   103   -7.618351428758e-12
   104   -1.646492450752e-02
   105    1.471378231240e-14
   106    7.912578564560e-03
   107    3.564626539068e-02
   108   -1.017746269729e-14
   109   -1.107177209539e-14
   110   -9.363781335532e-16
   111    8.066148908162e-16
   112    1.278096869924e-14
   113   -9.415187791240e-15
   114    8.210904586579e-02
   115   -7.806626858359e-15
   116    7.795516047699e-15
   117    3.263913516742e-15
   118    1.299076774215e-01
   119    7.692101798777e-14
   120   -2.102477025671e-14
   121   -8.707078864716e-14
   122    1.610342368889e-01
   123   -1.256118793844e-12
   124    4.572194685193e-13
   125    5.345697174854e-13
   126    9.483473830144e-02
   127   -2.418132009791e-15
   128    2.321241227038e-03
   129    5.393824479202e-03
   130    1.956553878415e-15
   131    1.547626287342e-15
   132    2.705330074286e-15
   133    2.236389776364e-15
   134    7.053354145470e-15
   135   -5.466292492801e-15
   136    1.045659757277e-01
   137    2.427422921673e-14
   138   -1.078306638654e-14
   139   -1.563081006107e-14
   140    1.592666953651e-01
   141   -2.685429361036e-13
   142    5.661666886575e-14
   143    1.753537985509e-13
   144    2.471965681078e-01