[Molden Format]
[Atoms] (Angs)
  C      1    6     -0.13173890     -1.79208980      0.00000000
  H      2    1     -2.14962000     -1.30978739      0.00000000
  H      3    1     -0.31599560     -2.86503115      0.00000000
  H      4    1      0.14407746      2.04280963     -0.00000000
  C      5    6     -1.17258876      0.48030861      0.00000000
  O      6    8     -2.25008207      1.06833796      0.00000000
  C      7    6      1.31158357      0.28308717     -0.00000000
  O      8    8      2.36361668      0.96389345     -0.00000000
  N      9    7      0.07017030      1.03138997     -0.00000000
  N     10    7     -1.19586868     -0.94982644      0.00000000
  C     11    6      1.19165158     -1.13169473     -0.00000000
  H     12    1      2.09970506     -1.73445456     -0.00000000
[GTO]
1    0
S    6    1.000000
   4.56324000E+03    1.96665000E-03 
   6.82024000E+02    1.52306000E-02 
   1.54973000E+02    7.61269000E-02 
   4.44553000E+01    2.60801000E-01 
   1.30290000E+01    6.16462000E-01 
   1.82773000E+00    2.21006000E-01 
SP   3    1.000000
   2.09642000E+01    1.14660000E-01   4.02487000E-02 
   4.80331000E+00    9.19999000E-01   2.37594000E-01 
   1.45933000E+00   -3.03068000E-03   8.15854000E-01 
SP   1    1.000000
   4.83456000E-01    1.00000000E+00   1.00000000E+00 
SP   1    1.000000
   1.45585000E-01    1.00000000E+00   1.00000000E+00 
SP   1    1.000000
   4.38000000E-02    1.00000000E+00   1.00000000E+00 
D    1    1.000000
   6.26000000E-01    1.00000000E+00 

2    0
S    3    1.000000
   3.38650000E+01    2.54938000E-02 
   5.09479000E+00    1.90373000E-01 
   1.15879000E+00    8.52161000E-01 
S    1    1.000000
   3.25840000E-01    1.00000000E+00 
S    1    1.000000
   1.02741000E-01    1.00000000E+00 
S    1    1.000000
   3.60000000E-02    1.00000000E+00 
P    1    1.000000
   7.50000000E-01    1.00000000E+00 

3    0
S    3    1.000000
   3.38650000E+01    2.54938000E-02 
   5.09479000E+00    1.90373000E-01 
   1.15879000E+00    8.52161000E-01 
S    1    1.000000
   3.25840000E-01    1.00000000E+00 
S    1    1.000000
   1.02741000E-01    1.00000000E+00 
S    1    1.000000
   3.60000000E-02    1.00000000E+00 
P    1    1.000000
   7.50000000E-01    1.00000000E+00 

4    0
S    3    1.000000
   3.38650000E+01    2.54938000E-02 
   5.09479000E+00    1.90373000E-01 
   1.15879000E+00    8.52161000E-01 
S    1    1.000000
   3.25840000E-01    1.00000000E+00 
S    1    1.000000
   1.02741000E-01    1.00000000E+00 
S    1    1.000000
   3.60000000E-02    1.00000000E+00 
P    1    1.000000
   7.50000000E-01    1.00000000E+00 

5    0
S    6    1.000000
   4.56324000E+03    1.96665000E-03 
   6.82024000E+02    1.52306000E-02 
   1.54973000E+02    7.61269000E-02 
   4.44553000E+01    2.60801000E-01 
   1.30290000E+01    6.16462000E-01 
   1.82773000E+00    2.21006000E-01 
SP   3    1.000000
   2.09642000E+01    1.14660000E-01   4.02487000E-02 
   4.80331000E+00    9.19999000E-01   2.37594000E-01 
   1.45933000E+00   -3.03068000E-03   8.15854000E-01 
SP   1    1.000000
   4.83456000E-01    1.00000000E+00   1.00000000E+00 
SP   1    1.000000
   1.45585000E-01    1.00000000E+00   1.00000000E+00 
SP   1    1.000000
   4.38000000E-02    1.00000000E+00   1.00000000E+00 
D    1    1.000000
   6.26000000E-01    1.00000000E+00 

6    0
S    6    1.000000
   8.58850000E+03    1.89515000E-03 
   1.29723000E+03    1.43859000E-02 
   2.99296000E+02    7.07320000E-02 
   8.73771000E+01    2.40001000E-01 
   2.56789000E+01    5.94797000E-01 
   3.74004000E+00    2.80802000E-01 
SP   3    1.000000
   4.21175000E+01    1.13889000E-01   3.65114000E-02 
   9.62837000E+00    9.20811000E-01   2.37153000E-01 
   2.85332000E+00   -3.27447000E-03   8.19702000E-01 
SP   1    1.000000
   9.05661000E-01    1.00000000E+00   1.00000000E+00 
SP   1    1.000000
   2.55611000E-01    1.00000000E+00   1.00000000E+00 
SP   1    1.000000
   8.45000000E-02    1.00000000E+00   1.00000000E+00 
D    1    1.000000
   1.29200000E+00    1.00000000E+00 

7    0
S    6    1.000000
   4.56324000E+03    1.96665000E-03 
   6.82024000E+02    1.52306000E-02 
   1.54973000E+02    7.61269000E-02 
   4.44553000E+01    2.60801000E-01 
   1.30290000E+01    6.16462000E-01 
   1.82773000E+00    2.21006000E-01 
SP   3    1.000000
   2.09642000E+01    1.14660000E-01   4.02487000E-02 
   4.80331000E+00    9.19999000E-01   2.37594000E-01 
   1.45933000E+00   -3.03068000E-03   8.15854000E-01 
SP   1    1.000000
   4.83456000E-01    1.00000000E+00   1.00000000E+00 
SP   1    1.000000
   1.45585000E-01    1.00000000E+00   1.00000000E+00 
SP   1    1.000000
   4.38000000E-02    1.00000000E+00   1.00000000E+00 
D    1    1.000000
   6.26000000E-01    1.00000000E+00 

8    0
S    6    1.000000
   8.58850000E+03    1.89515000E-03 
   1.29723000E+03    1.43859000E-02 
   2.99296000E+02    7.07320000E-02 
   8.73771000E+01    2.40001000E-01 
   2.56789000E+01    5.94797000E-01 
   3.74004000E+00    2.80802000E-01 
SP   3    1.000000
   4.21175000E+01    1.13889000E-01   3.65114000E-02 
   9.62837000E+00    9.20811000E-01   2.37153000E-01 
   2.85332000E+00   -3.27447000E-03   8.19702000E-01 
SP   1    1.000000
   9.05661000E-01    1.00000000E+00   1.00000000E+00 
SP   1    1.000000
   2.55611000E-01    1.00000000E+00   1.00000000E+00 
SP   1    1.000000
   8.45000000E-02    1.00000000E+00   1.00000000E+00 
D    1    1.000000
   1.29200000E+00    1.00000000E+00 

9    0
S    6    1.000000
   6.29348000E+03    1.96979000E-03 
   9.49044000E+02    1.49613000E-02 
   2.18776000E+02    7.35006000E-02 
   6.36916000E+01    2.48937000E-01 
   1.88282000E+01    6.02460000E-01 
   2.72023000E+00    2.56202000E-01 
SP   3    1.000000
   3.06331000E+01    1.11906000E-01   3.83119000E-02 
   7.02614000E+00    9.21666000E-01   2.37403000E-01 
   2.11205000E+00   -2.56919000E-03   8.17592000E-01 
SP   1    1.000000
   6.84009000E-01    1.00000000E+00   1.00000000E+00 
SP   1    1.000000
   2.00878000E-01    1.00000000E+00   1.00000000E+00 
SP   1    1.000000
   6.39000000E-02    1.00000000E+00   1.00000000E+00 
D    1    1.000000
   9.13000000E-01    1.00000000E+00 

10    0
S    6    1.000000
   6.29348000E+03    1.96979000E-03 
   9.49044000E+02    1.49613000E-02 
   2.18776000E+02    7.35006000E-02 
   6.36916000E+01    2.48937000E-01 
   1.88282000E+01    6.02460000E-01 
   2.72023000E+00    2.56202000E-01 
SP   3    1.000000
   3.06331000E+01    1.11906000E-01   3.83119000E-02 
   7.02614000E+00    9.21666000E-01   2.37403000E-01 
   2.11205000E+00   -2.56919000E-03   8.17592000E-01 
SP   1    1.000000
   6.84009000E-01    1.00000000E+00   1.00000000E+00 
SP   1    1.000000
   2.00878000E-01    1.00000000E+00   1.00000000E+00 
SP   1    1.000000
   6.39000000E-02    1.00000000E+00   1.00000000E+00 
D    1    1.000000
   9.13000000E-01    1.00000000E+00 

11    0
S    6    1.000000
   4.56324000E+03    1.96665000E-03 
   6.82024000E+02    1.52306000E-02 
   1.54973000E+02    7.61269000E-02 
   4.44553000E+01    2.60801000E-01 
   1.30290000E+01    6.16462000E-01 
   1.82773000E+00    2.21006000E-01 
SP   3    1.000000
   2.09642000E+01    1.14660000E-01   4.02487000E-02 
   4.80331000E+00    9.19999000E-01   2.37594000E-01 
   1.45933000E+00   -3.03068000E-03   8.15854000E-01 
SP   1    1.000000
   4.83456000E-01    1.00000000E+00   1.00000000E+00 
SP   1    1.000000
   1.45585000E-01    1.00000000E+00   1.00000000E+00 
SP   1    1.000000
   4.38000000E-02    1.00000000E+00   1.00000000E+00 
D    1    1.000000
   6.26000000E-01    1.00000000E+00 

12    0
S    3    1.000000
   3.38650000E+01    2.54938000E-02 
   5.09479000E+00    1.90373000E-01 
   1.15879000E+00    8.52161000E-01 
S    1    1.000000
   3.25840000E-01    1.00000000E+00 
S    1    1.000000
   1.02741000E-01    1.00000000E+00 
S    1    1.000000
   3.60000000E-02    1.00000000E+00 
P    1    1.000000
   7.50000000E-01    1.00000000E+00 

[MO]
Sym=X
Ene= -0.003298
Spin=Alpha
Occup=1
     1    4.020042056521e-06
     2    6.553838977768e-06
     3    1.803472633765e-05
     4   -1.417058638529e-05
     5   -1.150459930970e-16
     6   -1.810377828861e-05
     7    1.372881122276e-05
     8    4.369609673679e-06
     9    1.283188105665e-15
    10    1.162915413172e-04
    11    4.882686594280e-05
    12   -6.348797744894e-05
    13   -1.755685566193e-15
    14   -7.968559248002e-04
    15   -4.381160163430e-04
    16   -3.944480324093e-04
    17   -6.019727807487e-15
    18   -1.301271833111e-06
    19   -8.604611983686e-17
    20   -1.035091955704e-15
    21   -3.659222906126e-06
    22   -7.574272042990e-06
    23   -9.426838650797e-06
    24   -5.336656391959e-05
    25   -2.989364937371e-04
    26   -4.601434759569e-04
    27   -5.376020426415e-06
    28    8.978106261426e-06
    29   -7.658843160531e-16
    30    6.258586817698e-06
    31   -1.288335418325e-05
    32   -3.089051596174e-05
    33   -1.671989945703e-04
    34    3.019437016853e-06
    35   -2.878173809989e-06
    36   -9.943357033251e-16
    37   -5.977982537736e-06
    38   -6.685548633493e-05
    39   -9.497763679072e-05
    40   -3.035218155313e-04
    41   -1.107095204072e-05
    42    7.208111372280e-06
    43    2.198341282248e-16
    44    1.155977343037e-07
    45    8.437222206021e-05
    46    6.162470967622e-05
    47   -2.957235158846e-06
    48   -1.249296570121e-15
    49   -3.159466131098e-04
    50    3.823542818574e-04
    51   -1.468609846856e-04
    52    1.482900464377e-15
    53    4.198383920888e-05
    54    5.172398688959e-04
    55   -5.321637902860e-06
    56   -3.470659362917e-15
    57   -1.493441666723e-04
    58   -4.859218286786e-04
    59    4.460316955920e-04
    60    3.213718974168e-15
    61    5.576049317676e-05
    62   -1.216901755906e-15
    63    1.153149574850e-16
    64   -1.129928276976e-04
    65    1.764430156399e-04
    66   -5.514923832102e-01
    67   -4.716858530225e-01
    68   -1.630125961164e-03
    69    8.308293480492e-04
    70    1.113529248447e-15
    71   -5.469913933214e-03
    72    6.270827012538e-04
    73   -4.214605732706e-04
    74   -9.276478275267e-16
    75    1.291578323498e-03
    76   -2.047108263476e-04
    77    2.259480792300e-05
    78    1.719873212123e-16
    79   -1.525231965718e-03
    80   -5.720496172636e-05
    81    1.064198289190e-04
    82   -9.633770802082e-16
    83    8.086363728150e-05
    84   -3.873404984363e-16
    85    5.904871934904e-16
    86    6.110735785629e-05
    87   -7.126311315817e-05
    88   -5.994462076072e-06
    89   -1.154822381055e-05
    90   -3.375947811472e-06
    91   -1.055686238456e-05
    92   -5.214356860681e-16
    93    3.192773468801e-05
    94   -2.886667630451e-05
    95   -4.072891145001e-06
    96    1.911304887832e-15
    97    3.329720977653e-04
    98   -1.109317799059e-04
    99   -1.849261237510e-05
   100   -3.349497404875e-16
   101   -9.506812495951e-04
   102    2.737773696425e-05
   103    6.260968585517e-04
   104   -1.072971448793e-14
   105   -1.633837826239e-06
   106    1.282099097991e-15
   107    1.718150656954e-16
   108    1.105259646525e-05
   109   -3.635344362187e-06
   110   -6.569395744480e-07
   111    5.529669323623e-07
   112   -2.066935492266e-06
   113    1.041788732781e-05
   114   -1.100533673199e-15
   115   -5.765817271885e-06
   116   -3.352965427760e-06
   117    1.427082631225e-05
   118    2.951711161813e-15
   119   -5.209235444496e-05
   120    1.299882477081e-05
   121    2.108307011266e-05
   122   -4.937319250538e-15
   123    1.562604548106e-04
   124   -8.194555864108e-05
   125   -7.577304251650e-05
   126    4.209703183625e-15
   127    1.172593288255e-07
   128    2.748769917913e-16
   129    3.983013842433e-16
   130   -1.975306306610e-06
   131   -5.379649037892e-07
   132    2.281551023645e-06
   133    2.550901796480e-06
   134   -1.523377766119e-05
   135    2.828374623643e-06
   136   -6.298502438833e-16
   137    1.883973866154e-05
   138    2.917086615325e-05
   139   -8.251286949626e-06
   140    1.873972039552e-15
   141   -4.097908965482e-04
   142    1.309061941261e-05
   143    2.638704344078e-04
   144   -4.869572193933e-16
   145   -2.027879969655e-04
   146   -4.529969095453e-04
   147    1.518829460371e-04
   148    2.764732576669e-15
   149    6.640971060416e-06
   150   -6.077022739604e-16
   151   -7.123861311317e-16
   152   -2.359038735559e-05
   153   -8.741170660765e-06
   154   -1.492497257659e-05
   155   -2.611492703066e-05
   156   -1.319931977420e-05
   157    1.908209797324e-05
   158   -1.759033616780e-16
   159    9.789895937447e-05
   160   -1.383097869259e-05
   161   -1.263948431980e-05
   162   -1.135346379402e-15
   163    1.289903653858e-04
   164   -1.886232344675e-04
   165    8.610117298709e-07
   166    2.834244592810e-15
   167    7.240560604667e-04
   168   -2.828653886643e-04
   169    3.726569939660e-04
   170    2.352395219488e-15
   171    1.192425188964e-05
   172    5.554724872802e-16
   173    8.295577219678e-16
   174    2.495319453990e-05
   175    1.109930281375e-05
   176    5.242673086332e-06
   177    1.012441437360e-05
   178   -6.095930590503e-06
   179   -7.333105167463e-06
   180    9.969467639539e-16
   181   -3.823541247387e-05
   182    4.780932863065e-07
   183   -1.998639880031e-05
   184   -1.991969415175e-16
   185   -1.499951811567e-04
   186   -3.393485763096e-05
   187   -2.019181112539e-05
   188   -2.376826511464e-16
   189    2.738044186117e-03
   190   -6.056616568786e-04
   191    4.815750800076e-04
   192    9.321432672225e-15
   193   -6.454469558447e-06
   194   -3.392232925812e-16
   195    3.163093607636e-16
   196   -6.787629579093e-06
   197    3.705685263551e-06
   198   -4.140671126846e-06
   199    2.185344269335e-06
   200    4.670760821564e-05
   201    4.307361092377e-04
   202    6.059470921747e-07
   203   -1.669482285331e-06
   204   -5.835683826584e-16
Sym=X
Ene= 0.003298
Spin=Alpha
Occup=0
     1   -7.348445461961e-03
     2   -1.284296426870e-02
     3   -2.278211463727e-02
     4   -2.071941357064e-02
     5    5.594843399831e-14
     6    3.452531300151e-02
     7   -4.112196019822e-02
     8   -3.919032402124e-02
     9    9.037395215765e-14
    10    2.215662049103e-01
    11   -2.990626434080e-02
    12   -3.167328511132e-02
    13    1.729683442053e-13
    14    2.258604379261e+00
    15   -4.201527641445e-02
    16    1.584069220460e-01
    17   -3.271844869465e-14
    18    4.093846190971e-04
    19   -3.690206666389e-14
    20    1.057437772322e-15
    21    1.296228613515e-02
    22   -4.458459875594e-03
    23   -4.137985063896e-02
    24   -1.308070833560e-01
    25   -3.921151412264e-01
    26   -1.352499579965e+00
    27    5.035616362758e-03
    28    4.631806546320e-03
    29   -5.037482228157e-15
    30   -3.417209593909e-03
    31   -1.479713941901e-02
    32   -1.614866215846e-01
    33   -6.568866641321e-01
    34    3.070475719541e-03
    35    6.227133551664e-03
    36    7.486650194139e-15
    37    6.497503437792e-03
    38   -1.032359863824e-02
    39    2.963354231489e-01
    40    9.352947863596e-01
    41   -1.927242998834e-03
    42    7.802494480738e-03
    43    6.043505706371e-15
    44   -5.659885454526e-03
    45   -9.964661366915e-03
    46    2.419513211742e-03
    47   -1.649562326699e-02
    48   -1.002130900473e-14
    49    2.325961186199e-02
    50    8.551176806021e-03
    51   -2.467578459561e-02
    52    4.713561946981e-15
    53    1.242700372863e-01
    54   -1.054371149442e-01
    55   -3.594314902153e-02
    56   -7.429827501215e-14
    57    6.160116332193e-01
    58   -4.797990650288e-01
    59    1.449274369416e-01
    60    3.963970636822e-13
    61    5.558719839139e-03
    62   -5.515033388027e-14
    63    2.819922598249e-14
    64    3.386593409963e-02
    65    2.757248690185e-02
    66    8.517725051194e-03
    67    1.491629735941e-02
    68   -1.268444217936e-01
    69   -1.867928827664e-01
    70    1.066271464159e-14
    71   -4.851232835487e-02
    72   -1.592164477229e-01
    73   -2.374663747248e-01
    74    1.117716159841e-14
    75   -6.521436538581e-02
    76   -1.491955587690e-01
    77   -1.772291075750e-01
    78   -1.515591078364e-14
    79   -5.044917216726e-01
    80   -2.937331034800e-02
    81   -6.773414936042e-04
    82   -6.819579671990e-14
    83    1.889607718883e-03
    84    3.741316836269e-15
    85   -7.961557953325e-15
    86   -1.273111527837e-02
    87   -5.994395930429e-03
    88   -3.779073020029e-03
    89   -6.524413589360e-03
    90    6.616013225473e-03
    91   -2.116241142872e-02
    92   -2.617489089857e-14
    93    1.830750992925e-02
    94    4.433948800139e-03
    95   -3.831635125944e-02
    96   -4.097688232028e-14
    97    6.365167373574e-02
    98   -2.800405614879e-02
    99   -1.512521154348e-02
   100   -9.074024094935e-14
   101    3.155246146638e+00
   102   -2.345083711854e-01
   103   -1.142322722347e+00
   104   -5.412529610887e-13
   105    3.992551260589e-03
   106   -5.629166880198e-14
   107    1.108860363893e-14
   108   -8.978949241401e-03
   109    8.977927591864e-03
   110    2.199595373095e-03
   111    3.815106927286e-03
   112   -2.049562078641e-02
   113    2.741149152926e-02
   114    3.564086546953e-15
   115   -1.276637971013e-02
   116   -2.998407566690e-02
   117    4.250648753119e-02
   118    7.059647013540e-16
   119    5.964655593253e-04
   120   -3.642708522730e-02
   121    3.544149561747e-02
   122    1.165064005256e-13
   123   -4.548467113579e-02
   124    1.900667491423e-02
   125    7.974546692970e-02
   126    1.275645081764e-13
   127   -5.442887037981e-05
   128    3.600815582427e-15
   129    6.136335150955e-15
   130    4.825671999975e-04
   131   -4.510115913367e-04
   132    3.404750336042e-03
   133    6.493606335988e-03
   134   -4.194170930951e-02
   135   -7.395324146674e-03
   136    1.799016336238e-14
   137   -2.520763395759e-02
   138   -5.527526767156e-02
   139   -9.154872152657e-03
   140    3.963682935391e-14
   141   -6.220186512212e-02
   142   -9.299504033176e-02
   143   -3.483867503647e-03
   144    4.237284913556e-14
   145   -3.877780469340e-01
   146    1.406993770878e-02
   147   -4.274466741059e-01
   148    1.071990060235e-13
   149    1.589147305474e-03
   150    1.906382608625e-14
   151    5.349027447425e-15
   152   -2.318475748735e-03
   153   -2.792143532488e-03
   154    1.467977009618e-03
   155    2.088649864561e-03
   156   -2.299796347418e-02
   157   -4.651154593288e-02
   158   -1.594728402221e-14
   159   -3.457451189174e-03
   160   -3.619512495641e-02
   161   -7.591549644050e-02
   162   -3.637465751706e-14
   163    6.785346217053e-02
   164   -1.129695683062e-01
   165   -9.596774455052e-02
   166   -3.273558021856e-14
   167   -2.798715281062e-01
   168   -3.803585277163e-01
   169   -2.309802913576e-02
   170   -2.472534572602e-13
   171    2.092418862274e-03
   172    4.453681512734e-15
   173   -1.728278765663e-14
   174   -1.194690064932e-02
   175   -3.461912719627e-03
   176   -1.364195245637e-03
   177   -1.951126322388e-03
   178    4.056186908880e-03
   179    1.472404554923e-02
   180   -3.887527526786e-14
   181    4.326253586814e-04
   182    8.330239221370e-03
   183    2.016541359829e-02
   184   -4.517879939942e-14
   185   -1.711724932674e-02
   186    3.214317162684e-02
   187   -1.957677042197e-02
   188   -9.704952579313e-14
   189   -4.018959288714e+00
   190    2.782832234911e-01
   191   -8.319746700771e-01
   192    3.444690275515e-13
   193    7.927101111711e-05
   194   -5.583072851460e-15
   195    3.895635658847e-15
   196   -7.578139611531e-03
   197    1.817371478314e-03
   198   -7.017268725277e-03
   199   -3.078971299727e-02
   200   -4.537064970385e-03
   201   -6.132931205630e-02
   202    1.026021153175e-03
   203   -1.132037578132e-03
   204    3.065954862399e-15
[5D]
