[Molden Format]
[Atoms] (Angs)
  C      1    6     -0.13173890     -1.79208980      0.00000000
  H      2    1     -2.14962000     -1.30978739      0.00000000
  H      3    1     -0.31599560     -2.86503115      0.00000000
  H      4    1      0.14407746      2.04280963     -0.00000000
  C      5    6     -1.17258876      0.48030861      0.00000000
  O      6    8     -2.25008207      1.06833796      0.00000000
  C      7    6      1.31158357      0.28308717     -0.00000000
  O      8    8      2.36361668      0.96389345     -0.00000000
  N      9    7      0.07017030      1.03138997     -0.00000000
  N     10    7     -1.19586868     -0.94982644      0.00000000
  C     11    6      1.19165158     -1.13169473     -0.00000000
  H     12    1      2.09970506     -1.73445456     -0.00000000
[GTO]
1    0
S    6    1.000000
   4.56324000E+03    1.96665000E-03 
   6.82024000E+02    1.52306000E-02 
   1.54973000E+02    7.61269000E-02 
   4.44553000E+01    2.60801000E-01 
   1.30290000E+01    6.16462000E-01 
   1.82773000E+00    2.21006000E-01 
SP   3    1.000000
   2.09642000E+01    1.14660000E-01   4.02487000E-02 
   4.80331000E+00    9.19999000E-01   2.37594000E-01 
   1.45933000E+00   -3.03068000E-03   8.15854000E-01 
SP   1    1.000000
   4.83456000E-01    1.00000000E+00   1.00000000E+00 
SP   1    1.000000
   1.45585000E-01    1.00000000E+00   1.00000000E+00 
SP   1    1.000000
   4.38000000E-02    1.00000000E+00   1.00000000E+00 
D    1    1.000000
   6.26000000E-01    1.00000000E+00 

2    0
S    3    1.000000
   3.38650000E+01    2.54938000E-02 
   5.09479000E+00    1.90373000E-01 
   1.15879000E+00    8.52161000E-01 
S    1    1.000000
   3.25840000E-01    1.00000000E+00 
S    1    1.000000
   1.02741000E-01    1.00000000E+00 
S    1    1.000000
   3.60000000E-02    1.00000000E+00 
P    1    1.000000
   7.50000000E-01    1.00000000E+00 

3    0
S    3    1.000000
   3.38650000E+01    2.54938000E-02 
   5.09479000E+00    1.90373000E-01 
   1.15879000E+00    8.52161000E-01 
S    1    1.000000
   3.25840000E-01    1.00000000E+00 
S    1    1.000000
   1.02741000E-01    1.00000000E+00 
S    1    1.000000
   3.60000000E-02    1.00000000E+00 
P    1    1.000000
   7.50000000E-01    1.00000000E+00 

4    0
S    3    1.000000
   3.38650000E+01    2.54938000E-02 
   5.09479000E+00    1.90373000E-01 
   1.15879000E+00    8.52161000E-01 
S    1    1.000000
   3.25840000E-01    1.00000000E+00 
S    1    1.000000
   1.02741000E-01    1.00000000E+00 
S    1    1.000000
   3.60000000E-02    1.00000000E+00 
P    1    1.000000
   7.50000000E-01    1.00000000E+00 

5    0
S    6    1.000000
   4.56324000E+03    1.96665000E-03 
   6.82024000E+02    1.52306000E-02 
   1.54973000E+02    7.61269000E-02 
   4.44553000E+01    2.60801000E-01 
   1.30290000E+01    6.16462000E-01 
   1.82773000E+00    2.21006000E-01 
SP   3    1.000000
   2.09642000E+01    1.14660000E-01   4.02487000E-02 
   4.80331000E+00    9.19999000E-01   2.37594000E-01 
   1.45933000E+00   -3.03068000E-03   8.15854000E-01 
SP   1    1.000000
   4.83456000E-01    1.00000000E+00   1.00000000E+00 
SP   1    1.000000
   1.45585000E-01    1.00000000E+00   1.00000000E+00 
SP   1    1.000000
   4.38000000E-02    1.00000000E+00   1.00000000E+00 
D    1    1.000000
   6.26000000E-01    1.00000000E+00 

6    0
S    6    1.000000
   8.58850000E+03    1.89515000E-03 
   1.29723000E+03    1.43859000E-02 
   2.99296000E+02    7.07320000E-02 
   8.73771000E+01    2.40001000E-01 
   2.56789000E+01    5.94797000E-01 
   3.74004000E+00    2.80802000E-01 
SP   3    1.000000
   4.21175000E+01    1.13889000E-01   3.65114000E-02 
   9.62837000E+00    9.20811000E-01   2.37153000E-01 
   2.85332000E+00   -3.27447000E-03   8.19702000E-01 
SP   1    1.000000
   9.05661000E-01    1.00000000E+00   1.00000000E+00 
SP   1    1.000000
   2.55611000E-01    1.00000000E+00   1.00000000E+00 
SP   1    1.000000
   8.45000000E-02    1.00000000E+00   1.00000000E+00 
D    1    1.000000
   1.29200000E+00    1.00000000E+00 

7    0
S    6    1.000000
   4.56324000E+03    1.96665000E-03 
   6.82024000E+02    1.52306000E-02 
   1.54973000E+02    7.61269000E-02 
   4.44553000E+01    2.60801000E-01 
   1.30290000E+01    6.16462000E-01 
   1.82773000E+00    2.21006000E-01 
SP   3    1.000000
   2.09642000E+01    1.14660000E-01   4.02487000E-02 
   4.80331000E+00    9.19999000E-01   2.37594000E-01 
   1.45933000E+00   -3.03068000E-03   8.15854000E-01 
SP   1    1.000000
   4.83456000E-01    1.00000000E+00   1.00000000E+00 
SP   1    1.000000
   1.45585000E-01    1.00000000E+00   1.00000000E+00 
SP   1    1.000000
   4.38000000E-02    1.00000000E+00   1.00000000E+00 
D    1    1.000000
   6.26000000E-01    1.00000000E+00 

8    0
S    6    1.000000
   8.58850000E+03    1.89515000E-03 
   1.29723000E+03    1.43859000E-02 
   2.99296000E+02    7.07320000E-02 
   8.73771000E+01    2.40001000E-01 
   2.56789000E+01    5.94797000E-01 
   3.74004000E+00    2.80802000E-01 
SP   3    1.000000
   4.21175000E+01    1.13889000E-01   3.65114000E-02 
   9.62837000E+00    9.20811000E-01   2.37153000E-01 
   2.85332000E+00   -3.27447000E-03   8.19702000E-01 
SP   1    1.000000
   9.05661000E-01    1.00000000E+00   1.00000000E+00 
SP   1    1.000000
   2.55611000E-01    1.00000000E+00   1.00000000E+00 
SP   1    1.000000
   8.45000000E-02    1.00000000E+00   1.00000000E+00 
D    1    1.000000
   1.29200000E+00    1.00000000E+00 

9    0
S    6    1.000000
   6.29348000E+03    1.96979000E-03 
   9.49044000E+02    1.49613000E-02 
   2.18776000E+02    7.35006000E-02 
   6.36916000E+01    2.48937000E-01 
   1.88282000E+01    6.02460000E-01 
   2.72023000E+00    2.56202000E-01 
SP   3    1.000000
   3.06331000E+01    1.11906000E-01   3.83119000E-02 
   7.02614000E+00    9.21666000E-01   2.37403000E-01 
   2.11205000E+00   -2.56919000E-03   8.17592000E-01 
SP   1    1.000000
   6.84009000E-01    1.00000000E+00   1.00000000E+00 
SP   1    1.000000
   2.00878000E-01    1.00000000E+00   1.00000000E+00 
SP   1    1.000000
   6.39000000E-02    1.00000000E+00   1.00000000E+00 
D    1    1.000000
   9.13000000E-01    1.00000000E+00 

10    0
S    6    1.000000
   6.29348000E+03    1.96979000E-03 
   9.49044000E+02    1.49613000E-02 
   2.18776000E+02    7.35006000E-02 
   6.36916000E+01    2.48937000E-01 
   1.88282000E+01    6.02460000E-01 
   2.72023000E+00    2.56202000E-01 
SP   3    1.000000
   3.06331000E+01    1.11906000E-01   3.83119000E-02 
   7.02614000E+00    9.21666000E-01   2.37403000E-01 
   2.11205000E+00   -2.56919000E-03   8.17592000E-01 
SP   1    1.000000
   6.84009000E-01    1.00000000E+00   1.00000000E+00 
SP   1    1.000000
   2.00878000E-01    1.00000000E+00   1.00000000E+00 
SP   1    1.000000
   6.39000000E-02    1.00000000E+00   1.00000000E+00 
D    1    1.000000
   9.13000000E-01    1.00000000E+00 

11    0
S    6    1.000000
   4.56324000E+03    1.96665000E-03 
   6.82024000E+02    1.52306000E-02 
   1.54973000E+02    7.61269000E-02 
   4.44553000E+01    2.60801000E-01 
   1.30290000E+01    6.16462000E-01 
   1.82773000E+00    2.21006000E-01 
SP   3    1.000000
   2.09642000E+01    1.14660000E-01   4.02487000E-02 
   4.80331000E+00    9.19999000E-01   2.37594000E-01 
   1.45933000E+00   -3.03068000E-03   8.15854000E-01 
SP   1    1.000000
   4.83456000E-01    1.00000000E+00   1.00000000E+00 
SP   1    1.000000
   1.45585000E-01    1.00000000E+00   1.00000000E+00 
SP   1    1.000000
   4.38000000E-02    1.00000000E+00   1.00000000E+00 
D    1    1.000000
   6.26000000E-01    1.00000000E+00 

12    0
S    3    1.000000
   3.38650000E+01    2.54938000E-02 
   5.09479000E+00    1.90373000E-01 
   1.15879000E+00    8.52161000E-01 
S    1    1.000000
   3.25840000E-01    1.00000000E+00 
S    1    1.000000
   1.02741000E-01    1.00000000E+00 
S    1    1.000000
   3.60000000E-02    1.00000000E+00 
P    1    1.000000
   7.50000000E-01    1.00000000E+00 

[MO]
Sym=X
Ene= -0.003556
Spin=Alpha
Occup=1
     1    2.263667942072e-06
     2    2.504443309376e-06
     3   -4.462672812149e-06
     4   -3.182521940610e-06
     5   -9.315642961486e-16
     6   -3.084693849671e-07
     7   -1.646749289953e-05
     8   -5.617695460632e-06
     9    2.035333083612e-15
    10   -5.104655370855e-04
    11   -1.354058050825e-04
    12   -2.906264721755e-04
    13   -3.431785189634e-15
    14   -1.382564255723e-04
    15    1.774447594474e-04
    16   -6.057637886897e-04
    17    6.125321930993e-15
    18    1.926607441773e-06
    19    1.394905703918e-15
    20   -3.754716277682e-16
    21   -4.365697587347e-06
    22    5.714299553850e-06
    23   -3.107599457168e-06
    24    3.238126079208e-06
    25   -4.418346865699e-05
    26    7.462032395242e-05
    27   -2.747290198688e-06
    28    1.920734892072e-06
    29    2.573241203059e-16
    30    1.664477671473e-06
    31   -1.436189132146e-05
    32   -1.513690625394e-04
    33   -3.145693368587e-04
    34    3.786216442273e-06
    35   -3.278639323024e-06
    36    1.174811113154e-16
    37    3.578680479185e-06
    38    6.073080543808e-05
    39    8.454282262923e-05
    40    9.490256223137e-05
    41   -8.486314130863e-06
    42   -6.929601553479e-06
    43   -5.029689879731e-18
    44   -7.530413935814e-07
    45    9.035967976714e-07
    46    5.301971835017e-06
    47   -1.378985546778e-06
    48   -1.057920329216e-15
    49   -8.749771069827e-06
    50   -2.176764640978e-05
    51   -3.013509218707e-06
    52    2.957611020421e-15
    53   -2.459781756987e-04
    54   -1.206569376344e-04
    55   -2.249390134493e-06
    56   -2.120276061339e-15
    57   -1.713839546347e-04
    58    3.336897865585e-05
    59   -1.758607289639e-04
    60   -4.165760491487e-15
    61    3.329374129621e-06
    62    2.881500845018e-16
    63    4.523687099474e-16
    64   -2.383306848319e-06
    65    1.800561457635e-06
    66   -5.981619518026e-06
    67   -4.367273537465e-06
    68    3.411916491308e-07
    69   -4.050835978509e-07
    70   -1.033823818845e-15
    71   -6.788045629753e-06
    72   -3.092750977374e-06
    73    6.766865104007e-07
    74    3.016768974571e-15
    75    2.914967822973e-05
    76    1.634731478968e-05
    77   -1.069546090206e-06
    78   -4.941885338315e-15
    79   -2.165717369226e-04
    80   -1.280810681644e-04
    81    4.224702002404e-05
    82    6.227425994546e-15
    83    3.283069588971e-07
    84   -5.737345246702e-16
    85   -1.210110564705e-15
    86    6.307766217892e-07
    87   -2.090127341589e-07
    88    4.148932917409e-06
    89   -7.092860178633e-05
    90    4.266657123784e-05
    91    3.134439948314e-05
    92    4.994071189250e-16
    93    2.700068890058e-04
    94    3.427614047103e-04
    95    2.223410348779e-04
    96   -8.512527454753e-17
    97   -2.724222891714e-04
    98    4.055237491241e-04
    99    3.866084786394e-04
   100    3.746015695106e-16
   101   -2.270029907422e-03
   102   -6.238791787368e-04
   103    4.466522119080e-04
   104    3.594218769161e-15
   105   -5.557459835540e-05
   106    6.513671985770e-16
   107   -1.374410761273e-16
   108    1.023906243948e-04
   109    1.889437121579e-04
   110    5.515107975703e-01
   111    4.716910273752e-01
   112   -1.504736076125e-03
   113   -9.466275994571e-04
   114   -9.881380227839e-16
   115    5.397391026617e-03
   116    6.242549472961e-04
   117    3.936619172147e-04
   118    1.262574394080e-15
   119   -1.170139752681e-03
   120   -1.641548851622e-04
   121   -1.184299930963e-04
   122   -2.054132828724e-15
   123    1.317656272938e-03
   124   -2.817929270483e-05
   125    1.077377477071e-05
   126    5.678305314403e-16
   127   -9.242732782869e-05
   128    4.780907861359e-16
   129   -8.235806702949e-17
   130   -4.083456562206e-05
   131   -1.054532427958e-04
   132    6.151785132360e-07
   133    2.565472442142e-06
   134   -1.298742212486e-05
   135    3.276398635925e-06
   136    6.075223691255e-16
   137   -3.304148010511e-05
   138    2.415379451608e-05
   139   -9.683418408145e-06
   140   -1.011041974538e-15
   141    2.453626921246e-04
   142   -9.341131671921e-05
   143   -2.211958262711e-04
   144    1.025105591120e-15
   145   -2.179913610323e-04
   146   -5.255674886661e-04
   147   -5.320740869391e-05
   148   -1.403373799870e-15
   149   -8.062924727337e-06
   150    1.080936786227e-15
   151    4.011082134292e-16
   152    1.530600116677e-05
   153   -1.695858434763e-05
   154    2.087105559776e-07
   155    8.573350504636e-07
   156    1.317322977258e-06
   157   -1.694346602970e-07
   158   -2.448840017150e-16
   159   -8.654948854228e-06
   160   -3.452088832531e-07
   161   -2.164088207843e-06
   162    4.219306199220e-16
   163    1.541957269204e-04
   164    8.446253579777e-05
   165    1.060482067203e-06
   166    1.185479172188e-15
   167    2.249541938972e-04
   168   -4.209558367649e-05
   169    2.086756681548e-05
   170   -1.285683356700e-15
   171    6.716705920997e-07
   172    1.010833493348e-16
   173    6.679803844411e-17
   174   -1.517348029540e-06
   175   -1.622823569663e-06
   176    1.882663613608e-07
   177   -2.125437428087e-06
   178   -1.724715728426e-05
   179   -1.993787028595e-05
   180    1.374243376845e-15
   181   -1.199564034320e-05
   182   -1.190218960993e-05
   183    8.477374716155e-05
   184   -3.428959368242e-15
   185    6.431570767664e-04
   186   -5.284592221033e-04
   187    1.378840000075e-04
   188    3.725720057258e-15
   189    1.928991205285e-03
   190    6.500143549323e-05
   191    1.059889416888e-03
   192   -5.650324269811e-15
   193   -6.180527126457e-06
   194    5.329512059359e-16
   195    3.897215523138e-16
   196   -3.632374369952e-05
   197    3.169213521550e-05
   198   -5.305971625494e-06
   199    1.181952152436e-04
   200    1.542129844589e-04
   201    3.355753891409e-04
   202   -2.205072540834e-05
   203    9.802412864504e-06
   204   -8.197989179846e-16
Sym=X
Ene= 0.003556
Spin=Alpha
Occup=0
     1    6.492397429300e-04
     2    9.960113829671e-04
     3   -1.394846341177e-02
     4   -1.824293054607e-02
     5   -6.888480764399e-14
     6   -1.843458838900e-02
     7   -1.420208131488e-02
     8   -3.092112073801e-02
     9   -1.110656392143e-13
    10    4.310190216261e-01
    11   -7.773500793231e-02
    12    1.958029152535e-01
    13   -2.298638493691e-13
    14    7.581117819213e+00
    15   -7.206938367756e-02
    16    1.951700339170e+00
    17   -8.782558109192e-13
    18    1.885198657760e-02
    19   -5.902695859349e-15
    20    1.040973021238e-14
    21    9.925540087105e-03
    22   -8.738791152028e-03
    23    3.754449579993e-04
    24   -9.517998725390e-02
    25    3.851600500598e-01
    26    9.143604978452e-01
    27   -1.215965600641e-02
    28   -6.322222683238e-03
    29    4.515604077862e-15
    30   -1.892255233443e-02
    31   -3.068723666945e-02
    32   -1.087119940879e-01
    33   -3.274854533487e-01
    34   -4.642595258541e-03
    35    7.076248361831e-03
    36   -7.671271572569e-15
    37   -1.424842573499e-02
    38   -1.010656608634e-01
    39   -3.329406489545e-01
    40   -1.941769083805e+00
    41   -8.988763172407e-04
    42   -2.948072458211e-03
    43   -1.098808791642e-14
    44   -4.012396232971e-04
    45    9.063857246968e-05
    46   -6.489105343236e-03
    47    1.400922410198e-03
    48    1.469954073573e-14
    49   -2.421196428780e-02
    50   -1.391213680843e-02
    51   -9.894696108706e-04
    52    4.906869402403e-14
    53    3.803210146485e-01
    54    2.157943795338e-01
    55   -1.424352376493e-03
    56    2.856708447838e-14
    57    3.242041382869e-01
    58    4.125496918168e-01
    59    8.554214567857e-01
    60    1.108482184119e-13
    61    1.555113276905e-02
    62   -1.158569593372e-14
    63   -1.537766400362e-14
    64   -1.559303742418e-02
    65    1.221170974021e-03
    66    5.180195007720e-03
    67    8.860921063553e-03
    68    3.321233586197e-03
    69    2.414264807960e-02
    70   -2.331238638657e-14
    71   -2.878697712183e-02
    72    7.124623135483e-03
    73    3.239932597600e-02
    74   -7.658414752547e-15
    75   -1.058993353887e-02
    76   -6.805372895631e-03
    77    5.277209651496e-02
    78   -6.624616643245e-14
    79   -1.477246499386e-01
    80   -2.213470478215e-02
    81   -6.283572419062e-02
    82    3.377140893010e-14
    83    1.581993947652e-03
    84   -2.969702140495e-15
    85   -6.223434534139e-15
    86    1.675007545237e-03
    87    6.208651409012e-04
    88    3.090374868676e-03
    89    4.741257041218e-03
    90   -1.486263368012e-03
    91    7.790765225329e-03
    92    4.614418160136e-14
    93   -1.621976434023e-02
    94   -1.322553916882e-02
    95   -1.409856040427e-02
    96    9.310464513999e-14
    97    3.379307597194e-01
    98    1.496462173991e-03
    99    1.826852046416e-01
   100    1.258043187364e-13
   101    9.130600812691e+00
   102   -1.326819875109e+00
   103   -1.091225585070e+00
   104    2.379261497207e-13
   105    1.258660373499e-02
   106   -2.588792656356e-14
   107   -2.162439968629e-14
   108   -1.296883507398e-02
   109   -1.380667213508e-02
   110    3.957037800919e-03
   111    7.073450144057e-03
   112    3.823734266498e-02
   113    5.303085127914e-02
   114   -3.850331645962e-14
   115   -2.857018630127e-02
   116    4.005816591417e-02
   117    6.572670786698e-02
   118   -8.111571457194e-14
   119   -2.315794808712e-03
   120    7.143270398629e-02
   121    4.589174900194e-02
   122   -2.677797776641e-14
   123   -8.920716401813e-01
   124    2.041803886271e-01
   125    1.995276273774e-01
   126   -1.568576845693e-13
   127    1.636512553198e-03
   128   -1.193814495473e-15
   129   -2.185805114025e-15
   130    1.844133143138e-04
   131   -1.817732835293e-03
   132   -1.183155267375e-03
   133   -2.098183336647e-03
   134    1.872674007867e-02
   135    3.130788894851e-02
   136   -1.442155243947e-14
   137    3.790154282678e-03
   138    1.946563289936e-02
   139    4.445267584836e-02
   140   -1.362654906818e-14
   141   -3.243172269083e-02
   142    9.671730461607e-02
   143    2.225701881506e-01
   144    2.854626754375e-15
   145   -2.440703823706e+00
   146    6.156297902191e-02
   147    7.119878587101e-01
   148   -4.853289886759e-13
   149    6.580944817696e-03
   150    1.020019348075e-14
   151   -4.884117264494e-15
   152    5.836881406967e-03
   153    1.128339837644e-03
   154    6.994341759757e-03
   155    1.202037168786e-02
   156    8.948708041715e-03
   157    1.143663108735e-02
   158    4.433299759025e-14
   159   -3.544444685017e-02
   160    1.989192354739e-02
   161    1.598566054836e-02
   162    8.106721230253e-14
   163   -2.898424359387e-01
   164   -1.670152080541e-01
   165    7.999403500133e-04
   166    6.483867684686e-14
   167   -1.764828354524e+00
   168    3.247434274872e-01
   169    6.515224805561e-01
   170    4.031338705147e-13
   171    9.485880492985e-03
   172   -6.974411293592e-15
   173    3.306261154199e-15
   174   -1.294801627013e-03
   175   -9.370550223831e-04
   176   -3.646111181178e-03
   177   -6.406359445153e-03
   178    5.239969757258e-02
   179   -1.238690475457e-02
   180    4.040970431660e-14
   181    3.142429687307e-02
   182    7.352711738243e-02
   183   -7.784548250068e-03
   184    8.089318825672e-14
   185   -6.944718665797e-02
   186    3.397471898254e-01
   187   -1.012228680871e-01
   188    1.717847343542e-13
   189   -8.411053225443e+00
   190    3.185864994733e+00
   191   -2.169849838996e+00
   192    3.697275402092e-13
   193    1.464647079799e-02
   194    1.018020478595e-14
   195    1.478846226406e-14
   196   -8.285270851339e-03
   197    3.042034899265e-03
   198    1.361496412490e-02
   199    1.338159377316e-02
   200   -5.812365489873e-01
   201   -2.948672268170e+00
   202   -6.462205378588e-03
   203    1.243214771841e-02
   204    9.518042505104e-16
[5D]
