[Molden Format]
[Atoms] (Angs)
  C      1    6     -0.13173890     -1.79208980      0.00000000
  H      2    1     -2.14962000     -1.30978739      0.00000000
  H      3    1     -0.31599560     -2.86503115      0.00000000
  H      4    1      0.14407746      2.04280963     -0.00000000
  C      5    6     -1.17258876      0.48030861      0.00000000
  O      6    8     -2.25008207      1.06833796      0.00000000
  C      7    6      1.31158357      0.28308717     -0.00000000
  O      8    8      2.36361668      0.96389345     -0.00000000
  N      9    7      0.07017030      1.03138997     -0.00000000
  N     10    7     -1.19586868     -0.94982644      0.00000000
  C     11    6      1.19165158     -1.13169473     -0.00000000
  H     12    1      2.09970506     -1.73445456     -0.00000000
[GTO]
1    0
S    6    1.000000
   4.56324000E+03    1.96665000E-03 
   6.82024000E+02    1.52306000E-02 
   1.54973000E+02    7.61269000E-02 
   4.44553000E+01    2.60801000E-01 
   1.30290000E+01    6.16462000E-01 
   1.82773000E+00    2.21006000E-01 
SP   3    1.000000
   2.09642000E+01    1.14660000E-01   4.02487000E-02 
   4.80331000E+00    9.19999000E-01   2.37594000E-01 
   1.45933000E+00   -3.03068000E-03   8.15854000E-01 
SP   1    1.000000
   4.83456000E-01    1.00000000E+00   1.00000000E+00 
SP   1    1.000000
   1.45585000E-01    1.00000000E+00   1.00000000E+00 
SP   1    1.000000
   4.38000000E-02    1.00000000E+00   1.00000000E+00 
D    1    1.000000
   6.26000000E-01    1.00000000E+00 

2    0
S    3    1.000000
   3.38650000E+01    2.54938000E-02 
   5.09479000E+00    1.90373000E-01 
   1.15879000E+00    8.52161000E-01 
S    1    1.000000
   3.25840000E-01    1.00000000E+00 
S    1    1.000000
   1.02741000E-01    1.00000000E+00 
S    1    1.000000
   3.60000000E-02    1.00000000E+00 
P    1    1.000000
   7.50000000E-01    1.00000000E+00 

3    0
S    3    1.000000
   3.38650000E+01    2.54938000E-02 
   5.09479000E+00    1.90373000E-01 
   1.15879000E+00    8.52161000E-01 
S    1    1.000000
   3.25840000E-01    1.00000000E+00 
S    1    1.000000
   1.02741000E-01    1.00000000E+00 
S    1    1.000000
   3.60000000E-02    1.00000000E+00 
P    1    1.000000
   7.50000000E-01    1.00000000E+00 

4    0
S    3    1.000000
   3.38650000E+01    2.54938000E-02 
   5.09479000E+00    1.90373000E-01 
   1.15879000E+00    8.52161000E-01 
S    1    1.000000
   3.25840000E-01    1.00000000E+00 
S    1    1.000000
   1.02741000E-01    1.00000000E+00 
S    1    1.000000
   3.60000000E-02    1.00000000E+00 
P    1    1.000000
   7.50000000E-01    1.00000000E+00 

5    0
S    6    1.000000
   4.56324000E+03    1.96665000E-03 
   6.82024000E+02    1.52306000E-02 
   1.54973000E+02    7.61269000E-02 
   4.44553000E+01    2.60801000E-01 
   1.30290000E+01    6.16462000E-01 
   1.82773000E+00    2.21006000E-01 
SP   3    1.000000
   2.09642000E+01    1.14660000E-01   4.02487000E-02 
   4.80331000E+00    9.19999000E-01   2.37594000E-01 
   1.45933000E+00   -3.03068000E-03   8.15854000E-01 
SP   1    1.000000
   4.83456000E-01    1.00000000E+00   1.00000000E+00 
SP   1    1.000000
   1.45585000E-01    1.00000000E+00   1.00000000E+00 
SP   1    1.000000
   4.38000000E-02    1.00000000E+00   1.00000000E+00 
D    1    1.000000
   6.26000000E-01    1.00000000E+00 

6    0
S    6    1.000000
   8.58850000E+03    1.89515000E-03 
   1.29723000E+03    1.43859000E-02 
   2.99296000E+02    7.07320000E-02 
   8.73771000E+01    2.40001000E-01 
   2.56789000E+01    5.94797000E-01 
   3.74004000E+00    2.80802000E-01 
SP   3    1.000000
   4.21175000E+01    1.13889000E-01   3.65114000E-02 
   9.62837000E+00    9.20811000E-01   2.37153000E-01 
   2.85332000E+00   -3.27447000E-03   8.19702000E-01 
SP   1    1.000000
   9.05661000E-01    1.00000000E+00   1.00000000E+00 
SP   1    1.000000
   2.55611000E-01    1.00000000E+00   1.00000000E+00 
SP   1    1.000000
   8.45000000E-02    1.00000000E+00   1.00000000E+00 
D    1    1.000000
   1.29200000E+00    1.00000000E+00 

7    0
S    6    1.000000
   4.56324000E+03    1.96665000E-03 
   6.82024000E+02    1.52306000E-02 
   1.54973000E+02    7.61269000E-02 
   4.44553000E+01    2.60801000E-01 
   1.30290000E+01    6.16462000E-01 
   1.82773000E+00    2.21006000E-01 
SP   3    1.000000
   2.09642000E+01    1.14660000E-01   4.02487000E-02 
   4.80331000E+00    9.19999000E-01   2.37594000E-01 
   1.45933000E+00   -3.03068000E-03   8.15854000E-01 
SP   1    1.000000
   4.83456000E-01    1.00000000E+00   1.00000000E+00 
SP   1    1.000000
   1.45585000E-01    1.00000000E+00   1.00000000E+00 
SP   1    1.000000
   4.38000000E-02    1.00000000E+00   1.00000000E+00 
D    1    1.000000
   6.26000000E-01    1.00000000E+00 

8    0
S    6    1.000000
   8.58850000E+03    1.89515000E-03 
   1.29723000E+03    1.43859000E-02 
   2.99296000E+02    7.07320000E-02 
   8.73771000E+01    2.40001000E-01 
   2.56789000E+01    5.94797000E-01 
   3.74004000E+00    2.80802000E-01 
SP   3    1.000000
   4.21175000E+01    1.13889000E-01   3.65114000E-02 
   9.62837000E+00    9.20811000E-01   2.37153000E-01 
   2.85332000E+00   -3.27447000E-03   8.19702000E-01 
SP   1    1.000000
   9.05661000E-01    1.00000000E+00   1.00000000E+00 
SP   1    1.000000
   2.55611000E-01    1.00000000E+00   1.00000000E+00 
SP   1    1.000000
   8.45000000E-02    1.00000000E+00   1.00000000E+00 
D    1    1.000000
   1.29200000E+00    1.00000000E+00 

9    0
S    6    1.000000
   6.29348000E+03    1.96979000E-03 
   9.49044000E+02    1.49613000E-02 
   2.18776000E+02    7.35006000E-02 
   6.36916000E+01    2.48937000E-01 
   1.88282000E+01    6.02460000E-01 
   2.72023000E+00    2.56202000E-01 
SP   3    1.000000
   3.06331000E+01    1.11906000E-01   3.83119000E-02 
   7.02614000E+00    9.21666000E-01   2.37403000E-01 
   2.11205000E+00   -2.56919000E-03   8.17592000E-01 
SP   1    1.000000
   6.84009000E-01    1.00000000E+00   1.00000000E+00 
SP   1    1.000000
   2.00878000E-01    1.00000000E+00   1.00000000E+00 
SP   1    1.000000
   6.39000000E-02    1.00000000E+00   1.00000000E+00 
D    1    1.000000
   9.13000000E-01    1.00000000E+00 

10    0
S    6    1.000000
   6.29348000E+03    1.96979000E-03 
   9.49044000E+02    1.49613000E-02 
   2.18776000E+02    7.35006000E-02 
   6.36916000E+01    2.48937000E-01 
   1.88282000E+01    6.02460000E-01 
   2.72023000E+00    2.56202000E-01 
SP   3    1.000000
   3.06331000E+01    1.11906000E-01   3.83119000E-02 
   7.02614000E+00    9.21666000E-01   2.37403000E-01 
   2.11205000E+00   -2.56919000E-03   8.17592000E-01 
SP   1    1.000000
   6.84009000E-01    1.00000000E+00   1.00000000E+00 
SP   1    1.000000
   2.00878000E-01    1.00000000E+00   1.00000000E+00 
SP   1    1.000000
   6.39000000E-02    1.00000000E+00   1.00000000E+00 
D    1    1.000000
   9.13000000E-01    1.00000000E+00 

11    0
S    6    1.000000
   4.56324000E+03    1.96665000E-03 
   6.82024000E+02    1.52306000E-02 
   1.54973000E+02    7.61269000E-02 
   4.44553000E+01    2.60801000E-01 
   1.30290000E+01    6.16462000E-01 
   1.82773000E+00    2.21006000E-01 
SP   3    1.000000
   2.09642000E+01    1.14660000E-01   4.02487000E-02 
   4.80331000E+00    9.19999000E-01   2.37594000E-01 
   1.45933000E+00   -3.03068000E-03   8.15854000E-01 
SP   1    1.000000
   4.83456000E-01    1.00000000E+00   1.00000000E+00 
SP   1    1.000000
   1.45585000E-01    1.00000000E+00   1.00000000E+00 
SP   1    1.000000
   4.38000000E-02    1.00000000E+00   1.00000000E+00 
D    1    1.000000
   6.26000000E-01    1.00000000E+00 

12    0
S    3    1.000000
   3.38650000E+01    2.54938000E-02 
   5.09479000E+00    1.90373000E-01 
   1.15879000E+00    8.52161000E-01 
S    1    1.000000
   3.25840000E-01    1.00000000E+00 
S    1    1.000000
   1.02741000E-01    1.00000000E+00 
S    1    1.000000
   3.60000000E-02    1.00000000E+00 
P    1    1.000000
   7.50000000E-01    1.00000000E+00 

[MO]
Sym=X
Ene= -0.003956
Spin=Alpha
Occup=1
     1    1.753164986730e-06
     2    1.514217689801e-06
     3   -4.208538488235e-06
     4   -2.168823151238e-06
     5   -9.320156198091e-16
     6    4.611465738066e-06
     7   -1.592026071168e-05
     8   -4.660730328893e-06
     9    2.032478257899e-15
    10   -4.872617664200e-04
    11   -1.367506690893e-04
    12   -2.830684474445e-04
    13   -3.434754614555e-15
    14   -1.205228977800e-04
    15    1.681541173762e-04
    16   -5.989102651480e-04
    17    6.103014280856e-15
    18    2.751626982317e-06
    19    1.394269696930e-15
    20   -3.755581814439e-16
    21   -4.097690465816e-06
    22    5.748054074931e-06
    23   -3.266162638402e-06
    24    1.703961375244e-06
    25   -3.541174649607e-05
    26    7.952071359908e-05
    27   -3.166841172899e-06
    28    1.516974303579e-06
    29    2.571436665879e-16
    30    4.362195415030e-07
    31   -1.853437794985e-05
    32   -1.509387435326e-04
    33   -3.108816018267e-04
    34    3.673472852686e-06
    35   -3.362482490261e-06
    36    1.174336306662e-16
    37    3.375315820609e-06
    38    5.775277801088e-05
    39    9.748098651305e-05
    40    9.980719643428e-05
    41   -8.846315676220e-06
    42   -6.130127794319e-06
    43   -5.851021528770e-18
    44   -2.908135905910e-06
    45   -2.922269036517e-06
    46    8.393879460951e-06
    47   -2.379272473493e-06
    48   -1.057064499745e-15
    49    2.266304589366e-06
    50   -1.503039807729e-05
    51   -4.756394506399e-06
    52    2.964075343521e-15
    53   -2.067350191277e-04
    54   -1.119391256772e-04
    55    1.085874064142e-06
    56   -2.145217601630e-15
    57   -1.921654380101e-04
    58    2.682819424576e-05
    59   -1.619204096566e-04
    60   -4.085698931572e-15
    61    4.941209238078e-06
    62    2.867308809026e-16
    63    4.510639029950e-16
    64   -4.016048081862e-06
    65    2.194255638431e-06
    66   -5.952493955104e-06
    67   -3.422132805761e-06
    68   -2.177189211603e-06
    69    6.069516929302e-07
    70   -1.031138594067e-15
    71   -1.353952205057e-05
    72   -7.154631924356e-06
    73    2.093104821381e-06
    74    3.019098503334e-15
    75    1.801254939132e-05
    76    1.304557854011e-05
    77    2.898192200297e-07
    78   -4.923207424519e-15
    79   -2.166100544949e-04
    80   -1.248095047738e-04
    81    4.611739515952e-05
    82    6.173487900870e-15
    83    1.242330531528e-07
    84   -5.734947826862e-16
    85   -1.211259746896e-15
    86    2.535505515998e-07
    87    1.906653664622e-07
    88    1.988228751147e-06
    89   -7.487564588403e-05
    90    3.589847983657e-05
    91    3.618028162959e-05
    92    5.022651339165e-16
    93    2.829057092194e-04
    94    3.292629747282e-04
    95    2.324246809425e-04
    96   -8.145117998010e-17
    97   -2.147299951107e-04
    98    3.843830091596e-04
    99    4.108217231427e-04
   100    3.737693676200e-16
   101   -2.184356376164e-03
   102   -6.526131631725e-04
   103    4.468497091681e-04
   104    3.489110230327e-15
   105   -5.469930937164e-05
   106    6.507803878535e-16
   107   -1.368199143571e-16
   108    9.970697805719e-05
   109    1.884552558576e-04
   110    5.515100830496e-01
   111    4.716898082198e-01
   112   -1.493112419095e-03
   113   -9.427842813823e-04
   114   -9.929006375541e-16
   115    5.402518460254e-03
   116    6.427558119586e-04
   117    4.000075230311e-04
   118    1.256510820504e-15
   119   -1.172760129551e-03
   120   -1.507492189107e-04
   121   -1.190932578964e-04
   122   -2.072144600284e-15
   123    1.299826668055e-03
   124   -3.207351714522e-05
   125    5.313917183365e-06
   126    6.368531162505e-16
   127   -9.189734746261e-05
   128    4.781946339613e-16
   129   -8.218155185212e-17
   130   -4.048748773436e-05
   131   -1.061430533034e-04
   132    3.587384220284e-06
   133    7.735552190476e-06
   134   -1.301097823354e-05
   135    5.670240223127e-06
   136    6.044273808478e-16
   137   -4.879530781380e-05
   138    2.435027704528e-05
   139   -5.132341404154e-06
   140   -1.017722949788e-15
   141    1.874283307634e-04
   142   -9.738133297808e-05
   143   -2.040444730677e-04
   144    1.031502915596e-15
   145   -2.952923330289e-04
   146   -5.379226811990e-04
   147   -4.562696003927e-05
   148   -1.390490074073e-15
   149   -8.654461218511e-06
   150    1.082459373449e-15
   151    4.009396206409e-16
   152    1.671205758702e-05
   153   -1.744099626983e-05
   154    1.383538336126e-06
   155    2.933972245563e-06
   156    2.338187340385e-06
   157   -2.038253145601e-06
   158   -2.421632049408e-16
   159   -1.601834825325e-05
   160    2.002988761887e-06
   161   -6.868139995629e-06
   162    4.248037950239e-16
   163    1.337226080325e-04
   164    7.975065102925e-05
   165    1.881055433497e-06
   166    1.200005332126e-15
   167    2.248592700330e-04
   168   -4.346446809271e-05
   169    3.614530486119e-05
   170   -1.300850767459e-15
   171    6.454988169751e-07
   172    1.010947544806e-16
   173    6.732754954679e-17
   174   -1.311834794881e-06
   175   -1.294696909539e-06
   176    1.562591509377e-06
   177    2.818056356075e-07
   178   -1.586322861848e-05
   179   -1.999572062453e-05
   180    1.371539838104e-15
   181   -1.932084749015e-05
   182   -9.910948508437e-06
   183    8.305719481792e-05
   184   -3.435642913858e-15
   185    6.326406948808e-04
   186   -5.140528587048e-04
   187    1.378153634944e-04
   188    3.735059839077e-15
   189    1.902615697511e-03
   190    7.419681944989e-05
   191    1.048685259550e-03
   192   -5.608250332614e-15
   193   -6.463786524583e-06
   194    5.333976788988e-16
   195    3.907906280257e-16
   196   -3.594062552646e-05
   197    3.058303435792e-05
   198   -5.015661126410e-06
   199    1.173637406443e-04
   200    1.512310149895e-04
   201    3.297940313994e-04
   202   -2.165616038613e-05
   203    9.642371388526e-06
   204   -8.200108215097e-16
Sym=X
Ene= 0.003956
Spin=Alpha
Occup=0
     1   -1.064334491103e-03
     2   -3.748171080214e-03
     3    1.991824156454e-03
     4    2.356182355141e-02
     5   -8.894829580660e-14
     6    5.648503132940e-02
     7    1.286588825626e-02
     8    3.941651611460e-02
     9   -1.485419066679e-13
    10   -4.848584879286e-01
    11   -1.660474444496e-01
    12   -2.783441728718e-01
    13   -2.577502796008e-13
    14   -9.062145568732e+00
    15   -1.534922242217e+00
    16   -1.991775594606e+00
    17    6.237787670837e-14
    18   -4.322855505097e-03
    19    1.513212794121e-14
    20    6.309790041060e-15
    21   -5.385457170579e-03
    22    6.887356693759e-03
    23    2.184770078479e-02
    24    1.237019951029e-01
    25    4.541726034575e-01
    26    1.773274547618e+00
    27   -2.137321331829e-03
    28   -5.225246667653e-03
    29    1.009279693557e-14
    30    1.059607020852e-02
    31   -1.346842928887e-02
    32    6.970106818812e-02
    33    1.741831649802e-03
    34   -6.784680128789e-03
    35   -3.343410196160e-03
    36   -1.765708551699e-14
    37    6.648044692399e-03
    38    5.476147883934e-02
    39   -1.483583197738e-02
    40   -4.625089617836e-01
    41    6.134188693370e-03
    42   -1.035190710395e-02
    43   -6.725491744728e-15
    44   -4.926270934952e-03
    45   -1.019159562590e-02
    46    9.077470212348e-03
    47   -3.644342930503e-03
    48    4.071375381094e-14
    49    7.005001147582e-02
    50    1.738940565054e-02
    51   -1.370544747958e-02
    52    4.561549468332e-14
    53   -4.213861136215e-01
    54   -1.940295758253e-01
    55    1.029049995412e-01
    56    1.678464750893e-13
    57    1.028467527951e+00
    58    1.228894153708e+00
    59    2.301475793690e-01
    60    2.782379215365e-13
    61   -6.588673942369e-03
    62    7.412639550264e-15
    63   -1.846352451318e-14
    64    2.673185589006e-03
    65   -4.926407656043e-03
    66   -3.496200984815e-03
    67   -6.342477966607e-03
    68    3.669892196928e-03
    69   -8.390314504025e-03
    70   -3.727589932711e-15
    71    2.647083539591e-02
    72    3.052405390656e-03
    73   -1.096171836953e-02
    74   -5.554770258018e-14
    75   -2.582143025356e-02
    76    2.711185591270e-02
    77   -2.243021165769e-02
    78   -2.626325346113e-15
    79    3.644541090740e-01
    80   -7.107414648364e-02
    81    2.290633876872e-02
    82   -2.017942673339e-13
    83   -1.505854234896e-03
    84    3.960462456722e-15
    85    1.793897782740e-15
    86    1.096579296248e-04
    87   -1.213364878574e-03
    88   -1.067567150344e-03
    89   -2.283785762743e-03
    90    2.760374598188e-02
    91   -1.525106258350e-03
    92    4.687110249854e-14
    93    1.823554936829e-02
    94    4.859319131313e-02
    95    3.652304077336e-03
    96    5.732278604586e-14
    97   -1.717179932870e-01
    98    4.713972168218e-01
    99    2.599786036498e-01
   100    1.726952678926e-13
   101   -1.399256249599e+01
   102    3.714107727969e+00
   103    3.584172990389e+00
   104    4.193917536051e-13
   105   -7.217429351077e-03
   106    1.915642054386e-14
   107   -1.321341290384e-14
   108   -8.762993520501e-03
   109    4.218302694933e-03
   110    1.616701195652e-02
   111    2.798964397076e-02
   112   -5.109834518867e-02
   113   -8.238403697120e-04
   114   -4.747850755674e-14
   115   -8.577255982833e-02
   116   -6.697130494011e-02
   117   -5.562912993635e-03
   118   -3.762300936011e-14
   119   -2.063283301553e-01
   120    3.467541327038e-02
   121    6.444677048831e-02
   122   -1.806715525418e-13
   123   -1.042084693991e+00
   124   -3.308982918242e-02
   125   -6.327311180352e-02
   126    2.229140257557e-14
   127   -6.613303228884e-04
   128    3.170945488804e-15
   129    6.612967434302e-16
   130   -3.497479683479e-04
   131    7.624932543693e-04
   132   -6.538062507429e-03
   133   -1.154348155552e-02
   134   -3.941796442288e-03
   135    1.200010223066e-02
   136   -3.215284786618e-14
   137    3.669660355806e-02
   138   -3.770899421226e-03
   139    2.246167930982e-02
   140   -9.665174787359e-14
   141    1.992591868159e-01
   142   -4.806107841592e-02
   143   -1.460924008272e-01
   144   -3.975206821542e-14
   145    2.350721740222e+00
   146    5.081081404501e-01
   147   -5.964227696978e-01
   148   -3.791266876229e-13
   149   -3.739331334278e-03
   150   -9.747012583829e-15
   151   -6.723625512627e-15
   152    4.189718473550e-03
   153    6.261625579846e-03
   154    5.848375589973e-03
   155    1.023246250722e-02
   156    3.055418221079e-02
   157    1.590628480369e-02
   158    2.654398147195e-14
   159   -3.445550577523e-02
   160    5.308370476270e-02
   161    2.817901220093e-02
   162    5.364187175488e-14
   163    4.423735929276e-03
   164    2.220812848638e-01
   165    1.108586510097e-01
   166    1.276673046267e-13
   167    1.048431260524e+00
   168    6.858247674087e-01
   169    2.175506307656e-01
   170   -8.764224967526e-14
   171   -1.017322177490e-02
   172   -5.665646685712e-15
   173    1.954134329676e-14
   174   -6.957614984384e-04
   175    3.093925033267e-03
   176   -1.242434884003e-02
   177   -2.025535019980e-02
   178    2.701396021566e-02
   179   -4.644991861755e-03
   180    6.296543934735e-14
   181    3.676037153899e-02
   182    3.384345180825e-02
   183   -2.343240706553e-02
   184    8.458221994148e-14
   185    6.253543712229e-01
   186   -3.101306674474e-01
   187    1.586869264088e-01
   188    1.611925191882e-13
   189    1.832851789641e+01
   190   -2.875661354179e+00
   191    2.622588922456e+00
   192   -3.783633448726e-13
   193   -9.814694144906e-03
   194    1.082586850239e-14
   195    2.029999554545e-14
   196    6.803781227835e-03
   197    2.748498134679e-03
   198    2.333370541424e-02
   199    6.498226814826e-02
   200    2.171562947133e-01
   201   -3.217477250197e-02
   202   -2.185892389742e-03
   203    9.542121872103e-03
   204    5.211956085276e-15
[5D]
