[Molden Format]
[Atoms] (Angs)
  C      1    6     -0.13173890     -1.79208980      0.00000000
  H      2    1     -2.14962000     -1.30978739      0.00000000
  H      3    1     -0.31599560     -2.86503115      0.00000000
  H      4    1      0.14407746      2.04280963     -0.00000000
  C      5    6     -1.17258876      0.48030861      0.00000000
  O      6    8     -2.25008207      1.06833796      0.00000000
  C      7    6      1.31158357      0.28308717     -0.00000000
  O      8    8      2.36361668      0.96389345     -0.00000000
  N      9    7      0.07017030      1.03138997     -0.00000000
  N     10    7     -1.19586868     -0.94982644      0.00000000
  C     11    6      1.19165158     -1.13169473     -0.00000000
  H     12    1      2.09970506     -1.73445456     -0.00000000
[GTO]
1    0
S    6    1.000000
   4.56324000E+03    1.96665000E-03 
   6.82024000E+02    1.52306000E-02 
   1.54973000E+02    7.61269000E-02 
   4.44553000E+01    2.60801000E-01 
   1.30290000E+01    6.16462000E-01 
   1.82773000E+00    2.21006000E-01 
SP   3    1.000000
   2.09642000E+01    1.14660000E-01   4.02487000E-02 
   4.80331000E+00    9.19999000E-01   2.37594000E-01 
   1.45933000E+00   -3.03068000E-03   8.15854000E-01 
SP   1    1.000000
   4.83456000E-01    1.00000000E+00   1.00000000E+00 
SP   1    1.000000
   1.45585000E-01    1.00000000E+00   1.00000000E+00 
SP   1    1.000000
   4.38000000E-02    1.00000000E+00   1.00000000E+00 
D    1    1.000000
   6.26000000E-01    1.00000000E+00 

2    0
S    3    1.000000
   3.38650000E+01    2.54938000E-02 
   5.09479000E+00    1.90373000E-01 
   1.15879000E+00    8.52161000E-01 
S    1    1.000000
   3.25840000E-01    1.00000000E+00 
S    1    1.000000
   1.02741000E-01    1.00000000E+00 
S    1    1.000000
   3.60000000E-02    1.00000000E+00 
P    1    1.000000
   7.50000000E-01    1.00000000E+00 

3    0
S    3    1.000000
   3.38650000E+01    2.54938000E-02 
   5.09479000E+00    1.90373000E-01 
   1.15879000E+00    8.52161000E-01 
S    1    1.000000
   3.25840000E-01    1.00000000E+00 
S    1    1.000000
   1.02741000E-01    1.00000000E+00 
S    1    1.000000
   3.60000000E-02    1.00000000E+00 
P    1    1.000000
   7.50000000E-01    1.00000000E+00 

4    0
S    3    1.000000
   3.38650000E+01    2.54938000E-02 
   5.09479000E+00    1.90373000E-01 
   1.15879000E+00    8.52161000E-01 
S    1    1.000000
   3.25840000E-01    1.00000000E+00 
S    1    1.000000
   1.02741000E-01    1.00000000E+00 
S    1    1.000000
   3.60000000E-02    1.00000000E+00 
P    1    1.000000
   7.50000000E-01    1.00000000E+00 

5    0
S    6    1.000000
   4.56324000E+03    1.96665000E-03 
   6.82024000E+02    1.52306000E-02 
   1.54973000E+02    7.61269000E-02 
   4.44553000E+01    2.60801000E-01 
   1.30290000E+01    6.16462000E-01 
   1.82773000E+00    2.21006000E-01 
SP   3    1.000000
   2.09642000E+01    1.14660000E-01   4.02487000E-02 
   4.80331000E+00    9.19999000E-01   2.37594000E-01 
   1.45933000E+00   -3.03068000E-03   8.15854000E-01 
SP   1    1.000000
   4.83456000E-01    1.00000000E+00   1.00000000E+00 
SP   1    1.000000
   1.45585000E-01    1.00000000E+00   1.00000000E+00 
SP   1    1.000000
   4.38000000E-02    1.00000000E+00   1.00000000E+00 
D    1    1.000000
   6.26000000E-01    1.00000000E+00 

6    0
S    6    1.000000
   8.58850000E+03    1.89515000E-03 
   1.29723000E+03    1.43859000E-02 
   2.99296000E+02    7.07320000E-02 
   8.73771000E+01    2.40001000E-01 
   2.56789000E+01    5.94797000E-01 
   3.74004000E+00    2.80802000E-01 
SP   3    1.000000
   4.21175000E+01    1.13889000E-01   3.65114000E-02 
   9.62837000E+00    9.20811000E-01   2.37153000E-01 
   2.85332000E+00   -3.27447000E-03   8.19702000E-01 
SP   1    1.000000
   9.05661000E-01    1.00000000E+00   1.00000000E+00 
SP   1    1.000000
   2.55611000E-01    1.00000000E+00   1.00000000E+00 
SP   1    1.000000
   8.45000000E-02    1.00000000E+00   1.00000000E+00 
D    1    1.000000
   1.29200000E+00    1.00000000E+00 

7    0
S    6    1.000000
   4.56324000E+03    1.96665000E-03 
   6.82024000E+02    1.52306000E-02 
   1.54973000E+02    7.61269000E-02 
   4.44553000E+01    2.60801000E-01 
   1.30290000E+01    6.16462000E-01 
   1.82773000E+00    2.21006000E-01 
SP   3    1.000000
   2.09642000E+01    1.14660000E-01   4.02487000E-02 
   4.80331000E+00    9.19999000E-01   2.37594000E-01 
   1.45933000E+00   -3.03068000E-03   8.15854000E-01 
SP   1    1.000000
   4.83456000E-01    1.00000000E+00   1.00000000E+00 
SP   1    1.000000
   1.45585000E-01    1.00000000E+00   1.00000000E+00 
SP   1    1.000000
   4.38000000E-02    1.00000000E+00   1.00000000E+00 
D    1    1.000000
   6.26000000E-01    1.00000000E+00 

8    0
S    6    1.000000
   8.58850000E+03    1.89515000E-03 
   1.29723000E+03    1.43859000E-02 
   2.99296000E+02    7.07320000E-02 
   8.73771000E+01    2.40001000E-01 
   2.56789000E+01    5.94797000E-01 
   3.74004000E+00    2.80802000E-01 
SP   3    1.000000
   4.21175000E+01    1.13889000E-01   3.65114000E-02 
   9.62837000E+00    9.20811000E-01   2.37153000E-01 
   2.85332000E+00   -3.27447000E-03   8.19702000E-01 
SP   1    1.000000
   9.05661000E-01    1.00000000E+00   1.00000000E+00 
SP   1    1.000000
   2.55611000E-01    1.00000000E+00   1.00000000E+00 
SP   1    1.000000
   8.45000000E-02    1.00000000E+00   1.00000000E+00 
D    1    1.000000
   1.29200000E+00    1.00000000E+00 

9    0
S    6    1.000000
   6.29348000E+03    1.96979000E-03 
   9.49044000E+02    1.49613000E-02 
   2.18776000E+02    7.35006000E-02 
   6.36916000E+01    2.48937000E-01 
   1.88282000E+01    6.02460000E-01 
   2.72023000E+00    2.56202000E-01 
SP   3    1.000000
   3.06331000E+01    1.11906000E-01   3.83119000E-02 
   7.02614000E+00    9.21666000E-01   2.37403000E-01 
   2.11205000E+00   -2.56919000E-03   8.17592000E-01 
SP   1    1.000000
   6.84009000E-01    1.00000000E+00   1.00000000E+00 
SP   1    1.000000
   2.00878000E-01    1.00000000E+00   1.00000000E+00 
SP   1    1.000000
   6.39000000E-02    1.00000000E+00   1.00000000E+00 
D    1    1.000000
   9.13000000E-01    1.00000000E+00 

10    0
S    6    1.000000
   6.29348000E+03    1.96979000E-03 
   9.49044000E+02    1.49613000E-02 
   2.18776000E+02    7.35006000E-02 
   6.36916000E+01    2.48937000E-01 
   1.88282000E+01    6.02460000E-01 
   2.72023000E+00    2.56202000E-01 
SP   3    1.000000
   3.06331000E+01    1.11906000E-01   3.83119000E-02 
   7.02614000E+00    9.21666000E-01   2.37403000E-01 
   2.11205000E+00   -2.56919000E-03   8.17592000E-01 
SP   1    1.000000
   6.84009000E-01    1.00000000E+00   1.00000000E+00 
SP   1    1.000000
   2.00878000E-01    1.00000000E+00   1.00000000E+00 
SP   1    1.000000
   6.39000000E-02    1.00000000E+00   1.00000000E+00 
D    1    1.000000
   9.13000000E-01    1.00000000E+00 

11    0
S    6    1.000000
   4.56324000E+03    1.96665000E-03 
   6.82024000E+02    1.52306000E-02 
   1.54973000E+02    7.61269000E-02 
   4.44553000E+01    2.60801000E-01 
   1.30290000E+01    6.16462000E-01 
   1.82773000E+00    2.21006000E-01 
SP   3    1.000000
   2.09642000E+01    1.14660000E-01   4.02487000E-02 
   4.80331000E+00    9.19999000E-01   2.37594000E-01 
   1.45933000E+00   -3.03068000E-03   8.15854000E-01 
SP   1    1.000000
   4.83456000E-01    1.00000000E+00   1.00000000E+00 
SP   1    1.000000
   1.45585000E-01    1.00000000E+00   1.00000000E+00 
SP   1    1.000000
   4.38000000E-02    1.00000000E+00   1.00000000E+00 
D    1    1.000000
   6.26000000E-01    1.00000000E+00 

12    0
S    3    1.000000
   3.38650000E+01    2.54938000E-02 
   5.09479000E+00    1.90373000E-01 
   1.15879000E+00    8.52161000E-01 
S    1    1.000000
   3.25840000E-01    1.00000000E+00 
S    1    1.000000
   1.02741000E-01    1.00000000E+00 
S    1    1.000000
   3.60000000E-02    1.00000000E+00 
P    1    1.000000
   7.50000000E-01    1.00000000E+00 

[MO]
Sym=X
Ene= -0.002457
Spin=Alpha
Occup=1
     1    2.460559486115e-06
     2    5.896610391836e-06
     3   -4.586917125907e-06
     4   -1.930338071776e-06
     5    9.299474297722e-16
     6   -2.800723473639e-05
     7    1.907890624926e-06
     8   -3.829937749015e-06
     9   -2.039712666409e-15
    10    3.565688913162e-04
    11    9.184987583770e-05
    12    2.436612601223e-04
    13    3.446709316599e-15
    14   -1.798792222474e-04
    15   -2.673536143332e-04
    16    5.527609035185e-04
    17   -6.164219094965e-15
    18   -3.124461016219e-06
    19   -1.404933983294e-15
    20    3.780868425654e-16
    21    5.572868854764e-06
    22   -4.011783832372e-06
    23   -1.739637613856e-06
    24   -1.092029268589e-05
    25    2.061066281914e-05
    26   -8.763874056390e-05
    27    4.110124306168e-06
    28   -2.899587197890e-06
    29   -2.585944041498e-16
    30    2.673171567806e-06
    31    2.419043085770e-05
    32    1.594667203360e-04
    33    3.247811980341e-04
    34   -4.249546325926e-06
    35    2.896247503229e-06
    36   -1.178285085818e-16
    37   -2.107123563622e-06
    38   -5.643142724742e-05
    39   -5.624725255357e-05
    40   -7.947583737724e-05
    41    8.587246840825e-06
    42    7.349828128704e-06
    43    6.053448934458e-18
    44    1.257202918015e-07
    45   -2.044909397876e-06
    46   -3.259692483094e-06
    47    2.204872530429e-06
    48    1.061667646271e-15
    49    1.310066110346e-05
    50    2.517234880211e-05
    51    3.572754925793e-06
    52   -2.962687379755e-15
    53    2.697899128800e-04
    54    1.419919243536e-04
    55    1.953664638221e-05
    56    2.178476071626e-15
    57    1.870405644347e-04
    58   -2.368849723562e-05
    59    1.794816331244e-04
    60    4.314463038686e-15
    61   -4.269941040163e-06
    62   -3.080207804294e-16
    63   -4.441814515450e-16
    64    1.281863265898e-06
    65   -3.310470522704e-06
    66   -2.915038529119e-05
    67   -2.623538435527e-05
    68   -5.107104748368e-06
    69   -6.054012424796e-06
    70    1.036709615396e-15
    71    1.075107851868e-05
    72   -3.998152074022e-06
    73   -1.074492302743e-05
    74   -3.014628018229e-15
    75   -2.340819152571e-05
    76   -2.309108334058e-05
    77   -6.308268611479e-06
    78    4.944843616370e-15
    79    2.174736714668e-04
    80    1.355856029212e-04
    81   -3.035539652039e-05
    82   -6.356782563579e-15
    83    3.110877574650e-08
    84    5.770925615871e-16
    85    1.208488395720e-15
    86   -6.210896273323e-08
    87    1.213312826759e-07
    88   -4.780811611300e-06
    89    6.992016732489e-05
    90   -4.740303548172e-05
    91   -2.980251150738e-05
    92   -4.974180851090e-16
    93   -2.678152770446e-04
    94   -3.489752089935e-04
    95   -2.206109990316e-04
    96    8.816358474179e-17
    97    3.040122978057e-04
    98   -4.371809196774e-04
    99   -3.788797203093e-04
   100   -3.772617167444e-16
   101    2.424121050830e-03
   102    5.604065143239e-04
   103   -4.451372296620e-04
   104   -3.859946099891e-15
   105    5.527181153171e-05
   106   -6.678325480068e-16
   107    1.384860262194e-16
   108   -1.017519614924e-04
   109   -1.835613760583e-04
   110   -5.515121683205e-01
   111   -4.716933919454e-01
   112    1.507823002260e-03
   113    9.301352027095e-04
   114    9.797607163738e-16
   115   -5.389327720459e-03
   116   -6.193643915174e-04
   117   -4.191529239997e-04
   118   -1.273238573433e-15
   119    1.184010462285e-03
   120    1.678836539218e-04
   121    1.013047462568e-04
   122    2.033449327592e-15
   123   -1.294357079127e-03
   124    1.919028878693e-05
   125    7.376986632989e-06
   126   -4.361192540103e-16
   127    9.250279180259e-05
   128   -4.762759349386e-16
   129    8.406859982761e-17
   130    4.172513957641e-05
   131    1.057708837219e-04
   132    1.464064959469e-06
   133    9.724126785776e-07
   134    1.067398438601e-05
   135   -3.479301655898e-06
   136   -6.120061398987e-16
   137    2.350687820281e-05
   138   -2.785385112141e-05
   139    7.975834373824e-06
   140    1.008099796639e-15
   141   -3.008078250449e-04
   142    8.988090531730e-05
   143    2.312359204879e-04
   144   -1.060018749911e-15
   145    6.597688993522e-05
   146    5.300129288001e-04
   147    6.066836426428e-05
   148    1.477477437114e-15
   149    7.258665468432e-06
   150   -1.074881452182e-15
   151   -4.010074789281e-16
   152   -1.520498329422e-05
   153    1.656078539808e-05
   154   -1.553760380614e-06
   155   -3.276751145321e-06
   156   -1.303321232639e-06
   157    1.858141339261e-08
   158    2.460832515793e-16
   159    1.809579993960e-05
   160   -1.603536385349e-06
   161    2.318966301981e-06
   162   -4.172477748703e-16
   163   -1.142882511989e-04
   164   -6.546288624973e-05
   165   -6.580473541811e-06
   166   -1.203032217874e-15
   167   -1.447590536757e-04
   168    7.724136829452e-05
   169   -1.836747672977e-05
   170    1.235753145849e-15
   171   -1.223073465463e-07
   172   -1.009586557794e-16
   173   -6.998702149420e-17
   174   -1.087553258078e-08
   175    3.071726419391e-06
   176   -3.975908860250e-06
   177   -4.578142884283e-06
   178    5.237779620892e-06
   179    1.511975839353e-05
   180   -1.374271904331e-15
   181    3.371049121292e-05
   182   -7.886471401525e-06
   183   -9.405488661579e-05
   184    3.426638071219e-15
   185   -5.330656556381e-04
   186    4.570023468612e-04
   187   -1.737471825630e-04
   188   -3.728453898863e-15
   189   -1.700109688651e-03
   190   -1.064643303344e-04
   191   -1.169267655872e-03
   192    5.780483801784e-15
   193    7.900151389567e-06
   194   -5.326521959706e-16
   195   -3.847291672332e-16
   196    3.155160657982e-05
   197   -3.674684307662e-05
   198    2.525798467971e-06
   199   -1.168493086453e-04
   200   -1.620159580722e-04
   201   -4.273195790147e-04
   202    1.998996171549e-05
   203   -1.182800158555e-05
   204    8.225872312612e-16
Sym=X
Ene= 0.002457
Spin=Alpha
Occup=0
     1    1.486442925800e-02
     2    2.658547035139e-02
     3    9.742605709596e-03
     4    3.790983957727e-02
     5    4.343368601001e-14
     6   -8.160516223584e-02
     7    1.172025848711e-02
     8    6.521784741389e-02
     9    8.265155660925e-14
    10   -3.330198478068e-01
    11    5.199558515269e-02
    12    1.584528655817e-01
    13    1.099203345449e-13
    14   -1.422144182789e+00
    15    3.775552040135e-01
    16    1.094300390935e+00
    17   -2.389724844137e-13
    18    2.545636426173e-03
    19    2.320881011805e-15
    20   -6.783855825163e-15
    21   -1.337464046248e-02
    22    5.756048329613e-03
    23    2.190571482712e-02
    24    5.601985367134e-02
    25    6.312478602445e-03
    26    4.719546975621e-01
    27   -2.211231388834e-03
    28   -2.749684752723e-03
    29   -8.112585383085e-16
    30   -2.770115798779e-04
    31    2.153544539827e-02
    32    3.491563926149e-01
    33    2.090623715465e+00
    34   -1.307695171217e-03
    35   -1.079861575247e-02
    36    7.500878572331e-15
    37   -5.067533421170e-03
    38   -1.016844791663e-02
    39   -3.306862064766e-01
    40   -9.137935908268e-01
    41   -2.742968431485e-03
    42   -3.323151214781e-03
    43    4.247082005699e-15
    44    1.991871792239e-03
    45    3.698142164133e-03
    46    1.562519952071e-03
    47    2.348402776218e-02
    48   -4.091390505739e-14
    49   -1.619907032887e-02
    50   -3.176668559783e-03
    51    4.083425460481e-02
    52   -8.656379175704e-14
    53    1.052948924256e-01
    54    4.223298195482e-02
    55    3.136466562907e-02
    56   -8.628068326472e-14
    57   -2.802722416916e-01
    58    1.654064291142e-01
    59    5.782393196542e-01
    60   -2.200785841044e-13
    61   -4.736877279064e-04
    62    1.561183353051e-14
    63    1.151940562539e-15
    64   -1.047362828776e-02
    65   -4.266729571415e-03
    66    1.781483492326e-03
    67    2.959503627697e-03
    68    2.627889877589e-02
    69    3.405392438887e-02
    70    2.059861174415e-14
    71   -7.828204222371e-03
    72    4.024250006044e-02
    73    5.115756343236e-02
    74    2.671339273213e-14
    75   -2.359447500779e-02
    76    2.673334556822e-02
    77    5.672084170464e-02
    78    6.313831754449e-14
    79    4.621115926587e-02
    80    1.585161400604e-02
    81   -6.057894694996e-02
    82    2.530039554321e-14
    83   -2.827099929669e-04
    84   -1.290405262547e-15
    85    4.365282088603e-15
    86    3.573960973659e-03
    87    2.141973879482e-03
    88    2.857962665973e-03
    89    4.880896403133e-03
    90   -5.312831645608e-03
    91    1.975752369431e-02
    92   -3.191395952789e-14
    93   -9.502097008218e-03
    94   -7.291059799106e-03
    95    3.197205123894e-02
    96   -3.275473304899e-14
    97   -4.785144139306e-02
    98   -1.417097827582e-01
    99   -1.627597286367e-02
   100   -1.256093012006e-13
   101   -5.234704317511e-01
   102    1.302606006447e-01
   103   -2.193425386479e-01
   104   -6.472371084571e-13
   105   -1.010208800153e-03
   106    1.091353049158e-14
   107    8.448379354883e-15
   108   -1.641005083430e-02
   109    1.077716352505e-02
   110   -4.056475924605e-03
   111   -7.039974348139e-03
   112   -6.860586062876e-02
   113    7.430971083594e-02
   114    2.027034449841e-14
   115    2.069330945286e-02
   116   -8.773726721691e-02
   117    9.522966456174e-02
   118    3.634933327927e-14
   119    6.176801933650e-02
   120   -8.185924008845e-02
   121    6.319898065382e-02
   122    1.246859725234e-14
   123    3.098965912971e-01
   124   -5.924470659061e-02
   125   -3.814688579396e-02
   126    2.195497359304e-13
   127   -6.969994770494e-04
   128   -1.584759401506e-15
   129    2.341686787040e-16
   130    7.356758249015e-03
   131   -1.918322332856e-03
   132    3.625941755996e-03
   133    5.818204387494e-03
   134   -6.455864186073e-03
   135    1.903458253143e-02
   136    2.747551837018e-14
   137   -1.317924165706e-02
   138   -9.323888365713e-03
   139    2.640372258423e-02
   140    4.726921029448e-14
   141   -3.984932720609e-02
   142   -6.874343118676e-03
   143    8.246697330813e-02
   144    4.502928384636e-14
   145    4.569474509303e-02
   146    1.391613884078e-01
   147    5.685568581725e-01
   148    2.988813393166e-13
   149   -6.598102171347e-04
   150   -3.502470326610e-15
   151    3.879759779724e-15
   152    2.201058750710e-03
   153   -1.693842641053e-03
   154    1.925890476389e-03
   155    3.541977963702e-03
   156    4.240132057787e-03
   157    8.392346307558e-03
   158   -2.515462354249e-14
   159   -1.493953757365e-02
   160    6.967187110820e-03
   161    1.584385634422e-02
   162   -3.444978417885e-14
   163   -5.835219548726e-02
   164    2.619344478137e-02
   165    1.919881394823e-03
   166   -1.041477008094e-13
   167    3.735203753395e-01
   168   -5.574553775276e-04
   169   -1.304171078797e-01
   170    3.157054424861e-13
   171    3.141398989245e-03
   172    2.516792727710e-15
   173   -5.555179154800e-15
   174    9.533335100212e-03
   175    3.097817036717e-03
   176   -6.466618772503e-04
   177   -1.556318653415e-04
   178   -2.215017611259e-02
   179    1.301166599797e-02
   180   -3.622657876132e-14
   181   -6.147643385712e-03
   182   -4.091512685191e-02
   183    3.022215195567e-02
   184   -4.440462651982e-14
   185   -1.978716348190e-01
   186   -3.915504012718e-02
   187    4.140273923542e-02
   188   -1.495104180443e-13
   189   -1.204521342603e+00
   190   -8.240592221248e-01
   191    2.353257220905e-01
   192    6.318668320947e-13
   193    2.251648546388e-03
   194   -5.328164526852e-15
   195   -1.149990410178e-14
   196    1.258936773458e-02
   197   -9.140504276234e-03
   198    2.937057268774e-02
   199    5.498365217861e-02
   200    2.714567601088e-01
   201    1.722812961017e+00
   202    3.085550363486e-03
   203   -5.833539068517e-03
   204   -3.650828262310e-15
[5D]
