[Molden Format]
[Atoms] (Angs)
  C      1    6     -0.13173890     -1.79208980      0.00000000
  H      2    1     -2.14962000     -1.30978739      0.00000000
  H      3    1     -0.31599560     -2.86503115      0.00000000
  H      4    1      0.14407746      2.04280963     -0.00000000
  C      5    6     -1.17258876      0.48030861      0.00000000
  O      6    8     -2.25008207      1.06833796      0.00000000
  C      7    6      1.31158357      0.28308717     -0.00000000
  O      8    8      2.36361668      0.96389345     -0.00000000
  N      9    7      0.07017030      1.03138997     -0.00000000
  N     10    7     -1.19586868     -0.94982644      0.00000000
  C     11    6      1.19165158     -1.13169473     -0.00000000
  H     12    1      2.09970506     -1.73445456     -0.00000000
[GTO]
1    0
S    6    1.000000
   4.56324000E+03    1.96665000E-03 
   6.82024000E+02    1.52306000E-02 
   1.54973000E+02    7.61269000E-02 
   4.44553000E+01    2.60801000E-01 
   1.30290000E+01    6.16462000E-01 
   1.82773000E+00    2.21006000E-01 
SP   3    1.000000
   2.09642000E+01    1.14660000E-01   4.02487000E-02 
   4.80331000E+00    9.19999000E-01   2.37594000E-01 
   1.45933000E+00   -3.03068000E-03   8.15854000E-01 
SP   1    1.000000
   4.83456000E-01    1.00000000E+00   1.00000000E+00 
SP   1    1.000000
   1.45585000E-01    1.00000000E+00   1.00000000E+00 
SP   1    1.000000
   4.38000000E-02    1.00000000E+00   1.00000000E+00 
D    1    1.000000
   6.26000000E-01    1.00000000E+00 

2    0
S    3    1.000000
   3.38650000E+01    2.54938000E-02 
   5.09479000E+00    1.90373000E-01 
   1.15879000E+00    8.52161000E-01 
S    1    1.000000
   3.25840000E-01    1.00000000E+00 
S    1    1.000000
   1.02741000E-01    1.00000000E+00 
S    1    1.000000
   3.60000000E-02    1.00000000E+00 
P    1    1.000000
   7.50000000E-01    1.00000000E+00 

3    0
S    3    1.000000
   3.38650000E+01    2.54938000E-02 
   5.09479000E+00    1.90373000E-01 
   1.15879000E+00    8.52161000E-01 
S    1    1.000000
   3.25840000E-01    1.00000000E+00 
S    1    1.000000
   1.02741000E-01    1.00000000E+00 
S    1    1.000000
   3.60000000E-02    1.00000000E+00 
P    1    1.000000
   7.50000000E-01    1.00000000E+00 

4    0
S    3    1.000000
   3.38650000E+01    2.54938000E-02 
   5.09479000E+00    1.90373000E-01 
   1.15879000E+00    8.52161000E-01 
S    1    1.000000
   3.25840000E-01    1.00000000E+00 
S    1    1.000000
   1.02741000E-01    1.00000000E+00 
S    1    1.000000
   3.60000000E-02    1.00000000E+00 
P    1    1.000000
   7.50000000E-01    1.00000000E+00 

5    0
S    6    1.000000
   4.56324000E+03    1.96665000E-03 
   6.82024000E+02    1.52306000E-02 
   1.54973000E+02    7.61269000E-02 
   4.44553000E+01    2.60801000E-01 
   1.30290000E+01    6.16462000E-01 
   1.82773000E+00    2.21006000E-01 
SP   3    1.000000
   2.09642000E+01    1.14660000E-01   4.02487000E-02 
   4.80331000E+00    9.19999000E-01   2.37594000E-01 
   1.45933000E+00   -3.03068000E-03   8.15854000E-01 
SP   1    1.000000
   4.83456000E-01    1.00000000E+00   1.00000000E+00 
SP   1    1.000000
   1.45585000E-01    1.00000000E+00   1.00000000E+00 
SP   1    1.000000
   4.38000000E-02    1.00000000E+00   1.00000000E+00 
D    1    1.000000
   6.26000000E-01    1.00000000E+00 

6    0
S    6    1.000000
   8.58850000E+03    1.89515000E-03 
   1.29723000E+03    1.43859000E-02 
   2.99296000E+02    7.07320000E-02 
   8.73771000E+01    2.40001000E-01 
   2.56789000E+01    5.94797000E-01 
   3.74004000E+00    2.80802000E-01 
SP   3    1.000000
   4.21175000E+01    1.13889000E-01   3.65114000E-02 
   9.62837000E+00    9.20811000E-01   2.37153000E-01 
   2.85332000E+00   -3.27447000E-03   8.19702000E-01 
SP   1    1.000000
   9.05661000E-01    1.00000000E+00   1.00000000E+00 
SP   1    1.000000
   2.55611000E-01    1.00000000E+00   1.00000000E+00 
SP   1    1.000000
   8.45000000E-02    1.00000000E+00   1.00000000E+00 
D    1    1.000000
   1.29200000E+00    1.00000000E+00 

7    0
S    6    1.000000
   4.56324000E+03    1.96665000E-03 
   6.82024000E+02    1.52306000E-02 
   1.54973000E+02    7.61269000E-02 
   4.44553000E+01    2.60801000E-01 
   1.30290000E+01    6.16462000E-01 
   1.82773000E+00    2.21006000E-01 
SP   3    1.000000
   2.09642000E+01    1.14660000E-01   4.02487000E-02 
   4.80331000E+00    9.19999000E-01   2.37594000E-01 
   1.45933000E+00   -3.03068000E-03   8.15854000E-01 
SP   1    1.000000
   4.83456000E-01    1.00000000E+00   1.00000000E+00 
SP   1    1.000000
   1.45585000E-01    1.00000000E+00   1.00000000E+00 
SP   1    1.000000
   4.38000000E-02    1.00000000E+00   1.00000000E+00 
D    1    1.000000
   6.26000000E-01    1.00000000E+00 

8    0
S    6    1.000000
   8.58850000E+03    1.89515000E-03 
   1.29723000E+03    1.43859000E-02 
   2.99296000E+02    7.07320000E-02 
   8.73771000E+01    2.40001000E-01 
   2.56789000E+01    5.94797000E-01 
   3.74004000E+00    2.80802000E-01 
SP   3    1.000000
   4.21175000E+01    1.13889000E-01   3.65114000E-02 
   9.62837000E+00    9.20811000E-01   2.37153000E-01 
   2.85332000E+00   -3.27447000E-03   8.19702000E-01 
SP   1    1.000000
   9.05661000E-01    1.00000000E+00   1.00000000E+00 
SP   1    1.000000
   2.55611000E-01    1.00000000E+00   1.00000000E+00 
SP   1    1.000000
   8.45000000E-02    1.00000000E+00   1.00000000E+00 
D    1    1.000000
   1.29200000E+00    1.00000000E+00 

9    0
S    6    1.000000
   6.29348000E+03    1.96979000E-03 
   9.49044000E+02    1.49613000E-02 
   2.18776000E+02    7.35006000E-02 
   6.36916000E+01    2.48937000E-01 
   1.88282000E+01    6.02460000E-01 
   2.72023000E+00    2.56202000E-01 
SP   3    1.000000
   3.06331000E+01    1.11906000E-01   3.83119000E-02 
   7.02614000E+00    9.21666000E-01   2.37403000E-01 
   2.11205000E+00   -2.56919000E-03   8.17592000E-01 
SP   1    1.000000
   6.84009000E-01    1.00000000E+00   1.00000000E+00 
SP   1    1.000000
   2.00878000E-01    1.00000000E+00   1.00000000E+00 
SP   1    1.000000
   6.39000000E-02    1.00000000E+00   1.00000000E+00 
D    1    1.000000
   9.13000000E-01    1.00000000E+00 

10    0
S    6    1.000000
   6.29348000E+03    1.96979000E-03 
   9.49044000E+02    1.49613000E-02 
   2.18776000E+02    7.35006000E-02 
   6.36916000E+01    2.48937000E-01 
   1.88282000E+01    6.02460000E-01 
   2.72023000E+00    2.56202000E-01 
SP   3    1.000000
   3.06331000E+01    1.11906000E-01   3.83119000E-02 
   7.02614000E+00    9.21666000E-01   2.37403000E-01 
   2.11205000E+00   -2.56919000E-03   8.17592000E-01 
SP   1    1.000000
   6.84009000E-01    1.00000000E+00   1.00000000E+00 
SP   1    1.000000
   2.00878000E-01    1.00000000E+00   1.00000000E+00 
SP   1    1.000000
   6.39000000E-02    1.00000000E+00   1.00000000E+00 
D    1    1.000000
   9.13000000E-01    1.00000000E+00 

11    0
S    6    1.000000
   4.56324000E+03    1.96665000E-03 
   6.82024000E+02    1.52306000E-02 
   1.54973000E+02    7.61269000E-02 
   4.44553000E+01    2.60801000E-01 
   1.30290000E+01    6.16462000E-01 
   1.82773000E+00    2.21006000E-01 
SP   3    1.000000
   2.09642000E+01    1.14660000E-01   4.02487000E-02 
   4.80331000E+00    9.19999000E-01   2.37594000E-01 
   1.45933000E+00   -3.03068000E-03   8.15854000E-01 
SP   1    1.000000
   4.83456000E-01    1.00000000E+00   1.00000000E+00 
SP   1    1.000000
   1.45585000E-01    1.00000000E+00   1.00000000E+00 
SP   1    1.000000
   4.38000000E-02    1.00000000E+00   1.00000000E+00 
D    1    1.000000
   6.26000000E-01    1.00000000E+00 

12    0
S    3    1.000000
   3.38650000E+01    2.54938000E-02 
   5.09479000E+00    1.90373000E-01 
   1.15879000E+00    8.52161000E-01 
S    1    1.000000
   3.25840000E-01    1.00000000E+00 
S    1    1.000000
   1.02741000E-01    1.00000000E+00 
S    1    1.000000
   3.60000000E-02    1.00000000E+00 
P    1    1.000000
   7.50000000E-01    1.00000000E+00 

[MO]
Sym=X
Ene= -0.003490
Spin=Alpha
Occup=1
     1    1.955158010428e-15
     2    5.046080096817e-15
     3    1.249843017751e-14
     4    5.493201397053e-15
     5   -1.628956267498e-02
     6   -2.369262304050e-14
     7    4.469689641074e-14
     8    4.171970778772e-14
     9   -2.060606897274e-02
    10   -1.682547604432e-13
    11    2.271385833321e-13
    12    8.197746759022e-15
    13    5.404063035916e-02
    14    1.093262739729e-13
    15    1.248988257410e-12
    16   -6.007405848407e-13
    17    2.083994908827e-02
    18    1.083822766061e-14
    19   -3.926518727732e-04
    20   -2.111598454029e-03
    21    5.549930454872e-15
    22   -1.170304384544e-14
    23   -1.570345290570e-14
    24    7.796278343525e-14
    25    5.922809410197e-13
    26    1.923542873951e-13
    27   -1.450522296016e-14
    28    7.936146454634e-15
    29   -9.141111559512e-03
    30   -2.359903721811e-14
    31    8.384385535408e-14
    32    1.274801755546e-13
    33    3.632117333399e-13
    34    3.531345567497e-15
    35    2.566520589067e-14
    36    6.290998175458e-04
    37    1.428629778989e-14
    38   -1.926487501314e-14
    39    6.545180172827e-13
    40   -6.884282312531e-13
    41    3.113879322642e-15
    42    1.175818389242e-14
    43    6.321266353724e-03
    44    6.821183434597e-15
    45    1.395640942987e-14
    46   -2.274227850853e-15
    47    1.285664894388e-14
    48    8.693640422840e-03
    49   -5.727224277253e-14
    50    2.346711108601e-14
    51   -1.807459191659e-15
    52    2.354541710617e-02
    53   -3.813995320575e-14
    54   -1.727469798804e-13
    55    2.393529810747e-13
    56    5.330059272000e-02
    57    2.831598926911e-12
    58    1.077536233163e-12
    59   -9.510003029256e-14
    60    1.705627875093e-02
    61    1.142219885366e-14
    62   -6.260808449310e-03
    63    1.186063534488e-02
    64    1.486798443324e-14
    65   -1.191032064988e-14
    66   -3.777387202937e-16
    67   -1.282458461533e-15
    68    1.153610947662e-14
    69   -5.215507914721e-15
    70    3.922300073376e-02
    71    4.192703309677e-15
    72    2.358846458198e-14
    73   -4.953210054618e-15
    74    5.950900046556e-02
    75   -4.908334899676e-14
    76   -2.088303831072e-14
    77   -4.702727992340e-14
    78    6.423802454172e-02
    79   -4.902969050308e-13
    80   -4.730193116417e-13
    81   -4.168990423722e-14
    82    3.597547857813e-02
    83   -6.004650688864e-15
    84    5.158856325876e-03
    85   -2.567234002152e-03
    86   -7.297921674042e-15
    87   -2.359175942748e-15
    88    4.778663199720e-15
    89    2.407594237468e-15
    90    1.332032544533e-14
    91   -1.169883051164e-14
    92    1.795196945508e-01
    93    2.142542800831e-14
    94    6.280200600792e-14
    95   -4.442516081453e-14
    96    3.391409003294e-01
    97   -2.076003217166e-13
    98    1.936950430710e-13
    99   -1.371166805538e-13
   100    3.726367082153e-01
   101   -1.622007337745e-11
   102    1.149656200010e-14
   103    5.456864850420e-12
   104    8.028832658332e-02
   105   -1.764276961779e-14
   106    2.523348449559e-02
   107   -2.384199993567e-02
   108    7.224292595004e-15
   109    6.117431491123e-15
   110   -2.337497434713e-15
   111   -5.597297727192e-15
   112   -4.659333977880e-15
   113    1.043557925223e-14
   114    1.007087836168e-01
   115    1.161668921302e-14
   116   -3.726745601067e-15
   117   -4.482617162005e-16
   118    1.559297011528e-01
   119    3.121982949266e-14
   120    1.502986145393e-16
   121    1.213178390462e-13
   122    1.416205974171e-01
   123    5.971284577081e-13
   124   -3.044412436234e-13
   125   -1.449470779007e-13
   126    3.015858681372e-02
   127   -1.741108192713e-15
   128   -2.362285039923e-02
   129   -1.540344501464e-02
   130    1.598838293371e-15
   131   -2.715229883748e-15
   132   -3.746830476120e-15
   133   -8.894383858909e-15
   134    2.311522257255e-14
   135   -1.459098219497e-14
   136    4.503852184808e-02
   137    1.484886225109e-14
   138    2.735358301824e-14
   139   -9.583744238105e-15
   140    8.189889950258e-02
   141    1.734712782700e-13
   142    2.138555149247e-13
   143   -1.399535626861e-13
   144   -3.029262919806e-02
   145   -6.619421256620e-13
   146   -1.075866882473e-12
   147   -1.254728155488e-12
   148   -9.445511552106e-02
   149    6.402813840104e-15
   150    3.553077284686e-03
   151   -3.075429453629e-03
   152   -1.442450964805e-14
   153   -1.724735175183e-14
   154   -2.809222878829e-16
   155    3.914436761827e-15
   156    9.735431465153e-15
   157   -3.077187537428e-15
   158   -1.114872114782e-01
   159   -3.100145357097e-14
   160    3.488702620585e-14
   161   -3.537925161134e-15
   162   -1.787788099056e-01
   163    1.595154892475e-13
   164    1.023122270141e-13
   165    5.655960777909e-14
   166   -1.437205813342e-01
   167   -3.630394580568e-13
   168    3.800998226505e-13
   169   -7.713500510673e-13
   170   -2.549643406673e-02
   171   -6.848774706998e-15
   172    4.537002840483e-03
   173    6.098079467876e-03
   174   -1.881660595112e-15
   175    2.074367101793e-14
   176   -1.982588484238e-15
   177   -1.116186249447e-14
   178    1.682880804609e-14
   179   -7.546687388865e-15
   180   -1.278074948396e-02
   181    7.058733410787e-14
   182    7.312656838702e-14
   183   -1.705869724937e-14
   184   -2.448650194431e-02
   185   -1.417186369003e-13
   186    1.832825552044e-13
   187   -7.624059782713e-14
   188   -4.028732015879e-02
   189    1.377752996945e-11
   190    1.809375423033e-12
   191    5.096774849134e-12
   192   -2.010825493478e-02
   193    2.709598461148e-15
   194   -2.697982762613e-03
   195    6.211344758600e-02
   196    9.800487950678e-15
   197    8.421945943815e-15
   198    8.604081910321e-15
   199   -5.428652876436e-14
   200   -6.808112216514e-13
   201    1.189201622841e-13
   202    1.464006567995e-14
   203   -3.964708533400e-15
   204    1.550855168303e-03
Sym=X
Ene= -0.010866
Spin=Alpha
Occup=1
     1    1.430063779405e-15
     2    3.419713759798e-15
     3   -4.569934153783e-15
     4    3.177569042041e-15
     5    8.485694164182e-02
     6   -7.129207935386e-14
     7   -4.376074355414e-14
     8    4.996706776675e-14
     9    1.396084208830e-01
    10    1.412756543918e-12
    11    8.962027809463e-14
    12    9.607698127674e-13
    13    1.921063233747e-01
    14    5.588400577995e-13
    15   -1.131305450150e-13
    16    3.810663251206e-13
    17    7.026962344526e-02
    18    1.154464648563e-14
    19    1.994805086359e-02
    20    6.345536148864e-04
    21    4.727551304703e-14
    22   -3.337552590691e-14
    23   -1.120326135579e-16
    24   -3.196452422364e-14
    25   -4.873265611967e-13
    26    1.803660434427e-13
    27    1.740937800188e-14
    28    7.160902927933e-15
    29   -1.366089495931e-02
    30   -3.187140270098e-15
    31    2.053708311278e-13
    32    1.079863676463e-13
    33   -1.803358393555e-13
    34   -1.563245021130e-14
    35   -2.125356622874e-15
    36    9.029925459673e-03
    37    1.873877146268e-15
    38   -7.925827336091e-14
    39   -4.158459812532e-13
    40    8.269366292361e-14
    41   -3.948324539168e-15
    42   -1.028844639594e-15
    43   -8.351715696988e-04
    44    2.415907025205e-16
    45   -2.933432326935e-15
    46    1.445793956356e-14
    47    4.554539499361e-15
    48   -4.177779116198e-03
    49   -3.885030898311e-14
    50    3.931379886903e-14
    51   -3.529694966570e-14
    52   -1.277780138284e-02
    53    9.509121206148e-13
    54    6.416568887503e-13
    55   -9.276685481960e-13
    56    2.920171246244e-02
    57   -6.363400986882e-13
    58    2.099330783577e-14
    59    2.092355611350e-13
    60    1.059577246676e-02
    61   -1.016236483514e-14
    62    7.680520903294e-03
    63    4.060937404369e-02
    64   -1.616723134797e-14
    65    2.794525613297e-14
    66   -3.360968378794e-15
    67   -7.095027504721e-15
    68   -9.471079293785e-15
    69   -1.219450072028e-14
    70    7.130895500449e-02
    71    3.854430530345e-14
    72   -3.157191345049e-14
    73   -5.278680056102e-14
    74    1.123260013842e-01
    75    1.639656554352e-13
    76    1.861736656503e-13
    77    1.517514066767e-13
    78    1.054979601013e-01
    79    7.893171304745e-13
    80    2.300860784747e-13
    81   -1.640420967641e-13
    82    3.175151480810e-02
    83    5.751139442700e-16
    84    2.658126339923e-03
    85    3.721143471001e-04
    86   -3.084738909571e-15
    87   -2.574484934563e-15
    88    4.960298242452e-16
    89    3.922505160880e-15
    90   -1.845667786292e-15
    91    3.327687001294e-15
    92   -2.410209151012e-02
    93   -7.418959076310e-14
    94   -5.522790407153e-14
    95    2.499026298843e-14
    96   -4.564465769262e-02
    97    1.014391239565e-12
    98   -1.082306733601e-12
    99   -5.383431528371e-13
   100   -9.288186820179e-02
   101    4.185486458460e-12
   102   -4.236439085748e-14
   103   -1.686102644400e-12
   104   -2.348269314243e-02
   105    2.251963308952e-14
   106   -4.871843955800e-03
   107   -4.544883688641e-02
   108   -1.224266718000e-14
   109   -2.725300933582e-14
   110   -4.571306300428e-15
   111   -7.422989471127e-15
   112    1.055746189838e-14
   113   -7.885887657649e-15
   114   -9.979664757193e-02
   115    4.285798181828e-14
   116    3.184349249422e-14
   117   -7.217125909565e-15
   118   -1.537586699340e-01
   119    2.123794720923e-13
   120   -1.876881855056e-13
   121   -1.195091739765e-13
   122   -1.606468906217e-01
   123    5.466994522283e-13
   124    3.500962058924e-14
   125   -3.789580401569e-14
   126   -4.625520108886e-02
   127    1.732633881913e-15
   128    7.958723504422e-03
   129    2.284922853664e-03
   130    1.812747783880e-15
   131    3.545557444280e-15
   132   -2.235088081868e-15
   133   -8.654583211244e-15
   134   -1.218190212862e-15
   135    3.453019174419e-15
   136   -2.334618711320e-04
   137    1.307221408370e-13
   138    2.688380207189e-14
   139   -1.934910502950e-14
   140   -2.343989366795e-03
   141   -8.764154093520e-13
   142   -2.326206641485e-13
   143    6.446814313800e-13
   144    4.385819508176e-05
   145   -2.542199341157e-13
   146    4.672094802795e-13
   147    7.155571040033e-13
   148    1.570460908708e-02
   149    5.544453703800e-15
   150   -2.285151510691e-02
   151    2.441236086277e-03
   152    9.796013862202e-15
   153   -8.754341540421e-17
   154   -1.092706163743e-14
   155   -2.634456889407e-14
   156    9.367463558883e-16
   157    5.871062625758e-15
   158   -1.354486628757e-01
   159    2.950016091772e-13
   160    3.369663101268e-14
   161    3.785979211403e-14
   162   -2.190983541130e-01
   163   -1.537279068748e-12
   164   -5.725719916782e-13
   165   -3.602988014498e-13
   166   -2.936848560939e-01
   167   -4.853083699315e-13
   168   -5.263533258585e-13
   169   -9.714560069994e-14
   170   -1.130843456726e-01
   171    3.469974407662e-15
   172    4.922111422806e-03
   173   -1.193157057009e-02
   174   -8.084587136041e-15
   175   -2.453775619294e-15
   176   -3.828045169532e-16
   177   -4.283458845310e-15
   178   -9.961293056918e-15
   179    1.130710667256e-14
   180    1.610570474291e-01
   181    8.530304888366e-14
   182   -9.326608443329e-15
   183   -1.736052573971e-15
   184    2.754211872285e-01
   185   -1.543754844483e-12
   186    7.147115332328e-13
   187   -4.444073899828e-13
   188    3.200536321919e-01
   189   -3.960227696994e-12
   190   -5.021856251129e-13
   191   -1.426774157183e-12
   192    2.060542493218e-02
   193    4.533413096842e-14
   194   -1.437962067756e-02
   195   -1.840380451963e-03
   196   -2.203036585485e-14
   197    3.849369513275e-14
   198    1.610071217184e-15
   199   -1.423209107584e-14
   200   -2.103766145509e-14
   201   -2.310695924159e-13
   202    5.245317107140e-15
   203    4.599400868031e-15
   204    1.264682329793e-02
Sym=X
Ene= -0.419865
Spin=Alpha
Occup=1
     1   -2.166424281077e-15
     2   -2.489818277244e-15
     3   -2.811649787327e-15
     4    6.315320374770e-15
     5    1.710491974916e-01
     6    2.622027464916e-14
     7   -2.726022132847e-14
     8   -9.438504957271e-16
     9    2.830279769831e-01
    10   -2.169500018548e-13
    11    5.223260983656e-15
    12    7.677271203531e-15
    13    4.542178459958e-01
    14    7.216772060604e-12
    15   -7.692591200240e-13
    16    1.783939575300e-12
    17    3.388022586357e-01
    18   -3.135743689299e-15
    19   -1.249485231169e-02
    20   -1.607243742805e-02
    21   -1.781626366368e-14
    22   -7.967421379871e-16
    23    1.786426625628e-14
    24   -1.006703999389e-13
    25    1.355660609070e-12
    26    1.796215128272e-12
    27   -2.241196123765e-14
    28   -7.138217688951e-15
    29   -1.064321243486e-02
    30    4.871272439796e-15
    31    2.983936418219e-15
    32    1.971965417224e-13
    33   -6.439640716752e-13
    34   -3.807190177552e-15
    35    6.254453371895e-15
    36    1.979005555398e-02
    37    7.682142697261e-16
    38    2.799461747946e-14
    39    1.071351787343e-13
    40    1.963063643292e-13
    41    4.974680285352e-16
    42   -5.002602220540e-15
    43    1.311958156334e-02
    44   -1.806252770228e-15
    45   -7.404401084824e-15
    46    8.643278618458e-15
    47   -1.012583784251e-14
    48   -3.680768060144e-02
    49    3.208368586288e-14
    50   -1.756341944321e-14
    51   -1.308409455774e-16
    52   -5.820244570865e-02
    53   -2.264118706347e-13
    54    1.919115025368e-14
    55   -8.115272675506e-14
    56   -1.172816210090e-01
    57   -1.706055527681e-12
    58   -1.907446929782e-13
    59   -2.332283681722e-13
    60   -6.889310160990e-02
    61   -2.657198343330e-15
    62    4.451267597145e-03
    63    3.586783273163e-02
    64    1.571776050263e-15
    65   -1.776597323655e-14
    66    2.209908258135e-15
    67    3.802900976467e-15
    68    1.001132818128e-14
    69    1.115968272662e-14
    70    3.909104118882e-02
    71   -3.494133169726e-15
    72    6.367695294566e-15
    73    2.304103957800e-14
    74    5.906432094582e-02
    75   -7.994955236945e-14
    76    7.516496392176e-15
    77    4.122110889706e-15
    78    7.383722644962e-02
    79    7.236750922417e-13
    80    2.341872927545e-13
    81   -1.222585810346e-13
    82    8.433196415439e-02
    83    2.764357737179e-15
    84    5.244687192275e-04
    85    1.745739439662e-03
    86   -2.392832139577e-15
    87    2.862761019122e-15
    88    8.725917974172e-16
    89    9.058784541214e-15
    90    8.549867683782e-15
    91    4.940172347756e-15
    92   -1.064274635581e-01
    93   -4.445708183831e-14
    94   -2.669701066982e-14
    95    1.493096287652e-14
    96   -1.748751939574e-01
    97    2.427268929973e-13
    98    1.844678489752e-13
    99    1.927336959428e-13
   100   -2.556940309964e-01
   101    1.755398972791e-11
   102   -1.839903670428e-12
   103   -4.064318847601e-12
   104   -3.346032229604e-02
   105   -1.630014738470e-15
   106    1.844642171508e-02
   107    4.378069331443e-02
   108   -3.999100147717e-15
   109   -1.150666166588e-15
   110   -2.063123929783e-15
   111   -1.413923200310e-15
   112    5.614573648541e-15
   113   -9.007831245965e-15
   114    1.104013421180e-01
   115   -7.361978379935e-16
   116   -8.140755223286e-15
   117    1.358437459591e-16
   118    1.656921994363e-01
   119    3.001128252971e-14
   120    5.967203105577e-14
   121   -5.528121533951e-14
   122    2.066868990108e-01
   123   -8.783295863213e-13
   124    2.396666321066e-13
   125    4.460721957251e-13
   126    1.505697558134e-01
   127   -2.285401801101e-15
   128   -6.934067574601e-04
   129    2.006575978855e-03
   130    7.389507646569e-16
   131    9.210354570533e-16
   132    3.016967181483e-15
   133    4.976761659757e-15
   134    1.299802208968e-14
   135   -4.115691471254e-15
   136    8.778575238131e-02
   137   -3.068002785436e-14
   138    4.294386457768e-15
   139   -1.327739672190e-15
   140    1.376066654525e-01
   141    7.138538248177e-14
   142    8.122272549838e-15
   143   -8.569911627813e-14
   144    2.036546682653e-01
   145   -1.270842621009e-12
   146   -3.317075362021e-14
   147    4.352253847302e-13
   148    1.453291223702e-01
   149    3.122840781549e-16
   150   -5.213282213983e-03
   151    9.286141859815e-03
   152   -2.055712629715e-15
   153   -4.310482974017e-16
   154    1.172644424530e-14
   155    1.790979636745e-14
   156    2.207749057242e-14
   157    6.985339486641e-15
   158   -8.745448600816e-02
   159   -6.951768492272e-14
   160    2.216731030224e-14
   161    9.842336034915e-15
   162   -1.339775862276e-01
   163   -6.121212873665e-14
   164    4.329959690601e-14
   165    3.696401485936e-15
   166   -2.176246721424e-01
   167   -2.098614862303e-12
   168    2.072859703419e-12
   169    8.403247247471e-13
   170   -2.306859788178e-01
   171   -7.702573893746e-15
   172    1.102431076852e-02
   173   -1.897703300087e-02
   174    4.271036023371e-15
   175    8.335841509654e-15
   176   -9.520695119149e-15
   177   -1.154183102840e-14
   178    2.491069660701e-14
   179   -1.253407313614e-14
   180   -1.004613663040e-01
   181   -9.791916788639e-15
   182    1.457246811710e-14
   183   -1.689246528042e-14
   184   -1.515839484175e-01
   185    6.311676361453e-13
   186    1.331096404852e-13
   187   -3.506897323073e-14
   188   -2.900634165025e-01
   189   -1.687350372435e-11
   190    5.247772245385e-12
   191   -6.021375147952e-12
   192   -2.432164681136e-01
   193   -1.984851754524e-14
   194   -9.917875262694e-03
   195   -2.590942919177e-02
   196    8.804401000862e-15
   197   -1.358011587780e-14
   198    1.594428454131e-14
   199   -3.255700619731e-14
   200   -5.027856101169e-13
   201   -5.464106580900e-12
   202    1.162424998725e-14
   203   -7.857749362162e-15
   204   -9.834177308330e-03
Sym=X
Ene= 0.419865
Spin=Alpha
Occup=0
     1   -2.320225079030e-16
     2    8.200144074921e-16
     3   -3.612051053020e-14
     4   -4.595854875465e-16
     5   -1.816502968564e-02
     6   -1.856976494163e-14
     7   -7.650229357233e-14
     8    1.955006249139e-14
     9   -3.376994582544e-02
    10    2.406059671821e-13
    11   -4.297883516027e-13
    12    3.154209905351e-13
    13   -3.438809355150e-02
    14    2.090666367992e-11
    15    3.269301468995e-12
    16    6.457386576489e-12
    17   -4.215637673052e-02
    18    1.963267800223e-14
    19    3.117277850759e-02
    20   -2.659693780551e-03
    21    1.241548039416e-14
    22   -3.004355409487e-14
    23   -8.758824190848e-15
    24    2.100538986536e-13
    25   -1.661712978699e-12
    26    1.869076262380e-12
    27    1.532139265343e-14
    28    1.352107712592e-14
    29   -1.322127083372e-02
    30   -2.438297717906e-14
    31    8.713844083670e-14
    32   -3.518925927324e-13
    33    1.122971423645e-12
    34    1.076487010305e-14
    35    1.471134830339e-14
    36   -9.109849359560e-04
    37    1.010532453586e-14
    38   -1.337056253718e-13
    39    5.778165226000e-13
    40   -4.424429062876e-13
    41    2.684824199996e-15
    42    4.191087033380e-15
    43   -5.879351670453e-03
    44   -9.985635941301e-16
    45   -5.372019216583e-15
    46    6.624665573274e-15
    47    2.646323228243e-14
    48    1.950905859155e-01
    49    2.457219988712e-14
    50    1.728687788232e-14
    51    5.364715307233e-14
    52    3.251354918863e-01
    53    2.234553695490e-13
    54    2.683939095200e-14
    55   -1.884950946553e-13
    56    5.571522642974e-01
    57   -1.213196759867e-11
    58   -1.516457499053e-12
    59    4.442051229816e-12
    60    1.499435221394e-01
    61   -1.814121406761e-14
    62    3.152474296367e-02
    63   -1.608273118824e-02
    64   -4.913159263006e-15
    65    1.215832417192e-14
    66   -2.676227028191e-15
    67   -5.566120167872e-15
    68   -6.357297383374e-15
    69   -1.578628579452e-14
    70   -1.168175292386e-01
    71    3.405472814284e-14
    72   -1.723733500532e-14
    73   -3.517856591495e-14
    74   -1.703096422061e-01
    75   -7.689788499153e-15
    76    3.486581356990e-15
    77    6.675457075682e-14
    78   -2.515826360997e-01
    79   -2.212661278136e-13
    80   -1.064377825545e-13
    81   -7.345395702105e-14
    82   -2.133525815533e-01
    83   -3.883664878365e-15
    84    7.042915927766e-03
    85   -2.604241110063e-03
    86   -1.045975621427e-15
    87    5.520530289952e-16
    88   -4.305807323071e-15
    89   -1.364465302948e-15
    90    1.221435511538e-14
    91   -1.094277432769e-14
    92   -1.418493508344e-01
    93   -3.464633766766e-14
    94   -5.012109634218e-15
    95   -2.152175487691e-14
    96   -2.380399106200e-01
    97    7.578445747030e-13
    98    1.105295691861e-15
    99   -2.515580857228e-13
   100   -3.666041049485e-01
   101    1.329350976897e-11
   102   -5.971975489264e-13
   103   -1.899374653303e-12
   104   -1.581756990192e-01
   105    1.619008929137e-14
   106    3.176727391581e-02
   107   -1.060326168294e-02
   108   -3.579308125631e-15
   109   -8.548222880787e-15
   110    4.025560136499e-15
   111    7.792618720337e-15
   112    5.785198981110e-15
   113    4.567599563772e-15
   114    8.385499483800e-02
   115   -2.223490183257e-14
   116    5.856720594364e-15
   117    1.085052290653e-14
   118    1.222592549477e-01
   119   -5.481047602630e-14
   120   -7.278966413365e-15
   121    1.991000700248e-14
   122    1.757603292471e-01
   123   -6.948547946968e-13
   124   -2.433720317524e-15
   125    1.456546317950e-13
   126    1.322341082327e-01
   127    3.086275528146e-15
   128    5.068773666870e-03
   129    9.500296345158e-04
   130    4.715789632300e-16
   131    4.764535010951e-15
   132   -3.860655073064e-15
   133   -1.012531161402e-14
   134   -1.575908171798e-15
   135   -3.587211890133e-16
   136   -4.398958316315e-02
   137    7.663112773983e-14
   138   -1.045027495678e-14
   139    1.384583065502e-14
   140   -6.731104152152e-02
   141   -2.689066517818e-13
   142    2.086489933267e-14
   143    1.401984871265e-13
   144   -1.227731902317e-01