[Molden Format]
[Atoms] (Angs)
  C      1    6     -0.13173890     -1.79208980      0.00000000
  H      2    1     -2.14962000     -1.30978739      0.00000000
  H      3    1     -0.31599560     -2.86503115      0.00000000
  H      4    1      0.14407746      2.04280963     -0.00000000
  C      5    6     -1.17258876      0.48030861      0.00000000
  O      6    8     -2.25008207      1.06833796      0.00000000
  C      7    6      1.31158357      0.28308717     -0.00000000
  O      8    8      2.36361668      0.96389345     -0.00000000
  N      9    7      0.07017030      1.03138997     -0.00000000
  N     10    7     -1.19586868     -0.94982644      0.00000000
  C     11    6      1.19165158     -1.13169473     -0.00000000
  H     12    1      2.09970506     -1.73445456     -0.00000000
[GTO]
1    0
S    6    1.000000
   4.56324000E+03    1.96665000E-03 
   6.82024000E+02    1.52306000E-02 
   1.54973000E+02    7.61269000E-02 
   4.44553000E+01    2.60801000E-01 
   1.30290000E+01    6.16462000E-01 
   1.82773000E+00    2.21006000E-01 
SP   3    1.000000
   2.09642000E+01    1.14660000E-01   4.02487000E-02 
   4.80331000E+00    9.19999000E-01   2.37594000E-01 
   1.45933000E+00   -3.03068000E-03   8.15854000E-01 
SP   1    1.000000
   4.83456000E-01    1.00000000E+00   1.00000000E+00 
SP   1    1.000000
   1.45585000E-01    1.00000000E+00   1.00000000E+00 
SP   1    1.000000
   4.38000000E-02    1.00000000E+00   1.00000000E+00 
D    1    1.000000
   6.26000000E-01    1.00000000E+00 

2    0
S    3    1.000000
   3.38650000E+01    2.54938000E-02 
   5.09479000E+00    1.90373000E-01 
   1.15879000E+00    8.52161000E-01 
S    1    1.000000
   3.25840000E-01    1.00000000E+00 
S    1    1.000000
   1.02741000E-01    1.00000000E+00 
S    1    1.000000
   3.60000000E-02    1.00000000E+00 
P    1    1.000000
   7.50000000E-01    1.00000000E+00 

3    0
S    3    1.000000
   3.38650000E+01    2.54938000E-02 
   5.09479000E+00    1.90373000E-01 
   1.15879000E+00    8.52161000E-01 
S    1    1.000000
   3.25840000E-01    1.00000000E+00 
S    1    1.000000
   1.02741000E-01    1.00000000E+00 
S    1    1.000000
   3.60000000E-02    1.00000000E+00 
P    1    1.000000
   7.50000000E-01    1.00000000E+00 

4    0
S    3    1.000000
   3.38650000E+01    2.54938000E-02 
   5.09479000E+00    1.90373000E-01 
   1.15879000E+00    8.52161000E-01 
S    1    1.000000
   3.25840000E-01    1.00000000E+00 
S    1    1.000000
   1.02741000E-01    1.00000000E+00 
S    1    1.000000
   3.60000000E-02    1.00000000E+00 
P    1    1.000000
   7.50000000E-01    1.00000000E+00 

5    0
S    6    1.000000
   4.56324000E+03    1.96665000E-03 
   6.82024000E+02    1.52306000E-02 
   1.54973000E+02    7.61269000E-02 
   4.44553000E+01    2.60801000E-01 
   1.30290000E+01    6.16462000E-01 
   1.82773000E+00    2.21006000E-01 
SP   3    1.000000
   2.09642000E+01    1.14660000E-01   4.02487000E-02 
   4.80331000E+00    9.19999000E-01   2.37594000E-01 
   1.45933000E+00   -3.03068000E-03   8.15854000E-01 
SP   1    1.000000
   4.83456000E-01    1.00000000E+00   1.00000000E+00 
SP   1    1.000000
   1.45585000E-01    1.00000000E+00   1.00000000E+00 
SP   1    1.000000
   4.38000000E-02    1.00000000E+00   1.00000000E+00 
D    1    1.000000
   6.26000000E-01    1.00000000E+00 

6    0
S    6    1.000000
   8.58850000E+03    1.89515000E-03 
   1.29723000E+03    1.43859000E-02 
   2.99296000E+02    7.07320000E-02 
   8.73771000E+01    2.40001000E-01 
   2.56789000E+01    5.94797000E-01 
   3.74004000E+00    2.80802000E-01 
SP   3    1.000000
   4.21175000E+01    1.13889000E-01   3.65114000E-02 
   9.62837000E+00    9.20811000E-01   2.37153000E-01 
   2.85332000E+00   -3.27447000E-03   8.19702000E-01 
SP   1    1.000000
   9.05661000E-01    1.00000000E+00   1.00000000E+00 
SP   1    1.000000
   2.55611000E-01    1.00000000E+00   1.00000000E+00 
SP   1    1.000000
   8.45000000E-02    1.00000000E+00   1.00000000E+00 
D    1    1.000000
   1.29200000E+00    1.00000000E+00 

7    0
S    6    1.000000
   4.56324000E+03    1.96665000E-03 
   6.82024000E+02    1.52306000E-02 
   1.54973000E+02    7.61269000E-02 
   4.44553000E+01    2.60801000E-01 
   1.30290000E+01    6.16462000E-01 
   1.82773000E+00    2.21006000E-01 
SP   3    1.000000
   2.09642000E+01    1.14660000E-01   4.02487000E-02 
   4.80331000E+00    9.19999000E-01   2.37594000E-01 
   1.45933000E+00   -3.03068000E-03   8.15854000E-01 
SP   1    1.000000
   4.83456000E-01    1.00000000E+00   1.00000000E+00 
SP   1    1.000000
   1.45585000E-01    1.00000000E+00   1.00000000E+00 
SP   1    1.000000
   4.38000000E-02    1.00000000E+00   1.00000000E+00 
D    1    1.000000
   6.26000000E-01    1.00000000E+00 

8    0
S    6    1.000000
   8.58850000E+03    1.89515000E-03 
   1.29723000E+03    1.43859000E-02 
   2.99296000E+02    7.07320000E-02 
   8.73771000E+01    2.40001000E-01 
   2.56789000E+01    5.94797000E-01 
   3.74004000E+00    2.80802000E-01 
SP   3    1.000000
   4.21175000E+01    1.13889000E-01   3.65114000E-02 
   9.62837000E+00    9.20811000E-01   2.37153000E-01 
   2.85332000E+00   -3.27447000E-03   8.19702000E-01 
SP   1    1.000000
   9.05661000E-01    1.00000000E+00   1.00000000E+00 
SP   1    1.000000
   2.55611000E-01    1.00000000E+00   1.00000000E+00 
SP   1    1.000000
   8.45000000E-02    1.00000000E+00   1.00000000E+00 
D    1    1.000000
   1.29200000E+00    1.00000000E+00 

9    0
S    6    1.000000
   6.29348000E+03    1.96979000E-03 
   9.49044000E+02    1.49613000E-02 
   2.18776000E+02    7.35006000E-02 
   6.36916000E+01    2.48937000E-01 
   1.88282000E+01    6.02460000E-01 
   2.72023000E+00    2.56202000E-01 
SP   3    1.000000
   3.06331000E+01    1.11906000E-01   3.83119000E-02 
   7.02614000E+00    9.21666000E-01   2.37403000E-01 
   2.11205000E+00   -2.56919000E-03   8.17592000E-01 
SP   1    1.000000
   6.84009000E-01    1.00000000E+00   1.00000000E+00 
SP   1    1.000000
   2.00878000E-01    1.00000000E+00   1.00000000E+00 
SP   1    1.000000
   6.39000000E-02    1.00000000E+00   1.00000000E+00 
D    1    1.000000
   9.13000000E-01    1.00000000E+00 

10    0
S    6    1.000000
   6.29348000E+03    1.96979000E-03 
   9.49044000E+02    1.49613000E-02 
   2.18776000E+02    7.35006000E-02 
   6.36916000E+01    2.48937000E-01 
   1.88282000E+01    6.02460000E-01 
   2.72023000E+00    2.56202000E-01 
SP   3    1.000000
   3.06331000E+01    1.11906000E-01   3.83119000E-02 
   7.02614000E+00    9.21666000E-01   2.37403000E-01 
   2.11205000E+00   -2.56919000E-03   8.17592000E-01 
SP   1    1.000000
   6.84009000E-01    1.00000000E+00   1.00000000E+00 
SP   1    1.000000
   2.00878000E-01    1.00000000E+00   1.00000000E+00 
SP   1    1.000000
   6.39000000E-02    1.00000000E+00   1.00000000E+00 
D    1    1.000000
   9.13000000E-01    1.00000000E+00 

11    0
S    6    1.000000
   4.56324000E+03    1.96665000E-03 
   6.82024000E+02    1.52306000E-02 
   1.54973000E+02    7.61269000E-02 
   4.44553000E+01    2.60801000E-01 
   1.30290000E+01    6.16462000E-01 
   1.82773000E+00    2.21006000E-01 
SP   3    1.000000
   2.09642000E+01    1.14660000E-01   4.02487000E-02 
   4.80331000E+00    9.19999000E-01   2.37594000E-01 
   1.45933000E+00   -3.03068000E-03   8.15854000E-01 
SP   1    1.000000
   4.83456000E-01    1.00000000E+00   1.00000000E+00 
SP   1    1.000000
   1.45585000E-01    1.00000000E+00   1.00000000E+00 
SP   1    1.000000
   4.38000000E-02    1.00000000E+00   1.00000000E+00 
D    1    1.000000
   6.26000000E-01    1.00000000E+00 

12    0
S    3    1.000000
   3.38650000E+01    2.54938000E-02 
   5.09479000E+00    1.90373000E-01 
   1.15879000E+00    8.52161000E-01 
S    1    1.000000
   3.25840000E-01    1.00000000E+00 
S    1    1.000000
   1.02741000E-01    1.00000000E+00 
S    1    1.000000
   3.60000000E-02    1.00000000E+00 
P    1    1.000000
   7.50000000E-01    1.00000000E+00 

[MO]
Sym=X
Ene= -0.004756
Spin=Alpha
Occup=1
     1   -4.876632608662e-06
     2   -7.247875857397e-06
     3    1.365356834053e-05
     4    2.340717858843e-06
     5    9.331155771824e-16
     6    1.564856073088e-05
     7    3.176601923800e-05
     8    5.512779840846e-06
     9   -2.022025461613e-15
    10    5.481114517325e-04
    11    1.808360278725e-04
    12    2.835266497221e-04
    13    3.414526521419e-15
    14    3.450476561879e-04
    15   -1.231302693481e-04
    16    6.495200463298e-04
    17   -6.109241284515e-15
    18   -1.921267914409e-06
    19   -1.400416473232e-15
    20    3.764746339927e-16
    21    3.829034700883e-06
    22   -1.014345786859e-05
    23   -2.258173987494e-06
    24   -1.222108454567e-05
    25    9.716880888966e-06
    26   -8.694753008529e-05
    27    3.299348086092e-06
    28   -3.845345586920e-07
    29   -2.565313546956e-16
    30   -4.022040847648e-06
    31    7.041211447379e-06
    32    1.263994311348e-04
    33    3.009978498996e-04
    34   -2.442370769507e-06
    35    3.796850493508e-06
    36   -1.165983784397e-16
    37   -7.131028737700e-06
    38   -6.610577273687e-05
    39   -1.527168300775e-04
    40   -1.259780639015e-04
    41    8.553396736969e-06
    42    4.715803068323e-06
    43    2.933112796826e-18
    44    5.587612840000e-06
    45    7.605028335852e-06
    46   -1.223127703327e-05
    47    4.311026189568e-06
    48    1.044375835409e-15
    49   -1.440685075335e-05
    50    7.884908820706e-06
    51    7.466676795443e-06
    52   -2.988776342501e-15
    53    1.359612054399e-04
    54    8.589940842907e-05
    55   -2.043955268809e-06
    56    2.125726690824e-15
    57    1.220817925464e-04
    58   -3.880335464357e-05
    59    1.733694432199e-04
    60    3.787328280069e-15
    61   -7.013656491715e-06
    62   -2.977940817403e-16
    63   -4.473324833397e-16
    64    5.793097303890e-06
    65   -2.480674601496e-06
    66   -9.252863340547e-07
    67   -3.815200938136e-06
    68    5.455711312458e-06
    69   -9.661656132965e-07
    70    1.026071967770e-15
    71    2.267339397083e-05
    72    1.262228548899e-05
    73   -2.652703925763e-06
    74   -3.017054487362e-15
    75   -3.879378510943e-06
    76   -7.260743596921e-06
    77   -2.301486325178e-07
    78    4.860854848097e-15
    79    2.072619880434e-04
    80    1.209949507461e-04
    81   -4.725170836989e-05
    82   -5.919118137986e-15
    83   -3.911459621687e-08
    84    5.713544905923e-16
    85    1.209217154530e-15
    86    1.661796743388e-07
    87   -5.238809347419e-07
    88   -1.920324663805e-06
    89    7.506817328628e-05
    90   -2.724577416446e-05
    91   -4.741541253684e-05
    92   -5.061778172946e-16
    93   -2.802475224848e-04
    94   -3.135730927928e-04
    95   -2.501418270849e-04
    96    7.860712251677e-17
    97    2.338011337804e-04
    98   -3.423160850021e-04
    99   -4.655889972990e-04
   100   -3.746098115470e-16
   101    2.530846811212e-03
   102    6.744256263870e-04
   103   -6.019434963928e-04
   104   -3.076370650329e-15
   105    5.314717280402e-05
   106   -6.661806640403e-16
   107    1.351303179790e-16
   108   -1.007978013535e-04
   109   -1.914241787007e-04
   110   -5.515118263691e-01
   111   -4.716928773866e-01
   112    1.485811376553e-03
   113    9.666288210704e-04
   114    1.004915845068e-15
   115   -5.390317589871e-03
   116   -6.548946597912e-04
   117   -3.635429521040e-04
   118   -1.253186807503e-15
   119    1.185507687136e-03
   120    1.448463209979e-04
   121    1.474628133185e-04
   122    2.175577279605e-15
   123   -1.351293859854e-03
   124    5.595112231782e-05
   125   -1.798254926052e-05
   126   -9.341755688307e-16
   127    9.234783751143e-05
   128   -4.783288728425e-16
   129    8.303627650179e-17
   130    4.044440748685e-05
   131    1.066907365247e-04
   132   -9.451958020257e-06
   133   -1.793246671615e-05
   134    1.566194724039e-05
   135   -8.640262658522e-06
   136   -5.960405343370e-16
   137    8.054719039290e-05
   138   -1.894991742776e-05
   139   -5.739402404559e-07
   140    1.032642212793e-15
   141   -7.809478180342e-05
   142    9.986078573646e-05
   143    1.898886164399e-04
   144   -1.005437999084e-15
   145    4.622417782238e-04
   146    5.466577497203e-04
   147    5.685074817842e-05
   148    1.306849729373e-15
   149    9.845787529307e-06
   150   -1.078206976790e-15
   151   -4.013901277735e-16
   152   -1.759010167660e-05
   153    1.751768411731e-05
   154   -2.777653736877e-06
   155   -5.528090062234e-06
   156   -9.711644800821e-07
   157    5.011133007202e-06
   158    2.422532497975e-16
   159    2.683391935620e-05
   160   -1.305393364246e-06
   161    1.362397796072e-05
   162   -4.251266882295e-16
   163   -9.224922069575e-05
   164   -7.018920090292e-05
   165   -8.608466408835e-07
   166   -1.205983009294e-15
   167   -1.930005648945e-04
   168    3.943849452015e-05
   169   -3.208894590675e-05
   170    1.411396687072e-15
   171   -2.395537250170e-07
   172   -1.018334972737e-16
   173   -6.962935241369e-17
   174    2.413745701961e-06
   175    1.154474864078e-07
   176    2.301390883085e-06
   177    6.167932948556e-06
   178    2.197390964556e-05
   179    3.332215365426e-05
   180   -1.374518383935e-15
   181    3.905961211617e-06
   182    2.027893744453e-05
   183   -5.637488232486e-05
   184    3.448353954472e-15
   185   -7.442385291302e-04
   186    5.420501338509e-04
   187   -1.576950442650e-04
   188   -3.752687900967e-15
   189   -2.492257704214e-03
   190   -1.711555104268e-05
   191   -1.157192469766e-03
   192    5.509702415604e-15
   193    4.758032798972e-06
   194   -5.350331512598e-16
   195   -3.884980258966e-16
   196    2.925409778892e-05
   197   -2.245231219848e-05
   198   -1.077772378996e-06
   199   -1.261992621384e-04
   200   -1.564629224131e-04
   201   -3.461558692494e-04
   202    2.145825598540e-05
   203   -9.277221127239e-06
   204    8.203866371467e-16
Sym=X
Ene= 0.004756
Spin=Alpha
Occup=0
     1   -9.804436528695e-03
     2   -1.854039127473e-02
     3   -1.523966610263e-02
     4   -2.312068412932e-02
     5    8.237070482560e-14
     6    7.191715432030e-02
     7   -2.839687713759e-02
     8   -3.455478046837e-02
     9    1.413830096255e-13
    10    2.786570566147e-01
    11    4.043180641754e-02
    12   -1.396925767973e-01
    13    2.668725700633e-13
    14   -3.460890935840e+00
    15   -3.114853025297e-01
    16   -2.570261235684e+00
    17   -8.455991893580e-14
    18    3.650437938868e-03
    19   -5.543260451138e-15
    20   -1.024422704175e-14
    21    3.155858978730e-03
    22   -1.060179643997e-02
    23   -1.908087810328e-02
    24   -4.899621900214e-02
    25   -3.389729203298e-01
    26   -5.243640225888e-01
    27    6.626989215722e-03
    28    7.728710051210e-03
    29    1.534418908591e-15
    30   -4.475916908256e-03
    31   -1.648190299328e-02
    32   -3.579670957591e-01
    33   -2.456189538260e+00
    34    5.201437296315e-03
    35    7.066420943798e-03
    36    9.599388052465e-15
    37   -1.289293582704e-02
    38   -1.807053056344e-02
    39   -4.343603641972e-01
    40   -9.145595948030e-01
    41   -3.868403272211e-04
    42   -7.976567562523e-03
    43    6.479972863550e-16
    44   -1.248010783574e-03
    45   -2.444356536490e-03
    46    6.217788088246e-03
    47    2.025345533569e-02
    48   -4.570612164277e-14
    49    2.011956076681e-02
    50    1.472070916455e-02
    51    3.076492550327e-02
    52   -6.678239675536e-14
    53   -5.759641427100e-02
    54   -7.298659943101e-02
    55    5.003031773658e-02
    56   -2.119843006492e-13
    57    1.583080944937e+00
    58    3.837659101576e-01
    59   -2.182637872496e-01
    60    3.714486171487e-13
    61   -3.728986811878e-03
    62    1.480554081448e-14
    63    6.341217753829e-15
    64    9.779079224662e-03
    65    2.092719735325e-02
    66   -2.602921319498e-03
    67   -4.572931844859e-03
    68   -2.621583839445e-02
    69   -3.813624009035e-02
    70    3.718127429802e-14
    71    1.519029317847e-02
    72   -3.744510138469e-02
    73   -5.753108148055e-02
    74    2.765874859145e-14
    75    3.144253575884e-02
    76   -3.923847409991e-02
    77   -6.382175919885e-02
    78    1.095611223023e-13
    79   -2.585894917344e-01
    80   -1.522421656849e-01
    81    9.170343914249e-02
    82   -1.430399771058e-14
    83   -1.187678506133e-03
    84   -3.959310012905e-15
    85    1.778608743498e-15
    86   -4.664239632428e-04
    87   -2.480335102392e-03
    88   -8.807636610725e-03
    89   -1.545357549071e-02
    90    3.992498496899e-03
    91   -2.416601703129e-02
    92   -3.669103299779e-14
    93    4.670030781041e-02
    94    9.703613449260e-03
    95   -3.986316192462e-02
    96   -5.341535022180e-14
    97    4.048099106281e-02
    98    3.274142381743e-02
    99    1.348115541972e-01
   100   -5.490531261647e-14
   101   -5.184405892224e+00
   102    1.566586177562e+00
   103    9.000917717025e-01
   104   -5.642127766590e-13
   105    2.193902236798e-03
   106    1.446500146208e-14
   107    1.855674134065e-14
   108   -2.858471985764e-02
   109    9.653048397521e-03
   110    9.064805411815e-03
   111    1.598545054872e-02
   112   -8.020207064516e-02
   113    1.419063335978e-01
   114    2.609600943641e-14
   115   -5.425401806594e-02
   116   -1.027329738111e-01
   117    1.793071711624e-01
   118    5.543160723506e-14
   119   -6.181160205565e-02
   120   -5.678937354285e-02
   121    1.520367328769e-01
   122    7.020506262037e-15
   123   -4.128471911000e-01
   124   -2.895771181198e-02
   125    2.952116754418e-02
   126    2.314853403382e-13
   127    4.479632992512e-04
   128    6.168046279111e-16
   129    2.764862752633e-15
   130    5.263760946338e-03
   131   -3.399563390333e-03
   132   -4.866920134830e-03
   133   -8.422577181587e-03
   134   -4.155601224352e-02
   135    1.961765894428e-02
   136    5.177349015981e-14
   137    2.524921858092e-02
   138   -6.163639641288e-02
   139    3.123967019517e-02
   140    6.066198165060e-14
   141    8.712134657259e-02
   142   -1.097894575101e-01
   143    3.871358533684e-02
   144    1.981204383158e-13
   145    8.953876062326e-01
   146    7.522090563238e-02
   147    4.573090346388e-01
   148   -1.612122461827e-13
   149    5.118776304049e-04
   150   -4.433378646544e-15
   151    3.510107780473e-15
   152    5.026983158049e-03
   153   -1.254455907456e-03
   154   -8.333351930605e-03
   155   -1.525963292450e-02
   156   -1.628356971909e-02
   157   -1.969849434432e-02
   158   -2.751826980697e-14
   159    6.037760858239e-02
   160   -2.746383891649e-02
   161   -2.774586426765e-02
   162   -4.932085168890e-14
   163    1.785301683160e-01
   164   -4.614973584667e-02
   165   -1.950643923208e-02
   166   -5.223426791137e-14
   167    9.932187152725e-01
   168   -3.861883223504e-01
   169    1.392824022439e-01
   170   -1.277042610670e-13
   171    5.978065102202e-04
   172    5.680592254077e-15
   173   -5.955596490660e-15
   174   -2.023819054635e-03
   175   -8.904918515359e-03
   176    3.858358019113e-03
   177    6.869563981110e-03
   178    1.625580736936e-02
   179    5.370990582201e-02
   180   -6.690840192433e-14
   181   -1.445063153070e-02
   182    4.181967935936e-02
   183    7.834813956274e-02
   184   -6.624408907203e-14
   185   -5.026720560536e-02
   186   -3.280757983496e-02
   187    2.207028263330e-01
   188   -2.659068193285e-13
   189    6.473821552496e+00
   190   -3.263488383522e+00
   191    2.432685080745e+00
   192    5.614109848844e-13
   193    3.173619455491e-03
   194   -5.435146580934e-15
   195   -1.336815635760e-14
   196    7.235917751712e-04
   197    2.826544230389e-03
   198   -1.302580791326e-02
   199   -4.124741486715e-02
   200    3.491191627251e-01
   201    3.200914144341e+00
   202    5.193749396835e-03
   203    9.862240547310e-04
   204   -6.810584166473e-15
[5D]
