[Molden Format]
[Atoms] (Angs)
  C      1    6     -0.13173890     -1.79208980      0.00000000
  H      2    1     -2.14962000     -1.30978739      0.00000000
  H      3    1     -0.31599560     -2.86503115      0.00000000
  H      4    1      0.14407746      2.04280963     -0.00000000
  C      5    6     -1.17258876      0.48030861      0.00000000
  O      6    8     -2.25008207      1.06833796      0.00000000
  C      7    6      1.31158357      0.28308717     -0.00000000
  O      8    8      2.36361668      0.96389345     -0.00000000
  N      9    7      0.07017030      1.03138997     -0.00000000
  N     10    7     -1.19586868     -0.94982644      0.00000000
  C     11    6      1.19165158     -1.13169473     -0.00000000
  H     12    1      2.09970506     -1.73445456     -0.00000000
[GTO]
1    0
S    6    1.000000
   4.56324000E+03    1.96665000E-03 
   6.82024000E+02    1.52306000E-02 
   1.54973000E+02    7.61269000E-02 
   4.44553000E+01    2.60801000E-01 
   1.30290000E+01    6.16462000E-01 
   1.82773000E+00    2.21006000E-01 
SP   3    1.000000
   2.09642000E+01    1.14660000E-01   4.02487000E-02 
   4.80331000E+00    9.19999000E-01   2.37594000E-01 
   1.45933000E+00   -3.03068000E-03   8.15854000E-01 
SP   1    1.000000
   4.83456000E-01    1.00000000E+00   1.00000000E+00 
SP   1    1.000000
   1.45585000E-01    1.00000000E+00   1.00000000E+00 
SP   1    1.000000
   4.38000000E-02    1.00000000E+00   1.00000000E+00 
D    1    1.000000
   6.26000000E-01    1.00000000E+00 

2    0
S    3    1.000000
   3.38650000E+01    2.54938000E-02 
   5.09479000E+00    1.90373000E-01 
   1.15879000E+00    8.52161000E-01 
S    1    1.000000
   3.25840000E-01    1.00000000E+00 
S    1    1.000000
   1.02741000E-01    1.00000000E+00 
S    1    1.000000
   3.60000000E-02    1.00000000E+00 
P    1    1.000000
   7.50000000E-01    1.00000000E+00 

3    0
S    3    1.000000
   3.38650000E+01    2.54938000E-02 
   5.09479000E+00    1.90373000E-01 
   1.15879000E+00    8.52161000E-01 
S    1    1.000000
   3.25840000E-01    1.00000000E+00 
S    1    1.000000
   1.02741000E-01    1.00000000E+00 
S    1    1.000000
   3.60000000E-02    1.00000000E+00 
P    1    1.000000
   7.50000000E-01    1.00000000E+00 

4    0
S    3    1.000000
   3.38650000E+01    2.54938000E-02 
   5.09479000E+00    1.90373000E-01 
   1.15879000E+00    8.52161000E-01 
S    1    1.000000
   3.25840000E-01    1.00000000E+00 
S    1    1.000000
   1.02741000E-01    1.00000000E+00 
S    1    1.000000
   3.60000000E-02    1.00000000E+00 
P    1    1.000000
   7.50000000E-01    1.00000000E+00 

5    0
S    6    1.000000
   4.56324000E+03    1.96665000E-03 
   6.82024000E+02    1.52306000E-02 
   1.54973000E+02    7.61269000E-02 
   4.44553000E+01    2.60801000E-01 
   1.30290000E+01    6.16462000E-01 
   1.82773000E+00    2.21006000E-01 
SP   3    1.000000
   2.09642000E+01    1.14660000E-01   4.02487000E-02 
   4.80331000E+00    9.19999000E-01   2.37594000E-01 
   1.45933000E+00   -3.03068000E-03   8.15854000E-01 
SP   1    1.000000
   4.83456000E-01    1.00000000E+00   1.00000000E+00 
SP   1    1.000000
   1.45585000E-01    1.00000000E+00   1.00000000E+00 
SP   1    1.000000
   4.38000000E-02    1.00000000E+00   1.00000000E+00 
D    1    1.000000
   6.26000000E-01    1.00000000E+00 

6    0
S    6    1.000000
   8.58850000E+03    1.89515000E-03 
   1.29723000E+03    1.43859000E-02 
   2.99296000E+02    7.07320000E-02 
   8.73771000E+01    2.40001000E-01 
   2.56789000E+01    5.94797000E-01 
   3.74004000E+00    2.80802000E-01 
SP   3    1.000000
   4.21175000E+01    1.13889000E-01   3.65114000E-02 
   9.62837000E+00    9.20811000E-01   2.37153000E-01 
   2.85332000E+00   -3.27447000E-03   8.19702000E-01 
SP   1    1.000000
   9.05661000E-01    1.00000000E+00   1.00000000E+00 
SP   1    1.000000
   2.55611000E-01    1.00000000E+00   1.00000000E+00 
SP   1    1.000000
   8.45000000E-02    1.00000000E+00   1.00000000E+00 
D    1    1.000000
   1.29200000E+00    1.00000000E+00 

7    0
S    6    1.000000
   4.56324000E+03    1.96665000E-03 
   6.82024000E+02    1.52306000E-02 
   1.54973000E+02    7.61269000E-02 
   4.44553000E+01    2.60801000E-01 
   1.30290000E+01    6.16462000E-01 
   1.82773000E+00    2.21006000E-01 
SP   3    1.000000
   2.09642000E+01    1.14660000E-01   4.02487000E-02 
   4.80331000E+00    9.19999000E-01   2.37594000E-01 
   1.45933000E+00   -3.03068000E-03   8.15854000E-01 
SP   1    1.000000
   4.83456000E-01    1.00000000E+00   1.00000000E+00 
SP   1    1.000000
   1.45585000E-01    1.00000000E+00   1.00000000E+00 
SP   1    1.000000
   4.38000000E-02    1.00000000E+00   1.00000000E+00 
D    1    1.000000
   6.26000000E-01    1.00000000E+00 

8    0
S    6    1.000000
   8.58850000E+03    1.89515000E-03 
   1.29723000E+03    1.43859000E-02 
   2.99296000E+02    7.07320000E-02 
   8.73771000E+01    2.40001000E-01 
   2.56789000E+01    5.94797000E-01 
   3.74004000E+00    2.80802000E-01 
SP   3    1.000000
   4.21175000E+01    1.13889000E-01   3.65114000E-02 
   9.62837000E+00    9.20811000E-01   2.37153000E-01 
   2.85332000E+00   -3.27447000E-03   8.19702000E-01 
SP   1    1.000000
   9.05661000E-01    1.00000000E+00   1.00000000E+00 
SP   1    1.000000
   2.55611000E-01    1.00000000E+00   1.00000000E+00 
SP   1    1.000000
   8.45000000E-02    1.00000000E+00   1.00000000E+00 
D    1    1.000000
   1.29200000E+00    1.00000000E+00 

9    0
S    6    1.000000
   6.29348000E+03    1.96979000E-03 
   9.49044000E+02    1.49613000E-02 
   2.18776000E+02    7.35006000E-02 
   6.36916000E+01    2.48937000E-01 
   1.88282000E+01    6.02460000E-01 
   2.72023000E+00    2.56202000E-01 
SP   3    1.000000
   3.06331000E+01    1.11906000E-01   3.83119000E-02 
   7.02614000E+00    9.21666000E-01   2.37403000E-01 
   2.11205000E+00   -2.56919000E-03   8.17592000E-01 
SP   1    1.000000
   6.84009000E-01    1.00000000E+00   1.00000000E+00 
SP   1    1.000000
   2.00878000E-01    1.00000000E+00   1.00000000E+00 
SP   1    1.000000
   6.39000000E-02    1.00000000E+00   1.00000000E+00 
D    1    1.000000
   9.13000000E-01    1.00000000E+00 

10    0
S    6    1.000000
   6.29348000E+03    1.96979000E-03 
   9.49044000E+02    1.49613000E-02 
   2.18776000E+02    7.35006000E-02 
   6.36916000E+01    2.48937000E-01 
   1.88282000E+01    6.02460000E-01 
   2.72023000E+00    2.56202000E-01 
SP   3    1.000000
   3.06331000E+01    1.11906000E-01   3.83119000E-02 
   7.02614000E+00    9.21666000E-01   2.37403000E-01 
   2.11205000E+00   -2.56919000E-03   8.17592000E-01 
SP   1    1.000000
   6.84009000E-01    1.00000000E+00   1.00000000E+00 
SP   1    1.000000
   2.00878000E-01    1.00000000E+00   1.00000000E+00 
SP   1    1.000000
   6.39000000E-02    1.00000000E+00   1.00000000E+00 
D    1    1.000000
   9.13000000E-01    1.00000000E+00 

11    0
S    6    1.000000
   4.56324000E+03    1.96665000E-03 
   6.82024000E+02    1.52306000E-02 
   1.54973000E+02    7.61269000E-02 
   4.44553000E+01    2.60801000E-01 
   1.30290000E+01    6.16462000E-01 
   1.82773000E+00    2.21006000E-01 
SP   3    1.000000
   2.09642000E+01    1.14660000E-01   4.02487000E-02 
   4.80331000E+00    9.19999000E-01   2.37594000E-01 
   1.45933000E+00   -3.03068000E-03   8.15854000E-01 
SP   1    1.000000
   4.83456000E-01    1.00000000E+00   1.00000000E+00 
SP   1    1.000000
   1.45585000E-01    1.00000000E+00   1.00000000E+00 
SP   1    1.000000
   4.38000000E-02    1.00000000E+00   1.00000000E+00 
D    1    1.000000
   6.26000000E-01    1.00000000E+00 

12    0
S    3    1.000000
   3.38650000E+01    2.54938000E-02 
   5.09479000E+00    1.90373000E-01 
   1.15879000E+00    8.52161000E-01 
S    1    1.000000
   3.25840000E-01    1.00000000E+00 
S    1    1.000000
   1.02741000E-01    1.00000000E+00 
S    1    1.000000
   3.60000000E-02    1.00000000E+00 
P    1    1.000000
   7.50000000E-01    1.00000000E+00 

[MO]
Sym=X
Ene= -0.219729
Spin=Alpha
Occup=1
     1   -3.075484971429e-08
     2    1.611895667710e-06
     3   -1.728876649517e-06
     4    2.698718051544e-07
     5    9.338515641426e-16
     6   -1.663048911330e-05
     7    4.366520140766e-06
     8    3.654847026246e-07
     9   -2.031661970713e-15
    10    4.427009000240e-04
    11    1.083108043328e-04
    12    2.694465873970e-04
    13    3.445537938360e-15
    14    2.888605056722e-05
    15   -1.955828844346e-04
    16    5.775854229905e-04
    17   -6.162034574590e-15
    18   -2.746250831859e-06
    19   -1.397638603153e-15
    20    3.760086166924e-16
    21    5.481269107790e-06
    22   -4.967695270487e-06
    23   -7.019909468477e-08
    24   -9.678548571814e-06
    25    3.696965328817e-05
    26   -7.335871852177e-05
    27    2.784411209901e-06
    28   -2.028827501681e-06
    29   -2.576594558600e-16
    30    3.729351565503e-07
    31    1.764153014309e-05
    32    1.532243493389e-04
    33    3.077336301222e-04
    34   -4.006713722314e-06
    35    2.950878496942e-06
    36   -1.171935532822e-16
    37   -2.915905412927e-06
    38   -5.892492919082e-05
    39   -8.109023737671e-05
    40   -9.038244087124e-05
    41    8.564171675082e-06
    42    7.098814784096e-06
    43    5.818109859170e-18
    44    5.737588593282e-07
    45   -1.221203109523e-06
    46   -5.308227787885e-06
    47    8.530564608837e-08
    48    1.057839302417e-15
    49    9.851628085943e-06
    50    2.172893808176e-05
    51    4.920748055564e-07
    52   -2.964967497083e-15
    53    2.522286882006e-04
    54    1.220275294314e-04
    55   -1.277878273982e-06
    56    2.150512130234e-15
    57    2.057082735779e-04
    58   -2.461096053732e-05
    59    1.672012543982e-04
    60    4.272849632440e-15
    61   -3.620855607130e-06
    62   -2.926507129890e-16
    63   -4.494969855747e-16
    64    3.020408495248e-06
    65   -1.999042002058e-06
    66    4.451703957353e-06
    67    2.925104383756e-06
    68   -2.296962680604e-07
    69    2.857671981854e-07
    70    1.036812285305e-15
    71    7.820814024737e-06
    72    3.259524093410e-06
    73   -7.587926365284e-07
    74   -3.014382117902e-15
    75   -2.777427648417e-05
    76   -1.645731497552e-05
    77    8.430691517966e-07
    78    4.954929359744e-15
    79    2.184506087359e-04
    80    1.277055278200e-04
    81   -4.167711993459e-05
    82   -6.314458186981e-15
    83   -2.198898010495e-07
    84    5.747124890040e-16
    85    1.209953909070e-15
    86   -6.219481091007e-07
    87    8.468008774761e-08
    88   -3.692713613936e-06
    89    7.188647296103e-05
    90   -4.228273162211e-05
    91   -3.202043396781e-05
    92   -4.990355625431e-16
    93   -2.747730793044e-04
    94   -3.409238481633e-04
    95   -2.235812134408e-04
    96    8.774859170981e-17
    97    2.713018177647e-04
    98   -4.030698740215e-04
    99   -4.045201028300e-04
   100   -3.825629309187e-16
   101    2.198796391339e-03
   102    6.412545741769e-04
   103   -4.342891291212e-04
   104   -3.781419536913e-15
   105    5.589997982164e-05
   106   -6.548880849514e-16
   107    1.382607293309e-16
   108   -1.005944897292e-04
   109   -1.864515857539e-04
   110   -5.515109962433e-01
   111   -4.716913434541e-01
   112    1.500813201442e-03
   113    9.402519163527e-04
   114    9.844416757870e-16
   115   -5.396932534124e-03
   116   -6.300933369288e-04
   117   -4.036197763491e-04
   118   -1.264475360794e-15
   119    1.171897813121e-03
   120    1.588619556110e-04
   121    1.140300942014e-04
   122    2.029195916977e-15
   123   -1.304829697491e-03
   124    2.440135811688e-05
   125   -5.656869613956e-06
   126   -4.605155282851e-16
   127    9.219161016008e-05
   128   -4.773585156489e-16
   129    8.293322387013e-17
   130    4.073467394251e-05
   131    1.056145040081e-04
   132   -4.533161143361e-07
   133   -2.285994158588e-06
   134    1.153274535880e-05
   135   -3.769632486026e-06
   136   -6.074765090530e-16
   137    3.223139095863e-05
   138   -2.660396918440e-05
   139    8.601826940604e-06
   140    1.012179866145e-15
   141   -2.439735802698e-04
   142    9.475897595574e-05
   143    2.201308190433e-04
   144   -1.035129206965e-15
   145    2.151548878727e-04
   146    5.358433638066e-04
   147    5.485691376396e-05
   148    1.426641490177e-15
   149    8.034177998476e-06
   150   -1.079530530205e-15
   151   -4.010543352194e-16
   152   -1.589274832896e-05
   153    1.710312970901e-05
   154    6.984618998444e-09
   155   -5.737517600019e-07
   156   -2.825823613349e-07
   157   -3.222286956443e-07
   158    2.440602429771e-16
   159    9.720171802908e-06
   160    9.773994782467e-07
   161    1.836749981522e-06
   162   -4.217263896369e-16
   163   -1.505027006950e-04
   164   -7.892270126897e-05
   165   -5.319574983649e-06
   166   -1.197575387236e-15
   167   -2.224547885275e-04
   168    4.649082915278e-05
   169   -2.255703496194e-05
   170    1.262586770174e-15
   171   -3.744788286783e-07
   172   -1.007794053677e-16
   173   -6.798003303032e-17
   174    4.546779232712e-07
   175    1.652739473267e-06
   176   -1.481967686158e-06
   177   -1.561003169276e-07
   178    4.452638270089e-06
   179    1.731556506256e-05
   180   -1.376176437075e-15
   181    1.781574822599e-05
   182   -1.064271786727e-05
   183   -8.922359058485e-05
   184    3.424530950960e-15
   185   -6.082234024496e-04
   186    4.820539590802e-04
   187   -1.646287078201e-04
   188   -3.735119146323e-15
   189   -1.786494873673e-03
   190   -1.067963029399e-04
   191   -1.052961817389e-03
   192    5.759068107918e-15
   193    7.401079767193e-06
   194   -5.329020170187e-16
   195   -3.887940774734e-16
   196    3.335599065847e-05
   197   -3.337915176925e-05
   198    2.422283865256e-06
   199   -1.218740504043e-04
   200   -1.396238717387e-04
   201   -3.249779309207e-04
   202    2.194482165673e-05
   203   -1.156076356623e-05
   204    8.207748701426e-16
Sym=X
Ene= 0.219729
Spin=Alpha
Occup=0
     1   -2.260406527455e-16
     2   -6.093369093619e-16
     3   -5.801062475194e-15
     4    2.842742618581e-15
     5   -6.086135999707e-02
     6   -5.977499447976e-15
     7    9.646710942555e-15
     8    5.257549443043e-16
     9   -1.004291992649e-01
    10    5.264144560453e-14
    11   -1.650353195995e-13
    12   -7.455028030131e-15
    13   -9.469303728137e-02
    14    1.282317542018e-12
    15    8.102942727174e-13
    16   -4.975567864761e-13
    17    3.685664031631e-02
    18    4.517500499954e-15
    19   -3.209291495258e-02
    20   -9.418381293176e-05
    21    1.133254901674e-14
    22    2.358316353937e-15
    23   -4.888371258937e-15
    24    8.341012271163e-14
    25   -5.033634276177e-13
    26    4.200124509144e-13
    27    1.048338162683e-14
    28   -5.688688602114e-16
    29    1.254335109537e-02
    30   -2.616039023254e-15
    31    2.229822552632e-14
    32   -1.549038453509e-13
    33   -3.888341420706e-13
    34    1.742795404875e-16
    35    4.641738843469e-15
    36   -4.823770774230e-03
    37    2.855259166625e-15
    38   -6.420301044200e-14
    39    2.383058165055e-14
    40   -3.533679472672e-13
    41    5.606722225254e-15
    42    2.354780426823e-15
    43    9.322796703110e-04
    44   -2.254820875191e-15
    45   -1.631338271874e-15
    46    8.474860772893e-16
    47    4.680388189556e-15
    48    2.438533236839e-03
    49   -1.163239525248e-15
    50    8.248825206026e-15
    51   -1.954739001726e-14
    52    1.026190212035e-02
    53    1.906956707742e-13
    54    6.586462330299e-14
    55   -7.457551012210e-14
    56   -2.828843320144e-02
    57    7.633092976688e-13
    58    6.855213138577e-13
    59    5.526236194125e-13
    60   -3.636920220628e-02
    61   -4.088638721564e-15
    62    1.136302214183e-02
    63   -2.196274471901e-02
    64   -4.421525327661e-15
    65    1.158477448490e-14
    66   -3.993637950811e-16
    67   -2.088663388490e-16
    68   -9.686482051850e-15
    69   -5.078723021217e-15
    70   -6.407184720556e-02
    71    1.021819626444e-15
    72   -1.874451794487e-14
    73   -3.708167777832e-15
    74   -9.715136158189e-02
    75    2.577596965979e-14
    76    5.926320771991e-14
    77    3.435372498025e-14
    78   -9.517912719886e-02
    79    6.203912912484e-15
    80   -2.296836289428e-14
    81    4.471745340102e-15
    82   -9.303468607198e-03
    83    2.232769961288e-15
    84   -3.051623337991e-03
    85    8.670069526082e-04
    86   -1.602819192242e-15
    87   -2.431329283980e-15
    88   -4.279435197369e-16
    89   -1.894165890132e-15
    90   -2.296212244792e-15
    91   -9.648622597187e-16
    92    1.121269164524e-03
    93    3.937172308656e-15
    94   -1.229360892575e-14
    95    1.369663265527e-14
    96   -1.099641199237e-03
    97    5.333535789678e-14
    98   -1.745465589886e-13
    99   -2.179461527459e-13
   100    4.079727487968e-02
   101   -6.134954114166e-12
   102    1.879073517348e-13
   103    1.499818272851e-12
   104    5.734880485385e-02
   105    2.825790729020e-15
   106    2.336077642735e-02
   107    3.734279191655e-02
   108   -1.819558712306e-16
   109   -5.146260345787e-15
   110   -3.081114576964e-18
   111   -1.648932273610e-15
   112    1.213566899584e-15
   113    1.954398724851e-15
   114    1.883836724957e-01
   115    1.137505791655e-14
   116    1.065487785857e-14
   117    5.457169667170e-15
   118    2.381080709022e-01
   119    7.891803258089e-15
   120   -5.301973334232e-14
   121   -2.170645728375e-14
   122    1.853053341577e-01
   123    3.664043033037e-13
   124   -3.341366154279e-15
   125   -1.506831082163e-13
   126    3.298951462720e-02
   127   -1.997075669120e-15
   128   -8.202816153020e-03
   129   -3.645995382016e-03
   130    1.250807916862e-15
   131   -2.898736182900e-15
   132    3.354456236302e-16
   133    1.084536264671e-15
   134    1.946612276897e-15
   135   -2.189378021247e-15
   136    4.166273399388e-03
   137    9.769768399598e-15
   138   -9.195724981132e-15
   139   -1.601697159993e-14
   140    6.487165121507e-03
   141   -6.899874076688e-14
   142   -1.699433162927e-14
   143    1.875367951126e-13
   144    7.465237754665e-03
   145   -3.083795337065e-13
   146    5.178988698171e-13
   147   -2.318013396812e-13
   148    3.013496635109e-03
   149    1.558987848334e-15
   150    1.135750352903e-03
   151    7.732571988207e-04
   152   -7.010296058000e-16
   153   -4.663434730117e-15
   154   -2.932348030965e-16
   155   -1.464098978941e-15
   156   -5.383060794361e-15
   157    6.571064972492e-15
   158    1.204478026813e-01
   159    3.044309266817e-14
   160   -2.799896285915e-15
   161   -1.046870262188e-15
   162    1.886054170620e-01
   163   -1.990709981919e-13
   164    4.156606260052e-14
   165   -3.478459875167e-15
   166    2.354874214262e-01
   167    6.750944985123e-13
   168   -7.393799357253e-13
   169    1.613631799863e-15
   170    7.365364927674e-02
   171    3.311851341745e-15
   172   -2.508222141816e-03
   173    1.241665235282e-03
   174   -4.131425572199e-15
   175   -5.572524289826e-15
   176   -2.207944213275e-15
   177   -1.711257653695e-15
   178   -6.859280725470e-15
   179   -5.624073197168e-15
   180   -1.690439832104e-01
   181    2.773496394443e-14
   182    1.877859123921e-15
   183    3.990687615221e-16
   184   -2.776802784546e-01
   185   -2.240329194879e-13
   186   -1.421655495307e-13
   187   -1.397082004601e-13
   188   -3.264452897485e-01
   189    3.943719011229e-12
   190    1.061646531610e-13
   191    2.203930724696e-12
   192   -1.326510609415e-01
   193    3.522028965933e-15
   194    6.793916602974e-03
   195    7.688623573151e-04
   196   -2.000400579193e-15
   197    1.887580767169e-15
   198    1.919000731935e-15
   199    3.537182736797e-14
   200    1.844642337381e-13
   201    1.913558799128e-13
   202    1.519221573550e-15
   203    3.439423035767e-15
   204   -1.421437140334e-02
[5D]
