[Molden Format]
[Atoms] (Angs)
  C      1    6     -0.13173890     -1.79208980      0.00000000
  H      2    1     -2.14962000     -1.30978739      0.00000000
  H      3    1     -0.31599560     -2.86503115      0.00000000
  H      4    1      0.14407746      2.04280963     -0.00000000
  C      5    6     -1.17258876      0.48030861      0.00000000
  O      6    8     -2.25008207      1.06833796      0.00000000
  C      7    6      1.31158357      0.28308717     -0.00000000
  O      8    8      2.36361668      0.96389345     -0.00000000
  N      9    7      0.07017030      1.03138997     -0.00000000
  N     10    7     -1.19586868     -0.94982644      0.00000000
  C     11    6      1.19165158     -1.13169473     -0.00000000
  H     12    1      2.09970506     -1.73445456     -0.00000000
[GTO]
1    0
S    6    1.000000
   4.56324000E+03    1.96665000E-03 
   6.82024000E+02    1.52306000E-02 
   1.54973000E+02    7.61269000E-02 
   4.44553000E+01    2.60801000E-01 
   1.30290000E+01    6.16462000E-01 
   1.82773000E+00    2.21006000E-01 
SP   3    1.000000
   2.09642000E+01    1.14660000E-01   4.02487000E-02 
   4.80331000E+00    9.19999000E-01   2.37594000E-01 
   1.45933000E+00   -3.03068000E-03   8.15854000E-01 
SP   1    1.000000
   4.83456000E-01    1.00000000E+00   1.00000000E+00 
SP   1    1.000000
   1.45585000E-01    1.00000000E+00   1.00000000E+00 
SP   1    1.000000
   4.38000000E-02    1.00000000E+00   1.00000000E+00 
D    1    1.000000
   6.26000000E-01    1.00000000E+00 

2    0
S    3    1.000000
   3.38650000E+01    2.54938000E-02 
   5.09479000E+00    1.90373000E-01 
   1.15879000E+00    8.52161000E-01 
S    1    1.000000
   3.25840000E-01    1.00000000E+00 
S    1    1.000000
   1.02741000E-01    1.00000000E+00 
S    1    1.000000
   3.60000000E-02    1.00000000E+00 
P    1    1.000000
   7.50000000E-01    1.00000000E+00 

3    0
S    3    1.000000
   3.38650000E+01    2.54938000E-02 
   5.09479000E+00    1.90373000E-01 
   1.15879000E+00    8.52161000E-01 
S    1    1.000000
   3.25840000E-01    1.00000000E+00 
S    1    1.000000
   1.02741000E-01    1.00000000E+00 
S    1    1.000000
   3.60000000E-02    1.00000000E+00 
P    1    1.000000
   7.50000000E-01    1.00000000E+00 

4    0
S    3    1.000000
   3.38650000E+01    2.54938000E-02 
   5.09479000E+00    1.90373000E-01 
   1.15879000E+00    8.52161000E-01 
S    1    1.000000
   3.25840000E-01    1.00000000E+00 
S    1    1.000000
   1.02741000E-01    1.00000000E+00 
S    1    1.000000
   3.60000000E-02    1.00000000E+00 
P    1    1.000000
   7.50000000E-01    1.00000000E+00 

5    0
S    6    1.000000
   4.56324000E+03    1.96665000E-03 
   6.82024000E+02    1.52306000E-02 
   1.54973000E+02    7.61269000E-02 
   4.44553000E+01    2.60801000E-01 
   1.30290000E+01    6.16462000E-01 
   1.82773000E+00    2.21006000E-01 
SP   3    1.000000
   2.09642000E+01    1.14660000E-01   4.02487000E-02 
   4.80331000E+00    9.19999000E-01   2.37594000E-01 
   1.45933000E+00   -3.03068000E-03   8.15854000E-01 
SP   1    1.000000
   4.83456000E-01    1.00000000E+00   1.00000000E+00 
SP   1    1.000000
   1.45585000E-01    1.00000000E+00   1.00000000E+00 
SP   1    1.000000
   4.38000000E-02    1.00000000E+00   1.00000000E+00 
D    1    1.000000
   6.26000000E-01    1.00000000E+00 

6    0
S    6    1.000000
   8.58850000E+03    1.89515000E-03 
   1.29723000E+03    1.43859000E-02 
   2.99296000E+02    7.07320000E-02 
   8.73771000E+01    2.40001000E-01 
   2.56789000E+01    5.94797000E-01 
   3.74004000E+00    2.80802000E-01 
SP   3    1.000000
   4.21175000E+01    1.13889000E-01   3.65114000E-02 
   9.62837000E+00    9.20811000E-01   2.37153000E-01 
   2.85332000E+00   -3.27447000E-03   8.19702000E-01 
SP   1    1.000000
   9.05661000E-01    1.00000000E+00   1.00000000E+00 
SP   1    1.000000
   2.55611000E-01    1.00000000E+00   1.00000000E+00 
SP   1    1.000000
   8.45000000E-02    1.00000000E+00   1.00000000E+00 
D    1    1.000000
   1.29200000E+00    1.00000000E+00 

7    0
S    6    1.000000
   4.56324000E+03    1.96665000E-03 
   6.82024000E+02    1.52306000E-02 
   1.54973000E+02    7.61269000E-02 
   4.44553000E+01    2.60801000E-01 
   1.30290000E+01    6.16462000E-01 
   1.82773000E+00    2.21006000E-01 
SP   3    1.000000
   2.09642000E+01    1.14660000E-01   4.02487000E-02 
   4.80331000E+00    9.19999000E-01   2.37594000E-01 
   1.45933000E+00   -3.03068000E-03   8.15854000E-01 
SP   1    1.000000
   4.83456000E-01    1.00000000E+00   1.00000000E+00 
SP   1    1.000000
   1.45585000E-01    1.00000000E+00   1.00000000E+00 
SP   1    1.000000
   4.38000000E-02    1.00000000E+00   1.00000000E+00 
D    1    1.000000
   6.26000000E-01    1.00000000E+00 

8    0
S    6    1.000000
   8.58850000E+03    1.89515000E-03 
   1.29723000E+03    1.43859000E-02 
   2.99296000E+02    7.07320000E-02 
   8.73771000E+01    2.40001000E-01 
   2.56789000E+01    5.94797000E-01 
   3.74004000E+00    2.80802000E-01 
SP   3    1.000000
   4.21175000E+01    1.13889000E-01   3.65114000E-02 
   9.62837000E+00    9.20811000E-01   2.37153000E-01 
   2.85332000E+00   -3.27447000E-03   8.19702000E-01 
SP   1    1.000000
   9.05661000E-01    1.00000000E+00   1.00000000E+00 
SP   1    1.000000
   2.55611000E-01    1.00000000E+00   1.00000000E+00 
SP   1    1.000000
   8.45000000E-02    1.00000000E+00   1.00000000E+00 
D    1    1.000000
   1.29200000E+00    1.00000000E+00 

9    0
S    6    1.000000
   6.29348000E+03    1.96979000E-03 
   9.49044000E+02    1.49613000E-02 
   2.18776000E+02    7.35006000E-02 
   6.36916000E+01    2.48937000E-01 
   1.88282000E+01    6.02460000E-01 
   2.72023000E+00    2.56202000E-01 
SP   3    1.000000
   3.06331000E+01    1.11906000E-01   3.83119000E-02 
   7.02614000E+00    9.21666000E-01   2.37403000E-01 
   2.11205000E+00   -2.56919000E-03   8.17592000E-01 
SP   1    1.000000
   6.84009000E-01    1.00000000E+00   1.00000000E+00 
SP   1    1.000000
   2.00878000E-01    1.00000000E+00   1.00000000E+00 
SP   1    1.000000
   6.39000000E-02    1.00000000E+00   1.00000000E+00 
D    1    1.000000
   9.13000000E-01    1.00000000E+00 

10    0
S    6    1.000000
   6.29348000E+03    1.96979000E-03 
   9.49044000E+02    1.49613000E-02 
   2.18776000E+02    7.35006000E-02 
   6.36916000E+01    2.48937000E-01 
   1.88282000E+01    6.02460000E-01 
   2.72023000E+00    2.56202000E-01 
SP   3    1.000000
   3.06331000E+01    1.11906000E-01   3.83119000E-02 
   7.02614000E+00    9.21666000E-01   2.37403000E-01 
   2.11205000E+00   -2.56919000E-03   8.17592000E-01 
SP   1    1.000000
   6.84009000E-01    1.00000000E+00   1.00000000E+00 
SP   1    1.000000
   2.00878000E-01    1.00000000E+00   1.00000000E+00 
SP   1    1.000000
   6.39000000E-02    1.00000000E+00   1.00000000E+00 
D    1    1.000000
   9.13000000E-01    1.00000000E+00 

11    0
S    6    1.000000
   4.56324000E+03    1.96665000E-03 
   6.82024000E+02    1.52306000E-02 
   1.54973000E+02    7.61269000E-02 
   4.44553000E+01    2.60801000E-01 
   1.30290000E+01    6.16462000E-01 
   1.82773000E+00    2.21006000E-01 
SP   3    1.000000
   2.09642000E+01    1.14660000E-01   4.02487000E-02 
   4.80331000E+00    9.19999000E-01   2.37594000E-01 
   1.45933000E+00   -3.03068000E-03   8.15854000E-01 
SP   1    1.000000
   4.83456000E-01    1.00000000E+00   1.00000000E+00 
SP   1    1.000000
   1.45585000E-01    1.00000000E+00   1.00000000E+00 
SP   1    1.000000
   4.38000000E-02    1.00000000E+00   1.00000000E+00 
D    1    1.000000
   6.26000000E-01    1.00000000E+00 

12    0
S    3    1.000000
   3.38650000E+01    2.54938000E-02 
   5.09479000E+00    1.90373000E-01 
   1.15879000E+00    8.52161000E-01 
S    1    1.000000
   3.25840000E-01    1.00000000E+00 
S    1    1.000000
   1.02741000E-01    1.00000000E+00 
S    1    1.000000
   3.60000000E-02    1.00000000E+00 
P    1    1.000000
   7.50000000E-01    1.00000000E+00 

[MO]
Sym=X
Ene= -0.318674
Spin=Alpha
Occup=1
     1    3.388956851408e-07
     2    5.328560257076e-08
     3    3.172527378214e-06
     4   -5.336311177711e-06
     5   -1.503736472956e-16
     6    7.157428541163e-07
     7   -1.534813241834e-05
     8    2.170474221119e-05
     9    1.205935667785e-15
    10    2.302293729321e-04
    11   -6.665035599959e-05
    12   -2.666409639242e-05
    13   -1.835773609750e-15
    14   -4.941850858181e-04
    15   -5.205473656863e-04
    16   -2.719697158312e-04
    17   -5.937448888726e-15
    18   -1.182938162764e-06
    19   -5.322676507688e-17
    20   -1.039025021918e-15
    21   -3.439394976201e-06
    22   -2.955611572423e-06
    23   -3.922116555396e-06
    24   -3.616688669425e-05
    25   -8.933857739958e-05
    26   -2.988815974264e-04
    27   -1.122684807493e-05
    28    9.589932864092e-06
    29   -7.639193295113e-16
    30    3.899882180651e-06
    31   -2.880744243249e-05
    32   -2.651939506815e-05
    33   -1.588544651340e-04
    34    8.134230441352e-07
    35   -3.294418180535e-06
    36   -1.000022631626e-15
    37   -2.883446644686e-06
    38   -5.787371163617e-05
    39   -1.085619011865e-04
    40   -2.842319515378e-04
    41   -7.979580401181e-06
    42    6.877973202235e-06
    43    2.171040871259e-16
    44   -4.440198410212e-06
    45    7.643033177474e-05
    46    5.602678576454e-05
    47   -3.178947023820e-05
    48   -1.216525054598e-15
    49   -2.942976580199e-04
    50    3.746156673481e-04
    51   -1.959698978643e-04
    52    1.552852013235e-15
    53    8.273940963095e-05
    54    4.413652267792e-04
    55   -1.746391288819e-04
    56   -3.458050713973e-15
    57   -3.520133848355e-04
    58   -6.856938772790e-04
    59    2.963410006418e-04
    60    3.161016202325e-15
    61    5.946143376842e-05
    62   -1.166146751276e-15
    63    9.240631892569e-17
    64   -1.029060911949e-04
    65    1.781659373917e-04
    66   -5.514897451478e-01
    67   -4.716811867093e-01
    68   -1.604046969078e-03
    69    8.742537700363e-04
    70    1.100130540445e-15
    71   -5.486878466313e-03
    72    6.659745002610e-04
    73   -3.534976378331e-04
    74   -9.539969703808e-16
    75    1.258997149310e-03
    76   -1.688769253948e-04
    77    7.817375460258e-05
    78    2.121877734609e-16
    79   -1.483476231855e-03
    80   -5.368283598990e-05
    81    4.819071208365e-05
    82   -1.074741731248e-15
    83    8.036952999520e-05
    84   -3.915684137510e-16
    85    5.929883357893e-16
    86    5.742677572181e-05
    87   -7.152310328668e-05
    88    3.515068032441e-07
    89   -4.771996949556e-07
    90    3.514488587413e-06
    91   -1.831259722744e-06
    92   -5.083411559121e-16
    93    1.461778159193e-06
    94   -1.435385655821e-05
    95    1.083677266192e-05
    96    1.914127515417e-15
    97    1.696911091456e-04
    98   -7.624999485474e-05
    99    5.134068152775e-05
   100   -3.242392418069e-16
   101   -9.440326748055e-04
   102   -1.271345935929e-04
   103    7.256863680088e-04
   104   -1.046206623915e-14
   105   -3.137313704725e-06
   106    1.334561300894e-15
   107    1.659050096123e-16
   108    7.590024769880e-06
   109   -2.770634590269e-06
   110    1.757497912161e-06
   111    7.164478168694e-07
   112   -3.494743686738e-07
   113    5.418330597777e-07
   114   -1.107391773116e-15
   115    7.507751011531e-06
   116   -8.895549207851e-07
   117   -1.555756711502e-06
   118    2.957812099989e-15
   119   -3.747755091151e-05
   120    1.341112838773e-05
   121    7.952895060531e-06
   122   -5.052939482701e-15
   123    1.462978941326e-04
   124   -6.666458040557e-05
   125   -6.659298290048e-05
   126    4.284893398719e-15
   127   -1.459455448853e-07
   128    2.726092748994e-16
   129    3.935413446401e-16
   130   -8.594951681423e-07
   131   -3.422165453900e-07
   132   -1.135923872567e-07
   133   -1.497443560692e-06
   134   -1.169154997164e-05
   135    2.022148191553e-06
   136   -6.509948282727e-16
   137    2.875266776580e-05
   138    3.575374426712e-05
   139   -8.026309978096e-06
   140    1.831994018301e-15
   141   -3.142920084605e-04
   142    1.771060205277e-06
   143    2.417367612723e-04
   144   -5.062521303576e-16
   145    3.662040156853e-05
   146   -4.745318629268e-04
   147    1.365752952063e-04
   148    2.729507713444e-15
   149    7.681572192333e-06
   150   -6.255511806148e-16
   151   -7.165943791643e-16
   152   -2.666481283297e-05
   153   -5.045490506872e-06
   154   -5.848241622199e-07
   155   -1.399825709032e-06
   156   -2.819026496023e-06
   157    1.100526884796e-05
   158   -1.736027476900e-16
   159    2.182311831973e-05
   160    6.431533762607e-06
   161   -2.616218379517e-05
   162   -1.134801841564e-15
   163   -1.779701861844e-04
   164   -2.019406039576e-04
   165   -1.218698428600e-05
   166    2.872295804572e-15
   167    1.386366700260e-04
   168   -2.285451653186e-04
   169    4.129992005128e-04
   170    2.452312933505e-15
   171    7.798073295160e-06
   172    5.538713207389e-16
   173    8.454652863028e-16
   174    2.093893786937e-05
   175    6.110937052328e-06
   176   -1.554629180896e-07
   177    7.304838233950e-07
   178   -1.645445270793e-06
   179    5.656909901106e-07
   180    1.025226938601e-15
   181   -1.048409257246e-05
   182    1.010100251713e-05
   183   -3.388015704721e-06
   184   -1.937013052629e-16
   185    4.518005173348e-05
   186   -4.288794295120e-05
   187    2.487644434647e-05
   188   -6.850967586563e-17
   189    2.882843960822e-03
   190   -4.193282915058e-04
   191    4.195342909134e-04
   192    8.899563583913e-15
   193   -3.673946972726e-06
   194   -3.350466509965e-16
   195    3.078316874855e-16
   196   -9.110961360869e-07
   197    1.548605737028e-06
   198   -1.218753653555e-06
   199    6.800955036580e-06
   200    2.260829579961e-05
   201    2.004802426336e-04
   202    4.367501577961e-07
   203   -4.086515970914e-07
   204   -5.865457702331e-16
Sym=X
Ene= 0.318674
Spin=Alpha
Occup=0
     1   -1.388294498156e-16
     2   -6.087839612360e-16
     3   -5.469197163070e-15
     4    1.183075469964e-15
     5   -9.081496286260e-02
     6    6.046994304115e-15
     7   -2.380008950772e-15
     8   -3.188012749113e-15
     9   -1.553909599580e-01
    10   -7.596278737329e-15
    11   -1.849631525929e-13
    12    2.106077172442e-14
    13   -1.800395320389e-01
    14    4.170947113340e-12
    15    8.174150941857e-13
    16    1.062633630614e-12
    17   -1.016085099717e-02
    18    3.462735421587e-15
    19   -3.002597282433e-02
    20    1.413023433802e-03
    21    4.311207587263e-15
    22   -1.499616173846e-15
    23   -7.804829423084e-15
    24    8.603966226286e-15
    25   -4.579414374168e-13
    26    1.266098988910e-13
    27    8.443029380130e-15
    28    5.501238140812e-15
    29    1.516442532704e-02
    30   -4.432535872724e-15
    31    1.216384296627e-14
    32   -7.016826289118e-14
    33    2.125073394539e-13
    34    4.646417572558e-15
    35    6.437748697589e-15
    36   -6.818223635425e-03
    37    6.102385139745e-15
    38   -1.383320949105e-15
    39    1.752467935040e-13
    40   -1.009039206086e-13
    41    4.119430262654e-15
    42   -3.473705079173e-15
    43    7.851074403484e-04
    44   -1.566538395818e-15
    45   -7.285880000409e-16
    46    2.652062957867e-15
    47    4.660924965392e-15
    48    2.491708256067e-02
    49    3.333482111168e-15
    50   -6.823524656176e-15
    51    6.232129435228e-15
    52    5.018317625759e-02
    53    3.369991892277e-14
    54    8.365156343988e-14
    55    1.516051906480e-13
    56    9.316014839322e-03
    57   -1.592246228488e-12
    58   -9.357489542703e-14
    59    8.436728405441e-13
    60   -2.912441234694e-02
    61   -4.027086734501e-15
    62    1.198229891840e-02
    63   -2.916113201993e-02
    64    1.216054039631e-15
    65    1.347928104026e-15
    66   -3.517707683891e-16
    67   -1.995755615396e-16
    68   -4.056597827663e-15
    69   -2.172304724646e-15
    70   -1.232565111494e-01
    71    2.493173301906e-15
    72   -2.735726288149e-15
    73    4.669305538527e-15
    74   -1.555392543516e-01
    75   -8.049765206884e-15
    76   -2.062197564792e-14
    77   -1.261706032360e-14
    78   -1.252708165633e-01
    79   -1.114756731237e-14
    80    1.674076136604e-14
    81   -3.577922291760e-15
    82   -2.129501698241e-02
    83    3.056011433172e-15
    84   -3.948699195420e-03
    85    8.359608279395e-04
    86   -1.193997637837e-16
    87   -2.037392147459e-15
    88   -1.597797812323e-15
    89   -2.954738765180e-15
    90    2.026395269458e-16
    91   -1.860392336685e-15
    92   -1.766859048107e-02
    93    1.188837500862e-14
    94   -2.276738757652e-15
    95    2.790304919921e-15
    96   -3.168072219758e-02
    97   -3.033874740456e-14
    98    1.082524363511e-13
    99   -3.280327632660e-14
   100   -2.833948775927e-02
   101    9.189855758878e-13
   102   -5.243597804783e-14
   103   -1.166687197907e-13
   104    3.068353613020e-02
   105    3.377744783109e-15
   106    2.121684455578e-02
   107    3.649271914705e-02
   108   -3.165137747633e-16
   109   -2.101021444808e-15
   110    1.845030757275e-15
   111    2.221376359155e-15
   112   -9.324888744788e-16
   113    2.023929429143e-15
   114    1.082286143993e-01
   115   -7.857525920527e-15
   116    1.271241829660e-15
   117   -1.360831300167e-15
   118    1.627343150101e-01
   119   -3.881762893118e-14
   120    1.005490219825e-14
   121    1.567115718521e-14
   122    1.721413827057e-01
   123   -1.412900323494e-13
   124    3.738490994295e-14
   125   -2.394233715826e-14
   126    4.766207001361e-02
   127   -3.678546648935e-15
   128   -4.779582191478e-03
   129   -1.762417996836e-03
   130    2.718204086881e-16
   131   -3.238265765629e-15
   132    4.377073062050e-16
   133    1.505142465202e-15
   134    2.468108457080e-16
   135    3.271421175327e-15
   136    6.798505266643e-03
   137    3.730937182971e-16
   138   -1.617204396555e-14
   139    1.909869559239e-14
   140    1.087215594374e-02
   141   -7.548324207671e-14
   142    5.926751391733e-14
   143   -6.894992095667e-14
   144    1.440390206620e-02
   145    2.087774415716e-13
   146    2.166207194983e-13
   147   -3.479063577684e-13
   148    3.793638259531e-03
   149    3.126709071308e-15
   150   -2.130564487468e-03
   151    6.291807353917e-04
   152   -5.788935240104e-16
   153   -4.447684219232e-15
   154   -5.260479740842e-16
   155   -1.796888690524e-15
   156   -5.426528265990e-15
   157    2.744158718582e-15
   158    1.437254909402e-01
   159   -6.057800736034e-15
   160    7.484206255278e-15
   161    1.223245430622e-15
   162    2.260386324748e-01
   163    8.111449785896e-14
   164   -9.216066573195e-14
   165    6.065851322174e-14
   166    2.817063951216e-01
   167    2.928355457623e-13
   168   -7.531301779201e-13
   169    2.225043813889e-13
   170    8.796724601071e-02
   171    3.348244262478e-15
   172   -8.334089103758e-03
   173    1.040776734213e-02
   174   -2.463969041943e-15
   175   -3.123087920184e-15
   176    1.031853917987e-15
   177    5.918422377386e-15
   178   -5.056416489111e-15
   179   -1.730952166647e-15
   180   -1.503752762797e-01
   181   -2.467700609180e-14
   182   -5.844510196730e-15
   183    1.560112711974e-14
   184   -2.442022038312e-01
   185    9.818963599834e-14
   186   -1.494960668975e-13
   187   -1.040692905652e-13
   188   -2.622279553339e-01
   189   -3.740615337286e-12
   190    7.259649606698e-13
   191   -2.982622638253e-14
   192   -6.664320878649e-02
   193   -1.329078326829e-15
   194    7.614376538140e-03
   195   -6.483278758136e-03
   196    9.288562985740e-16
   197   -5.894469976441e-15
   198   -1.892592701453e-15
   199    1.549026241694e-15
   200    4.565328628208e-14
   201   -1.306046364310e-13
   202    6.591596087726e-15
   203   -2.719808087783e-15
   204   -1.274050152729e-02
[5D]
