n-62-30-18 10.66.30
Q-Chem Developer Version! Running on 10.66.30.*
                  Welcome to Q-Chem
     A Quantum Leap Into The Future Of Chemistry


 Q-Chem 5.1, Q-Chem, Inc., Pleasanton, CA (2018)

 Yihan Shao,  Zhengting Gan,  E. Epifanovsky,  A. T. B. Gilbert,  M. Wormit,  
 J. Kussmann,  A. W. Lange,  A. Behn,  Jia Deng,  Xintian Feng,  D. Ghosh,  
 M. Goldey,  P. R. Horn,  L. D. Jacobson,  I. Kaliman,  T. Kus,  A. Landau,  
 Jie Liu,  E. I. Proynov,  R. M. Richard,  R. P. Steele,  E. J. Sundstrom,  
 H. L. Woodcock III,  P. M. Zimmerman,  D. Zuev,  B. Albrecht,  E. Alguire,  
 S. A. Baeppler,  D. Barton,  Z. Benda,  Y. A. Bernard,  E. J. Berquist,  
 K. B. Bravaya,  H. Burton,  D. Casanova,  Chun-Min Chang,  Yunqing Chen,  
 A. Chien,  K. D. Closser,  M. P. Coons,  S. Coriani,  S. Dasgupta,  
 A. L. Dempwolff,  M. Diedenhofen,  Hainam Do,  R. G. Edgar,  Po-Tung Fang,  
 S. Faraji,  S. Fatehi,  Qingguo Feng,  K. D. Fenk,  J. Fosso-Tande,  
 Qinghui Ge,  A. Ghysels,  G. Gidofalvi,  J. Gomes,  J. Gonthier,  A. Gunina,  
 M. W. D. Hanson-Heine,  P. H. P. Harbach,  A. W. Hauser,  J. E. Herr,  
 E. G. Hohenstein,  Z. C. Holden,  Kerwin Hui,  T.-C. Jagau,  Hyunjun Ji,  
 B. Kaduk,  K. Khistyaev,  Jaehoon Kim,  P. Klunzinger,  K. Koh,  
 D. Kosenkov,  L. Koulias,  T. Kowalczyk,  C. M. Krauter,  A. Kunitsa,  
 Ka Un Lao,  A. Laurent,  K. V. Lawler,  Joonho Lee,  D. Lefrancois,  
 S. Lehtola,  D. S. Levine,  Yi-Pei Li,  You-Sheng Lin,  Fenglai Liu,  
 E. Livshits,  A. Luenser,  P. Manohar,  E. Mansoor,  S. F. Manzer,  
 Shan-Ping Mao,  Yuezhi Mao,  N. Mardirossian,  A. V. Marenich,  
 T. Markovich,  L. A. Martinez-Martinez,  S. A. Maurer,  N. J. Mayhall,  
 S. C. McKenzie,  J.-M. Mewes,  A. F. Morrison,  J. W. Mullinax,  K. Nanda,  
 T. S. Nguyen-Beck,  R. Olivares-Amaya,  J. A. Parkhill,  T. M. Perrine,  
 F. Plasser,  P. Pokhilko,  S. Prager,  A. Prociuk,  E. Ramos,  D. R. Rehn,  
 F. Rob,  M. Schneider,  N. Sergueev,  S. M. Sharada,  S. Sharma,  
 D. W. Small,  T. Stauch,  T. Stein,  Yu-Chuan Su,  A. J. W. Thom,  
 A. Tkatchenko,  T. Tsuchimochi,  N. M. Tubman,  L. Vogt,  M. L. Vidal,  
 O. Vydrov,  M. A. Watson,  J. Wenzel,  M. de Wergifosse,  T. A. Wesolowski,  
 A. White,  J. Witte,  A. Yamada,  Jun Yang,  K. Yao,  S. Yeganeh,  
 S. R. Yost,  Zhi-Qiang You,  A. Zech,  Igor Ying Zhang,  Xing Zhang,  
 Yan Zhao,  Ying Zhu,  B. R. Brooks,  G. K. L. Chan,  C. J. Cramer,  
 M. S. Gordon,  W. J. Hehre,  A. Klamt,  M. W. Schmidt,  C. D. Sherrill,  
 D. G. Truhlar,  A. Aspuru-Guzik,  R. Baer,  A. T. Bell,  N. A. Besley,  
 Jeng-Da Chai,  R. A. DiStasio Jr.,  A. Dreuw,  B. D. Dunietz,  
 T. R. Furlani,  Chao-Ping Hsu,  Yousung Jung,  Jing Kong,  D. S. Lambrecht,  
 WanZhen Liang,  C. Ochsenfeld,  V. A. Rassolov,  L. V. Slipchenko,  
 J. E. Subotnik,  T. Van Voorhis,  J. M. Herbert,  A. I. Krylov,  
 P. M. W. Gill,  M. Head-Gordon

 Contributors to earlier versions of Q-Chem not listed above: 
 R. D. Adamson,  B. Austin,  J. Baker,  G. J. O. Beran,  K. Brandhorst,  
 S. T. Brown,  E. F. C. Byrd,  A. K. Chakraborty,  C.-L. Cheng,  
 Siu Hung Chien,  D. M. Chipman,  D. L. Crittenden,  H. Dachsel,  
 R. J. Doerksen,  A. D. Dutoi,  L. Fusti-Molnar,  W. A. Goddard III,  
 A. Golubeva-Zadorozhnaya,  S. R. Gwaltney,  G. Hawkins,  A. Heyden,  
 S. Hirata,  G. Kedziora,  F. J. Keil,  C. Kelley,  Jihan Kim,  R. A. King,  
 R. Z. Khaliullin,  P. P. Korambath,  W. Kurlancheek,  A. M. Lee,  M. S. Lee,  
 S. V. Levchenko,  Ching Yeh Lin,  D. Liotard,  R. C. Lochan,  I. Lotan,  
 P. E. Maslen,  N. Nair,  D. P. O'Neill,  D. Neuhauser,  E. Neuscamman,  
 C. M. Oana,  R. Olson,  B. Peters,  R. Peverati,  P. A. Pieniazek,  
 Y. M. Rhee,  J. Ritchie,  M. A. Rohrdanz,  E. Rosta,  N. J. Russ,  
 H. F. Schaefer III,  N. E. Schultz,  N. Shenvi,  A. C. Simmonett,  A. Sodt,  
 D. Stuck,  K. S. Thanthiriwatte,  V. Vanovschi,  Tao Wang,  A. Warshel,  
 C. F. Williams,  Q. Wu,  X. Xu,  W. Zhang

 Please cite Q-Chem as follows:
 Y. Shao et al., Mol. Phys. 113, 184-215 (2015)
 DOI: 10.1080/00268976.2014.952696

 Q-Chem 5.1.0 for Intel X86 EM64T Linux

 Parts of Q-Chem use Armadillo 8.300.2 (Tropical Shenanigans).
 http://arma.sourceforge.net/

 Q-Chem begins on Wed Aug 15 23:06:07 2018  

Host: 
0

     Scratch files written to /work1/malop/qc_7138056.hnode2//

Checking the input file for inconsistencies... 	...done.

--------------------------------------------------------------
User input:
--------------------------------------------------------------
$comment 
NEXAFS VINYLFLUORIDE / 6-311++G**+Rydberg
Optimized geometry with CFour
$end

$molecule
0 1
C
Gh   1 nc2
F    2 fn3         1 fnc3
C    3 cf4         2 cfn4          1 dih4
H    4 hc5         1 hcc5          2 dih5
H    1 hc6         4 hcc6          3 dih6
H    1 hc7         4 hcc7          3 dih7

nc2         1.196145
fn3         1.174610
fnc3        159.355
cf4         1.342808
cfn4         18.424
dih4        180.000
hc5         1.080830
hcc5        125.835
dih5        180.000
hc6         1.080059
hcc6        121.377
dih6          0.000
hc7         1.078980
hcc7        118.942
dih7        180.000
$end

$rem
!    input_bohr = true
    jobtype = sp
    method = eom-ccsd
    cvs_ee_singlets    [30,15]
    basis = gen
    n_frozen_core = 1 
    cc_trans_prop = true
   EOM_DAVIDSON_MAXVECTORS = 1000
   eom_preconv_singles = true
   eom_shift = 25400
   eom_davidson_convergence = 4   !as we discussed, this is good for core
   use_libqints = 1   !use new int library (will be def in trunk)
   thresh = 14   !this already should be default, but just in case
   scf_convergence = 12   !v. tight scf convergence, to reduce noise
   cc_convergence = 12   !tight CC, for the same reason
   basis_lin_dep_thresh = 8  !default is 6, use smaller, just in case
   cc_memory = 100000
   EOM_DAVIDSON_MAX_ITER 200
$end

$basis
C    0
S    6    1.000000
   4.56324000E+03    1.96665000E-03
   6.82024000E+02    1.52306000E-02
   1.54973000E+02    7.61269000E-02
   4.44553000E+01    2.60801000E-01
   1.30290000E+01    6.16462000E-01
   1.82773000E+00    2.21006000E-01
SP   3    1.000000
   2.09642000E+01    1.14660000E-01   4.02487000E-02
   4.80331000E+00    9.19999000E-01   2.37594000E-01
   1.45933000E+00   -3.03068000E-03   8.15854000E-01
SP   1    1.000000
   4.83456000E-01    1.00000000E+00   1.00000000E+00
SP   1    1.000000
   1.45585000E-01    1.00000000E+00   1.00000000E+00
SP   1    1.000000
   4.38000000E-02    1.00000000E+00   1.00000000E+00
D    1    1.000000
   6.26000000E-01    1.00000000E+00
****
Gh   0
S   1   1.00
        0.0112533427        1.0000000000
S   1   1.00
        0.0058583805        1.0000000000
S   1   1.00
        0.0033459739        1.0000000000
S   1   1.00
        0.0020484225        1.0000000000
S   1   1.00
        0.0013236424        1.0000000000
P   1   1.00
        0.0192542060        1.0000000000
P   1   1.00
        0.0099882106        1.0000000000
P   1   1.00
        0.0056893607        1.0000000000
P   1   1.00
        0.0034756797        1.0000000000
P   1   1.00
        0.0022420590        1.0000000000
D   1   1.00
        0.0274456919        1.0000000000
D   1   1.00
        0.0142043987        1.0000000000
D   1   1.00
        0.0080765930        1.0000000000
D   1   1.00
        0.0049271863        1.0000000000
D   1   1.00
        0.0031748110        1.0000000000
****
F    0
S    6    1.000000
   1.14271000E+04    1.80093000E-03
   1.72235000E+03    1.37419000E-02
   3.95746000E+02    6.81334000E-02
   1.15139000E+02    2.33325000E-01
   3.36026000E+01    5.89086000E-01
   4.91901000E+00    2.99505000E-01
SP   3    1.000000
   5.54441000E+01    1.14536000E-01   3.54609000E-02
   1.26323000E+01    9.20512000E-01   2.37451000E-01
   3.71756000E+00   -3.37804000E-03   8.20458000E-01
SP   1    1.000000
   1.16545000E+00    1.00000000E+00   1.00000000E+00
SP   1    1.000000
   3.21892000E-01    1.00000000E+00   1.00000000E+00
SP   1    1.000000
   1.07600000E-01    1.00000000E+00   1.00000000E+00
D    1    1.000000
   1.75000000E+00    1.00000000E+00
****
C    0
S    6    1.000000
   4.56324000E+03    1.96665000E-03
   6.82024000E+02    1.52306000E-02
   1.54973000E+02    7.61269000E-02
   4.44553000E+01    2.60801000E-01
   1.30290000E+01    6.16462000E-01
   1.82773000E+00    2.21006000E-01
SP   3    1.000000
   2.09642000E+01    1.14660000E-01   4.02487000E-02
   4.80331000E+00    9.19999000E-01   2.37594000E-01
   1.45933000E+00   -3.03068000E-03   8.15854000E-01
SP   1    1.000000
   4.83456000E-01    1.00000000E+00   1.00000000E+00
SP   1    1.000000
   1.45585000E-01    1.00000000E+00   1.00000000E+00
SP   1    1.000000
   4.38000000E-02    1.00000000E+00   1.00000000E+00
D    1    1.000000
   6.26000000E-01    1.00000000E+00
****
H    0
S    3    1.000000
   3.38650000E+01    2.54938000E-02
   5.09479000E+00    1.90373000E-01
   1.15879000E+00    8.52161000E-01
S    1    1.000000
   3.25840000E-01    1.00000000E+00
S    1    1.000000
   1.02741000E-01    1.00000000E+00
S    1    1.000000
   3.60000000E-02    1.00000000E+00
P    1    1.000000
   7.50000000E-01    1.00000000E+00
****
H    0
S    3    1.000000
   3.38650000E+01    2.54938000E-02
   5.09479000E+00    1.90373000E-01
   1.15879000E+00    8.52161000E-01
S    1    1.000000
   3.25840000E-01    1.00000000E+00
S    1    1.000000
   1.02741000E-01    1.00000000E+00
S    1    1.000000
   3.60000000E-02    1.00000000E+00
P    1    1.000000
   7.50000000E-01    1.00000000E+00
****
$end
--------------------------------------------------------------
 ----------------------------------------------------------------
             Standard Nuclear Orientation (Angstroms)
    I     Atom           X                Y                Z
 ----------------------------------------------------------------
    1      C       1.1793501531     0.1997297036     0.0000000000
    2      GH     -0.0000008629    -0.0000052260     0.0000000000
    3      F      -1.1529022759     0.2247768549    -0.0000000000
    4      C       0.0163188924    -0.4355678917     0.0000000000
    5      H      -0.1189529826    -1.5078994676    -0.0000000000
    6      H       1.2308255218     1.2785613540    -0.0000000000
    7      H       2.0902345342    -0.3786192262     0.0000000000
 ----------------------------------------------------------------
 Molecular Point Group                 Cs    NOp =  2
 Largest Abelian Subgroup              Cs    NOp =  2
 Nuclear Repulsion Energy =    67.5482146678 hartrees
 There are       12 alpha and       12 beta electrons

 Q-Chem warning in module forms1/BasisType.C, line 1685:

 Setting pure/cartesian flag to 2111 for general basis


 Requested basis set is non-standard
 There are 48 shells and 132 basis functions
MEM_TOTAL is adjusted to CC_MEMORY + MEM_STATIC!
 Total memory of 100192MB is distributed as follows: 
   QALLOC including MEM_STATIC uses 192MB
   MEM_STATIC is set to 192MB
   CCMAN JOB total memory use is  100000MB
 Warning: actual memory use might exceed 100192MB

 Total QAlloc Memory Limit    192 MB
 Mega-Array Size       188 MB
 MEM_STATIC part       192 MB

                       Distance Matrix (Angstroms)
             C (  1)   GH(  2)   F (  3)   C (  4)   H (  5)   H (  6)
   GH(  2)  1.196145
   F (  3)  2.332387  1.174610
   C (  4)  1.325234  0.435868  1.342808
   H (  5)  2.145131  1.512579  2.017726  1.080830
   H (  6)  1.080059  1.774730  2.606266  2.100777  3.096170
   H (  7)  1.078980  2.124249  3.298791  2.074697  2.481085  1.866770

 
 A cutoff of  1.0D-14 yielded   1174 shell pairs
 There are      8949 function pairs (     10081 Cartesian)
 
 -------------------------------------------------------
 OpenMP Integral Computing Module                       
 Release: version 1.0, May 2013, Q-Chem Inc. Pittsburgh 
 -------------------------------------------------------
 Integral Job Info:
 Integral job number is                      11
 Integral operator is                         1
 short-range coefficients                     0
 long-range coefficients              100000000
 Omega coefficients                           0
 if combine SR and LR in K                    0
 Integral screening is                        0
 Integral computing path is                   2
 max size of driver memory is            800000
 size of driver memory is                593474
 size of scratch memory is              2361544
 max col of scratch BK array               1296
 max len of scratch array in speh3          155
 max len of scratch index in speh4           18
 max int batch size is                      520
 min int batch size is                       52
 fixed nKL is                                52
 max L of basis functions is                  2
 order of int derivative is                   0
 number of shells is                         48
 number of basis is                         140
 number of cartesian basis is               140
 number of contracted shell pairs          1174
 number of primitive shell pairs           2621
 maxK2 (contraction) of shell pair           36
 max number of K2 of shell pair               1
 max number of CS2 of shell pair            127
 max number of PS2 of shell pair            264
 mem total for path MDJ                  524862
 -------------------------------------------------------
 Smallest overlap matrix eigenvalue = 4.92E-05

 Scale SEOQF with 1.000000e-02/1.000000e-02/1.000000e-02

 Standard Electronic Orientation quadrupole field applied
 Nucleus-field energy     =     0.0000000001 hartrees
 Guess MOs from core Hamiltonian diagonalization

 -----------------------------------------------------------------------
  General SCF calculation program by
  Eric Jon Sundstrom, Paul Horn, Yuezhi Mao, Dmitri Zuev, Alec White,
  David Stuck, Shaama M.S., Shane Yost, Joonho Lee, David Small,
  Daniel Levine, Susi Lehtola, Hugh Burton, Evgeny Epifanovsky
 -----------------------------------------------------------------------
 Hartree-Fock
 A restricted SCF calculation will be
 performed using DIIS
 SCF converges when DIIS error is below 1.0e-12
 ---------------------------------------
  Cycle       Energy         DIIS error
 ---------------------------------------
    1    -141.8762264088      1.72e-01  
    2    -134.6947093817      6.31e-02  
    3    -154.4282865833      9.70e-02  
    4    -161.0733311653      7.48e-02  
    5    -168.4340690196      5.94e-02  
    6    -171.0025084842      4.89e-02  
    7    -173.9713689260      3.51e-02  
    8    -175.9995999870      1.98e-02  
    9    -176.7763686186      7.57e-03  
   10    -176.9195996022      1.81e-03  
   11    -176.9342118110      6.70e-04  
   12    -176.9364326953      4.12e-04  
   13    -176.9368554418      2.06e-04  
   14    -176.9369963051      3.81e-05  
   15    -176.9370008631      5.67e-06  
   16    -176.9370009739      8.57e-07  
   17    -176.9370009779      1.95e-07  
   18    -176.9370009781      4.57e-08  
   19    -176.9370009782      9.26e-09  
   20    -176.9370009782      1.87e-09  
   21    -176.9370009782      3.44e-10  
   22    -176.9370009782      6.66e-11  
   23    -176.9370009782      1.57e-11  
   24    -176.9370009782      2.90e-12  
   25    -176.9370009782      5.49e-13  Convergence criterion met
 ---------------------------------------
 SCF time:   CPU 67.48s  wall 7.00s 
 SCF   energy in the final basis set =     -176.9370009782


 ------------------------------------------------------------------------------

   CCMAN2: suite of methods based on coupled cluster
           and equation of motion theories.

   Components:
   * libvmm-1.3-trunk
     by Evgeny Epifanovsky, Ilya Kaliman.
   * libtensor-2.5-trunk
     by Evgeny Epifanovsky, Michael Wormit, Dmitry Zuev, Sam Manzer, 
        Ilya Kaliman.
   * libcc-2.5-trunk
     by Evgeny Epifanovsky, Arik Landau, Tomasz Kus, Kirill Khistyaev, 
        Dmitry Zuev, Prashant Manohar, Xintian Feng, Anna Krylov, 
        Matthew Goldey, Alec White, Thomas Jagau, Kaushik Nanda, 
        Anastasia Gunina, Alexander Kunitsa, Joonho Lee.

   CCMAN original authors:
   Anna I. Krylov, C. David Sherrill, Steven R. Gwaltney,
   Edward F. C. Byrd (2000)
   Sergey V. Levchenko, Lyudmila V. Slipchenko, Tao Wang,
   Ana-Maria C. Cristian (2003)
   Piotr A. Pieniazek, C. Melania Oana, Evgeny Epifanovsky (2007)
   Prashant Manohar (2009)

 ------------------------------------------------------------------------------


 Calculation will run on 10 cores with 100000MB of RAM.

 
 Alpha MOs, Restricted
 -- Occupied --                  
-26.310 -11.332 -11.240  -1.628  -1.055  -0.840  -0.740  -0.690
  1 A'    2 A'    3 A'    4 A'    5 A'    6 A'    7 A'    1 A"                 
 -0.686  -0.591  -0.562  -0.386
  8 A'    9 A'   10 A'    2 A"                                                 
 -- Virtual --                   
  0.001   0.003   0.004   0.004   0.005   0.008   0.008   0.008
 11 A'   12 A'   13 A'    3 A"   14 A'   15 A'   16 A'    4 A"                 
  0.008   0.008   0.011   0.011   0.012   0.014   0.021   0.021
 17 A'    5 A"   18 A'   19 A'    6 A"   20 A'   21 A'   22 A'                 
  0.021   0.021   0.021   0.025   0.026   0.027   0.030   0.044
  7 A"   23 A'    8 A"   24 A'   25 A'    9 A"   26 A'   27 A'                 
  0.044   0.044   0.045   0.045   0.051   0.055   0.055   0.063
 28 A'   10 A"   29 A'   11 A"   30 A'   12 A"   31 A'   32 A'                 
  0.083   0.084   0.085   0.087   0.089   0.102   0.109   0.112
 13 A"   33 A'   34 A'   35 A'   14 A"   36 A'   37 A'   15 A"                 
  0.126   0.136   0.136   0.145   0.160   0.166   0.172   0.175
 38 A'   16 A"   39 A'   40 A'   41 A'   42 A'   43 A'   17 A"                 
  0.177   0.179   0.220   0.246   0.256   0.261   0.269   0.284
 18 A"   44 A'   45 A'   46 A'   19 A"   47 A'   20 A"   48 A'                 
  0.295   0.333   0.351   0.395   0.453   0.483   0.491   0.511
 49 A'   50 A'   51 A'   52 A'   53 A'   21 A"   54 A'   55 A'                 
  0.540   0.614   0.683   0.706   0.771   0.816   0.837   0.883
 56 A'   57 A'   58 A'   59 A'   60 A'   22 A"   23 A"   61 A'                 
  0.938   0.949   0.994   1.037   1.098   1.257   1.312   1.481
 62 A'   63 A'   64 A'   65 A'   66 A'   24 A"   25 A"   26 A"                 
  1.602   1.661   1.695   1.724   1.749   1.840   1.860   1.913
 67 A'   68 A'   69 A'   27 A"   70 A'   71 A'   72 A'   28 A"                 
  1.960   2.032   2.172   2.286   2.316   2.369   2.402   2.460
 73 A'   29 A"   74 A'   75 A'   30 A"   76 A'   31 A"   77 A'                 
  2.587   2.797   2.877   2.935   3.041   3.061   3.137   3.286
 78 A'   79 A'   80 A'   81 A'   82 A'   83 A'   32 A"   33 A"                 
  3.383   3.598   3.895   4.148   4.225   4.251   4.436   4.444
 84 A'   85 A'   86 A'   87 A'   34 A"   88 A'   89 A'   35 A"                 
  4.591   5.330   6.981   7.029   7.342  24.846  25.411  68.776
 90 A'   91 A'   36 A"   92 A'   93 A'   94 A'   95 A'   96 A'                 
 
 Beta MOs, Restricted
 -- Occupied --                  
-26.310 -11.332 -11.240  -1.628  -1.055  -0.840  -0.740  -0.690
  1 A'    2 A'    3 A'    4 A'    5 A'    6 A'    7 A'    1 A"                 
 -0.686  -0.591  -0.562  -0.386
  8 A'    9 A'   10 A'    2 A"                                                 
 -- Virtual --                   
  0.001   0.003   0.004   0.004   0.005   0.008   0.008   0.008
 11 A'   12 A'   13 A'    3 A"   14 A'   15 A'   16 A'    4 A"                 
  0.008   0.008   0.011   0.011   0.012   0.014   0.021   0.021
 17 A'    5 A"   18 A'   19 A'    6 A"   20 A'   21 A'   22 A'                 
  0.021   0.021   0.021   0.025   0.026   0.027   0.030   0.044
  7 A"   23 A'    8 A"   24 A'   25 A'    9 A"   26 A'   27 A'                 
  0.044   0.044   0.045   0.045   0.051   0.055   0.055   0.063
 28 A'   10 A"   29 A'   11 A"   30 A'   12 A"   31 A'   32 A'                 
  0.083   0.084   0.085   0.087   0.089   0.102   0.109   0.112
 13 A"   33 A'   34 A'   35 A'   14 A"   36 A'   37 A'   15 A"                 
  0.126   0.136   0.136   0.145   0.160   0.166   0.172   0.175
 38 A'   16 A"   39 A'   40 A'   41 A'   42 A'   43 A'   17 A"                 
  0.177   0.179   0.220   0.246   0.256   0.261   0.269   0.284
 18 A"   44 A'   45 A'   46 A'   19 A"   47 A'   20 A"   48 A'                 
  0.295   0.333   0.351   0.395   0.453   0.483   0.491   0.511
 49 A'   50 A'   51 A'   52 A'   53 A'   21 A"   54 A'   55 A'                 
  0.540   0.614   0.683   0.706   0.771   0.816   0.837   0.883
 56 A'   57 A'   58 A'   59 A'   60 A'   22 A"   23 A"   61 A'                 
  0.938   0.949   0.994   1.037   1.098   1.257   1.312   1.481
 62 A'   63 A'   64 A'   65 A'   66 A'   24 A"   25 A"   26 A"                 
  1.602   1.661   1.695   1.724   1.749   1.840   1.860   1.913
 67 A'   68 A'   69 A'   27 A"   70 A'   71 A'   72 A'   28 A"                 
  1.960   2.032   2.172   2.286   2.316   2.369   2.402   2.460
 73 A'   29 A"   74 A'   75 A'   30 A"   76 A'   31 A"   77 A'                 
  2.587   2.797   2.877   2.935   3.041   3.061   3.137   3.286
 78 A'   79 A'   80 A'   81 A'   82 A'   83 A'   32 A"   33 A"                 
  3.383   3.598   3.895   4.148   4.225   4.251   4.436   4.444
 84 A'   85 A'   86 A'   87 A'   34 A"   88 A'   89 A'   35 A"                 
  4.591   5.330   6.981   7.029   7.342  24.846  25.411  68.776
 90 A'   91 A'   36 A"   92 A'   93 A'   94 A'   95 A'   96 A'                 

 Occupation and symmetry of molecular orbitals

 Point group: Cs (2 irreducible representations).

                           A'   A"    All 
 ------------------------------------------
 All molecular orbitals:
  - Alpha                  96   36    132 
  - Beta                   96   36    132 
 ------------------------------------------
 Alpha orbitals:
  - Frozen occupied        1    0     1   
  - Active occupied        9    2     11  
  - Active virtual         86   34    120 
  - Frozen virtual         0    0     0   
 ------------------------------------------
 Beta orbitals:
  - Frozen occupied        1    0     1   
  - Active occupied        9    2     11  
  - Active virtual         86   34    120 
  - Frozen virtual         0    0     0   
 ------------------------------------------

 Import integrals:   CPU 0.00 s  wall 0.00 s

 Import integrals:   CPU 46.50 s  wall 5.70 s

 MP2 amplitudes:   CPU 0.53 s  wall 0.37 s

           CCSD T amplitudes will be solved using DIIS.

           Start     Size      MaxIter   EConv     TConv     
           3         7         100       1.00e-12  1.00e-11  
 ------------------------------------------------------------------------------
           Energy (a.u.)   Ediff      Tdiff       Comment
 ------------------------------------------------------------------------------
          -177.46365794                           
     1    -177.47088058   7.22e-03   6.21e-01     
     2    -177.48464752   1.38e-02   7.47e-02     
     3    -177.48534629   6.99e-04   2.95e-02     
     4    -177.48684071   1.49e-03   1.07e-02     Switched to DIIS steps.
     5    -177.48742318   5.82e-04   9.15e-03     
     6    -177.48743897   1.58e-05   1.54e-03     
     7    -177.48743381   5.15e-06   6.60e-04     
     8    -177.48743299   8.27e-07   1.07e-04     
     9    -177.48743313   1.39e-07   4.35e-05     
    10    -177.48743314   1.07e-08   1.09e-05     
    11    -177.48743315   1.18e-08   3.70e-06     
    12    -177.48743315   3.05e-09   1.67e-06     
    13    -177.48743315   2.21e-09   5.49e-07     
    14    -177.48743315   7.29e-10   1.72e-07     
    15    -177.48743315   9.21e-11   5.75e-08     
    16    -177.48743315   3.60e-10   2.61e-08     
    17    -177.48743315   8.78e-11   9.00e-09     
    18    -177.48743315   2.84e-11   4.63e-09     
    19    -177.48743315   2.02e-11   1.52e-09     
    20    -177.48743315   1.51e-12   6.36e-10     
    21    -177.48743315   7.83e-13   2.67e-10     
    22    -177.48743315   8.43e-13   1.16e-10     
    23    -177.48743315   2.78e-13   4.06e-11     
    24    -177.48743315   4.12e-13   1.76e-11     
    25    -177.48743315   9.15e-14   7.96e-12     
 ------------------------------------------------------------------------------
          -177.48743315                           CCSD T converged.

 SCF energy                 = -176.93700098
 MP2 energy                 = -177.46365794
 CCSD correlation energy     =   -0.55043217
 CCSD total energy           = -177.48743315

 CCSD  T1^2 = 0.0060  T2^2 = 0.1652  Leading amplitudes:

 Amplitude    Orbitals with energies
 -0.0191       1 (A") A                  ->    16 (A") A                  
              -0.6904                          0.1356                     
 -0.0191       1 (A") B                  ->    16 (A") B                  
              -0.6904                          0.1356                     
 -0.0189       2 (A") A                  ->    22 (A") A                  
              -0.3860                          0.8157                     
 -0.0189       2 (A") B                  ->    22 (A") B                  
              -0.3860                          0.8157                     

 Amplitude    Orbitals with energies
 -0.0656       2 (A") A      2 (A") B    ->    16 (A") A     16 (A") B    
              -0.3860       -0.3860            0.1356        0.1356       
  0.0656       2 (A") A      2 (A") B    ->    16 (A") B     16 (A") A    
              -0.3860       -0.3860            0.1356        0.1356       
  0.0656       2 (A") B      2 (A") A    ->    16 (A") A     16 (A") B    
              -0.3860       -0.3860            0.1356        0.1356       
 -0.0656       2 (A") B      2 (A") A    ->    16 (A") B     16 (A") A    
              -0.3860       -0.3860            0.1356        0.1356       

 Computing CCSD intermediates for later calculations
 Finished.

           CCSD Lambda amplitudes will be solved using DIIS.
           Start     Size      MaxIter   EConv     LConv     
           3         7         100       1.00e-12  1.00e-11  
 ------------------------------------------------------------------------------
            Enorm      Ldiff       Comment
 ------------------------------------------------------------------------------
     1     3.68e-02   2.32e-02     
     2     1.09e-02   4.86e-03     
     3     4.11e-03   6.90e-04     
     4     2.06e-03   6.94e-04     Switched to DIIS steps.
     5     5.09e-04   3.84e-04     
     6     2.24e-04   6.78e-05     
     7     6.06e-05   1.41e-05     
     8     2.52e-05   1.07e-06     
     9     9.04e-06   2.39e-06     
    10     3.37e-06   9.66e-07     
    11     1.30e-06   2.89e-07     
    12     3.73e-07   1.40e-07     
    13     1.42e-07   2.40e-08     
    14     5.27e-08   1.32e-08     
    15     1.89e-08   6.81e-09     
    16     9.06e-09   2.18e-09     
    17     3.72e-09   1.14e-09     
    18     1.65e-09   2.85e-10     
    19     6.93e-10   2.70e-11     
    20     3.01e-10   2.71e-11     
    21     1.34e-10   2.00e-11     
    22     5.44e-11   1.20e-11     
    23     1.98e-11   5.69e-12     
    24     7.97e-12   9.95e-13     
    25     3.22e-12   6.95e-13     
    26     1.21e-12   1.57e-13     
    27     4.57e-13   4.52e-14     
 ------------------------------------------------------------------------------
                                   CCSD Lambda converged.

 CCSD calculation:   CPU 697.54 s  wall 95.88 s

        Solving for CVS-EOMEE-CCSD A' singlet states.

       EOMEE-CCSD-SINGLES right amplitudes will be solved using Davidson.
        Amplitudes will be solved using shifted  algorithm.
     Hard-coded thresholds: 
     LinDepThresh=1.00e-15  NormThresh=1.00e-06  ReorthogonThresh=1.00e-02

      Roots     MaxVec    MaxIter   Precond   Conv      Shift    
      30        1000      200       1         1.00e-04  2.54e+01  
 ------------------------------------------------------------------------------
      Iter ConvRoots NVecs ResNorm Current eigenvalues (eV)
 ------------------------------------------------------------------------------
      0    0      30    7.17e-04   713.1397   714.0790   714.3694   714.9226   715.0025   715.0360   715.0892   715.2602   715.3588   715.5607   715.6015   715.6204   715.6426   715.7112   715.7617   715.8646   715.9702   715.9943   716.0082   716.0554   716.0933   716.2032   716.6915   716.7156   716.7734   716.8226   716.8941   717.0968   717.2810   717.3507   
Rerun orthogonalization...
      1    0      60    1.13e-02   711.2667   712.8192   713.7092   714.1652   714.7598   714.9144   714.9422   715.0070   715.1321   715.2811   715.4849   715.5462   715.5635   715.5958   715.6478   715.7208   715.8189   715.8959   715.9118   715.9256   715.9972   716.0309   716.1466   716.4204   716.4624   716.4822   716.6548   716.7047   716.9306   717.0630   
Rerun orthogonalization...
      2    30     86    1.25e-21   709.1340*  712.2195*  713.4343*  714.0739*  714.6746*  714.7891*  714.9247*  714.9651*  715.0978*  715.2520*  715.4492*  715.4879*  715.5515*  715.5752*  715.6354*  715.7061*  715.7976*  715.8401*  715.8991*  715.9068*  715.9915*  716.0106*  716.1203*  716.2887*  716.4121*  716.4479*  716.5540*  716.6952*  716.8964*  716.9863*  

     Davidson procedure converged

        CVS-EOMEE-CCSD/MP2 right amplitudes will be solved using Davidson.
        Amplitudes will be solved using shifted  algorithm.
     Hard-coded thresholds: 
     LinDepThresh=1.00e-15  NormThresh=1.00e-06  ReorthogonThresh=1.00e-02

      Roots     MaxVec    MaxIter   Precond   Conv      Shift    
      30        1000      200       1         1.00e-04  2.54e+01  
 ------------------------------------------------------------------------------
      Iter ConvRoots NVecs ResNorm Current eigenvalues (eV)
 ------------------------------------------------------------------------------
      0    0      30    5.06e+00   709.1340   712.2195   713.4343   714.0739   714.6746   714.7891   714.9247   714.9651   715.0978   715.2520   715.4492   715.4879   715.5515   715.5752   715.6354   715.7061   715.7976   715.8401   715.8991   715.9068   715.9915   716.0106   716.1203   716.2887   716.4121   716.4479   716.5540   716.6952   716.8964   716.9863   
      1    0      60    4.20e+00   706.2814   708.9443   710.1248   710.6747   711.2974   711.4067   711.5227   711.5601   711.7034   711.8519   712.0577   712.0945   712.1508   712.1734   712.2367   712.3059   712.4018   712.4463   712.4981   712.5066   712.5902   712.6110   712.7219   712.9052   713.0158   713.0453   713.1629   713.2860   713.4831   713.5957   
      2    0      90    2.50e-01   691.9769   693.2234   693.5261   693.9231   694.6208   694.6408   694.7044   694.8584   694.9957   695.1409   695.3940   695.3968   695.4277   695.4936   695.5577   695.6298   695.7573   695.7784   695.8058   695.8352   695.8953   695.9675   696.0435   696.2618   696.3135   696.3542   696.5184   696.6011   696.6774   697.0029   
      3    0      120   1.23e-02   691.2047   692.2829   692.5543   692.8911   693.5344   693.5711   693.6304   693.7557   693.8767   693.9971   694.2307   694.2412   694.2663   694.3212   694.3780   694.4385   694.5579   694.6006   694.6225   694.6481   694.7081   694.7748   694.8548   695.1305   695.1749   695.2038   695.3754   695.4776   695.5744   695.8727   
      4    0      150   1.06e-03   691.1611   692.2167   692.5218   692.8542   693.5093   693.5505   693.6130   693.7269   693.8552   693.9721   694.2073   694.2195   694.2463   694.2969   694.3565   694.4150   694.5344   694.5779   694.6000   694.6248   694.6869   694.7470   694.8311   695.1076   695.1437   695.1703   695.3496   695.4464   695.5227   695.8134   
      5    0      180   7.72e-04   691.1507   692.1923   692.5081   692.8397   693.5008   693.5456   693.6101   693.7188   693.8497   693.9650   694.2018   694.2159   694.2435   694.2919   694.3526   694.4101   694.5302   694.5738   694.5963   694.6208   694.6835   694.7402   694.8261   695.1038   695.1346   695.1629   695.3442   695.4374   695.5045   695.7852   
      6    3      210   3.49e-04   691.1430   692.1778   692.4956   692.8284   693.4924   693.5414   693.6069*  693.7132   693.8441   693.9588   694.1968   694.2131*  694.2412*  694.2883   694.3492   694.4059   694.5268   694.5702   694.5930   694.6177   694.6802   694.7337   694.8215   695.0971   695.1226   695.1564   695.3355   695.4240   695.4837   695.7517   
      7    12     237   2.36e-04   691.1399   692.1693   692.4909   692.8237   693.4884   693.5395*  693.6057*  693.7102   693.8416   693.9561   694.1945   694.2120*  694.2404*  694.2865*  694.3476*  694.4042*  694.5252*  694.5686*  694.5914*  694.6164*  694.6785*  694.7300   694.8193   695.0928   695.1155   695.1532   695.3289   695.4105   695.4731   695.7327   
      8    23     255   1.21e-04   691.1393*  692.1665   692.4899*  692.8224*  693.4869*  693.5390*  693.6050*  693.7093*  693.8410*  693.9551*  694.1937*  694.2117*  694.2398*  694.2859*  694.3472*  694.4035*  694.5248*  694.5681*  694.5905*  694.6159*  694.6779*  694.7286*  694.8184*  695.0907   695.1125   695.1521*  695.3261   695.4027   695.4677   695.7231   
      9    24     262   9.19e-05   691.1392*  692.1659*  692.4892*  692.8217*  693.4861*  693.5387*  693.6046*  693.7089*  693.8404*  693.9544*  694.1932*  694.2115*  694.2396*  694.2857*  694.3468*  694.4029*  694.5245*  694.5677*  694.5899*  694.6158*  694.6774*  694.7276*  694.8176*  695.0888   695.1097   695.1517*  695.3233   695.3963   695.4621   695.7098   
Found complex roots...
      10   24     268   8.39e-05   691.1392*  692.1657*  692.4891*  692.8216*  693.4858*  693.5387*  693.6045*  693.7088*  693.8403*  693.9543*  694.1929*  694.2114*  694.2394*  694.2856*  694.3466*  694.4028*  694.5243*  694.5675*  694.5897*  694.6157*  694.6772*  694.7273*  694.8172*  695.0875   695.1082   695.1515*  695.3211   695.3939   695.4594   695.6967   
      11   28     274   4.92e-05   691.1392*  692.1656*  692.4890*  692.8215*  693.4857*  693.5386*  693.6045*  693.7088*  693.8401*  693.9542*  694.1928*  694.2114*  694.2394*  694.2856*  694.3465*  694.4027*  694.5242*  694.5673*  694.5896*  694.6156*  694.6770*  694.7272*  694.8169*  695.0866*  695.1072*  695.1513*  695.3189   695.3930*  695.4583*  695.6796   
      12   29     276   2.69e-05   691.1392*  692.1656*  692.4890*  692.8215*  693.4857*  693.5386*  693.6045*  693.7088*  693.8401*  693.9542*  694.1928*  694.2114*  694.2394*  694.2855*  694.3464*  694.4027*  694.5241*  694.5673*  694.5896*  694.6156*  694.6769*  694.7272*  694.8168*  695.0863*  695.1069*  695.1513*  695.3175*  695.3930*  695.4579*  695.6697   
Found complex roots...
      13   29     277   2.16e-05   691.1392*  692.1656*  692.4890*  692.8215*  693.4857*  693.5386*  693.6045*  693.7088*  693.8401*  693.9542*  694.1928*  694.2114*  694.2394*  694.2855*  694.3464*  694.4027*  694.5242*  694.5673*  694.5896*  694.6156*  694.6769*  694.7272*  694.8168*  695.0864*  695.1069*  695.1513*  695.3168*  695.3930*  695.4579*  695.6663   
      14   29     278   2.05e-05   691.1392*  692.1656*  692.4890*  692.8215*  693.4857*  693.5386*  693.6045*  693.7088*  693.8401*  693.9542*  694.1928*  694.2113*  694.2394*  694.2855*  694.3464*  694.4027*  694.5242*  694.5673*  694.5896*  694.6156*  694.6769*  694.7272*  694.8168*  695.0864*  695.1069*  695.1513*  695.3164*  695.3930*  695.4578*  695.6627   
      15   29     279   2.36e-05   691.1392*  692.1656*  692.4890*  692.8215*  693.4857*  693.5386*  693.6045*  693.7088*  693.8401*  693.9542*  694.1928*  694.2113*  694.2394*  694.2855*  694.3464*  694.4027*  694.5242*  694.5673*  694.5896*  694.6156*  694.6769*  694.7272*  694.8168*  695.0863*  695.1069*  695.1513*  695.3161*  695.3929*  695.4577*  695.6581   
Found complex roots...
      16   29     280   3.09e-05   691.1392*  692.1656*  692.4890*  692.8215*  693.4857*  693.5385*  693.6045*  693.7088*  693.8401*  693.9542*  694.1928*  694.2113*  694.2394*  694.2855*  694.3464*  694.4027*  694.5241*  694.5673*  694.5896*  694.6156*  694.6769*  694.7272*  694.8168*  695.0863*  695.1069*  695.1513*  695.3161*  695.3929*  695.4576*  695.6531   
Found complex roots...
      17   29     281   5.44e-05   691.1392*  692.1656*  692.4890*  692.8215*  693.4857*  693.5385*  693.6045*  693.7088*  693.8401*  693.9542*  694.1928*  694.2113*  694.2394*  694.2855*  694.3464*  694.4027*  694.5241*  694.5673*  694.5896*  694.6156*  694.6769*  694.7272*  694.8168*  695.0862*  695.1069*  695.1512*  695.3158*  695.3927*  695.4575*  695.6421   
Found complex roots...
      18   29     282   4.17e-05   691.1391*  692.1656*  692.4890*  692.8215*  693.4857*  693.5385*  693.6045*  693.7088*  693.8401*  693.9542*  694.1928*  694.2113*  694.2394*  694.2855*  694.3464*  694.4027*  694.5241*  694.5673*  694.5896*  694.6156*  694.6768*  694.7272*  694.8168*  695.0861*  695.1069*  695.1512*  695.3154*  695.3927*  695.4574*  695.6257   
      19   29     283   2.76e-05   691.1391*  692.1656*  692.4890*  692.8215*  693.4857*  693.5385*  693.6045*  693.7088*  693.8401*  693.9542*  694.1928*  694.2113*  694.2394*  694.2855*  694.3464*  694.4027*  694.5241*  694.5673*  694.5896*  694.6156*  694.6768*  694.7272*  694.8168*  695.0861*  695.1069*  695.1512*  695.3154*  695.3927*  695.4574*  695.6169   
      20   29     284   1.68e-05   691.1391*  692.1656*  692.4890*  692.8215*  693.4857*  693.5385*  693.6045*  693.7088*  693.8401*  693.9542*  694.1928*  694.2113*  694.2394*  694.2855*  694.3464*  694.4027*  694.5241*  694.5673*  694.5896*  694.6156*  694.6769*  694.7272*  694.8168*  695.0861*  695.1069*  695.1512*  695.3155*  695.3927*  695.4574*  695.6139   
      21   30     285   1.25e-05   691.1391*  692.1656*  692.4890*  692.8215*  693.4857*  693.5385*  693.6045*  693.7088*  693.8401*  693.9542*  694.1928*  694.2113*  694.2394*  694.2855*  694.3464*  694.4027*  694.5241*  694.5673*  694.5896*  694.6156*  694.6768*  694.7272*  694.8168*  695.0861*  695.1068*  695.1512*  695.3155*  695.3927*  695.4573*  695.6120*  

     Davidson procedure converged

 EOMEE transition 1/A'
 Total energy = -152.08853648 a.u.  Excitation energy = 691.1391 eV.
 R0^2 = 0.0000  R1^2 = 0.8504  R2_CCVV^2 = 0.0004  R2_COVV^2 = 0.0746  Res^2 = 7.39e-06
 Conv-d = yes

 Amplitude    Transitions between orbitals
  0.2918       1 (A') A                  ->    45 (A') A                  
  0.2918       1 (A') B                  ->    45 (A') B                  
 -0.2323       1 (A') A                  ->    32 (A') A                  
 -0.2323       1 (A') B                  ->    32 (A') B                  
 -0.2160       1 (A') A                  ->    37 (A') A                  
 -0.2160       1 (A') B                  ->    37 (A') B                  
  0.1947       1 (A') A                  ->    26 (A') A                  
  0.1947       1 (A') B                  ->    26 (A') B                  
 -0.1708       1 (A') A                  ->    52 (A') A                  
 -0.1708       1 (A') B                  ->    52 (A') B                  
 -0.1633       1 (A') A                  ->    39 (A') A                  
 -0.1633       1 (A') B                  ->    39 (A') B                  
  0.1392       1 (A') A                  ->    55 (A') A                  
  0.1392       1 (A') B                  ->    55 (A') B                  
 -0.1347       1 (A') A                  ->    20 (A') A                  
 -0.1347       1 (A') B                  ->    20 (A') B                  
 -0.1320       1 (A') A                  ->    31 (A') A                  
 -0.1320       1 (A') B                  ->    31 (A') B                  
 -0.1069       1 (A') A                  ->    42 (A') A                  
 -0.1069       1 (A') B                  ->    42 (A') B                  

              Summary of significant orbitals:

               Number  Type             Irrep      Energy
               1       Occ  Alpha       1 (A')    -26.3102
               1       Occ  Beta        1 (A')    -26.3102
               26      Vir  Alpha      20 (A')      0.0137
               35      Vir  Alpha      26 (A')      0.0297
               43      Vir  Alpha      31 (A')      0.0547
               44      Vir  Alpha      32 (A')      0.0626
               51      Vir  Alpha      37 (A')      0.1093
               55      Vir  Alpha      39 (A')      0.1359
               58      Vir  Alpha      42 (A')      0.1655
               63      Vir  Alpha      45 (A')      0.2198
               72      Vir  Alpha      52 (A')      0.3947
               76      Vir  Alpha      55 (A')      0.5107
               26      Vir  Beta       20 (A')      0.0137
               35      Vir  Beta       26 (A')      0.0297
               43      Vir  Beta       31 (A')      0.0547
               44      Vir  Beta       32 (A')      0.0626
               51      Vir  Beta       37 (A')      0.1093
               55      Vir  Beta       39 (A')      0.1359
               58      Vir  Beta       42 (A')      0.1655
               63      Vir  Beta       45 (A')      0.2198
               72      Vir  Beta       52 (A')      0.3947
               76      Vir  Beta       55 (A')      0.5107


 EOMEE transition 2/A'
 Total energy = -152.05081561 a.u.  Excitation energy = 692.1656 eV.
 R0^2 = 0.0000  R1^2 = 0.8482  R2_CCVV^2 = 0.0004  R2_COVV^2 = 0.0757  Res^2 = 1.09e-05
 Conv-d = yes

 Amplitude    Transitions between orbitals
 -0.2478       1 (A') A                  ->    52 (A') A                  
 -0.2478       1 (A') B                  ->    52 (A') B                  
 -0.2394       1 (A') A                  ->    26 (A') A                  
 -0.2394       1 (A') B                  ->    26 (A') B                  
  0.2145       1 (A') A                  ->    32 (A') A                  
  0.2145       1 (A') B                  ->    32 (A') B                  
  0.2063       1 (A') A                  ->    20 (A') A                  
  0.2063       1 (A') B                  ->    20 (A') B                  
  0.1686       1 (A') A                  ->    45 (A') A                  
  0.1686       1 (A') B                  ->    45 (A') B                  
 -0.1539       1 (A') A                  ->    14 (A') A                  
 -0.1539       1 (A') B                  ->    14 (A') B                  
  0.1365       1 (A') A                  ->    55 (A') A                  
  0.1365       1 (A') B                  ->    55 (A') B                  
 -0.1273       1 (A') A                  ->    42 (A') A                  
 -0.1273       1 (A') B                  ->    42 (A') B                  
  0.1149       1 (A') A                  ->    39 (A') A                  
  0.1149       1 (A') B                  ->    39 (A') B                  
  0.1140       1 (A') A                  ->    24 (A') A                  
  0.1140       1 (A') B                  ->    24 (A') B                  
 -0.1135       1 (A') A                  ->    51 (A') A                  
 -0.1135       1 (A') B                  ->    51 (A') B                  

              Summary of significant orbitals:

               Number  Type             Irrep      Energy
               1       Occ  Alpha       1 (A')    -26.3102
               1       Occ  Beta        1 (A')    -26.3102
               17      Vir  Alpha      14 (A')      0.0052
               26      Vir  Alpha      20 (A')      0.0137
               32      Vir  Alpha      24 (A')      0.0254
               35      Vir  Alpha      26 (A')      0.0297
               44      Vir  Alpha      32 (A')      0.0626
               55      Vir  Alpha      39 (A')      0.1359
               58      Vir  Alpha      42 (A')      0.1655
               63      Vir  Alpha      45 (A')      0.2198
               71      Vir  Alpha      51 (A')      0.3513
               72      Vir  Alpha      52 (A')      0.3947
               76      Vir  Alpha      55 (A')      0.5107
               17      Vir  Beta       14 (A')      0.0052
               26      Vir  Beta       20 (A')      0.0137
               32      Vir  Beta       24 (A')      0.0254
               35      Vir  Beta       26 (A')      0.0297
               44      Vir  Beta       32 (A')      0.0626
               55      Vir  Beta       39 (A')      0.1359
               58      Vir  Beta       42 (A')      0.1655
               63      Vir  Beta       45 (A')      0.2198
               71      Vir  Beta       51 (A')      0.3513
               72      Vir  Beta       52 (A')      0.3947
               76      Vir  Beta       55 (A')      0.5107


 EOMEE transition 3/A'
 Total energy = -152.03893144 a.u.  Excitation energy = 692.4889 eV.
 R0^2 = 0.0000  R1^2 = 0.8423  R2_CCVV^2 = 0.0004  R2_COVV^2 = 0.0787  Res^2 = 4.56e-06
 Conv-d = yes

 Amplitude    Transitions between orbitals
  0.3357       1 (A') A                  ->    30 (A') A                  
  0.3357       1 (A') B                  ->    30 (A') B                  
 -0.2937       1 (A') A                  ->    24 (A') A                  
 -0.2937       1 (A') B                  ->    24 (A') B                  
 -0.2644       1 (A') A                  ->    36 (A') A                  
 -0.2644       1 (A') B                  ->    36 (A') B                  
  0.1933       1 (A') A                  ->    18 (A') A                  
  0.1933       1 (A') B                  ->    18 (A') B                  
  0.1189       1 (A') A                  ->    46 (A') A                  
  0.1189       1 (A') B                  ->    46 (A') B                  
  0.1046       1 (A') A                  ->    34 (A') A                  
  0.1046       1 (A') B                  ->    34 (A') B                  
 -0.1001       1 (A') A                  ->    40 (A') A                  
 -0.1001       1 (A') B                  ->    40 (A') B                  

              Summary of significant orbitals:

               Number  Type             Irrep      Energy
               1       Occ  Alpha       1 (A')    -26.3102
               1       Occ  Beta        1 (A')    -26.3102
               23      Vir  Alpha      18 (A')      0.0111
               32      Vir  Alpha      24 (A')      0.0254
               41      Vir  Alpha      30 (A')      0.0513
               47      Vir  Alpha      34 (A')      0.0851
               50      Vir  Alpha      36 (A')      0.1023
               56      Vir  Alpha      40 (A')      0.1450
               64      Vir  Alpha      46 (A')      0.2456
               23      Vir  Beta       18 (A')      0.0111
               32      Vir  Beta       24 (A')      0.0254
               41      Vir  Beta       30 (A')      0.0513
               47      Vir  Beta       34 (A')      0.0851
               50      Vir  Beta       36 (A')      0.1023
               56      Vir  Beta       40 (A')      0.1450
               64      Vir  Beta       46 (A')      0.2456


 EOMEE transition 4/A'
 Total energy = -152.02671060 a.u.  Excitation energy = 692.8215 eV.
 R0^2 = 0.0000  R1^2 = 0.8416  R2_CCVV^2 = 0.0004  R2_COVV^2 = 0.0790  Res^2 = 7.13e-06
 Conv-d = yes

 Amplitude    Transitions between orbitals
  0.3337       1 (A') A                  ->    25 (A') A                  
  0.3337       1 (A') B                  ->    25 (A') B                  
 -0.3214       1 (A') A                  ->    31 (A') A                  
 -0.3214       1 (A') B                  ->    31 (A') B                  
 -0.2461       1 (A') A                  ->    19 (A') A                  
 -0.2461       1 (A') B                  ->    19 (A') B                  
 -0.1450       1 (A') A                  ->    37 (A') A                  
 -0.1450       1 (A') B                  ->    37 (A') B                  
 -0.1252       1 (A') A                  ->    38 (A') A                  
 -0.1252       1 (A') B                  ->    38 (A') B                  
 -0.1153       1 (A') A                  ->    13 (A') A                  
 -0.1153       1 (A') B                  ->    13 (A') B                  

              Summary of significant orbitals:

               Number  Type             Irrep      Energy
               1       Occ  Alpha       1 (A')    -26.3102
               1       Occ  Beta        1 (A')    -26.3102
               15      Vir  Alpha      13 (A')      0.0036
               24      Vir  Alpha      19 (A')      0.0114
               33      Vir  Alpha      25 (A')      0.0263
               43      Vir  Alpha      31 (A')      0.0547
               51      Vir  Alpha      37 (A')      0.1093
               53      Vir  Alpha      38 (A')      0.1257
               15      Vir  Beta       13 (A')      0.0036
               24      Vir  Beta       19 (A')      0.0114
               33      Vir  Beta       25 (A')      0.0263
               43      Vir  Beta       31 (A')      0.0547
               51      Vir  Beta       37 (A')      0.1093
               53      Vir  Beta       38 (A')      0.1257


 EOMEE transition 5/A'
 Total energy = -152.00230271 a.u.  Excitation energy = 693.4857 eV.
 R0^2 = 0.0000  R1^2 = 0.8408  R2_CCVV^2 = 0.0004  R2_COVV^2 = 0.0794  Res^2 = 5.83e-06
 Conv-d = yes

 Amplitude    Transitions between orbitals
  0.2839       1 (A') A                  ->    28 (A') A                  
  0.2839       1 (A') B                  ->    28 (A') B                  
  0.2442       1 (A') A                  ->    14 (A') A                  
  0.2442       1 (A') B                  ->    14 (A') B                  
 -0.2339       1 (A') A                  ->    22 (A') A                  
 -0.2339       1 (A') B                  ->    22 (A') B                  
  0.2130       1 (A') A                  ->    34 (A') A                  
  0.2130       1 (A') B                  ->    34 (A') B                  
 -0.2020       1 (A') A                  ->    20 (A') A                  
 -0.2020       1 (A') B                  ->    20 (A') B                  
 -0.1697       1 (A') A                  ->    11 (A') A                  
 -0.1697       1 (A') B                  ->    11 (A') B                  
  0.1290       1 (A') A                  ->    39 (A') A                  
  0.1290       1 (A') B                  ->    39 (A') B                  
  0.1192       1 (A') A                  ->    32 (A') A                  
  0.1192       1 (A') B                  ->    32 (A') B                  
 -0.1066       1 (A') A                  ->    42 (A') A                  
 -0.1066       1 (A') B                  ->    42 (A') B                  
  0.1059       1 (A') A                  ->    16 (A') A                  
  0.1059       1 (A') B                  ->    16 (A') B                  

              Summary of significant orbitals:

               Number  Type             Irrep      Energy
               1       Occ  Alpha       1 (A')    -26.3102
               1       Occ  Beta        1 (A')    -26.3102
               13      Vir  Alpha      11 (A')      0.0011
               17      Vir  Alpha      14 (A')      0.0052
               19      Vir  Alpha      16 (A')      0.0078
               26      Vir  Alpha      20 (A')      0.0137
               28      Vir  Alpha      22 (A')      0.0210
               37      Vir  Alpha      28 (A')      0.0442
               44      Vir  Alpha      32 (A')      0.0626
               47      Vir  Alpha      34 (A')      0.0851
               55      Vir  Alpha      39 (A')      0.1359
               58      Vir  Alpha      42 (A')      0.1655
               13      Vir  Beta       11 (A')      0.0011
               17      Vir  Beta       14 (A')      0.0052
               19      Vir  Beta       16 (A')      0.0078
               26      Vir  Beta       20 (A')      0.0137
               28      Vir  Beta       22 (A')      0.0210
               37      Vir  Beta       28 (A')      0.0442
               44      Vir  Beta       32 (A')      0.0626
               47      Vir  Beta       34 (A')      0.0851
               55      Vir  Beta       39 (A')      0.1359
               58      Vir  Beta       42 (A')      0.1655


 EOMEE transition 6/A'
 Total energy = -152.00036069 a.u.  Excitation energy = 693.5385 eV.
 R0^2 = 0.0000  R1^2 = 0.8407  R2_CCVV^2 = 0.0004  R2_COVV^2 = 0.0795  Res^2 = 9.29e-06
 Conv-d = yes

 Amplitude    Transitions between orbitals
  0.3210       1 (A') A                  ->    29 (A') A                  
  0.3210       1 (A') B                  ->    29 (A') B                  
 -0.2738       1 (A') A                  ->    23 (A') A                  
 -0.2738       1 (A') B                  ->    23 (A') B                  
  0.2593       1 (A') A                  ->    35 (A') A                  
  0.2593       1 (A') B                  ->    35 (A') B                  
  0.1917       1 (A') A                  ->    27 (A') A                  
  0.1917       1 (A') B                  ->    27 (A') B                  
 -0.1638       1 (A') A                  ->    21 (A') A                  
 -0.1638       1 (A') B                  ->    21 (A') B                  
 -0.1533       1 (A') A                  ->    43 (A') A                  
 -0.1533       1 (A') B                  ->    43 (A') B                  
  0.1298       1 (A') A                  ->    17 (A') A                  
  0.1298       1 (A') B                  ->    17 (A') B                  
 -0.1146       1 (A') A                  ->    33 (A') A                  
 -0.1146       1 (A') B                  ->    33 (A') B                  

              Summary of significant orbitals:

               Number  Type             Irrep      Energy
               1       Occ  Alpha       1 (A')    -26.3102
               1       Occ  Beta        1 (A')    -26.3102
               21      Vir  Alpha      17 (A')      0.0079
               27      Vir  Alpha      21 (A')      0.0209
               30      Vir  Alpha      23 (A')      0.0213
               36      Vir  Alpha      27 (A')      0.0436
               39      Vir  Alpha      29 (A')      0.0449
               46      Vir  Alpha      33 (A')      0.0841
               48      Vir  Alpha      35 (A')      0.0874
               59      Vir  Alpha      43 (A')      0.1720
               21      Vir  Beta       17 (A')      0.0079
               27      Vir  Beta       21 (A')      0.0209
               30      Vir  Beta       23 (A')      0.0213
               36      Vir  Beta       27 (A')      0.0436
               39      Vir  Beta       29 (A')      0.0449
               46      Vir  Beta       33 (A')      0.0841
               48      Vir  Beta       35 (A')      0.0874
               59      Vir  Beta       43 (A')      0.1720


 EOMEE transition 7/A'
 Total energy = -151.99793798 a.u.  Excitation energy = 693.6044 eV.
 R0^2 = 0.0000  R1^2 = 0.8411  R2_CCVV^2 = 0.0004  R2_COVV^2 = 0.0793  Res^2 = 8.91e-06
 Conv-d = yes

 Amplitude    Transitions between orbitals
 -0.2920       1 (A') A                  ->    27 (A') A                  
 -0.2920       1 (A') B                  ->    27 (A') B                  
  0.2749       1 (A') A                  ->    21 (A') A                  
  0.2749       1 (A') B                  ->    21 (A') B                  
  0.2284       1 (A') A                  ->    33 (A') A                  
  0.2284       1 (A') B                  ->    33 (A') B                  
  0.2130       1 (A') A                  ->    29 (A') A                  
  0.2130       1 (A') B                  ->    29 (A') B                  
 -0.1812       1 (A') A                  ->    23 (A') A                  
 -0.1812       1 (A') B                  ->    23 (A') B                  
  0.1424       1 (A') A                  ->    35 (A') A                  
  0.1424       1 (A') B                  ->    35 (A') B                  
 -0.1370       1 (A') A                  ->    15 (A') A                  
 -0.1370       1 (A') B                  ->    15 (A') B                  

              Summary of significant orbitals:

               Number  Type             Irrep      Energy
               1       Occ  Alpha       1 (A')    -26.3102
               1       Occ  Beta        1 (A')    -26.3102
               18      Vir  Alpha      15 (A')      0.0077
               27      Vir  Alpha      21 (A')      0.0209
               30      Vir  Alpha      23 (A')      0.0213
               36      Vir  Alpha      27 (A')      0.0436
               39      Vir  Alpha      29 (A')      0.0449
               46      Vir  Alpha      33 (A')      0.0841
               48      Vir  Alpha      35 (A')      0.0874
               18      Vir  Beta       15 (A')      0.0077
               27      Vir  Beta       21 (A')      0.0209
               30      Vir  Beta       23 (A')      0.0213
               36      Vir  Beta       27 (A')      0.0436
               39      Vir  Beta       29 (A')      0.0449
               46      Vir  Beta       33 (A')      0.0841
               48      Vir  Beta       35 (A')      0.0874


 EOMEE transition 8/A'
 Total energy = -151.99410417 a.u.  Excitation energy = 693.7088 eV.
 R0^2 = 0.0000  R1^2 = 0.8423  R2_CCVV^2 = 0.0004  R2_COVV^2 = 0.0787  Res^2 = 4.11e-06
 Conv-d = yes

 Amplitude    Transitions between orbitals
  0.2349       1 (A') A                  ->    14 (A') A                  
  0.2349       1 (A') B                  ->    14 (A') B                  
  0.2183       1 (A') A                  ->    22 (A') A                  
  0.2183       1 (A') B                  ->    22 (A') B                  
 -0.1969       1 (A') A                  ->    28 (A') A                  
 -0.1969       1 (A') B                  ->    28 (A') B                  
 -0.1768       1 (A') A                  ->    19 (A') A                  
 -0.1768       1 (A') B                  ->    19 (A') B                  
 -0.1665       1 (A') A                  ->    20 (A') A                  
 -0.1665       1 (A') B                  ->    20 (A') B                  
 -0.1646       1 (A') A                  ->    11 (A') A                  
 -0.1646       1 (A') B                  ->    11 (A') B                  
  0.1601       1 (A') A                  ->    32 (A') A                  
  0.1601       1 (A') B                  ->    32 (A') B                  
 -0.1424       1 (A') A                  ->    27 (A') A                  
 -0.1424       1 (A') B                  ->    27 (A') B                  
  0.1298       1 (A') A                  ->    25 (A') A                  
  0.1298       1 (A') B                  ->    25 (A') B                  
  0.1295       1 (A') A                  ->    21 (A') A                  
  0.1295       1 (A') B                  ->    21 (A') B                  
 -0.1285       1 (A') A                  ->    34 (A') A                  
 -0.1285       1 (A') B                  ->    34 (A') B                  
 -0.1180       1 (A') A                  ->    16 (A') A                  
 -0.1180       1 (A') B                  ->    16 (A') B                  

              Summary of significant orbitals:

               Number  Type             Irrep      Energy
               1       Occ  Alpha       1 (A')    -26.3102
               1       Occ  Beta        1 (A')    -26.3102
               13      Vir  Alpha      11 (A')      0.0011
               17      Vir  Alpha      14 (A')      0.0052
               19      Vir  Alpha      16 (A')      0.0078
               24      Vir  Alpha      19 (A')      0.0114
               26      Vir  Alpha      20 (A')      0.0137
               27      Vir  Alpha      21 (A')      0.0209
               28      Vir  Alpha      22 (A')      0.0210
               33      Vir  Alpha      25 (A')      0.0263
               36      Vir  Alpha      27 (A')      0.0436
               37      Vir  Alpha      28 (A')      0.0442
               44      Vir  Alpha      32 (A')      0.0626
               47      Vir  Alpha      34 (A')      0.0851
               13      Vir  Beta       11 (A')      0.0011
               17      Vir  Beta       14 (A')      0.0052
               19      Vir  Beta       16 (A')      0.0078
               24      Vir  Beta       19 (A')      0.0114
               26      Vir  Beta       20 (A')      0.0137
               27      Vir  Beta       21 (A')      0.0209
               28      Vir  Beta       22 (A')      0.0210
               33      Vir  Beta       25 (A')      0.0263
               36      Vir  Beta       27 (A')      0.0436
               37      Vir  Beta       28 (A')      0.0442
               44      Vir  Beta       32 (A')      0.0626
               47      Vir  Beta       34 (A')      0.0851


 EOMEE transition 9/A'
 Total energy = -151.98927898 a.u.  Excitation energy = 693.8401 eV.
 R0^2 = 0.0000  R1^2 = 0.8414  R2_CCVV^2 = 0.0004  R2_COVV^2 = 0.0791  Res^2 = 2.67e-06
 Conv-d = yes

 Amplitude    Transitions between orbitals
 -0.3736       1 (A') A                  ->    18 (A') A                  
 -0.3736       1 (A') B                  ->    18 (A') B                  
 -0.3123       1 (A') A                  ->    12 (A') A                  
 -0.3123       1 (A') B                  ->    12 (A') B                  
 -0.2101       1 (A') A                  ->    36 (A') A                  
 -0.2101       1 (A') B                  ->    36 (A') B                  
  0.1712       1 (A') A                  ->    30 (A') A                  
  0.1712       1 (A') B                  ->    30 (A') B                  
  0.1339       1 (A') A                  ->    22 (A') A                  
  0.1339       1 (A') B                  ->    22 (A') B                  
 -0.1173       1 (A') A                  ->    21 (A') A                  
 -0.1173       1 (A') B                  ->    21 (A') B                  
  0.1047       1 (A') A                  ->    24 (A') A                  
  0.1047       1 (A') B                  ->    24 (A') B                  
 -0.1034       1 (A') A                  ->    28 (A') A                  
 -0.1034       1 (A') B                  ->    28 (A') B                  

              Summary of significant orbitals:

               Number  Type             Irrep      Energy
               1       Occ  Alpha       1 (A')    -26.3102
               1       Occ  Beta        1 (A')    -26.3102
               14      Vir  Alpha      12 (A')      0.0035
               23      Vir  Alpha      18 (A')      0.0111
               27      Vir  Alpha      21 (A')      0.0209
               28      Vir  Alpha      22 (A')      0.0210
               32      Vir  Alpha      24 (A')      0.0254
               37      Vir  Alpha      28 (A')      0.0442
               41      Vir  Alpha      30 (A')      0.0513
               50      Vir  Alpha      36 (A')      0.1023
               14      Vir  Beta       12 (A')      0.0035
               23      Vir  Beta       18 (A')      0.0111
               27      Vir  Beta       21 (A')      0.0209
               28      Vir  Beta       22 (A')      0.0210
               32      Vir  Beta       24 (A')      0.0254
               37      Vir  Beta       28 (A')      0.0442
               41      Vir  Beta       30 (A')      0.0513
               50      Vir  Beta       36 (A')      0.1023


 EOMEE transition 10/A'
 Total energy = -151.98508499 a.u.  Excitation energy = 693.9542 eV.
 R0^2 = 0.0000  R1^2 = 0.8411  R2_CCVV^2 = 0.0004  R2_COVV^2 = 0.0793  Res^2 = 7.22e-06
 Conv-d = yes

 Amplitude    Transitions between orbitals
 -0.3353       1 (A') A                  ->    13 (A') A                  
 -0.3353       1 (A') B                  ->    13 (A') B                  
 -0.3021       1 (A') A                  ->    19 (A') A                  
 -0.3021       1 (A') B                  ->    19 (A') B                  
  0.2126       1 (A') A                  ->    31 (A') A                  
  0.2126       1 (A') B                  ->    31 (A') B                  
  0.1875       1 (A') A                  ->    11 (A') A                  
  0.1875       1 (A') B                  ->    11 (A') B                  
  0.1428       1 (A') A                  ->    37 (A') A                  
  0.1428       1 (A') B                  ->    37 (A') B                  
 -0.1354       1 (A') A                  ->    22 (A') A                  
 -0.1354       1 (A') B                  ->    22 (A') B                  
  0.1198       1 (A') A                  ->    16 (A') A                  
  0.1198       1 (A') B                  ->    16 (A') B                  
 -0.1105       1 (A') A                  ->    23 (A') A                  
 -0.1105       1 (A') B                  ->    23 (A') B                  
 -0.1055       1 (A') A                  ->    20 (A') A                  
 -0.1055       1 (A') B                  ->    20 (A') B                  

              Summary of significant orbitals:

               Number  Type             Irrep      Energy
               1       Occ  Alpha       1 (A')    -26.3102
               1       Occ  Beta        1 (A')    -26.3102
               13      Vir  Alpha      11 (A')      0.0011
               15      Vir  Alpha      13 (A')      0.0036
               19      Vir  Alpha      16 (A')      0.0078
               24      Vir  Alpha      19 (A')      0.0114
               26      Vir  Alpha      20 (A')      0.0137
               28      Vir  Alpha      22 (A')      0.0210
               30      Vir  Alpha      23 (A')      0.0213
               43      Vir  Alpha      31 (A')      0.0547
               51      Vir  Alpha      37 (A')      0.1093
               13      Vir  Beta       11 (A')      0.0011
               15      Vir  Beta       13 (A')      0.0036
               19      Vir  Beta       16 (A')      0.0078
               24      Vir  Beta       19 (A')      0.0114
               26      Vir  Beta       20 (A')      0.0137
               28      Vir  Beta       22 (A')      0.0210
               30      Vir  Beta       23 (A')      0.0213
               43      Vir  Beta       31 (A')      0.0547
               51      Vir  Beta       37 (A')      0.1093


 EOMEE transition 11/A'
 Total energy = -151.97631718 a.u.  Excitation energy = 694.1928 eV.
 R0^2 = 0.0000  R1^2 = 0.8411  R2_CCVV^2 = 0.0004  R2_COVV^2 = 0.0793  Res^2 = 2.73e-06
 Conv-d = yes

 Amplitude    Transitions between orbitals
  0.3330       1 (A') A                  ->    16 (A') A                  
  0.3330       1 (A') B                  ->    16 (A') B                  
 -0.2938       1 (A') A                  ->    11 (A') A                  
 -0.2938       1 (A') B                  ->    11 (A') B                  
  0.1863       1 (A') A                  ->    20 (A') A                  
  0.1863       1 (A') B                  ->    20 (A') B                  
 -0.1788       1 (A') A                  ->    22 (A') A                  
 -0.1788       1 (A') B                  ->    22 (A') B                  
 -0.1750       1 (A') A                  ->    26 (A') A                  
 -0.1750       1 (A') B                  ->    26 (A') B                  
 -0.1533       1 (A') A                  ->    34 (A') A                  
 -0.1533       1 (A') B                  ->    34 (A') B                  
 -0.1289       1 (A') A                  ->    12 (A') A                  
 -0.1289       1 (A') B                  ->    12 (A') B                  
  0.1128       1 (A') A                  ->    14 (A') A                  
  0.1128       1 (A') B                  ->    14 (A') B                  

              Summary of significant orbitals:

               Number  Type             Irrep      Energy
               1       Occ  Alpha       1 (A')    -26.3102
               1       Occ  Beta        1 (A')    -26.3102
               13      Vir  Alpha      11 (A')      0.0011
               14      Vir  Alpha      12 (A')      0.0035
               17      Vir  Alpha      14 (A')      0.0052
               19      Vir  Alpha      16 (A')      0.0078
               26      Vir  Alpha      20 (A')      0.0137
               28      Vir  Alpha      22 (A')      0.0210
               35      Vir  Alpha      26 (A')      0.0297
               47      Vir  Alpha      34 (A')      0.0851
               13      Vir  Beta       11 (A')      0.0011
               14      Vir  Beta       12 (A')      0.0035
               17      Vir  Beta       14 (A')      0.0052
               19      Vir  Beta       16 (A')      0.0078
               26      Vir  Beta       20 (A')      0.0137
               28      Vir  Beta       22 (A')      0.0210
               35      Vir  Beta       26 (A')      0.0297
               47      Vir  Beta       34 (A')      0.0851


 EOMEE transition 12/A'
 Total energy = -151.97563582 a.u.  Excitation energy = 694.2113 eV.
 R0^2 = 0.0000  R1^2 = 0.8411  R2_CCVV^2 = 0.0004  R2_COVV^2 = 0.0793  Res^2 = 9.79e-06
 Conv-d = yes

 Amplitude    Transitions between orbitals
 -0.4667       1 (A') A                  ->    17 (A') A                  
 -0.4667       1 (A') B                  ->    17 (A') B                  
  0.2261       1 (A') A                  ->    23 (A') A                  
  0.2261       1 (A') B                  ->    23 (A') B                  
  0.2117       1 (A') A                  ->    35 (A') A                  
  0.2117       1 (A') B                  ->    35 (A') B                  
  0.1507       1 (A') A                  ->    11 (A') A                  
  0.1507       1 (A') B                  ->    11 (A') B                  
  0.1402       1 (A') A                  ->    29 (A') A                  
  0.1402       1 (A') B                  ->    29 (A') B                  
 -0.1209       1 (A') A                  ->    43 (A') A                  
 -0.1209       1 (A') B                  ->    43 (A') B                  
 -0.1001       1 (A') A                  ->    20 (A') A                  
 -0.1001       1 (A') B                  ->    20 (A') B                  

              Summary of significant orbitals:

               Number  Type             Irrep      Energy
               1       Occ  Alpha       1 (A')    -26.3102
               1       Occ  Beta        1 (A')    -26.3102
               13      Vir  Alpha      11 (A')      0.0011
               21      Vir  Alpha      17 (A')      0.0079
               26      Vir  Alpha      20 (A')      0.0137
               30      Vir  Alpha      23 (A')      0.0213
               39      Vir  Alpha      29 (A')      0.0449
               48      Vir  Alpha      35 (A')      0.0874
               59      Vir  Alpha      43 (A')      0.1720
               13      Vir  Beta       11 (A')      0.0011
               21      Vir  Beta       17 (A')      0.0079
               26      Vir  Beta       20 (A')      0.0137
               30      Vir  Beta       23 (A')      0.0213
               39      Vir  Beta       29 (A')      0.0449
               48      Vir  Beta       35 (A')      0.0874
               59      Vir  Beta       43 (A')      0.1720


 EOMEE transition 13/A'
 Total energy = -151.97460453 a.u.  Excitation energy = 694.2394 eV.
 R0^2 = 0.0000  R1^2 = 0.8411  R2_CCVV^2 = 0.0004  R2_COVV^2 = 0.0793  Res^2 = 6.19e-06
 Conv-d = yes

 Amplitude    Transitions between orbitals
  0.4697       1 (A') A                  ->    15 (A') A                  
  0.4697       1 (A') B                  ->    15 (A') B                  
  0.2101       1 (A') A                  ->    33 (A') A                  
  0.2101       1 (A') B                  ->    33 (A') B                  
 -0.1831       1 (A') A                  ->    21 (A') A                  
 -0.1831       1 (A') B                  ->    21 (A') B                  
 -0.1644       1 (A') A                  ->    27 (A') A                  
 -0.1644       1 (A') B                  ->    27 (A') B                  
  0.1528       1 (A') A                  ->    12 (A') A                  
  0.1528       1 (A') B                  ->    12 (A') B                  
 -0.1044       1 (A') A                  ->    17 (A') A                  
 -0.1044       1 (A') B                  ->    17 (A') B                  

              Summary of significant orbitals:

               Number  Type             Irrep      Energy
               1       Occ  Alpha       1 (A')    -26.3102
               1       Occ  Beta        1 (A')    -26.3102
               14      Vir  Alpha      12 (A')      0.0035
               18      Vir  Alpha      15 (A')      0.0077
               21      Vir  Alpha      17 (A')      0.0079
               27      Vir  Alpha      21 (A')      0.0209
               36      Vir  Alpha      27 (A')      0.0436
               46      Vir  Alpha      33 (A')      0.0841
               14      Vir  Beta       12 (A')      0.0035
               18      Vir  Beta       15 (A')      0.0077
               21      Vir  Beta       17 (A')      0.0079
               27      Vir  Beta       21 (A')      0.0209
               36      Vir  Beta       27 (A')      0.0436
               46      Vir  Beta       33 (A')      0.0841


 EOMEE transition 14/A'
 Total energy = -151.97290868 a.u.  Excitation energy = 694.2855 eV.
 R0^2 = 0.0000  R1^2 = 0.8415  R2_CCVV^2 = 0.0004  R2_COVV^2 = 0.0791  Res^2 = 4.38e-06
 Conv-d = yes

 Amplitude    Transitions between orbitals
  0.2949       1 (A') A                  ->    16 (A') A                  
  0.2949       1 (A') B                  ->    16 (A') B                  
  0.2922       1 (A') A                  ->    13 (A') A                  
  0.2922       1 (A') B                  ->    13 (A') B                  
  0.2051       1 (A') A                  ->    11 (A') A                  
  0.2051       1 (A') B                  ->    11 (A') B                  
 -0.1818       1 (A') A                  ->    20 (A') A                  
 -0.1818       1 (A') B                  ->    20 (A') B                  
  0.1605       1 (A') A                  ->    15 (A') A                  
  0.1605       1 (A') B                  ->    15 (A') B                  
  0.1522       1 (A') A                  ->    25 (A') A                  
  0.1522       1 (A') B                  ->    25 (A') B                  
 -0.1265       1 (A') A                  ->    28 (A') A                  
 -0.1265       1 (A') B                  ->    28 (A') B                  
 -0.1206       1 (A') A                  ->    34 (A') A                  
 -0.1206       1 (A') B                  ->    34 (A') B                  
  0.1020       1 (A') A                  ->    26 (A') A                  
  0.1020       1 (A') B                  ->    26 (A') B                  
  0.1004       1 (A') A                  ->    32 (A') A                  
  0.1004       1 (A') B                  ->    32 (A') B                  

              Summary of significant orbitals:

               Number  Type             Irrep      Energy
               1       Occ  Alpha       1 (A')    -26.3102
               1       Occ  Beta        1 (A')    -26.3102
               13      Vir  Alpha      11 (A')      0.0011
               15      Vir  Alpha      13 (A')      0.0036
               18      Vir  Alpha      15 (A')      0.0077
               19      Vir  Alpha      16 (A')      0.0078
               26      Vir  Alpha      20 (A')      0.0137
               33      Vir  Alpha      25 (A')      0.0263
               35      Vir  Alpha      26 (A')      0.0297
               37      Vir  Alpha      28 (A')      0.0442
               44      Vir  Alpha      32 (A')      0.0626
               47      Vir  Alpha      34 (A')      0.0851
               13      Vir  Beta       11 (A')      0.0011
               15      Vir  Beta       13 (A')      0.0036
               18      Vir  Beta       15 (A')      0.0077
               19      Vir  Beta       16 (A')      0.0078
               26      Vir  Beta       20 (A')      0.0137
               33      Vir  Beta       25 (A')      0.0263
               35      Vir  Beta       26 (A')      0.0297
               37      Vir  Beta       28 (A')      0.0442
               44      Vir  Beta       32 (A')      0.0626
               47      Vir  Beta       34 (A')      0.0851


 EOMEE transition 15/A'
 Total energy = -151.97067222 a.u.  Excitation energy = 694.3464 eV.
 R0^2 = 0.0000  R1^2 = 0.8412  R2_CCVV^2 = 0.0004  R2_COVV^2 = 0.0792  Res^2 = 2.66e-06
 Conv-d = yes

 Amplitude    Transitions between orbitals
 -0.4457       1 (A') A                  ->    12 (A') A                  
 -0.4457       1 (A') B                  ->    12 (A') B                  
 -0.2591       1 (A') A                  ->    24 (A') A                  
 -0.2591       1 (A') B                  ->    24 (A') B                  
 -0.1844       1 (A') A                  ->    16 (A') A                  
 -0.1844       1 (A') B                  ->    16 (A') B                  
  0.1579       1 (A') A                  ->    36 (A') A                  
  0.1579       1 (A') B                  ->    36 (A') B                  
  0.1547       1 (A') A                  ->    18 (A') A                  
  0.1547       1 (A') B                  ->    18 (A') B                  
  0.1463       1 (A') A                  ->    15 (A') A                  
  0.1463       1 (A') B                  ->    15 (A') B                  

              Summary of significant orbitals:

               Number  Type             Irrep      Energy
               1       Occ  Alpha       1 (A')    -26.3102
               1       Occ  Beta        1 (A')    -26.3102
               14      Vir  Alpha      12 (A')      0.0035
               18      Vir  Alpha      15 (A')      0.0077
               19      Vir  Alpha      16 (A')      0.0078
               23      Vir  Alpha      18 (A')      0.0111
               32      Vir  Alpha      24 (A')      0.0254
               50      Vir  Alpha      36 (A')      0.1023
               14      Vir  Beta       12 (A')      0.0035
               18      Vir  Beta       15 (A')      0.0077
               19      Vir  Beta       16 (A')      0.0078
               23      Vir  Beta       18 (A')      0.0111
               32      Vir  Beta       24 (A')      0.0254
               50      Vir  Beta       36 (A')      0.1023


 EOMEE transition 16/A'
 Total energy = -151.96860388 a.u.  Excitation energy = 694.4027 eV.
 R0^2 = 0.0000  R1^2 = 0.8411  R2_CCVV^2 = 0.0004  R2_COVV^2 = 0.0793  Res^2 = 6.70e-06
 Conv-d = yes

 Amplitude    Transitions between orbitals
  0.3420       1 (A') A                  ->    13 (A') A                  
  0.3420       1 (A') B                  ->    13 (A') B                  
 -0.2523       1 (A') A                  ->    19 (A') A                  
 -0.2523       1 (A') B                  ->    19 (A') B                  
 -0.2039       1 (A') A                  ->    11 (A') A                  
 -0.2039       1 (A') B                  ->    11 (A') B                  
 -0.1911       1 (A') A                  ->    16 (A') A                  
 -0.1911       1 (A') B                  ->    16 (A') B                  
 -0.1880       1 (A') A                  ->    14 (A') A                  
 -0.1880       1 (A') B                  ->    14 (A') B                  
  0.1616       1 (A') A                  ->    25 (A') A                  
  0.1616       1 (A') B                  ->    25 (A') B                  
  0.1275       1 (A') A                  ->    31 (A') A                  
  0.1275       1 (A') B                  ->    31 (A') B                  
 -0.1270       1 (A') A                  ->    17 (A') A                  
[...]
   B->A: 0.002143 (X 0.000891, Y 0.001949, Z 0.000000)
 Oscillator strength (a.u.): 0.000076
 Norm of one-particle transition density matrix:
   A->B: 0.916079;   B->A: 0.881638
   ||gamma^AB||*||gamma^BA||: 0.807650

 ------------------------------------------------------------------------------
 State A: ccsd: 0/A'
 State B: cvs_eomee_ccsd/rhfref/singlets: 20/A'
 Transition dipole moment (a.u.):
   A->B: 0.005248 (X -0.005210, Y 0.000636, Z 0.000000)
   B->A: 0.005364 (X -0.005328, Y 0.000622, Z 0.000000)
 Oscillator strength (a.u.): 0.000479
 Norm of one-particle transition density matrix:
   A->B: 0.916170;   B->A: 0.881922
   ||gamma^AB||*||gamma^BA||: 0.807991

 ------------------------------------------------------------------------------
 State A: ccsd: 0/A'
 State B: cvs_eomee_ccsd/rhfref/singlets: 21/A'
 Transition dipole moment (a.u.):
   A->B: 0.001157 (X 0.000226, Y 0.001135, Z 0.000000)
   B->A: 0.001166 (X 0.000241, Y 0.001141, Z 0.000000)
 Oscillator strength (a.u.): 0.000023
 Norm of one-particle transition density matrix:
   A->B: 0.915952;   B->A: 0.881591
   ||gamma^AB||*||gamma^BA||: 0.807496

 ------------------------------------------------------------------------------
 State A: ccsd: 0/A'
 State B: cvs_eomee_ccsd/rhfref/singlets: 22/A'
 Transition dipole moment (a.u.):
   A->B: 0.006130 (X 0.005926, Y -0.001570, Z 0.000000)
   B->A: 0.006213 (X 0.006009, Y -0.001580, Z 0.000000)
 Oscillator strength (a.u.): 0.000648
 Norm of one-particle transition density matrix:
   A->B: 0.916133;   B->A: 0.881929
   ||gamma^AB||*||gamma^BA||: 0.807964

 ------------------------------------------------------------------------------
 State A: ccsd: 0/A'
 State B: cvs_eomee_ccsd/rhfref/singlets: 23/A'
 Transition dipole moment (a.u.):
   A->B: 0.003407 (X -0.000887, Y 0.003290, Z 0.000000)
   B->A: 0.003464 (X -0.000853, Y 0.003357, Z 0.000000)
 Oscillator strength (a.u.): 0.000201
 Norm of one-particle transition density matrix:
   A->B: 0.915957;   B->A: 0.881607
   ||gamma^AB||*||gamma^BA||: 0.807514

 ------------------------------------------------------------------------------
 State A: ccsd: 0/A'
 State B: cvs_eomee_ccsd/rhfref/singlets: 24/A'
 Transition dipole moment (a.u.):
   A->B: 0.006570 (X 0.004549, Y 0.004740, Z 0.000000)
   B->A: 0.006698 (X 0.004576, Y 0.004890, Z 0.000000)
 Oscillator strength (a.u.): 0.000749
 Norm of one-particle transition density matrix:
   A->B: 0.915680;   B->A: 0.881828
   ||gamma^AB||*||gamma^BA||: 0.807473

 ------------------------------------------------------------------------------
 State A: ccsd: 0/A'
 State B: cvs_eomee_ccsd/rhfref/singlets: 25/A'
 Transition dipole moment (a.u.):
   A->B: 0.004012 (X -0.002076, Y -0.003433, Z 0.000000)
   B->A: 0.004092 (X -0.002126, Y -0.003496, Z 0.000000)
 Oscillator strength (a.u.): 0.000280
 Norm of one-particle transition density matrix:
   A->B: 0.916067;   B->A: 0.881827
   ||gamma^AB||*||gamma^BA||: 0.807813

 ------------------------------------------------------------------------------
 State A: ccsd: 0/A'
 State B: cvs_eomee_ccsd/rhfref/singlets: 26/A'
 Transition dipole moment (a.u.):
   A->B: 0.002647 (X 0.002287, Y 0.001333, Z 0.000000)
   B->A: 0.002806 (X 0.002409, Y 0.001440, Z 0.000000)
 Oscillator strength (a.u.): 0.000127
 Norm of one-particle transition density matrix:
   A->B: 0.916121;   B->A: 0.881862
   ||gamma^AB||*||gamma^BA||: 0.807893

 ------------------------------------------------------------------------------
 State A: ccsd: 0/A'
 State B: cvs_eomee_ccsd/rhfref/singlets: 27/A'
 Transition dipole moment (a.u.):
   A->B: 0.002949 (X 0.002406, Y -0.001706, Z 0.000000)
   B->A: 0.003033 (X 0.002494, Y -0.001727, Z 0.000000)
 Oscillator strength (a.u.): 0.000152
 Norm of one-particle transition density matrix:
   A->B: 0.915341;   B->A: 0.881414
   ||gamma^AB||*||gamma^BA||: 0.806794

 ------------------------------------------------------------------------------
 State A: ccsd: 0/A'
 State B: cvs_eomee_ccsd/rhfref/singlets: 28/A'
 Transition dipole moment (a.u.):
   A->B: 0.011534 (X 0.010804, Y -0.004038, Z 0.000000)
   B->A: 0.011678 (X 0.010936, Y -0.004098, Z 0.000000)
 Oscillator strength (a.u.): 0.002295
 Norm of one-particle transition density matrix:
   A->B: 0.916247;   B->A: 0.882769
   ||gamma^AB||*||gamma^BA||: 0.808835

 ------------------------------------------------------------------------------
 State A: ccsd: 0/A'
 State B: cvs_eomee_ccsd/rhfref/singlets: 29/A'
 Transition dipole moment (a.u.):
   A->B: 0.002054 (X -0.001697, Y 0.001156, Z 0.000000)
   B->A: 0.002078 (X -0.001708, Y 0.001183, Z 0.000000)
 Oscillator strength (a.u.): 0.000073
 Norm of one-particle transition density matrix:
   A->B: 0.914797;   B->A: 0.880403
   ||gamma^AB||*||gamma^BA||: 0.805390

 ------------------------------------------------------------------------------
 State A: ccsd: 0/A'
 State B: cvs_eomee_ccsd/rhfref/singlets: 30/A'
 Transition dipole moment (a.u.):
   A->B: 0.003677 (X 0.002419, Y -0.002769, Z 0.000000)
   B->A: 0.003829 (X 0.002522, Y -0.002880, Z 0.000000)
 Oscillator strength (a.u.): 0.000240
 Norm of one-particle transition density matrix:
   A->B: 0.914772;   B->A: 0.880371
   ||gamma^AB||*||gamma^BA||: 0.805338

 ------------------------------------------------------------------------------
 State A: ccsd: 0/A'
 State B: cvs_eomee_ccsd/rhfref/singlets: 1/A"
 Transition dipole moment (a.u.):
   A->B: 0.022257 (X 0.000000, Y 0.000000, Z -0.022257)
   B->A: 0.023904 (X 0.000000, Y 0.000000, Z -0.023904)
 Oscillator strength (a.u.): 0.009010
 Norm of one-particle transition density matrix:
   A->B: 0.889107;   B->A: 0.883372
   ||gamma^AB||*||gamma^BA||: 0.785412

 ------------------------------------------------------------------------------
 State A: ccsd: 0/A'
 State B: cvs_eomee_ccsd/rhfref/singlets: 2/A"
 Transition dipole moment (a.u.):
   A->B: 0.006681 (X 0.000000, Y 0.000000, Z -0.006681)
   B->A: 0.006846 (X 0.000000, Y 0.000000, Z -0.006846)
 Oscillator strength (a.u.): 0.000776
 Norm of one-particle transition density matrix:
   A->B: 0.916432;   B->A: 0.883091
   ||gamma^AB||*||gamma^BA||: 0.809293

 ------------------------------------------------------------------------------
 State A: ccsd: 0/A'
 State B: cvs_eomee_ccsd/rhfref/singlets: 3/A"
 Transition dipole moment (a.u.):
   A->B: 0.005141 (X 0.000000, Y 0.000000, Z 0.005141)
   B->A: 0.005312 (X 0.000000, Y 0.000000, Z 0.005312)
 Oscillator strength (a.u.): 0.000464
 Norm of one-particle transition density matrix:
   A->B: 0.916098;   B->A: 0.881819
   ||gamma^AB||*||gamma^BA||: 0.807833

 ------------------------------------------------------------------------------
 State A: ccsd: 0/A'
 State B: cvs_eomee_ccsd/rhfref/singlets: 4/A"
 Transition dipole moment (a.u.):
   A->B: 0.001699 (X 0.000000, Y 0.000000, Z -0.001699)
   B->A: 0.001699 (X 0.000000, Y 0.000000, Z -0.001699)
 Oscillator strength (a.u.): 0.000049
 Norm of one-particle transition density matrix:
   A->B: 0.915104;   B->A: 0.881342
   ||gamma^AB||*||gamma^BA||: 0.806519

 ------------------------------------------------------------------------------
 State A: ccsd: 0/A'
 State B: cvs_eomee_ccsd/rhfref/singlets: 5/A"
 Transition dipole moment (a.u.):
   A->B: 0.003923 (X 0.000000, Y 0.000000, Z -0.003923)
   B->A: 0.004017 (X 0.000000, Y 0.000000, Z -0.004017)
 Oscillator strength (a.u.): 0.000268
 Norm of one-particle transition density matrix:
   A->B: 0.916351;   B->A: 0.882121
   ||gamma^AB||*||gamma^BA||: 0.808332

 ------------------------------------------------------------------------------
 State A: ccsd: 0/A'
 State B: cvs_eomee_ccsd/rhfref/singlets: 6/A"
 Transition dipole moment (a.u.):
   A->B: 0.003685 (X 0.000000, Y 0.000000, Z -0.003685)
   B->A: 0.003800 (X 0.000000, Y 0.000000, Z -0.003800)
 Oscillator strength (a.u.): 0.000238
 Norm of one-particle transition density matrix:
   A->B: 0.916190;   B->A: 0.881764
   ||gamma^AB||*||gamma^BA||: 0.807863

 ------------------------------------------------------------------------------
 State A: ccsd: 0/A'
 State B: cvs_eomee_ccsd/rhfref/singlets: 7/A"
 Transition dipole moment (a.u.):
   A->B: 0.000621 (X 0.000000, Y 0.000000, Z 0.000621)
   B->A: 0.000604 (X 0.000000, Y 0.000000, Z 0.000604)
 Oscillator strength (a.u.): 0.000006
 Norm of one-particle transition density matrix:
   A->B: 0.915801;   B->A: 0.881528
   ||gamma^AB||*||gamma^BA||: 0.807304

 ------------------------------------------------------------------------------
 State A: ccsd: 0/A'
 State B: cvs_eomee_ccsd/rhfref/singlets: 8/A"
 Transition dipole moment (a.u.):
   A->B: 0.002651 (X 0.000000, Y 0.000000, Z 0.002651)
   B->A: 0.002713 (X 0.000000, Y 0.000000, Z 0.002713)
 Oscillator strength (a.u.): 0.000122
 Norm of one-particle transition density matrix:
   A->B: 0.916297;   B->A: 0.881856
   ||gamma^AB||*||gamma^BA||: 0.808042

 ------------------------------------------------------------------------------
 State A: ccsd: 0/A'
 State B: cvs_eomee_ccsd/rhfref/singlets: 9/A"
 Transition dipole moment (a.u.):
   A->B: 0.003955 (X 0.000000, Y 0.000000, Z 0.003955)
   B->A: 0.004069 (X 0.000000, Y 0.000000, Z 0.004069)
 Oscillator strength (a.u.): 0.000274
 Norm of one-particle transition density matrix:
   A->B: 0.916230;   B->A: 0.881814
   ||gamma^AB||*||gamma^BA||: 0.807945

 ------------------------------------------------------------------------------
 State A: ccsd: 0/A'
 State B: cvs_eomee_ccsd/rhfref/singlets: 10/A"
 Transition dipole moment (a.u.):
   A->B: 0.000205 (X 0.000000, Y 0.000000, Z -0.000205)
   B->A: 0.000243 (X 0.000000, Y 0.000000, Z -0.000243)
 Oscillator strength (a.u.): 0.000001
 Norm of one-particle transition density matrix:
   A->B: 0.915893;   B->A: 0.881619
   ||gamma^AB||*||gamma^BA||: 0.807469

 ------------------------------------------------------------------------------
 State A: ccsd: 0/A'
 State B: cvs_eomee_ccsd/rhfref/singlets: 11/A"
 Transition dipole moment (a.u.):
   A->B: 0.002472 (X 0.000000, Y 0.000000, Z -0.002472)
   B->A: 0.002505 (X 0.000000, Y 0.000000, Z -0.002505)
 Oscillator strength (a.u.): 0.000105
 Norm of one-particle transition density matrix:
   A->B: 0.916143;   B->A: 0.881735
   ||gamma^AB||*||gamma^BA||: 0.807795

 ------------------------------------------------------------------------------
 State A: ccsd: 0/A'
 State B: cvs_eomee_ccsd/rhfref/singlets: 12/A"
 Transition dipole moment (a.u.):
   A->B: 0.006139 (X 0.000000, Y 0.000000, Z -0.006139)
   B->A: 0.006303 (X 0.000000, Y 0.000000, Z -0.006303)
 Oscillator strength (a.u.): 0.000659
 Norm of one-particle transition density matrix:
   A->B: 0.916316;   B->A: 0.882135
   ||gamma^AB||*||gamma^BA||: 0.808315

 ------------------------------------------------------------------------------
 State A: ccsd: 0/A'
 State B: cvs_eomee_ccsd/rhfref/singlets: 13/A"
 Transition dipole moment (a.u.):
   A->B: 0.000529 (X 0.000000, Y 0.000000, Z -0.000529)
   B->A: 0.000583 (X 0.000000, Y 0.000000, Z -0.000583)
 Oscillator strength (a.u.): 0.000005
 Norm of one-particle transition density matrix:
   A->B: 0.915605;   B->A: 0.881599
   ||gamma^AB||*||gamma^BA||: 0.807196

 ------------------------------------------------------------------------------
 State A: ccsd: 0/A'
 State B: cvs_eomee_ccsd/rhfref/singlets: 14/A"
 Transition dipole moment (a.u.):
   A->B: 0.003365 (X 0.000000, Y 0.000000, Z -0.003365)
   B->A: 0.003414 (X 0.000000, Y 0.000000, Z -0.003414)
 Oscillator strength (a.u.): 0.000196
 Norm of one-particle transition density matrix:
   A->B: 0.915810;   B->A: 0.881664
   ||gamma^AB||*||gamma^BA||: 0.807437

 ------------------------------------------------------------------------------
 State A: ccsd: 0/A'
 State B: cvs_eomee_ccsd/rhfref/singlets: 15/A"
 Transition dipole moment (a.u.):
   A->B: 0.010567 (X 0.000000, Y 0.000000, Z -0.010567)
   B->A: 0.010765 (X 0.000000, Y 0.000000, Z -0.010765)
 Oscillator strength (a.u.): 0.001941
 Norm of one-particle transition density matrix:
   A->B: 0.916379;   B->A: 0.882848
   ||gamma^AB||*||gamma^BA||: 0.809024


 All requested transition properties have been computed

 Transition Properties:   CPU 168.83 s  wall 35.02 s

 Total ccman2 time:   CPU 22207.13 s  wall 4523.34 s

 
 --------------------------------------------------------------
             Orbital Energies (a.u.) and Symmetries
 --------------------------------------------------------------
 
 Alpha MOs, Restricted
 -- Occupied --                  
-26.310 -11.332 -11.240  -1.628  -1.055  -0.840  -0.740  -0.690
  1 A'    2 A'    3 A'    4 A'    5 A'    6 A'    7 A'    1 A"                 
 -0.686  -0.591  -0.562  -0.386
  8 A'    9 A'   10 A'    2 A"                                                 
 -- Virtual --                   
  0.001   0.003   0.004   0.004   0.005   0.008   0.008   0.008
 11 A'   12 A'   13 A'    3 A"   14 A'   15 A'   16 A'    4 A"                 
  0.008   0.008   0.011   0.011   0.012   0.014   0.021   0.021
 17 A'    5 A"   18 A'   19 A'    6 A"   20 A'   21 A'   22 A'                 
  0.021   0.021   0.021   0.025   0.026   0.027   0.030   0.044
  7 A"   23 A'    8 A"   24 A'   25 A'    9 A"   26 A'   27 A'                 
  0.044   0.044   0.045   0.045   0.051   0.055   0.055   0.063
 28 A'   10 A"   29 A'   11 A"   30 A'   12 A"   31 A'   32 A'                 
  0.083   0.084   0.085   0.087   0.089   0.102   0.109   0.112
 13 A"   33 A'   34 A'   35 A'   14 A"   36 A'   37 A'   15 A"                 
  0.126   0.136   0.136   0.145   0.160   0.166   0.172   0.175
 38 A'   16 A"   39 A'   40 A'   41 A'   42 A'   43 A'   17 A"                 
  0.177   0.179   0.220   0.246   0.256   0.261   0.269   0.284
 18 A"   44 A'   45 A'   46 A'   19 A"   47 A'   20 A"   48 A'                 
  0.295   0.333   0.351   0.395   0.453   0.483   0.491   0.511
 49 A'   50 A'   51 A'   52 A'   53 A'   21 A"   54 A'   55 A'                 
  0.540   0.614   0.683   0.706   0.771   0.816   0.837   0.883
 56 A'   57 A'   58 A'   59 A'   60 A'   22 A"   23 A"   61 A'                 
  0.938   0.949   0.994   1.037   1.098   1.257   1.312   1.481
 62 A'   63 A'   64 A'   65 A'   66 A'   24 A"   25 A"   26 A"                 
  1.602   1.661   1.695   1.724   1.749   1.840   1.860   1.913
 67 A'   68 A'   69 A'   27 A"   70 A'   71 A'   72 A'   28 A"                 
  1.960   2.032   2.172   2.286   2.316   2.369   2.402   2.460
 73 A'   29 A"   74 A'   75 A'   30 A"   76 A'   31 A"   77 A'                 
  2.587   2.797   2.877   2.935   3.041   3.061   3.137   3.286
 78 A'   79 A'   80 A'   81 A'   82 A'   83 A'   32 A"   33 A"                 
  3.383   3.598   3.895   4.148   4.225   4.251   4.436   4.444
 84 A'   85 A'   86 A'   87 A'   34 A"   88 A'   89 A'   35 A"                 
  4.591   5.330   6.981   7.029   7.342  24.846  25.411  68.776
 90 A'   91 A'   36 A"   92 A'   93 A'   94 A'   95 A'   96 A'                 
 
 Beta MOs, Restricted
 -- Occupied --                  
-26.310 -11.332 -11.240  -1.628  -1.055  -0.840  -0.740  -0.690
  1 A'    2 A'    3 A'    4 A'    5 A'    6 A'    7 A'    1 A"                 
 -0.686  -0.591  -0.562  -0.386
  8 A'    9 A'   10 A'    2 A"                                                 
 -- Virtual --                   
  0.001   0.003   0.004   0.004   0.005   0.008   0.008   0.008
 11 A'   12 A'   13 A'    3 A"   14 A'   15 A'   16 A'    4 A"                 
  0.008   0.008   0.011   0.011   0.012   0.014   0.021   0.021
 17 A'    5 A"   18 A'   19 A'    6 A"   20 A'   21 A'   22 A'                 
  0.021   0.021   0.021   0.025   0.026   0.027   0.030   0.044
  7 A"   23 A'    8 A"   24 A'   25 A'    9 A"   26 A'   27 A'                 
  0.044   0.044   0.045   0.045   0.051   0.055   0.055   0.063
 28 A'   10 A"   29 A'   11 A"   30 A'   12 A"   31 A'   32 A'                 
  0.083   0.084   0.085   0.087   0.089   0.102   0.109   0.112
 13 A"   33 A'   34 A'   35 A'   14 A"   36 A'   37 A'   15 A"                 
  0.126   0.136   0.136   0.145   0.160   0.166   0.172   0.175
 38 A'   16 A"   39 A'   40 A'   41 A'   42 A'   43 A'   17 A"                 
  0.177   0.179   0.220   0.246   0.256   0.261   0.269   0.284
 18 A"   44 A'   45 A'   46 A'   19 A"   47 A'   20 A"   48 A'                 
  0.295   0.333   0.351   0.395   0.453   0.483   0.491   0.511
 49 A'   50 A'   51 A'   52 A'   53 A'   21 A"   54 A'   55 A'                 
  0.540   0.614   0.683   0.706   0.771   0.816   0.837   0.883
 56 A'   57 A'   58 A'   59 A'   60 A'   22 A"   23 A"   61 A'                 
  0.938   0.949   0.994   1.037   1.098   1.257   1.312   1.481
 62 A'   63 A'   64 A'   65 A'   66 A'   24 A"   25 A"   26 A"                 
  1.602   1.661   1.695   1.724   1.749   1.840   1.860   1.913
 67 A'   68 A'   69 A'   27 A"   70 A'   71 A'   72 A'   28 A"                 
  1.960   2.032   2.172   2.286   2.316   2.369   2.402   2.460
 73 A'   29 A"   74 A'   75 A'   30 A"   76 A'   31 A"   77 A'                 
  2.587   2.797   2.877   2.935   3.041   3.061   3.137   3.286
 78 A'   79 A'   80 A'   81 A'   82 A'   83 A'   32 A"   33 A"                 
  3.383   3.598   3.895   4.148   4.225   4.251   4.436   4.444
 84 A'   85 A'   86 A'   87 A'   34 A"   88 A'   89 A'   35 A"                 
  4.591   5.330   6.981   7.029   7.342  24.846  25.411  68.776
 90 A'   91 A'   36 A"   92 A'   93 A'   94 A'   95 A'   96 A'                 
 --------------------------------------------------------------
 
          Ground-State Mulliken Net Atomic Charges

     Atom                 Charge (a.u.)
  ----------------------------------------
      1 C                    -0.245028
      2 GH                    0.027262
      3 F                    -0.123103
      4 C                    -0.019896
      5 H                     0.148834
      6 H                     0.111171
      7 H                     0.100761
  ----------------------------------------
  Sum of atomic charges =     0.000000

 -----------------------------------------------------------------
                    Cartesian Multipole Moments
 -----------------------------------------------------------------
    Charge (ESU x 10^10)
                -0.0000
    Dipole Moment (Debye)
         X       1.4873      Y      -0.9279      Z       0.0000
       Tot       1.7530
    Quadrupole Moments (Debye-Ang)
        XX     -18.0200     XY       0.9639     YY     -15.3308
        XZ      -0.0000     YZ      -0.0000     ZZ     -19.4790
    Octopole Moments (Debye-Ang^2)
       XXX      -3.3932    XXY      -0.3848    XYY      -2.1723
       YYY       0.4720    XXZ       0.0000    XYZ      -0.0000
       YYZ       0.0000    XZZ      -5.0030    YZZ       0.7012
       ZZZ       0.0000
    Hexadecapole Moments (Debye-Ang^3)
      XXXX    -121.0948   XXXY      -3.6510   XXYY     -26.6324
      XYYY       0.7415   YYYY     -36.0508   XXXZ       0.0000
      XXYZ       0.0000   XYYZ       0.0000   YYYZ       0.0000
      XXZZ     -27.2041   XYZZ      -0.3800   YYZZ     -11.5549
      XZZZ       0.0000   YZZZ       0.0000   ZZZZ     -23.8792
 -----------------------------------------------------------------
Archival summary:
1\1\n-62-30-18\SP\ProcedureUnspecified\BasisUnspecified\123h1\malop\ThuAug1600:22:032018ThuAug1600:22:032018\0\\#,ProcedureUnspecified,BasisUnspecified,\\0,1\C\Gh,1,0.435868\H,1,1.08083,2,170.664\F,2,1.17461,1,103.178,3,0,0\C,2,1.19615,1,97.4666,3,-180,0\H,5,1.07898,2,137.975,1,-0,0\H,5,1.08006,2,102.344,1,180,0\\HF=-176.937001\\@

 Total job time:  4555.72s(wall), 22305.21s(cpu) 
 Thu Aug 16 00:22:03 2018

        *************************************************************
        *                                                           *
        *  Thank you very much for using Q-Chem.  Have a nice day.  *
        *                                                           *
        *************************************************************


