n-62-29-19 10.66.29
Q-Chem Developer Version! Running on 10.66.29.*
                  Welcome to Q-Chem
     A Quantum Leap Into The Future Of Chemistry


 Q-Chem 5.1, Q-Chem, Inc., Pleasanton, CA (2018)

 Yihan Shao,  Zhengting Gan,  E. Epifanovsky,  A. T. B. Gilbert,  M. Wormit,  
 J. Kussmann,  A. W. Lange,  A. Behn,  Jia Deng,  Xintian Feng,  D. Ghosh,  
 M. Goldey,  P. R. Horn,  L. D. Jacobson,  I. Kaliman,  T. Kus,  A. Landau,  
 Jie Liu,  E. I. Proynov,  R. M. Richard,  R. P. Steele,  E. J. Sundstrom,  
 H. L. Woodcock III,  P. M. Zimmerman,  D. Zuev,  B. Albrecht,  E. Alguire,  
 S. A. Baeppler,  D. Barton,  Z. Benda,  Y. A. Bernard,  E. J. Berquist,  
 K. B. Bravaya,  H. Burton,  D. Casanova,  Chun-Min Chang,  Yunqing Chen,  
 A. Chien,  K. D. Closser,  M. P. Coons,  S. Coriani,  S. Dasgupta,  
 A. L. Dempwolff,  M. Diedenhofen,  Hainam Do,  R. G. Edgar,  Po-Tung Fang,  
 S. Faraji,  S. Fatehi,  Qingguo Feng,  K. D. Fenk,  J. Fosso-Tande,  
 Qinghui Ge,  A. Ghysels,  G. Gidofalvi,  J. Gomes,  J. Gonthier,  A. Gunina,  
 M. W. D. Hanson-Heine,  P. H. P. Harbach,  A. W. Hauser,  J. E. Herr,  
 E. G. Hohenstein,  Z. C. Holden,  Kerwin Hui,  T.-C. Jagau,  Hyunjun Ji,  
 B. Kaduk,  K. Khistyaev,  Jaehoon Kim,  P. Klunzinger,  K. Koh,  
 D. Kosenkov,  L. Koulias,  T. Kowalczyk,  C. M. Krauter,  A. Kunitsa,  
 Ka Un Lao,  A. Laurent,  K. V. Lawler,  Joonho Lee,  D. Lefrancois,  
 S. Lehtola,  D. S. Levine,  Yi-Pei Li,  You-Sheng Lin,  Fenglai Liu,  
 E. Livshits,  A. Luenser,  P. Manohar,  E. Mansoor,  S. F. Manzer,  
 Shan-Ping Mao,  Yuezhi Mao,  N. Mardirossian,  A. V. Marenich,  
 T. Markovich,  L. A. Martinez-Martinez,  S. A. Maurer,  N. J. Mayhall,  
 S. C. McKenzie,  J.-M. Mewes,  A. F. Morrison,  J. W. Mullinax,  K. Nanda,  
 T. S. Nguyen-Beck,  R. Olivares-Amaya,  J. A. Parkhill,  T. M. Perrine,  
 F. Plasser,  P. Pokhilko,  S. Prager,  A. Prociuk,  E. Ramos,  D. R. Rehn,  
 F. Rob,  M. Schneider,  N. Sergueev,  S. M. Sharada,  S. Sharma,  
 D. W. Small,  T. Stauch,  T. Stein,  Yu-Chuan Su,  A. J. W. Thom,  
 A. Tkatchenko,  T. Tsuchimochi,  N. M. Tubman,  L. Vogt,  M. L. Vidal,  
 O. Vydrov,  M. A. Watson,  J. Wenzel,  M. de Wergifosse,  T. A. Wesolowski,  
 A. White,  J. Witte,  A. Yamada,  Jun Yang,  K. Yao,  S. Yeganeh,  
 S. R. Yost,  Zhi-Qiang You,  A. Zech,  Igor Ying Zhang,  Xing Zhang,  
 Yan Zhao,  Ying Zhu,  B. R. Brooks,  G. K. L. Chan,  C. J. Cramer,  
 M. S. Gordon,  W. J. Hehre,  A. Klamt,  M. W. Schmidt,  C. D. Sherrill,  
 D. G. Truhlar,  A. Aspuru-Guzik,  R. Baer,  A. T. Bell,  N. A. Besley,  
 Jeng-Da Chai,  R. A. DiStasio Jr.,  A. Dreuw,  B. D. Dunietz,  
 T. R. Furlani,  Chao-Ping Hsu,  Yousung Jung,  Jing Kong,  D. S. Lambrecht,  
 WanZhen Liang,  C. Ochsenfeld,  V. A. Rassolov,  L. V. Slipchenko,  
 J. E. Subotnik,  T. Van Voorhis,  J. M. Herbert,  A. I. Krylov,  
 P. M. W. Gill,  M. Head-Gordon

 Contributors to earlier versions of Q-Chem not listed above: 
 R. D. Adamson,  B. Austin,  J. Baker,  G. J. O. Beran,  K. Brandhorst,  
 S. T. Brown,  E. F. C. Byrd,  A. K. Chakraborty,  C.-L. Cheng,  
 Siu Hung Chien,  D. M. Chipman,  D. L. Crittenden,  H. Dachsel,  
 R. J. Doerksen,  A. D. Dutoi,  L. Fusti-Molnar,  W. A. Goddard III,  
 A. Golubeva-Zadorozhnaya,  S. R. Gwaltney,  G. Hawkins,  A. Heyden,  
 S. Hirata,  G. Kedziora,  F. J. Keil,  C. Kelley,  Jihan Kim,  R. A. King,  
 R. Z. Khaliullin,  P. P. Korambath,  W. Kurlancheek,  A. M. Lee,  M. S. Lee,  
 S. V. Levchenko,  Ching Yeh Lin,  D. Liotard,  R. C. Lochan,  I. Lotan,  
 P. E. Maslen,  N. Nair,  D. P. O'Neill,  D. Neuhauser,  E. Neuscamman,  
 C. M. Oana,  R. Olson,  B. Peters,  R. Peverati,  P. A. Pieniazek,  
 Y. M. Rhee,  J. Ritchie,  M. A. Rohrdanz,  E. Rosta,  N. J. Russ,  
 H. F. Schaefer III,  N. E. Schultz,  N. Shenvi,  A. C. Simmonett,  A. Sodt,  
 D. Stuck,  K. S. Thanthiriwatte,  V. Vanovschi,  Tao Wang,  A. Warshel,  
 C. F. Williams,  Q. Wu,  X. Xu,  W. Zhang

 Please cite Q-Chem as follows:
 Y. Shao et al., Mol. Phys. 113, 184-215 (2015)
 DOI: 10.1080/00268976.2014.952696

 Q-Chem 5.1.0 for Intel X86 EM64T Linux

 Parts of Q-Chem use Armadillo 8.300.2 (Tropical Shenanigans).
 http://arma.sourceforge.net/

 Q-Chem begins on Wed Aug 15 23:06:02 2018  

Host: 
0

     Scratch files written to /work1/malop/qc_7138054.hnode2//

Checking the input file for inconsistencies... 	...done.

--------------------------------------------------------------
User input:
--------------------------------------------------------------
$comment 
NEXAFS VINYLFLUORIDE / aug-cc-pVTZ+Rydberg
Optimized geometry with CFour
$end

$molecule
0 1
C
Gh   1 nc2
F    2 fn3         1 fnc3
C    3 cf4         2 cfn4          1 dih4
H    4 hc5         1 hcc5          2 dih5
H    1 hc6         4 hcc6          3 dih6
H    1 hc7         4 hcc7          3 dih7

nc2         1.196145
fn3         1.174610
fnc3        159.355
cf4         1.342808
cfn4         18.424
dih4        180.000
hc5         1.080830
hcc5        125.835
dih5        180.000
hc6         1.080059
hcc6        121.377
dih6          0.000
hc7         1.078980
hcc7        118.942
dih7        180.000
$end

$rem
!    input_bohr = true
    jobtype = sp
    method = eom-ccsd
    cvs_ee_singlets    [30,15]
    basis = gen
    n_frozen_core = 1
    cc_trans_prop = true
    EOM_DAVIDSON_MAXVECTORS = 1000
    eom_preconv_singles = true
    eom_davidson_convergence = 4
    eom_shift = 25400
   eom_davidson_convergence = 4   !as we discussed, this is good for core
   use_libqints = 1   !use new int library (will be def in trunk)
   thresh = 14   !this already should be default, but just in case
   scf_convergence = 12
   cc_convergence = 12
   basis_lin_dep_thresh = 8
   cc_memory = 100000
   EOM_DAVIDSON_MAX_ITER 200
$end

$basis
C    0
S    8    1.000000
   8.23600000E+03    5.31000000E-04
   1.23500000E+03    4.10800000E-03
   2.80800000E+02    2.10870000E-02
   7.92700000E+01    8.18530000E-02
   2.55900000E+01    2.34817000E-01
   8.99700000E+00    4.34401000E-01
   3.31900000E+00    3.46129000E-01
   3.64300000E-01   -8.98300000E-03
S    8    1.000000
   8.23600000E+03   -1.13000000E-04
   1.23500000E+03   -8.78000000E-04
   2.80800000E+02   -4.54000000E-03
   7.92700000E+01   -1.81330000E-02
   2.55900000E+01   -5.57600000E-02
   8.99700000E+00   -1.26895000E-01
   3.31900000E+00   -1.70352000E-01
   3.64300000E-01    5.98684000E-01
S    1    1.000000
   9.05900000E-01    1.00000000E+00
S    1    1.000000
   1.28500000E-01    1.00000000E+00
P    3    1.000000
   1.87100000E+01    1.40310000E-02
   4.13300000E+00    8.68660000E-02
   1.20000000E+00    2.90216000E-01
P    1    1.000000
   3.82700000E-01    1.00000000E+00
P    1    1.000000
   1.20900000E-01    1.00000000E+00
D    1    1.000000
   1.09700000E+00    1.00000000E+00
D    1    1.000000
   3.18000000E-01    1.00000000E+00
F    1    1.000000
   7.61000000E-01    1.00000000E+00
S    1    1.000000
   4.40200000E-02    1.00000000E+00
P    1    1.000000
   3.56900000E-02    1.00000000E+00
D    1    1.000000
   1.00000000E-01    1.00000000E+00
F    1    1.000000
   2.68000000E-01    1.00000000E+00
****
Gh   0
S   1   1.00
        0.0112533427        1.0000000000
S   1   1.00
        0.0058583805        1.0000000000
S   1   1.00
        0.0033459739        1.0000000000
S   1   1.00
        0.0020484225        1.0000000000
S   1   1.00
        0.0013236424        1.0000000000
P   1   1.00
        0.0192542060        1.0000000000
P   1   1.00
        0.0099882106        1.0000000000
P   1   1.00
        0.0056893607        1.0000000000
P   1   1.00
        0.0034756797        1.0000000000
P   1   1.00
        0.0022420590        1.0000000000
D   1   1.00
        0.0274456919        1.0000000000
D   1   1.00
        0.0142043987        1.0000000000
D   1   1.00
        0.0080765930        1.0000000000
D   1   1.00
        0.0049271863        1.0000000000
D   1   1.00
        0.0031748110        1.0000000000
****
F    0
S    8    1.000000
   1.95000000E+04    5.07000000E-04
   2.92300000E+03    3.92300000E-03
   6.64500000E+02    2.02000000E-02
   1.87500000E+02    7.90100000E-02
   6.06200000E+01    2.30439000E-01
   2.14200000E+01    4.32872000E-01
   7.95000000E+00    3.49964000E-01
   8.81500000E-01   -7.89200000E-03
S    8    1.000000
   1.95000000E+04   -1.17000000E-04
   2.92300000E+03   -9.12000000E-04
   6.64500000E+02   -4.71700000E-03
   1.87500000E+02   -1.90860000E-02
   6.06200000E+01   -5.96550000E-02
   2.14200000E+01   -1.40010000E-01
   7.95000000E+00   -1.76782000E-01
   8.81500000E-01    6.05043000E-01
S    1    1.000000
   2.25700000E+00    1.00000000E+00
S    1    1.000000
   3.04100000E-01    1.00000000E+00
P    3    1.000000
   4.38800000E+01    1.66650000E-02
   9.92600000E+00    1.04472000E-01
   2.93000000E+00    3.17260000E-01
P    1    1.000000
   9.13200000E-01    1.00000000E+00
P    1    1.000000
   2.67200000E-01    1.00000000E+00
D    1    1.000000
   3.10700000E+00    1.00000000E+00
D    1    1.000000
   8.55000000E-01    1.00000000E+00
F    1    1.000000
   1.91700000E+00    1.00000000E+00
S    1    1.000000
   9.15800000E-02    1.00000000E+00
P    1    1.000000
   7.36100000E-02    1.00000000E+00
D    1    1.000000
   2.92000000E-01    1.00000000E+00
F    1    1.000000
   7.24000000E-01    1.00000000E+00
****
C    0
S    8    1.000000
   8.23600000E+03    5.31000000E-04
   1.23500000E+03    4.10800000E-03
   2.80800000E+02    2.10870000E-02
   7.92700000E+01    8.18530000E-02
   2.55900000E+01    2.34817000E-01
   8.99700000E+00    4.34401000E-01
   3.31900000E+00    3.46129000E-01
   3.64300000E-01   -8.98300000E-03
S    8    1.000000
   8.23600000E+03   -1.13000000E-04
   1.23500000E+03   -8.78000000E-04
   2.80800000E+02   -4.54000000E-03
   7.92700000E+01   -1.81330000E-02
   2.55900000E+01   -5.57600000E-02
   8.99700000E+00   -1.26895000E-01
   3.31900000E+00   -1.70352000E-01
   3.64300000E-01    5.98684000E-01
S    1    1.000000
   9.05900000E-01    1.00000000E+00
S    1    1.000000
   1.28500000E-01    1.00000000E+00
P    3    1.000000
   1.87100000E+01    1.40310000E-02
   4.13300000E+00    8.68660000E-02
   1.20000000E+00    2.90216000E-01
P    1    1.000000
   3.82700000E-01    1.00000000E+00
P    1    1.000000
   1.20900000E-01    1.00000000E+00
D    1    1.000000
   1.09700000E+00    1.00000000E+00
D    1    1.000000
   3.18000000E-01    1.00000000E+00
F    1    1.000000
   7.61000000E-01    1.00000000E+00
S    1    1.000000
   4.40200000E-02    1.00000000E+00
P    1    1.000000
   3.56900000E-02    1.00000000E+00
D    1    1.000000
   1.00000000E-01    1.00000000E+00
F    1    1.000000
   2.68000000E-01    1.00000000E+00
****
H    0
S    3    1.000000
   3.38700000E+01    6.06800000E-03
   5.09500000E+00    4.53080000E-02
   1.15900000E+00    2.02822000E-01
S    1    1.000000
   3.25800000E-01    1.00000000E+00
S    1    1.000000
   1.02700000E-01    1.00000000E+00
P    1    1.000000
   1.40700000E+00    1.00000000E+00
P    1    1.000000
   3.88000000E-01    1.00000000E+00
D    1    1.000000
   1.05700000E+00    1.00000000E+00
S    1    1.000000
   2.52600000E-02    1.00000000E+00
P    1    1.000000
   1.02000000E-01    1.00000000E+00
D    1    1.000000
   2.47000000E-01    1.00000000E+00
****
H    0
S    3    1.000000
   3.38700000E+01    6.06800000E-03
   5.09500000E+00    4.53080000E-02
   1.15900000E+00    2.02822000E-01
S    1    1.000000
   3.25800000E-01    1.00000000E+00
S    1    1.000000
   1.02700000E-01    1.00000000E+00
P    1    1.000000
   1.40700000E+00    1.00000000E+00
P    1    1.000000
   3.88000000E-01    1.00000000E+00
D    1    1.000000
   1.05700000E+00    1.00000000E+00
S    1    1.000000
   2.52600000E-02    1.00000000E+00
P    1    1.000000
   1.02000000E-01    1.00000000E+00
D    1    1.000000
   2.47000000E-01    1.00000000E+00
****
H    0
S    3    1.000000
   3.38700000E+01    6.06800000E-03
   5.09500000E+00    4.53080000E-02
   1.15900000E+00    2.02822000E-01
S    1    1.000000
   3.25800000E-01    1.00000000E+00
S    1    1.000000
   1.02700000E-01    1.00000000E+00
P    1    1.000000
   1.40700000E+00    1.00000000E+00
P    1    1.000000
   3.88000000E-01    1.00000000E+00
D    1    1.000000
   1.05700000E+00    1.00000000E+00
S    1    1.000000
   2.52600000E-02    1.00000000E+00
P    1    1.000000
   1.02000000E-01    1.00000000E+00
D    1    1.000000
   2.47000000E-01    1.00000000E+00
****
H    0
S    3    1.000000
   3.38700000E+01    6.06800000E-03
   5.09500000E+00    4.53080000E-02
   1.15900000E+00    2.02822000E-01
S    1    1.000000
   3.25800000E-01    1.00000000E+00
S    1    1.000000
   1.02700000E-01    1.00000000E+00
P    1    1.000000
   1.40700000E+00    1.00000000E+00
P    1    1.000000
   3.88000000E-01    1.00000000E+00
D    1    1.000000
   1.05700000E+00    1.00000000E+00
S    1    1.000000
   2.52600000E-02    1.00000000E+00
P    1    1.000000
   1.02000000E-01    1.00000000E+00
D    1    1.000000
   2.47000000E-01    1.00000000E+00
****
$end

--------------------------------------------------------------
 ----------------------------------------------------------------
             Standard Nuclear Orientation (Angstroms)
    I     Atom           X                Y                Z
 ----------------------------------------------------------------
    1      C       1.1793501531     0.1997297036     0.0000000000
    2      GH     -0.0000008629    -0.0000052260     0.0000000000
    3      F      -1.1529022759     0.2247768549    -0.0000000000
    4      C       0.0163188924    -0.4355678917     0.0000000000
    5      H      -0.1189529826    -1.5078994676    -0.0000000000
    6      H       1.2308255218     1.2785613540    -0.0000000000
    7      H       2.0902345342    -0.3786192262     0.0000000000
 ----------------------------------------------------------------
 Molecular Point Group                 Cs    NOp =  2
 Largest Abelian Subgroup              Cs    NOp =  2
 Nuclear Repulsion Energy =    67.5482146678 hartrees
 There are       12 alpha and       12 beta electrons

 Q-Chem warning in module forms1/BasisType.C, line 1685:

 Setting pure/cartesian flag to 2111 for general basis


 Requested basis set is non-standard
 There are 84 shells and 252 basis functions
MEM_TOTAL is adjusted to CC_MEMORY + MEM_STATIC!
 Total memory of 100192MB is distributed as follows: 
   QALLOC including MEM_STATIC uses 192MB
   MEM_STATIC is set to 192MB
   CCMAN JOB total memory use is  100000MB
 Warning: actual memory use might exceed 100192MB

 Total QAlloc Memory Limit    192 MB
 Mega-Array Size       188 MB
 MEM_STATIC part       192 MB

                       Distance Matrix (Angstroms)
             C (  1)   GH(  2)   F (  3)   C (  4)   H (  5)   H (  6)
   GH(  2)  1.196145
   F (  3)  2.332387  1.174610
   C (  4)  1.325234  0.435868  1.342808
   H (  5)  2.145131  1.512579  2.017726  1.080830
   H (  6)  1.080059  1.774730  2.606266  2.100777  3.096170
   H (  7)  1.078980  2.124249  3.298791  2.074697  2.481085  1.866770

 
 A cutoff of  1.0D-14 yielded   3567 shell pairs
 There are     32255 function pairs (     42813 Cartesian)
 
 -------------------------------------------------------
 OpenMP Integral Computing Module                       
 Release: version 1.0, May 2013, Q-Chem Inc. Pittsburgh 
 -------------------------------------------------------
 Integral Job Info:
 Integral job number is                      11
 Integral operator is                         1
 short-range coefficients                     0
 long-range coefficients              100000000
 Omega coefficients                           0
 if combine SR and LR in K                    0
 Integral screening is                        0
 Integral computing path is                   2
 max size of driver memory is            800000
 size of driver memory is                776718
 size of scratch memory is              6691272
 max col of scratch BK array              10000
 max len of scratch array in speh3          662
 max len of scratch index in speh4           32
 max int batch size is                      520
 min int batch size is                       52
 fixed nKL is                                52
 max L of basis functions is                  3
 order of int derivative is                   0
 number of shells is                         84
 number of basis is                         290
 number of cartesian basis is               290
 number of contracted shell pairs          3567
 number of primitive shell pairs           8779
 maxK2 (contraction) of shell pair           64
 max number of K2 of shell pair               1
 max number of CS2 of shell pair            533
 max number of PS2 of shell pair           1096
 mem total for path MDJ                  637296
 -------------------------------------------------------
 Smallest overlap matrix eigenvalue = 9.09E-06

 Scale SEOQF with 1.000000e-02/1.000000e-02/1.000000e-02

 Standard Electronic Orientation quadrupole field applied
 Nucleus-field energy     =     0.0000000001 hartrees
 Guess MOs from core Hamiltonian diagonalization

 -----------------------------------------------------------------------
  General SCF calculation program by
  Eric Jon Sundstrom, Paul Horn, Yuezhi Mao, Dmitri Zuev, Alec White,
  David Stuck, Shaama M.S., Shane Yost, Joonho Lee, David Small,
  Daniel Levine, Susi Lehtola, Hugh Burton, Evgeny Epifanovsky
 -----------------------------------------------------------------------
 Hartree-Fock
 A restricted SCF calculation will be
 performed using DIIS
 SCF converges when DIIS error is below 1.0e-12
 ---------------------------------------
  Cycle       Energy         DIIS error
 ---------------------------------------
    1    -140.6556528098      8.79e-02  
    2    -131.9070522524      3.60e-02  
    3    -153.5650211658      5.47e-02  
    4    -160.9969860540      4.04e-02  
    5    -170.3787210391      2.76e-02  
    6    -173.3467904061      2.00e-02  
    7    -176.1799580375      9.37e-03  
    8    -176.8240232413      3.38e-03  
    9    -176.9336433958      1.38e-03  
   10    -176.9539222438      3.89e-04  
   11    -176.9556562774      1.80e-04  
   12    -176.9562318797      8.65e-05  
   13    -176.9563273420      1.22e-05  
   14    -176.9563291901      2.76e-06  
   15    -176.9563292694      3.89e-07  
   16    -176.9563292713      6.79e-08  
   17    -176.9563292714      1.71e-08  
   18    -176.9563292714      4.01e-09  
   19    -176.9563292714      8.55e-10  
   20    -176.9563292714      1.69e-10  
   21    -176.9563292714      3.83e-11  
   22    -176.9563292714      7.33e-12  
   23    -176.9563292714      1.78e-12  
   24    -176.9563292714      8.59e-13  Convergence criterion met
 ---------------------------------------
 SCF time:   CPU 655.87s  wall 66.00s 
 SCF   energy in the final basis set =     -176.9563292714


 ------------------------------------------------------------------------------

   CCMAN2: suite of methods based on coupled cluster
           and equation of motion theories.

   Components:
   * libvmm-1.3-trunk
     by Evgeny Epifanovsky, Ilya Kaliman.
   * libtensor-2.5-trunk
     by Evgeny Epifanovsky, Michael Wormit, Dmitry Zuev, Sam Manzer, 
        Ilya Kaliman.
   * libcc-2.5-trunk
     by Evgeny Epifanovsky, Arik Landau, Tomasz Kus, Kirill Khistyaev, 
        Dmitry Zuev, Prashant Manohar, Xintian Feng, Anna Krylov, 
        Matthew Goldey, Alec White, Thomas Jagau, Kaushik Nanda, 
        Anastasia Gunina, Alexander Kunitsa, Joonho Lee.

   CCMAN original authors:
   Anna I. Krylov, C. David Sherrill, Steven R. Gwaltney,
   Edward F. C. Byrd (2000)
   Sergey V. Levchenko, Lyudmila V. Slipchenko, Tao Wang,
   Ana-Maria C. Cristian (2003)
   Piotr A. Pieniazek, C. Melania Oana, Evgeny Epifanovsky (2007)
   Prashant Manohar (2009)

 ------------------------------------------------------------------------------


 Calculation will run on 10 cores with 100000MB of RAM.

 
 Alpha MOs, Restricted
 -- Occupied --                  
-26.310 -11.329 -11.237  -1.627  -1.052  -0.838  -0.739  -0.691
  1 A'    2 A'    3 A'    4 A'    5 A'    6 A'    7 A'    1 A"                 
 -0.684  -0.589  -0.560  -0.385
  8 A'    9 A'   10 A'    2 A"                                                 
 -- Virtual --                   
  0.001   0.003   0.004   0.004   0.005   0.008   0.008   0.008
 11 A'   12 A'   13 A'    3 A"   14 A'   15 A'   16 A'    4 A"                 
  0.008   0.008   0.011   0.011   0.012   0.014   0.021   0.021
 17 A'    5 A"   18 A'   19 A'    6 A"   20 A'   21 A'   22 A'                 
  0.021   0.021   0.021   0.025   0.026   0.027   0.029   0.043
  7 A"   23 A'    8 A"   24 A'   25 A'    9 A"   26 A'   27 A'                 
  0.044   0.044   0.045   0.045   0.051   0.053   0.054   0.059
 28 A'   10 A"   29 A'   11 A"   30 A'   31 A'   12 A"   32 A'                 
  0.082   0.083   0.083   0.086   0.088   0.089   0.099   0.100
 33 A'   13 A"   34 A'   35 A'   14 A"   36 A'   37 A'   38 A'                 
  0.105   0.107   0.115   0.132   0.134   0.146   0.156   0.162
 39 A'   15 A"   40 A'   16 A"   41 A'   17 A"   42 A'   43 A'                 
  0.163   0.172   0.194   0.202   0.213   0.218   0.228   0.234
 44 A'   18 A"   45 A'   46 A'   47 A'   19 A"   20 A"   48 A'                 
  0.265   0.286   0.292   0.295   0.316   0.323   0.331   0.339
 49 A'   50 A'   21 A"   51 A'   52 A'   53 A'   22 A"   54 A'                 
  0.359   0.368   0.371   0.384   0.402   0.406   0.423   0.437
 55 A'   56 A'   23 A"   57 A'   24 A"   58 A'   59 A'   25 A"                 
  0.450   0.454   0.459   0.476   0.492   0.501   0.522   0.541
 60 A'   26 A"   27 A"   61 A'   62 A'   63 A'   64 A'   65 A'                 
  0.570   0.611   0.628   0.640   0.642   0.667   0.737   0.739
 66 A'   28 A"   67 A'   68 A'   29 A"   69 A'   30 A"   70 A'                 
  0.798   0.834   0.860   0.869   0.892   0.900   0.936   0.939
 71 A'   72 A'   73 A'   74 A'   31 A"   75 A'   76 A'   32 A"                 
  0.962   0.972   0.984   0.984   0.991   0.995   1.016   1.030
 77 A'   33 A"   78 A'   79 A'   34 A"   35 A"   80 A'   81 A'                 
  1.054   1.067   1.079   1.084   1.098   1.107   1.125   1.134
 82 A'   36 A"   37 A"   83 A'   38 A"   84 A'   39 A"   85 A'                 
  1.156   1.179   1.190   1.271   1.305   1.313   1.327   1.367
 86 A'   40 A"   87 A'   88 A'   89 A'   90 A'   41 A"   91 A'                 
  1.377   1.438   1.444   1.467   1.521   1.561   1.578   1.605
 42 A"   43 A"   92 A'   93 A'   94 A'   44 A"   95 A'   45 A"                 
  1.616   1.654   1.720   1.742   1.750   1.759   1.770   1.796
 96 A'   46 A"   97 A'   98 A'   47 A"   99 A'  100 A'   48 A"                 
  1.860   1.886   1.916   1.924   2.000   2.030   2.039   2.059
101 A'  102 A'   49 A"  103 A'  104 A'   50 A"  105 A'  106 A'                 
  2.091   2.143   2.259   2.285   2.306   2.419   2.457   2.670
 51 A"  107 A'  108 A'   52 A"  109 A'  110 A'  111 A'  112 A'                 
  2.782   2.804   2.945   2.993   2.994   3.070   3.070   3.080
113 A'   53 A"   54 A"   55 A"  114 A'   56 A"  115 A'  116 A'                 
  3.103   3.169   3.206   3.219   3.259   3.283   3.329   3.365
117 A'  118 A'   57 A"  119 A'  120 A'   58 A"  121 A'   59 A"                 
  3.385   3.433   3.439   3.520   3.560   3.574   3.577   3.632
 60 A"  122 A'   61 A"   62 A"  123 A'   63 A"  124 A'  125 A'                 
  3.665   3.691   3.720   3.762   3.771   3.773   3.820   3.831
 64 A"  126 A'  127 A'   65 A"   66 A"  128 A'  129 A'  130 A'                 
  3.921   4.000   4.067   4.085   4.154   4.196   4.238   4.253
131 A'  132 A'   67 A"  133 A'  134 A'  135 A'  136 A'   68 A"                 
  4.319   4.361   4.417   4.461   4.524   4.584   4.651   4.703
 69 A"  137 A'  138 A'   70 A"  139 A'   71 A"  140 A'   72 A"                 
  4.797   4.800   4.877   4.921   4.962   4.995   5.021   5.126
141 A'  142 A'   73 A"  143 A'   74 A"   75 A"  144 A'   76 A"                 
  5.131   5.250   5.315   5.349   5.390   5.482   5.496   5.656
145 A'  146 A'  147 A'   77 A"  148 A'  149 A'   78 A"  150 A'                 
  5.656   5.710   5.855   6.123   6.305   6.572   6.698   6.896
 79 A"  151 A'  152 A'  153 A'  154 A'  155 A'  156 A'  157 A'                 
  7.322   8.915   8.944   9.171   9.207   9.332   9.375   9.406
158 A'   80 A"  159 A'   81 A"  160 A'   82 A"  161 A'   83 A"                 
  9.496   9.500   9.645   9.879   9.906  14.841  17.185  17.412
162 A'  163 A'   84 A"  164 A'  165 A'  166 A'  167 A'  168 A'                 
 
 Beta MOs, Restricted
 -- Occupied --                  
-26.310 -11.329 -11.237  -1.627  -1.052  -0.838  -0.739  -0.691
  1 A'    2 A'    3 A'    4 A'    5 A'    6 A'    7 A'    1 A"                 
 -0.684  -0.589  -0.560  -0.385
  8 A'    9 A'   10 A'    2 A"                                                 
 -- Virtual --                   
  0.001   0.003   0.004   0.004   0.005   0.008   0.008   0.008
 11 A'   12 A'   13 A'    3 A"   14 A'   15 A'   16 A'    4 A"                 
  0.008   0.008   0.011   0.011   0.012   0.014   0.021   0.021
 17 A'    5 A"   18 A'   19 A'    6 A"   20 A'   21 A'   22 A'                 
  0.021   0.021   0.021   0.025   0.026   0.027   0.029   0.043
  7 A"   23 A'    8 A"   24 A'   25 A'    9 A"   26 A'   27 A'                 
  0.044   0.044   0.045   0.045   0.051   0.053   0.054   0.059
 28 A'   10 A"   29 A'   11 A"   30 A'   31 A'   12 A"   32 A'                 
  0.082   0.083   0.083   0.086   0.088   0.089   0.099   0.100
 33 A'   13 A"   34 A'   35 A'   14 A"   36 A'   37 A'   38 A'                 
  0.105   0.107   0.115   0.132   0.134   0.146   0.156   0.162
 39 A'   15 A"   40 A'   16 A"   41 A'   17 A"   42 A'   43 A'                 
  0.163   0.172   0.194   0.202   0.213   0.218   0.228   0.234
 44 A'   18 A"   45 A'   46 A'   47 A'   19 A"   20 A"   48 A'                 
  0.265   0.286   0.292   0.295   0.316   0.323   0.331   0.339
 49 A'   50 A'   21 A"   51 A'   52 A'   53 A'   22 A"   54 A'                 
  0.359   0.368   0.371   0.384   0.402   0.406   0.423   0.437
 55 A'   56 A'   23 A"   57 A'   24 A"   58 A'   59 A'   25 A"                 
  0.450   0.454   0.459   0.476   0.492   0.501   0.522   0.541
 60 A'   26 A"   27 A"   61 A'   62 A'   63 A'   64 A'   65 A'                 
  0.570   0.611   0.628   0.640   0.642   0.667   0.737   0.739
 66 A'   28 A"   67 A'   68 A'   29 A"   69 A'   30 A"   70 A'                 
  0.798   0.834   0.860   0.869   0.892   0.900   0.936   0.939
 71 A'   72 A'   73 A'   74 A'   31 A"   75 A'   76 A'   32 A"                 
  0.962   0.972   0.984   0.984   0.991   0.995   1.016   1.030
 77 A'   33 A"   78 A'   79 A'   34 A"   35 A"   80 A'   81 A'                 
  1.054   1.067   1.079   1.084   1.098   1.107   1.125   1.134
 82 A'   36 A"   37 A"   83 A'   38 A"   84 A'   39 A"   85 A'                 
  1.156   1.179   1.190   1.271   1.305   1.313   1.327   1.367
 86 A'   40 A"   87 A'   88 A'   89 A'   90 A'   41 A"   91 A'                 
  1.377   1.438   1.444   1.467   1.521   1.561   1.578   1.605
 42 A"   43 A"   92 A'   93 A'   94 A'   44 A"   95 A'   45 A"                 
  1.616   1.654   1.720   1.742   1.750   1.759   1.770   1.796
 96 A'   46 A"   97 A'   98 A'   47 A"   99 A'  100 A'   48 A"                 
  1.860   1.886   1.916   1.924   2.000   2.030   2.039   2.059
101 A'  102 A'   49 A"  103 A'  104 A'   50 A"  105 A'  106 A'                 
  2.091   2.143   2.259   2.285   2.306   2.419   2.457   2.670
 51 A"  107 A'  108 A'   52 A"  109 A'  110 A'  111 A'  112 A'                 
  2.782   2.804   2.945   2.993   2.994   3.070   3.070   3.080
113 A'   53 A"   54 A"   55 A"  114 A'   56 A"  115 A'  116 A'                 
  3.103   3.169   3.206   3.219   3.259   3.283   3.329   3.365
117 A'  118 A'   57 A"  119 A'  120 A'   58 A"  121 A'   59 A"                 
  3.385   3.433   3.439   3.520   3.560   3.574   3.577   3.632
 60 A"  122 A'   61 A"   62 A"  123 A'   63 A"  124 A'  125 A'                 
  3.665   3.691   3.720   3.762   3.771   3.773   3.820   3.831
 64 A"  126 A'  127 A'   65 A"   66 A"  128 A'  129 A'  130 A'                 
  3.921   4.000   4.067   4.085   4.154   4.196   4.238   4.253
131 A'  132 A'   67 A"  133 A'  134 A'  135 A'  136 A'   68 A"                 
  4.319   4.361   4.417   4.461   4.524   4.584   4.651   4.703
 69 A"  137 A'  138 A'   70 A"  139 A'   71 A"  140 A'   72 A"                 
  4.797   4.800   4.877   4.921   4.962   4.995   5.021   5.126
141 A'  142 A'   73 A"  143 A'   74 A"   75 A"  144 A'   76 A"                 
  5.131   5.250   5.315   5.349   5.390   5.482   5.496   5.656
145 A'  146 A'  147 A'   77 A"  148 A'  149 A'   78 A"  150 A'                 
  5.656   5.710   5.855   6.123   6.305   6.572   6.698   6.896
 79 A"  151 A'  152 A'  153 A'  154 A'  155 A'  156 A'  157 A'                 
  7.322   8.915   8.944   9.171   9.207   9.332   9.375   9.406
158 A'   80 A"  159 A'   81 A"  160 A'   82 A"  161 A'   83 A"                 
  9.496   9.500   9.645   9.879   9.906  14.841  17.185  17.412
162 A'  163 A'   84 A"  164 A'  165 A'  166 A'  167 A'  168 A'                 

 Occupation and symmetry of molecular orbitals

 Point group: Cs (2 irreducible representations).

                           A'   A"    All 
 ------------------------------------------
 All molecular orbitals:
  - Alpha                  168  84    252 
  - Beta                   168  84    252 
 ------------------------------------------
 Alpha orbitals:
  - Frozen occupied        1    0     1   
  - Active occupied        9    2     11  
  - Active virtual         158  82    240 
  - Frozen virtual         0    0     0   
 ------------------------------------------
 Beta orbitals:
  - Frozen occupied        1    0     1   
  - Active occupied        9    2     11  
  - Active virtual         158  82    240 
  - Frozen virtual         0    0     0   
 ------------------------------------------

 Import integrals:   CPU 0.00 s  wall 0.00 s

 Import integrals:   CPU 800.02 s  wall 89.74 s

 MP2 amplitudes:   CPU 1.55 s  wall 1.06 s

           CCSD T amplitudes will be solved using DIIS.

           Start     Size      MaxIter   EConv     TConv     
           3         7         100       1.00e-12  1.00e-11  
 ------------------------------------------------------------------------------
           Energy (a.u.)   Ediff      Tdiff       Comment
 ------------------------------------------------------------------------------
          -177.57847835                           
     1    -177.58064028   2.16e-03   6.61e-01     
     2    -177.59566257   1.50e-02   7.61e-02     
     3    -177.59565974   2.82e-06   2.99e-02     
     4    -177.59709894   1.44e-03   1.08e-02     Switched to DIIS steps.
     5    -177.59761963   5.21e-04   8.59e-03     
     6    -177.59763543   1.58e-05   1.56e-03     
     7    -177.59763092   4.52e-06   6.57e-04     
     8    -177.59763007   8.50e-07   1.16e-04     
     9    -177.59763026   1.89e-07   4.43e-05     
    10    -177.59763026   5.23e-09   1.33e-05     
    11    -177.59763032   5.32e-08   5.19e-06     
    12    -177.59763031   1.35e-09   1.97e-06     
    13    -177.59763032   3.98e-09   7.78e-07     
    14    -177.59763032   2.51e-11   2.71e-07     
    15    -177.59763032   3.45e-10   1.02e-07     
    16    -177.59763032   5.48e-10   5.62e-08     
    17    -177.59763032   1.11e-10   1.89e-08     
    18    -177.59763032   6.20e-11   9.39e-09     
    19    -177.59763032   4.59e-11   2.75e-09     
    20    -177.59763032   9.21e-12   1.26e-09     
    21    -177.59763032   4.81e-12   4.63e-10     
    22    -177.59763032   6.98e-13   2.20e-10     
    23    -177.59763032   9.92e-13   7.07e-11     
    24    -177.59763032   1.18e-13   3.01e-11     
    25    -177.59763032   1.31e-14   1.25e-11     
    26    -177.59763032   2.36e-14   5.98e-12     
 ------------------------------------------------------------------------------
          -177.59763032                           CCSD T converged.

 SCF energy                 = -176.95632927
 MP2 energy                 = -177.57847835
 CCSD correlation energy     =   -0.64130105
 CCSD total energy           = -177.59763032

 CCSD  T1^2 = 0.0057  T2^2 = 0.1765  Leading amplitudes:

 Amplitude    Orbitals with energies
  0.0155       1 (A") A                  ->    16 (A") A                  
              -0.6906                          0.1320                     
  0.0155       1 (A") B                  ->    16 (A") B                  
              -0.6906                          0.1320                     
  0.0154       2 (A") A                  ->    29 (A") A                  
              -0.3848                          0.6420                     
  0.0154       2 (A") B                  ->    29 (A") B                  
              -0.3848                          0.6420                     

 Amplitude    Orbitals with energies
 -0.0492       2 (A") A      2 (A") B    ->    16 (A") A     16 (A") B    
              -0.3848       -0.3848            0.1320        0.1320       
  0.0492       2 (A") A      2 (A") B    ->    16 (A") B     16 (A") A    
              -0.3848       -0.3848            0.1320        0.1320       
  0.0492       2 (A") B      2 (A") A    ->    16 (A") A     16 (A") B    
              -0.3848       -0.3848            0.1320        0.1320       
 -0.0492       2 (A") B      2 (A") A    ->    16 (A") B     16 (A") A    
              -0.3848       -0.3848            0.1320        0.1320       

 Computing CCSD intermediates for later calculations
 Finished.

           CCSD Lambda amplitudes will be solved using DIIS.
           Start     Size      MaxIter   EConv     LConv     
           3         7         100       1.00e-12  1.00e-11  
 ------------------------------------------------------------------------------
            Enorm      Ldiff       Comment
 ------------------------------------------------------------------------------
     1     3.98e-02   2.65e-02     
     2     1.14e-02   4.46e-03     
     3     4.44e-03   6.08e-04     
     4     2.13e-03   6.82e-04     Switched to DIIS steps.
     5     5.36e-04   3.56e-04     
     6     2.42e-04   6.84e-05     
     7     6.98e-05   1.60e-05     
     8     3.05e-05   2.80e-07     
     9     1.08e-05   2.31e-06     
    10     4.22e-06   8.46e-07     
    11     1.66e-06   2.28e-07     
    12     4.92e-07   1.36e-07     
    13     1.82e-07   1.67e-08     
    14     7.01e-08   1.23e-08     
    15     2.43e-08   6.67e-09     
    16     1.11e-08   1.82e-09     
    17     4.35e-09   1.06e-09     
    18     1.72e-09   3.26e-10     
    19     7.44e-10   3.45e-11     
    20     3.38e-10   5.65e-12     
    21     1.44e-10   1.09e-11     
    22     6.19e-11   6.69e-12     
    23     2.31e-11   4.89e-12     
    24     8.39e-12   6.75e-13     
    25     3.43e-12   4.37e-13     
    26     1.40e-12   5.50e-14     
    27     5.18e-13   2.78e-15     
 ------------------------------------------------------------------------------
                                   CCSD Lambda converged.

 CCSD calculation:   CPU 5143.99 s  wall 598.28 s

        Solving for CVS-EOMEE-CCSD A' singlet states.

       EOMEE-CCSD-SINGLES right amplitudes will be solved using Davidson.
        Amplitudes will be solved using shifted  algorithm.
     Hard-coded thresholds: 
     LinDepThresh=1.00e-15  NormThresh=1.00e-06  ReorthogonThresh=1.00e-02

      Roots     MaxVec    MaxIter   Precond   Conv      Shift    
      30        1000      200       1         1.00e-04  2.54e+01  
 ------------------------------------------------------------------------------
      Iter ConvRoots NVecs ResNorm Current eigenvalues (eV)
 ------------------------------------------------------------------------------
      0    0      30    6.35e-04   713.2208   714.1016   714.3735   714.9498   714.9943   715.0225   715.0752   715.2638   715.3527   715.5671   715.5886   715.6057   715.6264   715.7060   715.7504   715.8649   715.9528   715.9837   715.9939   716.0568   716.0859   716.2169   716.3084   716.3767   716.6989   716.7490   716.7665   716.8788   716.9452   717.2250   
Rerun orthogonalization...
      1    0      60    1.22e-02   712.3139   713.6975   714.0589   714.2033   714.7890   714.9138   714.9499   715.0701   715.1360   715.2706   715.4831   715.5452   715.5562   715.5903   715.6357   715.7068   715.8144   715.8856   715.8930   715.9119   715.9798   716.0352   716.1285   716.2584   716.3145   716.4319   716.4575   716.6144   716.6448   716.7344   
Rerun orthogonalization...
      2    24     90    1.11e-04   709.3732   712.1792   713.4006   714.0616*  714.6506   714.7611   714.8915*  714.9395*  715.0765*  715.2359*  715.4286*  715.4642*  715.5254*  715.5524*  715.6156*  715.6889*  715.7778*  715.8170*  715.8699*  715.8827*  715.9680*  715.9882*  716.0990*  716.1831*  716.2353*  716.3398*  716.4034*  716.4521   716.5946*  716.6232*  
      3    30     96    3.50e-06   709.3541*  712.1747*  713.3983*  714.0604*  714.6493*  714.7593*  714.8913*  714.9390*  715.0762*  715.2354*  715.4279*  715.4632*  715.5253*  715.5521*  715.6155*  715.6886*  715.7774*  715.8161*  715.8697*  715.8822*  715.9679*  715.9879*  716.0986*  716.1826*  716.2340*  716.3391*  716.4030*  716.4493*  716.5942*  716.6230*  

     Davidson procedure converged

        CVS-EOMEE-CCSD/MP2 right amplitudes will be solved using Davidson.
        Amplitudes will be solved using shifted  algorithm.
     Hard-coded thresholds: 
     LinDepThresh=1.00e-15  NormThresh=1.00e-06  ReorthogonThresh=1.00e-02

      Roots     MaxVec    MaxIter   Precond   Conv      Shift    
      30        1000      200       1         1.00e-04  2.54e+01  
 ------------------------------------------------------------------------------
      Iter ConvRoots NVecs ResNorm Current eigenvalues (eV)
 ------------------------------------------------------------------------------
      0    0      30    4.12e+00   709.3541   712.1747   713.3983   714.0604   714.6493   714.7593   714.8913   714.9390   715.0762   715.2354   715.4279   715.4632   715.5253   715.5521   715.6155   715.6886   715.7774   715.8161   715.8697   715.8822   715.9679   715.9879   716.0986   716.1826   716.2340   716.3391   716.4030   716.4493   716.5942   716.6230   
      1    0      60    3.67e+00   703.4030   705.4416   706.5464   707.0299   707.6730   707.7648   707.8580   707.9019   708.0631   708.2081   708.4210   708.4488   708.4974   708.5230   708.5934   708.6621   708.7612   708.8022   708.8415   708.8564   708.9377   708.9647   709.0730   709.1389   709.2176   709.3256   709.3707   709.4575   709.5425   709.5857   
      2    0      90    1.65e-01   691.3629   692.5928   692.8649   693.2468   693.9269   693.9434   694.0032   694.1624   694.2940   694.4310   694.6701   694.6776   694.7071   694.7721   694.8353   694.9031   695.0249   695.0413   695.0760   695.1034   695.1633   695.2361   695.2624   695.3080   695.3735   695.5667   695.6545   695.7032   695.8059   695.9168   
      3    0      120   7.33e-03   690.8284   691.9370   692.2149   692.5590   693.2136   693.2449   693.3025   693.4353   693.5608   693.6810   693.9149   693.9207   693.9488   694.0057   694.0651   694.1250   694.2436   694.2746   694.3054   694.3306   694.3916   694.4555   694.5218   694.5428   694.6554   694.8166   694.9068   694.9563   695.0625   695.1758   
      4    0      150   8.82e-04   690.7899   691.8762   692.1903   692.5325   693.1972   693.2333   693.2941   693.4165   693.5491   693.6669   693.9016   693.9102   693.9391   693.9926   694.0546   694.1130   694.2314   694.2633   694.2936   694.3182   694.3814   694.4401   694.5090   694.5331   694.6449   694.8032   694.8767   694.9444   695.0359   695.1299   
      5    0      180   5.91e-04   690.7781   691.8505   692.1753   692.5187   693.1876   693.2287   693.2909   693.4085   693.5432   693.6605   693.8958   693.9074   693.9361   693.9879   694.0508   694.1088   694.2274   694.2600   694.2897   694.3143   694.3779   694.4341   694.5049   694.5307   694.6408   694.8001   694.8613   694.9415   695.0245   695.1090   
      6    3      210   2.81e-04   690.7695   691.8352   692.1627   692.5086   693.1784   693.2242   693.2873   693.4027   693.5373   693.6549   693.8903   693.9047*  693.9335*  693.9840   694.0472   694.1051   694.2239   694.2566   694.2859   694.3106   694.3742   694.4286   694.5006   694.5282*  694.6367   694.7945   694.8433   694.9362   695.0108   695.0850   
      7    8      237   1.98e-04   690.7656   691.8268   692.1571   692.5035   693.1725   693.2216*  693.2848   693.3992   693.5337   693.6518   693.8871   693.9032*  693.9320*  693.9817   694.0449*  694.1030*  694.2219*  694.2547*  694.2833   694.3081   694.3715   694.4250   694.4976   694.5273*  694.6340   694.7898   694.8297   694.9316   695.0003   695.0678   
      8    26     259   9.79e-05   690.7652*  691.8245*  692.1565*  692.5023*  693.1711*  693.2213*  693.2843*  693.3982*  693.5330*  693.6508*  693.8862*  693.9029*  693.9314*  693.9809*  694.0443*  694.1023*  694.2213*  694.2542*  694.2823*  694.3073*  694.3707*  694.4236*  694.4964*  694.5270*  694.6332*  694.7880   694.8234   694.9300*  694.9946   695.0591   
Found complex roots...
      9    25     263   6.97e-05   690.7652*  691.8242*  692.1562*  692.5018*  693.1703*  693.2211*  693.2841*  693.3978*  693.5327*  693.6504*  693.8856*  693.9027*  693.9311*  693.9805*  694.0441*  694.1020*  694.2210*  694.2539*  694.2816*  694.3069*  694.3703*  694.4228*  694.4960*  694.5270*  694.6330*  694.7866   694.8175   694.9298   694.9901   695.0519   
Found complex roots...
      10   27     268   4.56e-05   690.7652*  691.8239*  692.1560*  692.5017*  693.1698*  693.2210*  693.2840*  693.3976*  693.5325*  693.6502*  693.8852*  693.9027*  693.9310*  693.9803*  694.0439*  694.1018*  694.2208*  694.2537*  694.2813*  694.3067*  694.3701*  694.4225*  694.4954*  694.5270*  694.6326*  694.7852*  694.8146   694.9288*  694.9879   695.0472   
Found complex roots...
      11   27     271   4.10e-05   690.7652*  691.8238*  692.1560*  692.5017*  693.1695*  693.2210*  693.2839*  693.3975*  693.5324*  693.6502*  693.8849*  693.9026*  693.9309*  693.9802*  694.0438*  694.1018*  694.2206*  694.2537*  694.2810*  694.3065*  694.3699*  694.4224*  694.4952*  694.5270*  694.6325*  694.7845*  694.8114   694.9284*  694.9850   695.0436   
Found complex roots...
      12   28     274   2.83e-05   690.7652*  691.8238*  692.1560*  692.5017*  693.1694*  693.2210*  693.2839*  693.3974*  693.5324*  693.6502*  693.8848*  693.9026*  693.9308*  693.9801*  694.0438*  694.1018*  694.2205*  694.2536*  694.2808*  694.3064*  694.3699*  694.4224*  694.4949*  694.5269*  694.6324*  694.7837*  694.8090   694.9280*  694.9823   695.0419*  
      13   30     276   2.51e-05   690.7652*  691.8238*  692.1560*  692.5017*  693.1693*  693.2210*  693.2839*  693.3974*  693.5324*  693.6502*  693.8847*  693.9026*  693.9308*  693.9801*  694.0438*  694.1018*  694.2204*  694.2536*  694.2807*  694.3064*  694.3699*  694.4224*  694.4949*  694.5269*  694.6324*  694.7835*  694.8077*  694.9279*  694.9807*  695.0419*  

     Davidson procedure converged

 EOMEE transition 1/A'
 Total energy = -152.21247498 a.u.  Excitation energy = 690.7652 eV.
 R0^2 = 0.0000  R1^2 = 0.8523  R2_CCVV^2 = 0.0007  R2_COVV^2 = 0.0735  Res^2 = 2.18e-05
 Conv-d = yes

 Amplitude    Transitions between orbitals
 -0.2415       1 (A') A                  ->    45 (A') A                  
 -0.2415       1 (A') B                  ->    45 (A') B                  
 -0.2283       1 (A') A                  ->    32 (A') A                  
 -0.2283       1 (A') B                  ->    32 (A') B                  
 -0.1880       1 (A') A                  ->    26 (A') A                  
 -0.1880       1 (A') B                  ->    26 (A') B                  
 -0.1790       1 (A') A                  ->    39 (A') A                  
 -0.1790       1 (A') B                  ->    39 (A') B                  
 -0.1637       1 (A') A                  ->    58 (A') A                  
 -0.1637       1 (A') B                  ->    58 (A') B                  
 -0.1631       1 (A') A                  ->    40 (A') A                  
 -0.1631       1 (A') B                  ->    40 (A') B                  
  0.1359       1 (A') A                  ->    52 (A') A                  
  0.1359       1 (A') B                  ->    52 (A') B                  
 -0.1295       1 (A') A                  ->    20 (A') A                  
 -0.1295       1 (A') B                  ->    20 (A') B                  
  0.1180       1 (A') A                  ->    50 (A') A                  
  0.1180       1 (A') B                  ->    50 (A') B                  
 -0.1117       1 (A') A                  ->    43 (A') A                  
 -0.1117       1 (A') B                  ->    43 (A') B                  
  0.1069       1 (A') A                  ->    49 (A') A                  
  0.1069       1 (A') B                  ->    49 (A') B                  
 -0.1043       1 (A') A                  ->    31 (A') A                  
 -0.1043       1 (A') B                  ->    31 (A') B                  

              Summary of significant orbitals:

               Number  Type             Irrep      Energy
               1       Occ  Alpha       1 (A')    -26.3105
               1       Occ  Beta        1 (A')    -26.3105
               26      Vir  Alpha      20 (A')      0.0135
               35      Vir  Alpha      26 (A')      0.0290
               42      Vir  Alpha      31 (A')      0.0530
               44      Vir  Alpha      32 (A')      0.0586
               53      Vir  Alpha      39 (A')      0.1051
               55      Vir  Alpha      40 (A')      0.1147
               60      Vir  Alpha      43 (A')      0.1620
               63      Vir  Alpha      45 (A')      0.1942
               69      Vir  Alpha      49 (A')      0.2651
               70      Vir  Alpha      50 (A')      0.2856
               73      Vir  Alpha      52 (A')      0.3161
               82      Vir  Alpha      58 (A')      0.4060
               26      Vir  Beta       20 (A')      0.0135
               35      Vir  Beta       26 (A')      0.0290
               42      Vir  Beta       31 (A')      0.0530
               44      Vir  Beta       32 (A')      0.0586
               53      Vir  Beta       39 (A')      0.1051
               55      Vir  Beta       40 (A')      0.1147
               60      Vir  Beta       43 (A')      0.1620
               63      Vir  Beta       45 (A')      0.1942
               69      Vir  Beta       49 (A')      0.2651
               70      Vir  Beta       50 (A')      0.2856
               73      Vir  Beta       52 (A')      0.3161
               82      Vir  Beta       58 (A')      0.4060


 EOMEE transition 2/A'
 Total energy = -152.17357431 a.u.  Excitation energy = 691.8237 eV.
 R0^2 = 0.0000  R1^2 = 0.8501  R2_CCVV^2 = 0.0007  R2_COVV^2 = 0.0746  Res^2 = 3.83e-05
 Conv-d = yes

 Amplitude    Transitions between orbitals
  0.2379       1 (A') A                  ->    26 (A') A                  
  0.2379       1 (A') B                  ->    26 (A') B                  
  0.2202       1 (A') A                  ->    32 (A') A                  
  0.2202       1 (A') B                  ->    32 (A') B                  
  0.2052       1 (A') A                  ->    20 (A') A                  
  0.2052       1 (A') B                  ->    20 (A') B                  
  0.1615       1 (A') A                  ->    52 (A') A                  
  0.1615       1 (A') B                  ->    52 (A') B                  
 -0.1504       1 (A') A                  ->    14 (A') A                  
 -0.1504       1 (A') B                  ->    14 (A') B                  
 -0.1438       1 (A') A                  ->    58 (A') A                  
 -0.1438       1 (A') B                  ->    58 (A') B                  
  0.1420       1 (A') A                  ->    66 (A') A                  
  0.1420       1 (A') B                  ->    66 (A') B                  
  0.1298       1 (A') A                  ->    50 (A') A                  
  0.1298       1 (A') B                  ->    50 (A') B                  
  0.1159       1 (A') A                  ->    40 (A') A                  
  0.1159       1 (A') B                  ->    40 (A') B                  
 -0.1084       1 (A') A                  ->    24 (A') A                  
 -0.1084       1 (A') B                  ->    24 (A') B                  
 -0.1066       1 (A') A                  ->    53 (A') A                  
 -0.1066       1 (A') B                  ->    53 (A') B                  
 -0.1011       1 (A') A                  ->    45 (A') A                  
 -0.1011       1 (A') B                  ->    45 (A') B                  

              Summary of significant orbitals:

               Number  Type             Irrep      Energy
               1       Occ  Alpha       1 (A')    -26.3105
               1       Occ  Beta        1 (A')    -26.3105
               17      Vir  Alpha      14 (A')      0.0052
               26      Vir  Alpha      20 (A')      0.0135
               32      Vir  Alpha      24 (A')      0.0252
               35      Vir  Alpha      26 (A')      0.0290
               44      Vir  Alpha      32 (A')      0.0586
               55      Vir  Alpha      40 (A')      0.1147
               63      Vir  Alpha      45 (A')      0.1942
               70      Vir  Alpha      50 (A')      0.2856
               73      Vir  Alpha      52 (A')      0.3161
               74      Vir  Alpha      53 (A')      0.3229
               82      Vir  Alpha      58 (A')      0.4060
               93      Vir  Alpha      66 (A')      0.5699
               17      Vir  Beta       14 (A')      0.0052
               26      Vir  Beta       20 (A')      0.0135
               32      Vir  Beta       24 (A')      0.0252
               35      Vir  Beta       26 (A')      0.0290
               44      Vir  Beta       32 (A')      0.0586
               55      Vir  Beta       40 (A')      0.1147
               63      Vir  Beta       45 (A')      0.1942
               70      Vir  Beta       50 (A')      0.2856
               73      Vir  Beta       52 (A')      0.3161
               74      Vir  Beta       53 (A')      0.3229
               82      Vir  Beta       58 (A')      0.4060
               93      Vir  Beta       66 (A')      0.5699


 EOMEE transition 3/A'
 Total energy = -152.16136602 a.u.  Excitation energy = 692.1560 eV.
 R0^2 = 0.0000  R1^2 = 0.8442  R2_CCVV^2 = 0.0007  R2_COVV^2 = 0.0776  Res^2 = 2.54e-05
 Conv-d = yes

 Amplitude    Transitions between orbitals
 -0.3391       1 (A') A                  ->    30 (A') A                  
 -0.3391       1 (A') B                  ->    30 (A') B                  
 -0.2865       1 (A') A                  ->    24 (A') A                  
 -0.2865       1 (A') B                  ->    24 (A') B                  
  0.1928       1 (A') A                  ->    38 (A') A                  
  0.1928       1 (A') B                  ->    38 (A') B                  
 -0.1890       1 (A') A                  ->    18 (A') A                  
 -0.1890       1 (A') B                  ->    18 (A') B                  
 -0.1887       1 (A') A                  ->    37 (A') A                  
 -0.1887       1 (A') B                  ->    37 (A') B                  
 -0.1369       1 (A') A                  ->    46 (A') A                  
 -0.1369       1 (A') B                  ->    46 (A') B                  

              Summary of significant orbitals:

               Number  Type             Irrep      Energy
               1       Occ  Alpha       1 (A')    -26.3105
               1       Occ  Beta        1 (A')    -26.3105
               23      Vir  Alpha      18 (A')      0.0111
               32      Vir  Alpha      24 (A')      0.0252
               41      Vir  Alpha      30 (A')      0.0509
               51      Vir  Alpha      37 (A')      0.0986
               52      Vir  Alpha      38 (A')      0.1000
               64      Vir  Alpha      46 (A')      0.2017
               23      Vir  Beta       18 (A')      0.0111
               32      Vir  Beta       24 (A')      0.0252
               41      Vir  Beta       30 (A')      0.0509
               51      Vir  Beta       37 (A')      0.0986
               52      Vir  Beta       38 (A')      0.1000
               64      Vir  Beta       46 (A')      0.2017


 EOMEE transition 4/A'
 Total energy = -152.14866119 a.u.  Excitation energy = 692.5017 eV.
 R0^2 = 0.0000  R1^2 = 0.8434  R2_CCVV^2 = 0.0007  R2_COVV^2 = 0.0780  Res^2 = 2.54e-05
 Conv-d = yes

 Amplitude    Transitions between orbitals
  0.3249       1 (A') A                  ->    31 (A') A                  
  0.3249       1 (A') B                  ->    31 (A') B                  
  0.3232       1 (A') A                  ->    25 (A') A                  
  0.3232       1 (A') B                  ->    25 (A') B                  
  0.2377       1 (A') A                  ->    19 (A') A                  
  0.2377       1 (A') B                  ->    19 (A') B                  
  0.1915       1 (A') A                  ->    39 (A') A                  
  0.1915       1 (A') B                  ->    39 (A') B                  
 -0.1109       1 (A') A                  ->    13 (A') A                  
 -0.1109       1 (A') B                  ->    13 (A') B                  

              Summary of significant orbitals:

               Number  Type             Irrep      Energy
               1       Occ  Alpha       1 (A')    -26.3105
               1       Occ  Beta        1 (A')    -26.3105
               15      Vir  Alpha      13 (A')      0.0036
               24      Vir  Alpha      19 (A')      0.0114
               33      Vir  Alpha      25 (A')      0.0259
               42      Vir  Alpha      31 (A')      0.0530
               53      Vir  Alpha      39 (A')      0.1051
               15      Vir  Beta       13 (A')      0.0036
               24      Vir  Beta       19 (A')      0.0114
               33      Vir  Beta       25 (A')      0.0259
               42      Vir  Beta       31 (A')      0.0530
               53      Vir  Beta       39 (A')      0.1051


 EOMEE transition 5/A'
 Total energy = -152.12412678 a.u.  Excitation energy = 693.1693 eV.
 R0^2 = 0.0000  R1^2 = 0.8427  R2_CCVV^2 = 0.0006  R2_COVV^2 = 0.0783  Res^2 = 1.27e-05
 Conv-d = yes

 Amplitude    Transitions between orbitals
 -0.2671       1 (A') A                  ->    28 (A') A                  
 -0.2671       1 (A') B                  ->    28 (A') B                  
 -0.2400       1 (A') A                  ->    14 (A') A                  
 -0.2400       1 (A') B                  ->    14 (A') B                  
 -0.2281       1 (A') A                  ->    34 (A') A                  
 -0.2281       1 (A') B                  ->    34 (A') B                  
  0.2061       1 (A') A                  ->    20 (A') A                  
  0.2061       1 (A') B                  ->    20 (A') B                  
 -0.1941       1 (A') A                  ->    22 (A') A                  
 -0.1941       1 (A') B                  ->    22 (A') B                  
 -0.1630       1 (A') A                  ->    11 (A') A                  
 -0.1630       1 (A') B                  ->    11 (A') B                  
  0.1240       1 (A') A                  ->    21 (A') A                  
  0.1240       1 (A') B                  ->    21 (A') B                  
  0.1075       1 (A') A                  ->    42 (A') A                  
  0.1075       1 (A') B                  ->    42 (A') B                  
 -0.1030       1 (A') A                  ->    40 (A') A                  
 -0.1030       1 (A') B                  ->    40 (A') B                  

              Summary of significant orbitals:

               Number  Type             Irrep      Energy
               1       Occ  Alpha       1 (A')    -26.3105
               1       Occ  Beta        1 (A')    -26.3105
               13      Vir  Alpha      11 (A')      0.0011
               17      Vir  Alpha      14 (A')      0.0052
               26      Vir  Alpha      20 (A')      0.0135
               27      Vir  Alpha      21 (A')      0.0208
               28      Vir  Alpha      22 (A')      0.0209
               37      Vir  Alpha      28 (A')      0.0436
               47      Vir  Alpha      34 (A')      0.0834
               55      Vir  Alpha      40 (A')      0.1147
               59      Vir  Alpha      42 (A')      0.1557
               13      Vir  Beta       11 (A')      0.0011
               17      Vir  Beta       14 (A')      0.0052
               26      Vir  Beta       20 (A')      0.0135
               27      Vir  Beta       21 (A')      0.0208
               28      Vir  Beta       22 (A')      0.0209
               37      Vir  Beta       28 (A')      0.0436
               47      Vir  Beta       34 (A')      0.0834
               55      Vir  Beta       40 (A')      0.1147
               59      Vir  Beta       42 (A')      0.1557


 EOMEE transition 6/A'
 Total energy = -152.12222771 a.u.  Excitation energy = 693.2210 eV.
 R0^2 = 0.0000  R1^2 = 0.8426  R2_CCVV^2 = 0.0006  R2_COVV^2 = 0.0784  Res^2 = 6.85e-06
 Conv-d = yes

 Amplitude    Transitions between orbitals
  0.3210       1 (A') A                  ->    29 (A') A                  
  0.3210       1 (A') B                  ->    29 (A') B                  
  0.2795       1 (A') A                  ->    23 (A') A                  
  0.2795       1 (A') B                  ->    23 (A') B                  
  0.2598       1 (A') A                  ->    35 (A') A                  
  0.2598       1 (A') B                  ->    35 (A') B                  
 -0.1661       1 (A') A                  ->    27 (A') A                  
 -0.1661       1 (A') B                  ->    27 (A') B                  
  0.1502       1 (A') A                  ->    44 (A') A                  
  0.1502       1 (A') B                  ->    44 (A') B                  
  0.1268       1 (A') A                  ->    21 (A') A                  
  0.1268       1 (A') B                  ->    21 (A') B                  
  0.1263       1 (A') A                  ->    17 (A') A                  
  0.1263       1 (A') B                  ->    17 (A') B                  
 -0.1166       1 (A') A                  ->    33 (A') A                  
 -0.1166       1 (A') B                  ->    33 (A') B                  
  0.1001       1 (A') A                  ->    14 (A') A                  
  0.1001       1 (A') B                  ->    14 (A') B                  

              Summary of significant orbitals:

               Number  Type             Irrep      Energy
               1       Occ  Alpha       1 (A')    -26.3105
               1       Occ  Beta        1 (A')    -26.3105
               17      Vir  Alpha      14 (A')      0.0052
               21      Vir  Alpha      17 (A')      0.0078
               27      Vir  Alpha      21 (A')      0.0208
               30      Vir  Alpha      23 (A')      0.0213
               36      Vir  Alpha      27 (A')      0.0433
               39      Vir  Alpha      29 (A')      0.0446
               45      Vir  Alpha      33 (A')      0.0818
               48      Vir  Alpha      35 (A')      0.0860
               61      Vir  Alpha      44 (A')      0.1634
               17      Vir  Beta       14 (A')      0.0052
               21      Vir  Beta       17 (A')      0.0078
               27      Vir  Beta       21 (A')      0.0208
               30      Vir  Beta       23 (A')      0.0213
               36      Vir  Beta       27 (A')      0.0433
               39      Vir  Beta       29 (A')      0.0446
               45      Vir  Beta       33 (A')      0.0818
               48      Vir  Beta       35 (A')      0.0860
               61      Vir  Beta       44 (A')      0.1634


 EOMEE transition 7/A'
 Total energy = -152.11991635 a.u.  Excitation energy = 693.2839 eV.
 R0^2 = 0.0000  R1^2 = 0.8429  R2_CCVV^2 = 0.0006  R2_COVV^2 = 0.0782  Res^2 = 4.19e-06
 Conv-d = yes

 Amplitude    Transitions between orbitals
  0.3029       1 (A') A                  ->    27 (A') A                  
  0.3029       1 (A') B                  ->    27 (A') B                  
 -0.2634       1 (A') A                  ->    21 (A') A                  
 -0.2634       1 (A') B                  ->    21 (A') B                  
  0.2251       1 (A') A                  ->    33 (A') A                  
  0.2251       1 (A') B                  ->    33 (A') B                  
  0.1881       1 (A') A                  ->    29 (A') A                  
  0.1881       1 (A') B                  ->    29 (A') B                  
  0.1501       1 (A') A                  ->    23 (A') A                  
  0.1501       1 (A') B                  ->    23 (A') B                  
  0.1392       1 (A') A                  ->    35 (A') A                  
  0.1392       1 (A') B                  ->    35 (A') B                  
 -0.1367       1 (A') A                  ->    15 (A') A                  
 -0.1367       1 (A') B                  ->    15 (A') B                  
 -0.1270       1 (A') A                  ->    42 (A') A                  
 -0.1270       1 (A') B                  ->    42 (A') B                  
 -0.1060       1 (A') A                  ->    22 (A') A                  
 -0.1060       1 (A') B                  ->    22 (A') B                  

              Summary of significant orbitals:

               Number  Type             Irrep      Energy
               1       Occ  Alpha       1 (A')    -26.3105
               1       Occ  Beta        1 (A')    -26.3105
               18      Vir  Alpha      15 (A')      0.0077
               27      Vir  Alpha      21 (A')      0.0208
               28      Vir  Alpha      22 (A')      0.0209
               30      Vir  Alpha      23 (A')      0.0213
               36      Vir  Alpha      27 (A')      0.0433
               39      Vir  Alpha      29 (A')      0.0446
               45      Vir  Alpha      33 (A')      0.0818
               48      Vir  Alpha      35 (A')      0.0860
               59      Vir  Alpha      42 (A')      0.1557
               18      Vir  Beta       15 (A')      0.0077
               27      Vir  Beta       21 (A')      0.0208
               28      Vir  Beta       22 (A')      0.0209
               30      Vir  Beta       23 (A')      0.0213
               36      Vir  Beta       27 (A')      0.0433
               39      Vir  Beta       29 (A')      0.0446
               45      Vir  Beta       33 (A')      0.0818
               48      Vir  Beta       35 (A')      0.0860
               59      Vir  Beta       42 (A')      0.1557


 EOMEE transition 8/A'
 Total energy = -152.11574456 a.u.  Excitation energy = 693.3974 eV.
 R0^2 = 0.0000  R1^2 = 0.8442  R2_CCVV^2 = 0.0007  R2_COVV^2 = 0.0776  Res^2 = 1.12e-05
 Conv-d = yes

 Amplitude    Transitions between orbitals
 -0.2470       1 (A') A                  ->    22 (A') A                  
 -0.2470       1 (A') B                  ->    22 (A') B                  
  0.2375       1 (A') A                  ->    14 (A') A                  
  0.2375       1 (A') B                  ->    14 (A') B                  
 -0.2032       1 (A') A                  ->    28 (A') A                  
 -0.2032       1 (A') B                  ->    28 (A') B                  
 -0.1779       1 (A') A                  ->    19 (A') A                  
 -0.1779       1 (A') B                  ->    19 (A') B                  
 -0.1762       1 (A') A                  ->    20 (A') A                  
 -0.1762       1 (A') B                  ->    20 (A') B                  
  0.1636       1 (A') A                  ->    11 (A') A                  
  0.1636       1 (A') B                  ->    11 (A') B                  
  0.1513       1 (A') A                  ->    32 (A') A                  
  0.1513       1 (A') B                  ->    32 (A') B                  
 -0.1292       1 (A') A                  ->    25 (A') A                  
 -0.1292       1 (A') B                  ->    25 (A') B                  
 -0.1263       1 (A') A                  ->    34 (A') A                  
 -0.1263       1 (A') B                  ->    34 (A') B                  
 -0.1248       1 (A') A                  ->    16 (A') A                  
 -0.1248       1 (A') B                  ->    16 (A') B                  
  0.1172       1 (A') A                  ->    27 (A') A                  
  0.1172       1 (A') B                  ->    27 (A') B                  
  0.1067       1 (A') A                  ->    40 (A') A                  
  0.1067       1 (A') B                  ->    40 (A') B                  
  0.1013       1 (A') A                  ->    13 (A') A                  
  0.1013       1 (A') B                  ->    13 (A') B                  

              Summary of significant orbitals:

               Number  Type             Irrep      Energy
               1       Occ  Alpha       1 (A')    -26.3105
               1       Occ  Beta        1 (A')    -26.3105
               13      Vir  Alpha      11 (A')      0.0011
               15      Vir  Alpha      13 (A')      0.0036
               17      Vir  Alpha      14 (A')      0.0052
               19      Vir  Alpha      16 (A')      0.0077
               24      Vir  Alpha      19 (A')      0.0114
               26      Vir  Alpha      20 (A')      0.0135
               28      Vir  Alpha      22 (A')      0.0209
               33      Vir  Alpha      25 (A')      0.0259
               36      Vir  Alpha      27 (A')      0.0433
               37      Vir  Alpha      28 (A')      0.0436
               44      Vir  Alpha      32 (A')      0.0586
               47      Vir  Alpha      34 (A')      0.0834
               55      Vir  Alpha      40 (A')      0.1147
               13      Vir  Beta       11 (A')      0.0011
               15      Vir  Beta       13 (A')      0.0036
               17      Vir  Beta       14 (A')      0.0052
               19      Vir  Beta       16 (A')      0.0077
               24      Vir  Beta       19 (A')      0.0114
               26      Vir  Beta       20 (A')      0.0135
               28      Vir  Beta       22 (A')      0.0209
               33      Vir  Beta       25 (A')      0.0259
               36      Vir  Beta       27 (A')      0.0433
               37      Vir  Beta       28 (A')      0.0436
               44      Vir  Beta       32 (A')      0.0586
               47      Vir  Beta       34 (A')      0.0834
               55      Vir  Beta       40 (A')      0.1147


 EOMEE transition 9/A'
 Total energy = -152.11078299 a.u.  Excitation energy = 693.5324 eV.
 R0^2 = 0.0000  R1^2 = 0.8433  R2_CCVV^2 = 0.0006  R2_COVV^2 = 0.0780  Res^2 = 2.09e-05
 Conv-d = yes

 Amplitude    Transitions between orbitals
  0.3750       1 (A') A                  ->    18 (A') A                  
  0.3750       1 (A') B                  ->    18 (A') B                  
 -0.3083       1 (A') A                  ->    12 (A') A                  
 -0.3083       1 (A') B                  ->    12 (A') B                  
  0.1699       1 (A') A                  ->    38 (A') A                  
  0.1699       1 (A') B                  ->    38 (A') B                  
 -0.1603       1 (A') A                  ->    21 (A') A                  
 -0.1603       1 (A') B                  ->    21 (A') B                  
 -0.1575       1 (A') A                  ->    30 (A') A                  
 -0.1575       1 (A') B                  ->    30 (A') B                  
 -0.1260       1 (A') A                  ->    37 (A') A                  
 -0.1260       1 (A') B                  ->    37 (A') B                  
 -0.1180       1 (A') A                  ->    46 (A') A                  
 -0.1180       1 (A') B                  ->    46 (A') B                  
  0.1158       1 (A') A                  ->    24 (A') A                  
  0.1158       1 (A') B                  ->    24 (A') B                  

              Summary of significant orbitals:

               Number  Type             Irrep      Energy
               1       Occ  Alpha       1 (A')    -26.3105
               1       Occ  Beta        1 (A')    -26.3105
               14      Vir  Alpha      12 (A')      0.0035
               23      Vir  Alpha      18 (A')      0.0111
               27      Vir  Alpha      21 (A')      0.0208
               32      Vir  Alpha      24 (A')      0.0252
               41      Vir  Alpha      30 (A')      0.0509
               51      Vir  Alpha      37 (A')      0.0986
               52      Vir  Alpha      38 (A')      0.1000
               64      Vir  Alpha      46 (A')      0.2017
               14      Vir  Beta       12 (A')      0.0035
               23      Vir  Beta       18 (A')      0.0111
               27      Vir  Beta       21 (A')      0.0208
               32      Vir  Beta       24 (A')      0.0252
               41      Vir  Beta       30 (A')      0.0509
               51      Vir  Beta       37 (A')      0.0986
               52      Vir  Beta       38 (A')      0.1000
               64      Vir  Beta       46 (A')      0.2017


 EOMEE transition 10/A'
 Total energy = -152.10645355 a.u.  Excitation energy = 693.6502 eV.
 R0^2 = 0.0000  R1^2 = 0.8430  R2_CCVV^2 = 0.0006  R2_COVV^2 = 0.0782  Res^2 = 2.43e-05
 Conv-d = yes

 Amplitude    Transitions between orbitals
 -0.3316       1 (A') A                  ->    13 (A') A                  
 -0.3316       1 (A') B                  ->    13 (A') B                  
  0.3061       1 (A') A                  ->    19 (A') A                  
  0.3061       1 (A') B                  ->    19 (A') B                  
 -0.2100       1 (A') A                  ->    31 (A') A                  
 -0.2100       1 (A') B                  ->    31 (A') B                  
  0.1795       1 (A') A                  ->    11 (A') A                  
  0.1795       1 (A') B                  ->    11 (A') B                  
 -0.1672       1 (A') A                  ->    39 (A') A                  
 -0.1672       1 (A') B                  ->    39 (A') B                  
 -0.1400       1 (A') A                  ->    22 (A') A                  
 -0.1400       1 (A') B                  ->    22 (A') B                  
 -0.1230       1 (A') A                  ->    16 (A') A                  
 -0.1230       1 (A') B                  ->    16 (A') B                  
 -0.1003       1 (A') A                  ->    23 (A') A                  
 -0.1003       1 (A') B                  ->    23 (A') B                  

              Summary of significant orbitals:

               Number  Type             Irrep      Energy
               1       Occ  Alpha       1 (A')    -26.3105
               1       Occ  Beta        1 (A')    -26.3105
               13      Vir  Alpha      11 (A')      0.0011
               15      Vir  Alpha      13 (A')      0.0036
               19      Vir  Alpha      16 (A')      0.0077
               24      Vir  Alpha      19 (A')      0.0114
               28      Vir  Alpha      22 (A')      0.0209
               30      Vir  Alpha      23 (A')      0.0213
               42      Vir  Alpha      31 (A')      0.0530
               53      Vir  Alpha      39 (A')      0.1051
               13      Vir  Beta       11 (A')      0.0011
               15      Vir  Beta       13 (A')      0.0036
               19      Vir  Beta       16 (A')      0.0077
               24      Vir  Beta       19 (A')      0.0114
               28      Vir  Beta       22 (A')      0.0209
               30      Vir  Beta       23 (A')      0.0213
               42      Vir  Beta       31 (A')      0.0530
               53      Vir  Beta       39 (A')      0.1051


 EOMEE transition 11/A'
 Total energy = -152.09783460 a.u.  Excitation energy = 693.8847 eV.
 R0^2 = 0.0000  R1^2 = 0.8430  R2_CCVV^2 = 0.0006  R2_COVV^2 = 0.0782  Res^2 = 1.09e-05
 Conv-d = yes

 Amplitude    Transitions between orbitals
 -0.3134       1 (A') A                  ->    16 (A') A                  
 -0.3134       1 (A') B                  ->    16 (A') B                  
 -0.2610       1 (A') A                  ->    11 (A') A                  
 -0.2610       1 (A') B                  ->    11 (A') B                  
  0.1867       1 (A') A                  ->    17 (A') A                  
  0.1867       1 (A') B                  ->    17 (A') B                  
 -0.1681       1 (A') A                  ->    26 (A') A                  
 -0.1681       1 (A') B                  ->    26 (A') B                  
 -0.1679       1 (A') A                  ->    22 (A') A                  
 -0.1679       1 (A') B                  ->    22 (A') B                  
 -0.1568       1 (A') A                  ->    20 (A') A                  
 -0.1568       1 (A') B                  ->    20 (A') B                  
  0.1469       1 (A') A                  ->    34 (A') A                  
  0.1469       1 (A') B                  ->    34 (A') B                  
 -0.1207       1 (A') A                  ->    12 (A') A                  
 -0.1207       1 (A') B                  ->    12 (A') B                  
 -0.1128       1 (A') A                  ->    14 (A') A                  
 -0.1128       1 (A') B                  ->    14 (A') B                  
  0.1019       1 (A') A                  ->    23 (A') A                  
  0.1019       1 (A') B                  ->    23 (A') B                  

              Summary of significant orbitals:

               Number  Type             Irrep      Energy
               1       Occ  Alpha       1 (A')    -26.3105
               1       Occ  Beta        1 (A')    -26.3105
               13      Vir  Alpha      11 (A')      0.0011
               14      Vir  Alpha      12 (A')      0.0035
               17      Vir  Alpha      14 (A')      0.0052
               19      Vir  Alpha      16 (A')      0.0077
               21      Vir  Alpha      17 (A')      0.0078
               26      Vir  Alpha      20 (A')      0.0135
               28      Vir  Alpha      22 (A')      0.0209
               30      Vir  Alpha      23 (A')      0.0213
               35      Vir  Alpha      26 (A')      0.0290
               47      Vir  Alpha      34 (A')      0.0834
               13      Vir  Beta       11 (A')      0.0011
               14      Vir  Beta       12 (A')      0.0035
               17      Vir  Beta       14 (A')      0.0052
               19      Vir  Beta       16 (A')      0.0077
               21      Vir  Beta       17 (A')      0.0078
               26      Vir  Beta       20 (A')      0.0135
               28      Vir  Beta       22 (A')      0.0209
               30      Vir  Beta       23 (A')      0.0213
               35      Vir  Beta       26 (A')      0.0290
               47      Vir  Beta       34 (A')      0.0834


 EOMEE transition 12/A'
 Total energy = -152.09717740 a.u.  Excitation energy = 693.9026 eV.
 R0^2 = 0.0000  R1^2 = 0.8430  R2_CCVV^2 = 0.0006  R2_COVV^2 = 0.0782  Res^2 = 9.40e-06
 Conv-d = yes

 Amplitude    Transitions between orbitals
 -0.4367       1 (A') A                  ->    17 (A') A                  
 -0.4367       1 (A') B                  ->    17 (A') B                  
 -0.2362       1 (A') A                  ->    23 (A') A                  
 -0.2362       1 (A') B                  ->    23 (A') B                  
 -0.2018       1 (A') A                  ->    11 (A') A                  
 -0.2018       1 (A') B                  ->    11 (A') B                  
  0.1939       1 (A') A                  ->    35 (A') A                  
  0.1939       1 (A') B                  ->    35 (A') B                  
 -0.1274       1 (A') A                  ->    20 (A') A                  
 -0.1274       1 (A') B                  ->    20 (A') B                  
  0.1108       1 (A') A                  ->    29 (A') A                  
  0.1108       1 (A') B                  ->    29 (A') B                  
  0.1068       1 (A') A                  ->    44 (A') A                  
  0.1068       1 (A') B                  ->    44 (A') B                  

              Summary of significant orbitals:

               Number  Type             Irrep      Energy
               1       Occ  Alpha       1 (A')    -26.3105
               1       Occ  Beta        1 (A')    -26.3105
               13      Vir  Alpha      11 (A')      0.0011
               21      Vir  Alpha      17 (A')      0.0078
               26      Vir  Alpha      20 (A')      0.0135
               30      Vir  Alpha      23 (A')      0.0213
               39      Vir  Alpha      29 (A')      0.0446
               48      Vir  Alpha      35 (A')      0.0860
               61      Vir  Alpha      44 (A')      0.1634
               13      Vir  Beta       11 (A')      0.0011
               21      Vir  Beta       17 (A')      0.0078
               26      Vir  Beta       20 (A')      0.0135
               30      Vir  Beta       23 (A')      0.0213
               39      Vir  Beta       29 (A')      0.0446
               48      Vir  Beta       35 (A')      0.0860
               61      Vir  Beta       44 (A')      0.1634


 EOMEE transition 13/A'
 Total energy = -152.09614213 a.u.  Excitation energy = 693.9308 eV.
 R0^2 = 0.0000  R1^2 = 0.8430  R2_CCVV^2 = 0.0006  R2_COVV^2 = 0.0782  Res^2 = 5.76e-06
 Conv-d = yes

 Amplitude    Transitions between orbitals
  0.4750       1 (A') A                  ->    15 (A') A                  
  0.4750       1 (A') B                  ->    15 (A') B                  
  0.2105       1 (A') A                  ->    33 (A') A                  
  0.2105       1 (A') B                  ->    33 (A') B                  
  0.1946       1 (A') A                  ->    21 (A') A                  
  0.1946       1 (A') B                  ->    21 (A') B                  
 -0.1647       1 (A') A                  ->    12 (A') A                  
 -0.1647       1 (A') B                  ->    12 (A') B                  
  0.1524       1 (A') A                  ->    27 (A') A                  
  0.1524       1 (A') B                  ->    27 (A') B                  
 -0.1107       1 (A') A                  ->    42 (A') A                  
 -0.1107       1 (A') B                  ->    42 (A') B                  

              Summary of significant orbitals:

               Number  Type             Irrep      Energy
               1       Occ  Alpha       1 (A')    -26.3105
               1       Occ  Beta        1 (A')    -26.3105
               14      Vir  Alpha      12 (A')      0.0035
               18      Vir  Alpha      15 (A')      0.0077
               27      Vir  Alpha      21 (A')      0.0208
               36      Vir  Alpha      27 (A')      0.0433
               45      Vir  Alpha      33 (A')      0.0818
               59      Vir  Alpha      42 (A')      0.1557
               14      Vir  Beta       12 (A')      0.0035
               18      Vir  Beta       15 (A')      0.0077
               27      Vir  Beta       21 (A')      0.0208
               36      Vir  Beta       27 (A')      0.0433
               45      Vir  Beta       33 (A')      0.0818
               59      Vir  Beta       42 (A')      0.1557


 EOMEE transition 14/A'
[...]

 ------------------------------------------------------------------------------
 State A: ccsd: 0/A'
 State B: cvs_eomee_ccsd/rhfref/singlets: 29/A'
 Transition dipole moment (a.u.):
   A->B: 0.007797 (X -0.007504, Y 0.002116, Z 0.000000)
   B->A: 0.007902 (X -0.007615, Y 0.002109, Z 0.000000)
 Oscillator strength (a.u.): 0.001049
 Norm of one-particle transition density matrix:
   A->B: 0.917797;   B->A: 0.883831
   ||gamma^AB||*||gamma^BA||: 0.811177

 ------------------------------------------------------------------------------
 State A: ccsd: 0/A'
 State B: cvs_eomee_ccsd/rhfref/singlets: 30/A'
 Transition dipole moment (a.u.):
   A->B: 0.008848 (X 0.007974, Y -0.003834, Z 0.000000)
   B->A: 0.008922 (X 0.008046, Y -0.003854, Z 0.000000)
 Oscillator strength (a.u.): 0.001344
 Norm of one-particle transition density matrix:
   A->B: 0.918260;   B->A: 0.884552
   ||gamma^AB||*||gamma^BA||: 0.812249

 ------------------------------------------------------------------------------
 State A: ccsd: 0/A'
 State B: cvs_eomee_ccsd/rhfref/singlets: 1/A"
 Transition dipole moment (a.u.):
   A->B: 0.022315 (X 0.000000, Y 0.000000, Z 0.022315)
   B->A: 0.023763 (X 0.000000, Y 0.000000, Z 0.023763)
 Oscillator strength (a.u.): 0.008974
 Norm of one-particle transition density matrix:
   A->B: 0.892079;   B->A: 0.885147
   ||gamma^AB||*||gamma^BA||: 0.789621

 ------------------------------------------------------------------------------
 State A: ccsd: 0/A'
 State B: cvs_eomee_ccsd/rhfref/singlets: 2/A"
 Transition dipole moment (a.u.):
   A->B: 0.006972 (X 0.000000, Y 0.000000, Z -0.006972)
   B->A: 0.007098 (X 0.000000, Y 0.000000, Z -0.007098)
 Oscillator strength (a.u.): 0.000840
 Norm of one-particle transition density matrix:
   A->B: 0.918279;   B->A: 0.885050
   ||gamma^AB||*||gamma^BA||: 0.812723

 ------------------------------------------------------------------------------
 State A: ccsd: 0/A'
 State B: cvs_eomee_ccsd/rhfref/singlets: 3/A"
 Transition dipole moment (a.u.):
   A->B: 0.006032 (X 0.000000, Y 0.000000, Z 0.006032)
   B->A: 0.006212 (X 0.000000, Y 0.000000, Z 0.006212)
 Oscillator strength (a.u.): 0.000636
 Norm of one-particle transition density matrix:
   A->B: 0.917883;   B->A: 0.883725
   ||gamma^AB||*||gamma^BA||: 0.811156

 ------------------------------------------------------------------------------
 State A: ccsd: 0/A'
 State B: cvs_eomee_ccsd/rhfref/singlets: 4/A"
 Transition dipole moment (a.u.):
   A->B: 0.001391 (X 0.000000, Y 0.000000, Z -0.001391)
   B->A: 0.001362 (X 0.000000, Y 0.000000, Z -0.001362)
 Oscillator strength (a.u.): 0.000032
 Norm of one-particle transition density matrix:
   A->B: 0.917158;   B->A: 0.883318
   ||gamma^AB||*||gamma^BA||: 0.810142

 ------------------------------------------------------------------------------
 State A: ccsd: 0/A'
 State B: cvs_eomee_ccsd/rhfref/singlets: 5/A"
 Transition dipole moment (a.u.):
   A->B: 0.004044 (X 0.000000, Y 0.000000, Z 0.004044)
   B->A: 0.004107 (X 0.000000, Y 0.000000, Z 0.004107)
 Oscillator strength (a.u.): 0.000282
 Norm of one-particle transition density matrix:
   A->B: 0.918269;   B->A: 0.884040
   ||gamma^AB||*||gamma^BA||: 0.811787

 ------------------------------------------------------------------------------
 State A: ccsd: 0/A'
 State B: cvs_eomee_ccsd/rhfref/singlets: 6/A"
 Transition dipole moment (a.u.):
   A->B: 0.004217 (X 0.000000, Y 0.000000, Z 0.004217)
   B->A: 0.004339 (X 0.000000, Y 0.000000, Z 0.004339)
 Oscillator strength (a.u.): 0.000311
 Norm of one-particle transition density matrix:
   A->B: 0.918067;   B->A: 0.883690
   ||gamma^AB||*||gamma^BA||: 0.811287

 ------------------------------------------------------------------------------
 State A: ccsd: 0/A'
 State B: cvs_eomee_ccsd/rhfref/singlets: 7/A"
 Transition dipole moment (a.u.):
   A->B: 0.000307 (X 0.000000, Y 0.000000, Z 0.000307)
   B->A: 0.000273 (X 0.000000, Y 0.000000, Z 0.000273)
 Oscillator strength (a.u.): 0.000001
 Norm of one-particle transition density matrix:
   A->B: 0.917897;   B->A: 0.883532
   ||gamma^AB||*||gamma^BA||: 0.810992

 ------------------------------------------------------------------------------
 State A: ccsd: 0/A'
 State B: cvs_eomee_ccsd/rhfref/singlets: 8/A"
 Transition dipole moment (a.u.):
   A->B: 0.002763 (X 0.000000, Y 0.000000, Z -0.002763)
   B->A: 0.002798 (X 0.000000, Y 0.000000, Z -0.002798)
 Oscillator strength (a.u.): 0.000131
 Norm of one-particle transition density matrix:
   A->B: 0.918229;   B->A: 0.883769
   ||gamma^AB||*||gamma^BA||: 0.811503

 ------------------------------------------------------------------------------
 State A: ccsd: 0/A'
 State B: cvs_eomee_ccsd/rhfref/singlets: 9/A"
 Transition dipole moment (a.u.):
   A->B: 0.004189 (X 0.000000, Y 0.000000, Z 0.004189)
   B->A: 0.004309 (X 0.000000, Y 0.000000, Z 0.004309)
 Oscillator strength (a.u.): 0.000307
 Norm of one-particle transition density matrix:
   A->B: 0.918100;   B->A: 0.883731
   ||gamma^AB||*||gamma^BA||: 0.811354

 ------------------------------------------------------------------------------
 State A: ccsd: 0/A'
 State B: cvs_eomee_ccsd/rhfref/singlets: 10/A"
 Transition dipole moment (a.u.):
   A->B: 0.000542 (X 0.000000, Y 0.000000, Z -0.000542)
   B->A: 0.000601 (X 0.000000, Y 0.000000, Z -0.000601)
 Oscillator strength (a.u.): 0.000006
 Norm of one-particle transition density matrix:
   A->B: 0.918012;   B->A: 0.883658
   ||gamma^AB||*||gamma^BA||: 0.811208

 ------------------------------------------------------------------------------
 State A: ccsd: 0/A'
 State B: cvs_eomee_ccsd/rhfref/singlets: 11/A"
 Transition dipole moment (a.u.):
   A->B: 0.002346 (X 0.000000, Y 0.000000, Z 0.002346)
   B->A: 0.002352 (X 0.000000, Y 0.000000, Z 0.002352)
 Oscillator strength (a.u.): 0.000094
 Norm of one-particle transition density matrix:
   A->B: 0.918084;   B->A: 0.883648
   ||gamma^AB||*||gamma^BA||: 0.811263

 ------------------------------------------------------------------------------
 State A: ccsd: 0/A'
 State B: cvs_eomee_ccsd/rhfref/singlets: 12/A"
 Transition dipole moment (a.u.):
   A->B: 0.006570 (X 0.000000, Y 0.000000, Z 0.006570)
   B->A: 0.006747 (X 0.000000, Y 0.000000, Z 0.006747)
 Oscillator strength (a.u.): 0.000755
 Norm of one-particle transition density matrix:
   A->B: 0.918133;   B->A: 0.884023
   ||gamma^AB||*||gamma^BA||: 0.811651

 ------------------------------------------------------------------------------
 State A: ccsd: 0/A'
 State B: cvs_eomee_ccsd/rhfref/singlets: 13/A"
 Transition dipole moment (a.u.):
   A->B: 0.002086 (X 0.000000, Y 0.000000, Z 0.002086)
   B->A: 0.002202 (X 0.000000, Y 0.000000, Z 0.002202)
 Oscillator strength (a.u.): 0.000078
 Norm of one-particle transition density matrix:
   A->B: 0.917935;   B->A: 0.883920
   ||gamma^AB||*||gamma^BA||: 0.811381

 ------------------------------------------------------------------------------
 State A: ccsd: 0/A'
 State B: cvs_eomee_ccsd/rhfref/singlets: 14/A"
 Transition dipole moment (a.u.):
   A->B: 0.002549 (X 0.000000, Y 0.000000, Z -0.002549)
   B->A: 0.002523 (X 0.000000, Y 0.000000, Z -0.002523)
 Oscillator strength (a.u.): 0.000110
 Norm of one-particle transition density matrix:
   A->B: 0.917900;   B->A: 0.883646
   ||gamma^AB||*||gamma^BA||: 0.811099

 ------------------------------------------------------------------------------
 State A: ccsd: 0/A'
 State B: cvs_eomee_ccsd/rhfref/singlets: 15/A"
 Transition dipole moment (a.u.):
   A->B: 0.004717 (X 0.000000, Y 0.000000, Z -0.004717)
   B->A: 0.004779 (X 0.000000, Y 0.000000, Z -0.004779)
 Oscillator strength (a.u.): 0.000384
 Norm of one-particle transition density matrix:
   A->B: 0.917237;   B->A: 0.882823
   ||gamma^AB||*||gamma^BA||: 0.809758


 All requested transition properties have been computed

 Transition Properties:   CPU 606.59 s  wall 103.83 s

 Total ccman2 time:   CPU 84462.56 s  wall 11364.27 s

 
 --------------------------------------------------------------
             Orbital Energies (a.u.) and Symmetries
 --------------------------------------------------------------
 
 Alpha MOs, Restricted
 -- Occupied --                  
-26.310 -11.329 -11.237  -1.627  -1.052  -0.838  -0.739  -0.691
  1 A'    2 A'    3 A'    4 A'    5 A'    6 A'    7 A'    1 A"                 
 -0.684  -0.589  -0.560  -0.385
  8 A'    9 A'   10 A'    2 A"                                                 
 -- Virtual --                   
  0.001   0.003   0.004   0.004   0.005   0.008   0.008   0.008
 11 A'   12 A'   13 A'    3 A"   14 A'   15 A'   16 A'    4 A"                 
  0.008   0.008   0.011   0.011   0.012   0.014   0.021   0.021
 17 A'    5 A"   18 A'   19 A'    6 A"   20 A'   21 A'   22 A'                 
  0.021   0.021   0.021   0.025   0.026   0.027   0.029   0.043
  7 A"   23 A'    8 A"   24 A'   25 A'    9 A"   26 A'   27 A'                 
  0.044   0.044   0.045   0.045   0.051   0.053   0.054   0.059
 28 A'   10 A"   29 A'   11 A"   30 A'   31 A'   12 A"   32 A'                 
  0.082   0.083   0.083   0.086   0.088   0.089   0.099   0.100
 33 A'   13 A"   34 A'   35 A'   14 A"   36 A'   37 A'   38 A'                 
  0.105   0.107   0.115   0.132   0.134   0.146   0.156   0.162
 39 A'   15 A"   40 A'   16 A"   41 A'   17 A"   42 A'   43 A'                 
  0.163   0.172   0.194   0.202   0.213   0.218   0.228   0.234
 44 A'   18 A"   45 A'   46 A'   47 A'   19 A"   20 A"   48 A'                 
  0.265   0.286   0.292   0.295   0.316   0.323   0.331   0.339
 49 A'   50 A'   21 A"   51 A'   52 A'   53 A'   22 A"   54 A'                 
  0.359   0.368   0.371   0.384   0.402   0.406   0.423   0.437
 55 A'   56 A'   23 A"   57 A'   24 A"   58 A'   59 A'   25 A"                 
  0.450   0.454   0.459   0.476   0.492   0.501   0.522   0.541
 60 A'   26 A"   27 A"   61 A'   62 A'   63 A'   64 A'   65 A'                 
  0.570   0.611   0.628   0.640   0.642   0.667   0.737   0.739
 66 A'   28 A"   67 A'   68 A'   29 A"   69 A'   30 A"   70 A'                 
  0.798   0.834   0.860   0.869   0.892   0.900   0.936   0.939
 71 A'   72 A'   73 A'   74 A'   31 A"   75 A'   76 A'   32 A"                 
  0.962   0.972   0.984   0.984   0.991   0.995   1.016   1.030
 77 A'   33 A"   78 A'   79 A'   34 A"   35 A"   80 A'   81 A'                 
  1.054   1.067   1.079   1.084   1.098   1.107   1.125   1.134
 82 A'   36 A"   37 A"   83 A'   38 A"   84 A'   39 A"   85 A'                 
  1.156   1.179   1.190   1.271   1.305   1.313   1.327   1.367
 86 A'   40 A"   87 A'   88 A'   89 A'   90 A'   41 A"   91 A'                 
  1.377   1.438   1.444   1.467   1.521   1.561   1.578   1.605
 42 A"   43 A"   92 A'   93 A'   94 A'   44 A"   95 A'   45 A"                 
  1.616   1.654   1.720   1.742   1.750   1.759   1.770   1.796
 96 A'   46 A"   97 A'   98 A'   47 A"   99 A'  100 A'   48 A"                 
  1.860   1.886   1.916   1.924   2.000   2.030   2.039   2.059
101 A'  102 A'   49 A"  103 A'  104 A'   50 A"  105 A'  106 A'                 
  2.091   2.143   2.259   2.285   2.306   2.419   2.457   2.670
 51 A"  107 A'  108 A'   52 A"  109 A'  110 A'  111 A'  112 A'                 
  2.782   2.804   2.945   2.993   2.994   3.070   3.070   3.080
113 A'   53 A"   54 A"   55 A"  114 A'   56 A"  115 A'  116 A'                 
  3.103   3.169   3.206   3.219   3.259   3.283   3.329   3.365
117 A'  118 A'   57 A"  119 A'  120 A'   58 A"  121 A'   59 A"                 
  3.385   3.433   3.439   3.520   3.560   3.574   3.577   3.632
 60 A"  122 A'   61 A"   62 A"  123 A'   63 A"  124 A'  125 A'                 
  3.665   3.691   3.720   3.762   3.771   3.773   3.820   3.831
 64 A"  126 A'  127 A'   65 A"   66 A"  128 A'  129 A'  130 A'                 
  3.921   4.000   4.067   4.085   4.154   4.196   4.238   4.253
131 A'  132 A'   67 A"  133 A'  134 A'  135 A'  136 A'   68 A"                 
  4.319   4.361   4.417   4.461   4.524   4.584   4.651   4.703
 69 A"  137 A'  138 A'   70 A"  139 A'   71 A"  140 A'   72 A"                 
  4.797   4.800   4.877   4.921   4.962   4.995   5.021   5.126
141 A'  142 A'   73 A"  143 A'   74 A"   75 A"  144 A'   76 A"                 
  5.131   5.250   5.315   5.349   5.390   5.482   5.496   5.656
145 A'  146 A'  147 A'   77 A"  148 A'  149 A'   78 A"  150 A'                 
  5.656   5.710   5.855   6.123   6.305   6.572   6.698   6.896
 79 A"  151 A'  152 A'  153 A'  154 A'  155 A'  156 A'  157 A'                 
  7.322   8.915   8.944   9.171   9.207   9.332   9.375   9.406
158 A'   80 A"  159 A'   81 A"  160 A'   82 A"  161 A'   83 A"                 
  9.496   9.500   9.645   9.879   9.906  14.841  17.185  17.412
162 A'  163 A'   84 A"  164 A'  165 A'  166 A'  167 A'  168 A'                 
 
 Beta MOs, Restricted
 -- Occupied --                  
-26.310 -11.329 -11.237  -1.627  -1.052  -0.838  -0.739  -0.691
  1 A'    2 A'    3 A'    4 A'    5 A'    6 A'    7 A'    1 A"                 
 -0.684  -0.589  -0.560  -0.385
  8 A'    9 A'   10 A'    2 A"                                                 
 -- Virtual --                   
  0.001   0.003   0.004   0.004   0.005   0.008   0.008   0.008
 11 A'   12 A'   13 A'    3 A"   14 A'   15 A'   16 A'    4 A"                 
  0.008   0.008   0.011   0.011   0.012   0.014   0.021   0.021
 17 A'    5 A"   18 A'   19 A'    6 A"   20 A'   21 A'   22 A'                 
  0.021   0.021   0.021   0.025   0.026   0.027   0.029   0.043
  7 A"   23 A'    8 A"   24 A'   25 A'    9 A"   26 A'   27 A'                 
  0.044   0.044   0.045   0.045   0.051   0.053   0.054   0.059
 28 A'   10 A"   29 A'   11 A"   30 A'   31 A'   12 A"   32 A'                 
  0.082   0.083   0.083   0.086   0.088   0.089   0.099   0.100
 33 A'   13 A"   34 A'   35 A'   14 A"   36 A'   37 A'   38 A'                 
  0.105   0.107   0.115   0.132   0.134   0.146   0.156   0.162
 39 A'   15 A"   40 A'   16 A"   41 A'   17 A"   42 A'   43 A'                 
  0.163   0.172   0.194   0.202   0.213   0.218   0.228   0.234
 44 A'   18 A"   45 A'   46 A'   47 A'   19 A"   20 A"   48 A'                 
  0.265   0.286   0.292   0.295   0.316   0.323   0.331   0.339
 49 A'   50 A'   21 A"   51 A'   52 A'   53 A'   22 A"   54 A'                 
  0.359   0.368   0.371   0.384   0.402   0.406   0.423   0.437
 55 A'   56 A'   23 A"   57 A'   24 A"   58 A'   59 A'   25 A"                 
  0.450   0.454   0.459   0.476   0.492   0.501   0.522   0.541
 60 A'   26 A"   27 A"   61 A'   62 A'   63 A'   64 A'   65 A'                 
  0.570   0.611   0.628   0.640   0.642   0.667   0.737   0.739
 66 A'   28 A"   67 A'   68 A'   29 A"   69 A'   30 A"   70 A'                 
  0.798   0.834   0.860   0.869   0.892   0.900   0.936   0.939
 71 A'   72 A'   73 A'   74 A'   31 A"   75 A'   76 A'   32 A"                 
  0.962   0.972   0.984   0.984   0.991   0.995   1.016   1.030
 77 A'   33 A"   78 A'   79 A'   34 A"   35 A"   80 A'   81 A'                 
  1.054   1.067   1.079   1.084   1.098   1.107   1.125   1.134
 82 A'   36 A"   37 A"   83 A'   38 A"   84 A'   39 A"   85 A'                 
  1.156   1.179   1.190   1.271   1.305   1.313   1.327   1.367
 86 A'   40 A"   87 A'   88 A'   89 A'   90 A'   41 A"   91 A'                 
  1.377   1.438   1.444   1.467   1.521   1.561   1.578   1.605
 42 A"   43 A"   92 A'   93 A'   94 A'   44 A"   95 A'   45 A"                 
  1.616   1.654   1.720   1.742   1.750   1.759   1.770   1.796
 96 A'   46 A"   97 A'   98 A'   47 A"   99 A'  100 A'   48 A"                 
  1.860   1.886   1.916   1.924   2.000   2.030   2.039   2.059
101 A'  102 A'   49 A"  103 A'  104 A'   50 A"  105 A'  106 A'                 
  2.091   2.143   2.259   2.285   2.306   2.419   2.457   2.670
 51 A"  107 A'  108 A'   52 A"  109 A'  110 A'  111 A'  112 A'                 
  2.782   2.804   2.945   2.993   2.994   3.070   3.070   3.080
113 A'   53 A"   54 A"   55 A"  114 A'   56 A"  115 A'  116 A'                 
  3.103   3.169   3.206   3.219   3.259   3.283   3.329   3.365
117 A'  118 A'   57 A"  119 A'  120 A'   58 A"  121 A'   59 A"                 
  3.385   3.433   3.439   3.520   3.560   3.574   3.577   3.632
 60 A"  122 A'   61 A"   62 A"  123 A'   63 A"  124 A'  125 A'                 
  3.665   3.691   3.720   3.762   3.771   3.773   3.820   3.831
 64 A"  126 A'  127 A'   65 A"   66 A"  128 A'  129 A'  130 A'                 
  3.921   4.000   4.067   4.085   4.154   4.196   4.238   4.253
131 A'  132 A'   67 A"  133 A'  134 A'  135 A'  136 A'   68 A"                 
  4.319   4.361   4.417   4.461   4.524   4.584   4.651   4.703
 69 A"  137 A'  138 A'   70 A"  139 A'   71 A"  140 A'   72 A"                 
  4.797   4.800   4.877   4.921   4.962   4.995   5.021   5.126
141 A'  142 A'   73 A"  143 A'   74 A"   75 A"  144 A'   76 A"                 
  5.131   5.250   5.315   5.349   5.390   5.482   5.496   5.656
145 A'  146 A'  147 A'   77 A"  148 A'  149 A'   78 A"  150 A'                 
  5.656   5.710   5.855   6.123   6.305   6.572   6.698   6.896
 79 A"  151 A'  152 A'  153 A'  154 A'  155 A'  156 A'  157 A'                 
  7.322   8.915   8.944   9.171   9.207   9.332   9.375   9.406
158 A'   80 A"  159 A'   81 A"  160 A'   82 A"  161 A'   83 A"                 
  9.496   9.500   9.645   9.879   9.906  14.841  17.185  17.412
162 A'  163 A'   84 A"  164 A'  165 A'  166 A'  167 A'  168 A'                 
 --------------------------------------------------------------
 
          Ground-State Mulliken Net Atomic Charges

     Atom                 Charge (a.u.)
  ----------------------------------------
      1 C                    -1.107700
      2 GH                   -0.009086
      3 F                    -0.392721
      4 C                    -0.166657
      5 H                     0.726950
      6 H                     0.486294
      7 H                     0.462919
  ----------------------------------------
  Sum of atomic charges =    -0.000000

 -----------------------------------------------------------------
                    Cartesian Multipole Moments
 -----------------------------------------------------------------
    Charge (ESU x 10^10)
                 0.0000
    Dipole Moment (Debye)
         X       1.3472      Y      -0.8369      Z      -0.0000
       Tot       1.5860
    Quadrupole Moments (Debye-Ang)
        XX     -17.8343     XY       0.9536     YY     -15.3422
        XZ      -0.0000     YZ      -0.0000     ZZ     -19.3731
    Octopole Moments (Debye-Ang^2)
       XXX      -3.8610    XXY      -0.1823    XYY      -2.3110
       YYY       0.5516    XXZ       0.0000    XYZ      -0.0000
       YYZ       0.0000    XZZ      -5.0417    YZZ       0.7814
       ZZZ       0.0000
    Hexadecapole Moments (Debye-Ang^3)
      XXXX    -118.5629   XXXY      -3.8575   XXYY     -26.1372
      XYYY       0.6071   YYYY     -34.8310   XXXZ      -0.0000
      XXYZ      -0.0000   XYYZ      -0.0000   YYYZ      -0.0000
      XXZZ     -26.2558   XYZZ      -0.3605   YYZZ     -11.0302
      XZZZ       0.0000   YZZZ      -0.0000   ZZZZ     -21.5774
 -----------------------------------------------------------------
Archival summary:
1\1\n-62-29-19\SP\ProcedureUnspecified\BasisUnspecified\123h1\malop\ThuAug1602:16:582018ThuAug1602:16:582018\0\\#,ProcedureUnspecified,BasisUnspecified,\\0,1\C\Gh,1,0.435868\H,1,1.08083,2,170.664\F,2,1.17461,1,103.178,3,0,0\C,2,1.19615,1,97.4666,3,-180,0\H,5,1.07898,2,137.975,1,-0,0\H,5,1.08006,2,102.344,1,180,0\\HF=-176.956329\\@

 Total job time:  11455.82s(wall), 85149.77s(cpu) 
 Thu Aug 16 02:16:58 2018

        *************************************************************
        *                                                           *
        *  Thank you very much for using Q-Chem.  Have a nice day.  *
        *                                                           *
        *************************************************************


