n-62-29-14 10.66.29
Q-Chem Developer Version! Running on 10.66.29.*
                  Welcome to Q-Chem
     A Quantum Leap Into The Future Of Chemistry


 Q-Chem 5.1, Q-Chem, Inc., Pleasanton, CA (2018)

 Yihan Shao,  Zhengting Gan,  E. Epifanovsky,  A. T. B. Gilbert,  M. Wormit,  
 J. Kussmann,  A. W. Lange,  A. Behn,  Jia Deng,  Xintian Feng,  D. Ghosh,  
 M. Goldey,  P. R. Horn,  L. D. Jacobson,  I. Kaliman,  T. Kus,  A. Landau,  
 Jie Liu,  E. I. Proynov,  R. M. Richard,  R. P. Steele,  E. J. Sundstrom,  
 H. L. Woodcock III,  P. M. Zimmerman,  D. Zuev,  B. Albrecht,  E. Alguire,  
 S. A. Baeppler,  D. Barton,  Z. Benda,  Y. A. Bernard,  E. J. Berquist,  
 K. B. Bravaya,  H. Burton,  D. Casanova,  Chun-Min Chang,  Yunqing Chen,  
 A. Chien,  K. D. Closser,  M. P. Coons,  S. Coriani,  S. Dasgupta,  
 A. L. Dempwolff,  M. Diedenhofen,  Hainam Do,  R. G. Edgar,  Po-Tung Fang,  
 S. Faraji,  S. Fatehi,  Qingguo Feng,  K. D. Fenk,  J. Fosso-Tande,  
 Qinghui Ge,  A. Ghysels,  G. Gidofalvi,  J. Gomes,  J. Gonthier,  A. Gunina,  
 M. W. D. Hanson-Heine,  P. H. P. Harbach,  A. W. Hauser,  J. E. Herr,  
 E. G. Hohenstein,  Z. C. Holden,  Kerwin Hui,  T.-C. Jagau,  Hyunjun Ji,  
 B. Kaduk,  K. Khistyaev,  Jaehoon Kim,  P. Klunzinger,  K. Koh,  
 D. Kosenkov,  L. Koulias,  T. Kowalczyk,  C. M. Krauter,  A. Kunitsa,  
 Ka Un Lao,  A. Laurent,  K. V. Lawler,  Joonho Lee,  D. Lefrancois,  
 S. Lehtola,  D. S. Levine,  Yi-Pei Li,  You-Sheng Lin,  Fenglai Liu,  
 E. Livshits,  A. Luenser,  P. Manohar,  E. Mansoor,  S. F. Manzer,  
 Shan-Ping Mao,  Yuezhi Mao,  N. Mardirossian,  A. V. Marenich,  
 T. Markovich,  L. A. Martinez-Martinez,  S. A. Maurer,  N. J. Mayhall,  
 S. C. McKenzie,  J.-M. Mewes,  A. F. Morrison,  J. W. Mullinax,  K. Nanda,  
 T. S. Nguyen-Beck,  R. Olivares-Amaya,  J. A. Parkhill,  T. M. Perrine,  
 F. Plasser,  P. Pokhilko,  S. Prager,  A. Prociuk,  E. Ramos,  D. R. Rehn,  
 F. Rob,  M. Schneider,  N. Sergueev,  S. M. Sharada,  S. Sharma,  
 D. W. Small,  T. Stauch,  T. Stein,  Yu-Chuan Su,  A. J. W. Thom,  
 A. Tkatchenko,  T. Tsuchimochi,  N. M. Tubman,  L. Vogt,  M. L. Vidal,  
 O. Vydrov,  M. A. Watson,  J. Wenzel,  M. de Wergifosse,  T. A. Wesolowski,  
 A. White,  J. Witte,  A. Yamada,  Jun Yang,  K. Yao,  S. Yeganeh,  
 S. R. Yost,  Zhi-Qiang You,  A. Zech,  Igor Ying Zhang,  Xing Zhang,  
 Yan Zhao,  Ying Zhu,  B. R. Brooks,  G. K. L. Chan,  C. J. Cramer,  
 M. S. Gordon,  W. J. Hehre,  A. Klamt,  M. W. Schmidt,  C. D. Sherrill,  
 D. G. Truhlar,  A. Aspuru-Guzik,  R. Baer,  A. T. Bell,  N. A. Besley,  
 Jeng-Da Chai,  R. A. DiStasio Jr.,  A. Dreuw,  B. D. Dunietz,  
 T. R. Furlani,  Chao-Ping Hsu,  Yousung Jung,  Jing Kong,  D. S. Lambrecht,  
 WanZhen Liang,  C. Ochsenfeld,  V. A. Rassolov,  L. V. Slipchenko,  
 J. E. Subotnik,  T. Van Voorhis,  J. M. Herbert,  A. I. Krylov,  
 P. M. W. Gill,  M. Head-Gordon

 Contributors to earlier versions of Q-Chem not listed above: 
 R. D. Adamson,  B. Austin,  J. Baker,  G. J. O. Beran,  K. Brandhorst,  
 S. T. Brown,  E. F. C. Byrd,  A. K. Chakraborty,  C.-L. Cheng,  
 Siu Hung Chien,  D. M. Chipman,  D. L. Crittenden,  H. Dachsel,  
 R. J. Doerksen,  A. D. Dutoi,  L. Fusti-Molnar,  W. A. Goddard III,  
 A. Golubeva-Zadorozhnaya,  S. R. Gwaltney,  G. Hawkins,  A. Heyden,  
 S. Hirata,  G. Kedziora,  F. J. Keil,  C. Kelley,  Jihan Kim,  R. A. King,  
 R. Z. Khaliullin,  P. P. Korambath,  W. Kurlancheek,  A. M. Lee,  M. S. Lee,  
 S. V. Levchenko,  Ching Yeh Lin,  D. Liotard,  R. C. Lochan,  I. Lotan,  
 P. E. Maslen,  N. Nair,  D. P. O'Neill,  D. Neuhauser,  E. Neuscamman,  
 C. M. Oana,  R. Olson,  B. Peters,  R. Peverati,  P. A. Pieniazek,  
 Y. M. Rhee,  J. Ritchie,  M. A. Rohrdanz,  E. Rosta,  N. J. Russ,  
 H. F. Schaefer III,  N. E. Schultz,  N. Shenvi,  A. C. Simmonett,  A. Sodt,  
 D. Stuck,  K. S. Thanthiriwatte,  V. Vanovschi,  Tao Wang,  A. Warshel,  
 C. F. Williams,  Q. Wu,  X. Xu,  W. Zhang

 Please cite Q-Chem as follows:
 Y. Shao et al., Mol. Phys. 113, 184-215 (2015)
 DOI: 10.1080/00268976.2014.952696

 Q-Chem 5.1.0 for Intel X86 EM64T Linux

 Parts of Q-Chem use Armadillo 8.300.2 (Tropical Shenanigans).
 http://arma.sourceforge.net/

 Q-Chem begins on Tue Aug 14 10:38:37 2018  

Host: 
0

     Scratch files written to /work1/malop/qc_7113083.hnode2//

Checking the input file for inconsistencies... 	...done.

--------------------------------------------------------------
User input:
--------------------------------------------------------------
$comment 
NEXAFS VINYLFLUORIDE / aug-cc-pVTZ
Optimized geometry with CFour
$end

$molecule
0 1
F      -1.1529023119     0.2247766372     0.0000000000
C1      1.1793501171     0.1997294858     0.0000000000
C2      0.0163188564    -0.4355681094     0.0000000000
H      -0.1189530186    -1.5078996853     0.0000000000
H       1.2308254859     1.2785611362     0.0000000000
H       2.0902344982    -0.3786194440     0.0000000000
$end

$rem
!    input_bohr = true
    jobtype = sp
    method = eom-ccsd
    cvs_ee_singlets    [15,10]
    basis = aug-cc-pVTZ
    n_frozen_core = 1
    cc_trans_prop = true
   EOM_DAVIDSON_MAXVECTORS = 1000
   eom_preconv_singles = true
   eom_shift = 25400
   eom_davidson_convergence = 4   !as we discussed, this is good for core
   use_libqints = 1   !use new int library (will be def in trunk)
   thresh = 14   !this already should be default, but just in case
   scf_convergence = 12   !v. tight scf convergence, to reduce noise
   cc_convergence = 12   !tight CC, for the same reason
   basis_lin_dep_thresh = 8  !default is 6, use smaller, just in case
   cc_memory = 100000
   EOM_DAVIDSON_MAX_ITER 200
$end
--------------------------------------------------------------
 ----------------------------------------------------------------
             Standard Nuclear Orientation (Angstroms)
    I     Atom           X                Y                Z
 ----------------------------------------------------------------
    1      F       1.1529023119     0.2247766372    -0.0000000000
    2      C      -1.1793501171     0.1997294858    -0.0000000000
    3      C      -0.0163188564    -0.4355681094     0.0000000000
    4      H       0.1189530185    -1.5078996853     0.0000000000
    5      H      -1.2308254859     1.2785611362    -0.0000000000
    6      H      -2.0902344982    -0.3786194440     0.0000000000
 ----------------------------------------------------------------
 Molecular Point Group                 Cs    NOp =  2
 Largest Abelian Subgroup              Cs    NOp =  2
 Nuclear Repulsion Energy =    67.5482146698 hartrees
 There are       12 alpha and       12 beta electrons
 Requested basis set is aug-cc-pVTZ
 There are 69 shells and 207 basis functions
MEM_TOTAL is adjusted to CC_MEMORY + MEM_STATIC!
 Total memory of 100192MB is distributed as follows: 
   QALLOC including MEM_STATIC uses 192MB
   MEM_STATIC is set to 192MB
   CCMAN JOB total memory use is  100000MB
 Warning: actual memory use might exceed 100192MB

 Total QAlloc Memory Limit    192 MB
 Mega-Array Size       188 MB
 MEM_STATIC part       192 MB

                       Distance Matrix (Angstroms)
             F (  1)   C (  2)   C (  3)   H (  4)   H (  5)
   C (  2)  2.332387
   C (  3)  1.342808  1.325234
   H (  4)  2.017726  2.145131  1.080830
   H (  5)  2.606266  1.080059  2.100777  3.096170
   H (  6)  3.298791  1.078980  2.074697  2.481085  1.866770
 
 A cutoff of  1.0D-14 yielded   2412 shell pairs
 There are     21840 function pairs (     29448 Cartesian)
 
 -------------------------------------------------------
 OpenMP Integral Computing Module                       
 Release: version 1.0, May 2013, Q-Chem Inc. Pittsburgh 
 -------------------------------------------------------
 Integral Job Info:
 Integral job number is                      11
 Integral operator is                         1
 short-range coefficients                     0
 long-range coefficients              100000000
 Omega coefficients                           0
 if combine SR and LR in K                    0
 Integral screening is                        0
 Integral computing path is                   2
 max size of driver memory is            800000
 size of driver memory is                776718
 size of scratch memory is              6691272
 max col of scratch BK array              10000
 max len of scratch array in speh3          662
 max len of scratch index in speh4           32
 max int batch size is                      520
 min int batch size is                       52
 fixed nKL is                                52
 max L of basis functions is                  3
 order of int derivative is                   0
 number of shells is                         69
 number of basis is                         240
 number of cartesian basis is               240
 number of contracted shell pairs          2412
 number of primitive shell pairs           6814
 maxK2 (contraction) of shell pair           64
 max number of K2 of shell pair               1
 max number of CS2 of shell pair            328
 max number of PS2 of shell pair            856
 mem total for path MDJ                  606216
 -------------------------------------------------------
 Smallest overlap matrix eigenvalue = 1.62E-05

 Scale SEOQF with 1.000000e-01/1.000000e-01/1.000000e-01

 Standard Electronic Orientation quadrupole field applied
 Nucleus-field energy     =     0.0000000014 hartrees
 Guess from superposition of atomic densities
 Warning:  Energy on first SCF cycle will be non-variational
 SAD guess density has 24.000000 electrons

 -----------------------------------------------------------------------
  General SCF calculation program by
  Eric Jon Sundstrom, Paul Horn, Yuezhi Mao, Dmitri Zuev, Alec White,
  David Stuck, Shaama M.S., Shane Yost, Joonho Lee, David Small,
  Daniel Levine, Susi Lehtola, Hugh Burton, Evgeny Epifanovsky
 -----------------------------------------------------------------------
 Hartree-Fock
 A restricted SCF calculation will be
 performed using DIIS
 SCF converges when DIIS error is below 1.0e-12
 ---------------------------------------
  Cycle       Energy         DIIS error
 ---------------------------------------
    1    -177.5089400803      2.74e-02  
    2    -176.9084698894      2.96e-03  
    3    -176.9468466572      1.53e-03  
    4    -176.9554760164      3.26e-04  
    5    -176.9562561563      6.71e-05  
    6    -176.9563013496      2.96e-05  
    7    -176.9563087842      9.92e-06  
    8    -176.9563105362      3.37e-06  
    9    -176.9563107025      6.20e-07  
   10    -176.9563107076      2.02e-07  
   11    -176.9563107082      6.34e-08  
   12    -176.9563107082      1.35e-08  
   13    -176.9563107082      2.05e-09  
   14    -176.9563107082      3.11e-10  
   15    -176.9563107082      5.78e-11  
   16    -176.9563107082      1.11e-11  
   17    -176.9563107082      2.03e-12  
   18    -176.9563107082      5.56e-13  Convergence criterion met
 ---------------------------------------
 SCF time:   CPU 249.13s  wall 25.00s 
 SCF   energy in the final basis set =     -176.9563107082


 ------------------------------------------------------------------------------

   CCMAN2: suite of methods based on coupled cluster
           and equation of motion theories.

   Components:
   * libvmm-1.3-trunk
     by Evgeny Epifanovsky, Ilya Kaliman.
   * libtensor-2.5-trunk
     by Evgeny Epifanovsky, Michael Wormit, Dmitry Zuev, Sam Manzer, 
        Ilya Kaliman.
   * libcc-2.5-trunk
     by Evgeny Epifanovsky, Arik Landau, Tomasz Kus, Kirill Khistyaev, 
        Dmitry Zuev, Prashant Manohar, Xintian Feng, Anna Krylov, 
        Matthew Goldey, Alec White, Thomas Jagau, Kaushik Nanda, 
        Anastasia Gunina, Alexander Kunitsa, Joonho Lee.

   CCMAN original authors:
   Anna I. Krylov, C. David Sherrill, Steven R. Gwaltney,
   Edward F. C. Byrd (2000)
   Sergey V. Levchenko, Lyudmila V. Slipchenko, Tao Wang,
   Ana-Maria C. Cristian (2003)
   Piotr A. Pieniazek, C. Melania Oana, Evgeny Epifanovsky (2007)
   Prashant Manohar (2009)

 ------------------------------------------------------------------------------


 Calculation will run on 10 cores with 100000MB of RAM.

 
 Alpha MOs, Restricted
 -- Occupied --                  
-26.311 -11.329 -11.237  -1.627  -1.052  -0.838  -0.739  -0.691
  1 A'    2 A'    3 A'    4 A'    5 A'    6 A'    7 A'    1 A"                 
 -0.684  -0.589  -0.560  -0.385
  8 A'    9 A'   10 A'    2 A"                                                 
 -- Virtual --                   
  0.030   0.039   0.046   0.090   0.090   0.095   0.103   0.128
 11 A'   12 A'   13 A'    3 A"   14 A'    4 A"   15 A'   16 A'                 
  0.139   0.154   0.170   0.182   0.193   0.230   0.233   0.251
 17 A'   18 A'    5 A"   19 A'   20 A'    6 A"   21 A'   22 A'                 
  0.267   0.276   0.293   0.299   0.300   0.333   0.360   0.371
 23 A'    7 A"   24 A'    8 A"   25 A'   26 A'   27 A'    9 A"                 
  0.379   0.385   0.396   0.398   0.410   0.428   0.441   0.448
 28 A'   29 A'   10 A"   30 A'   31 A'   32 A'   11 A"   12 A"                 
  0.463   0.484   0.492   0.518   0.569   0.580   0.610   0.619
 33 A'   34 A'   35 A'   36 A'   13 A"   37 A'   14 A"   38 A'                 
  0.638   0.719   0.733   0.758   0.807   0.836   0.850   0.858
 39 A'   40 A'   15 A"   41 A'   42 A'   43 A'   16 A"   44 A'                 
  0.893   0.896   0.902   0.916   0.930   0.943   0.952   0.955
 45 A'   46 A'   17 A"   47 A'   48 A'   18 A"   49 A'   19 A"                 
  0.979   0.986   0.996   1.027   1.055   1.057   1.076   1.086
 20 A"   50 A'   51 A'   52 A'   53 A'   21 A"   22 A"   54 A'                 
  1.095   1.118   1.119   1.132   1.145   1.179   1.227   1.270
 23 A"   55 A'   24 A"   56 A'   25 A"   57 A'   58 A'   59 A'                 
  1.295   1.314   1.322   1.374   1.435   1.437   1.464   1.508
 60 A'   26 A"   61 A'   27 A"   28 A"   62 A'   63 A'   64 A'                 
  1.547   1.560   1.596   1.600   1.627   1.686   1.726   1.733
 29 A"   65 A'   66 A'   30 A"   31 A"   67 A'   68 A'   69 A'                 
  1.742   1.760   1.790   1.838   1.855   1.903   1.914   1.972
 32 A"   70 A'   33 A"   71 A'   72 A'   73 A'   34 A"   74 A'                 
  2.015   2.020   2.049   2.084   2.121   2.242   2.280   2.282
 35 A"   75 A'   76 A'   36 A"   77 A'   78 A'   37 A"   79 A'                 
  2.413   2.441   2.654   2.766   2.776   2.939   2.980   2.986
 80 A'   81 A'   82 A'   83 A'   38 A"   39 A"   40 A"   84 A'                 
  3.057   3.061   3.077   3.097   3.161   3.197   3.213   3.244
 41 A"   85 A'   86 A'   87 A'   88 A'   42 A"   89 A'   90 A'                 
  3.273   3.315   3.359   3.377   3.426   3.435   3.516   3.528
 43 A"   91 A'   44 A"   45 A"   92 A'   46 A"   47 A"   93 A'                 
  3.546   3.571   3.616   3.657   3.660   3.711   3.748   3.749
 94 A'   48 A"   95 A'   49 A"   96 A'   97 A'   50 A"   98 A'                 
  3.767   3.808   3.825   3.915   3.990   4.066   4.067   4.146
 51 A"   99 A'  100 A'  101 A'  102 A'   52 A"  103 A'  104 A'                 
  4.187   4.234   4.252   4.316   4.344   4.404   4.460   4.516
105 A'  106 A'   53 A"   54 A"  107 A'  108 A'   55 A"  109 A'                 
  4.581   4.639   4.690   4.787   4.787   4.873   4.909   4.961
 56 A"  110 A'   57 A"  111 A'  112 A'   58 A"  113 A'   59 A"                 
  4.992   5.012   5.121   5.123   5.242   5.296   5.344   5.380
 60 A"  114 A'  115 A'   61 A"  116 A'  117 A'   62 A"  118 A'                 
  5.478   5.494   5.636   5.641   5.703   5.852   6.116   6.292
119 A'   63 A"  120 A'   64 A"  121 A'  122 A'  123 A'  124 A'                 
  6.565   6.693   6.893   7.311   8.914   8.941   9.170   9.201
125 A'  126 A'  127 A'  128 A'   65 A"  129 A'   66 A"  130 A'                 
  9.323   9.372   9.403   9.485   9.495   9.634   9.871   9.890
 67 A"  131 A'   68 A"  132 A'  133 A'   69 A"  134 A'  135 A'                 
 14.746  17.068  17.328
136 A'  137 A'  138 A'                                                         
 
 Beta MOs, Restricted
 -- Occupied --                  
-26.311 -11.329 -11.237  -1.627  -1.052  -0.838  -0.739  -0.691
  1 A'    2 A'    3 A'    4 A'    5 A'    6 A'    7 A'    1 A"                 
 -0.684  -0.589  -0.560  -0.385
  8 A'    9 A'   10 A'    2 A"                                                 
 -- Virtual --                   
  0.030   0.039   0.046   0.090   0.090   0.095   0.103   0.128
 11 A'   12 A'   13 A'    3 A"   14 A'    4 A"   15 A'   16 A'                 
  0.139   0.154   0.170   0.182   0.193   0.230   0.233   0.251
 17 A'   18 A'    5 A"   19 A'   20 A'    6 A"   21 A'   22 A'                 
  0.267   0.276   0.293   0.299   0.300   0.333   0.360   0.371
 23 A'    7 A"   24 A'    8 A"   25 A'   26 A'   27 A'    9 A"                 
  0.379   0.385   0.396   0.398   0.410   0.428   0.441   0.448
 28 A'   29 A'   10 A"   30 A'   31 A'   32 A'   11 A"   12 A"                 
  0.463   0.484   0.492   0.518   0.569   0.580   0.610   0.619
 33 A'   34 A'   35 A'   36 A'   13 A"   37 A'   14 A"   38 A'                 
  0.638   0.719   0.733   0.758   0.807   0.836   0.850   0.858
 39 A'   40 A'   15 A"   41 A'   42 A'   43 A'   16 A"   44 A'                 
  0.893   0.896   0.902   0.916   0.930   0.943   0.952   0.955
 45 A'   46 A'   17 A"   47 A'   48 A'   18 A"   49 A'   19 A"                 
  0.979   0.986   0.996   1.027   1.055   1.057   1.076   1.086
 20 A"   50 A'   51 A'   52 A'   53 A'   21 A"   22 A"   54 A'                 
  1.095   1.118   1.119   1.132   1.145   1.179   1.227   1.270
 23 A"   55 A'   24 A"   56 A'   25 A"   57 A'   58 A'   59 A'                 
  1.295   1.314   1.322   1.374   1.435   1.437   1.464   1.508
 60 A'   26 A"   61 A'   27 A"   28 A"   62 A'   63 A'   64 A'                 
  1.547   1.560   1.596   1.600   1.627   1.686   1.726   1.733
 29 A"   65 A'   66 A'   30 A"   31 A"   67 A'   68 A'   69 A'                 
  1.742   1.760   1.790   1.838   1.855   1.903   1.914   1.972
 32 A"   70 A'   33 A"   71 A'   72 A'   73 A'   34 A"   74 A'                 
  2.015   2.020   2.049   2.084   2.121   2.242   2.280   2.282
 35 A"   75 A'   76 A'   36 A"   77 A'   78 A'   37 A"   79 A'                 
  2.413   2.441   2.654   2.766   2.776   2.939   2.980   2.986
 80 A'   81 A'   82 A'   83 A'   38 A"   39 A"   40 A"   84 A'                 
  3.057   3.061   3.077   3.097   3.161   3.197   3.213   3.244
 41 A"   85 A'   86 A'   87 A'   88 A'   42 A"   89 A'   90 A'                 
  3.273   3.315   3.359   3.377   3.426   3.435   3.516   3.528
 43 A"   91 A'   44 A"   45 A"   92 A'   46 A"   47 A"   93 A'                 
  3.546   3.571   3.616   3.657   3.660   3.711   3.748   3.749
 94 A'   48 A"   95 A'   49 A"   96 A'   97 A'   50 A"   98 A'                 
  3.767   3.808   3.825   3.915   3.990   4.066   4.067   4.146
 51 A"   99 A'  100 A'  101 A'  102 A'   52 A"  103 A'  104 A'                 
  4.187   4.234   4.252   4.316   4.344   4.404   4.460   4.516
105 A'  106 A'   53 A"   54 A"  107 A'  108 A'   55 A"  109 A'                 
  4.581   4.639   4.690   4.787   4.787   4.873   4.909   4.961
 56 A"  110 A'   57 A"  111 A'  112 A'   58 A"  113 A'   59 A"                 
  4.992   5.012   5.121   5.123   5.242   5.296   5.344   5.380
 60 A"  114 A'  115 A'   61 A"  116 A'  117 A'   62 A"  118 A'                 
  5.478   5.494   5.636   5.641   5.703   5.852   6.116   6.292
119 A'   63 A"  120 A'   64 A"  121 A'  122 A'  123 A'  124 A'                 
  6.565   6.693   6.893   7.311   8.914   8.941   9.170   9.201
125 A'  126 A'  127 A'  128 A'   65 A"  129 A'   66 A"  130 A'                 
  9.323   9.372   9.403   9.485   9.495   9.634   9.871   9.890
 67 A"  131 A'   68 A"  132 A'  133 A'   69 A"  134 A'  135 A'                 
 14.746  17.068  17.328
136 A'  137 A'  138 A'                                                         

 Occupation and symmetry of molecular orbitals

 Point group: Cs (2 irreducible representations).

                           A'   A"    All 
 ------------------------------------------
 All molecular orbitals:
  - Alpha                  138  69    207 
  - Beta                   138  69    207 
 ------------------------------------------
 Alpha orbitals:
  - Frozen occupied        1    0     1   
  - Active occupied        9    2     11  
  - Active virtual         128  67    195 
  - Frozen virtual         0    0     0   
 ------------------------------------------
 Beta orbitals:
  - Frozen occupied        1    0     1   
  - Active occupied        9    2     11  
  - Active virtual         128  67    195 
  - Frozen virtual         0    0     0   
 ------------------------------------------

 Import integrals:   CPU 0.00 s  wall 0.00 s

 Import integrals:   CPU 345.85 s  wall 39.30 s

 MP2 amplitudes:   CPU 1.11 s  wall 0.75 s

           CCSD T amplitudes will be solved using DIIS.

           Start     Size      MaxIter   EConv     TConv     
           3         7         100       1.00e-12  1.00e-11  
 ------------------------------------------------------------------------------
           Energy (a.u.)   Ediff      Tdiff       Comment
 ------------------------------------------------------------------------------
          -177.57827171                           
     1    -177.58043888   2.17e-03   6.61e-01     
     2    -177.59545634   1.50e-02   7.61e-02     
     3    -177.59545475   1.59e-06   2.99e-02     
     4    -177.59689363   1.44e-03   1.08e-02     Switched to DIIS steps.
     5    -177.59741436   5.21e-04   8.59e-03     
     6    -177.59743008   1.57e-05   1.56e-03     
     7    -177.59742553   4.54e-06   6.57e-04     
     8    -177.59742469   8.43e-07   1.16e-04     
     9    -177.59742488   1.90e-07   4.39e-05     
    10    -177.59742488   2.30e-09   1.32e-05     
    11    -177.59742494   5.37e-08   5.16e-06     
    12    -177.59742494   1.44e-09   1.97e-06     
    13    -177.59742494   3.97e-09   7.53e-07     
    14    -177.59742494   5.67e-11   2.68e-07     
    15    -177.59742494   2.72e-10   9.96e-08     
    16    -177.59742494   6.11e-10   5.49e-08     
    17    -177.59742494   9.46e-11   1.85e-08     
    18    -177.59742494   7.78e-11   8.93e-09     
    19    -177.59742494   4.51e-11   2.67e-09     
    20    -177.59742494   7.99e-12   1.21e-09     
    21    -177.59742494   5.21e-12   4.43e-10     
    22    -177.59742494   6.10e-13   2.00e-10     
    23    -177.59742494   9.32e-13   6.50e-11     
    24    -177.59742494   1.13e-13   2.70e-11     
    25    -177.59742494   4.86e-14   1.10e-11     
    26    -177.59742494   1.51e-14   5.12e-12     
 ------------------------------------------------------------------------------
          -177.59742494                           CCSD T converged.

 SCF energy                 = -176.95631071
 MP2 energy                 = -177.57827171
 CCSD correlation energy     =   -0.64111423
 CCSD total energy           = -177.59742494

 CCSD  T1^2 = 0.0057  T2^2 = 0.1765  Leading amplitudes:

 Amplitude    Orbitals with energies
 -0.0166       1 (A") A                  ->    5 (A") A                   
              -0.6906                          0.1704                     
 -0.0166       1 (A") B                  ->    5 (A") B                   
              -0.6906                          0.1704                     
 -0.0152       2 (A") A                  ->    13 (A") A                  
              -0.3848                          0.5695                     
 -0.0152       2 (A") B                  ->    13 (A") B                  
              -0.3848                          0.5695                     

 Amplitude    Orbitals with energies
 -0.0781       2 (A") A      2 (A") B    ->    5 (A") A      5 (A") B     
              -0.3848       -0.3848            0.1704        0.1704       
  0.0781       2 (A") A      2 (A") B    ->    5 (A") B      5 (A") A     
              -0.3848       -0.3848            0.1704        0.1704       
  0.0781       2 (A") B      2 (A") A    ->    5 (A") A      5 (A") B     
              -0.3848       -0.3848            0.1704        0.1704       
 -0.0781       2 (A") B      2 (A") A    ->    5 (A") B      5 (A") A     
              -0.3848       -0.3848            0.1704        0.1704       

 Computing CCSD intermediates for later calculations
 Finished.

           CCSD Lambda amplitudes will be solved using DIIS.
           Start     Size      MaxIter   EConv     LConv     
           3         7         100       1.00e-12  1.00e-11  
 ------------------------------------------------------------------------------
            Enorm      Ldiff       Comment
 ------------------------------------------------------------------------------
     1     3.98e-02   2.65e-02     
     2     1.14e-02   4.46e-03     
     3     4.44e-03   6.07e-04     
     4     2.13e-03   6.82e-04     Switched to DIIS steps.
     5     5.35e-04   3.56e-04     
     6     2.41e-04   6.82e-05     
     7     7.00e-05   1.60e-05     
     8     3.04e-05   2.55e-07     
     9     1.07e-05   2.32e-06     
    10     4.21e-06   8.36e-07     
    11     1.66e-06   2.29e-07     
    12     4.81e-07   1.38e-07     
    13     1.79e-07   1.68e-08     
    14     6.86e-08   1.25e-08     
    15     2.35e-08   6.55e-09     
    16     1.07e-08   1.83e-09     
    17     4.18e-09   1.05e-09     
    18     1.71e-09   2.94e-10     
    19     7.36e-10   2.68e-11     
    20     3.34e-10   9.85e-12     
    21     1.45e-10   1.23e-11     
    22     6.25e-11   7.79e-12     
    23     2.18e-11   4.96e-12     
    24     8.06e-12   6.34e-13     
    25     3.20e-12   4.65e-13     
    26     1.31e-12   4.73e-14     
    27     4.82e-13   1.47e-14     
 ------------------------------------------------------------------------------
                                   CCSD Lambda converged.

 CCSD calculation:   CPU 2572.15 s  wall 310.10 s

        Solving for CVS-EOMEE-CCSD A' singlet states.

       EOMEE-CCSD-SINGLES right amplitudes will be solved using Davidson.
        Amplitudes will be solved using shifted  algorithm.
     Hard-coded thresholds: 
     LinDepThresh=1.00e-15  NormThresh=1.00e-06  ReorthogonThresh=1.00e-02

      Roots     MaxVec    MaxIter   Precond   Conv      Shift    
      15        1000      200       1         1.00e-04  2.54e+01  
 ------------------------------------------------------------------------------
      Iter ConvRoots NVecs ResNorm Current eigenvalues (eV)
 ------------------------------------------------------------------------------
      0    0      15    6.36e-03   712.6400   713.9218   714.3000   715.1562   715.4281   715.9458   716.4999   716.6631   717.1550   717.2944   717.9814   718.1350   719.0369   719.5032   720.6896   
      1    0      30    2.84e-02   712.1988   713.7652   714.0159   714.7233   715.2722   715.5812   716.2130   716.3339   716.7768   717.0134   717.6257   717.8146   718.8945   719.2075   720.3593   
      2    3      45    3.45e-04   709.3825   712.2085   713.4971   714.1968*  715.0407*  715.2859   715.8278   716.0530   716.5565*  716.9032   717.2571   717.6140   718.7251   718.8042   719.5740   
      3    15     57    3.11e-06   709.3550*  712.2040*  713.4952*  714.1952*  715.0396*  715.2842*  715.8252*  716.0515*  716.5557*  716.9015*  717.2527*  717.6125*  718.7184*  718.7940*  719.5566*  

     Davidson procedure converged

        CVS-EOMEE-CCSD/MP2 right amplitudes will be solved using Davidson.
        Amplitudes will be solved using shifted  algorithm.
     Hard-coded thresholds: 
     LinDepThresh=1.00e-15  NormThresh=1.00e-06  ReorthogonThresh=1.00e-02

      Roots     MaxVec    MaxIter   Precond   Conv      Shift    
      15        1000      200       1         1.00e-04  2.54e+01  
 ------------------------------------------------------------------------------
      Iter ConvRoots NVecs ResNorm Current eigenvalues (eV)
 ------------------------------------------------------------------------------
      0    0      15    4.11e+00   709.3550   712.2040   713.4952   714.1952   715.0396   715.2842   715.8252   716.0515   716.5557   716.9015   717.2527   717.6125   718.7184   718.7940   719.5566   
      1    0      30    3.63e+00   703.3888   705.4579   706.6256   707.1547   708.0883   708.2522   708.7905   709.0073   709.4492   709.8680   710.2380   710.5406   711.6136   711.7262   712.4753   
      2    0      45    1.42e-01   691.3549   692.5613   692.9069   693.3882   694.3479   694.5154   695.0170   695.1942   695.5781   695.9482   696.3901   696.7972   697.6024   698.1026   698.7691   
      3    0      60    8.50e-03   690.8283   691.9239   692.2678   692.7044   693.6663   693.8346   694.3618   694.5566   694.8853   695.2539   695.7080   696.1437   696.9395   697.4512   698.1074   
      4    0      75    1.35e-03   690.7933   691.8767   692.2501   692.6789   693.6469   693.8136   694.3497   694.5309   694.8597   695.2407   695.6837   696.1164   696.9207   697.4120   698.0622   
      5    0      90    1.03e-03   690.7832   691.8611   692.2408   692.6691   693.6363   693.8060   694.3444   694.5199   694.8447   695.2341   695.6722   696.1046   696.9060   697.3877   698.0333   
Found complex roots...
      6    0      105   4.82e-04   690.7775   691.8533   692.2353   692.6638   693.6288   693.8018   694.3386   694.5105   694.8308   695.2265   695.6570   696.0937   696.8853   697.3626   697.9941   
Found complex roots...
      7    8      120   2.95e-04   690.7755*  691.8501*  692.2341*  692.6619*  693.6264*  693.8003*  694.3357*  694.5073*  694.8248   695.2235   695.6510   696.0887   696.8748   697.3474   697.9616   
Found complex roots...
      8    12     127   1.00e-04   690.7754*  691.8497*  692.2340*  692.6617*  693.6263*  693.8001*  694.3356*  694.5072*  694.8242*  695.2233*  695.6500*  696.0883*  696.8731   697.3433   697.9479   
      9    12     130   5.74e-05   690.7754*  691.8497*  692.2339*  692.6617*  693.6262*  693.8001*  694.3356*  694.5071*  694.8236*  695.2233*  695.6498*  696.0882*  696.8711   697.3411   697.9428   
      10   14     133   3.42e-05   690.7754*  691.8497*  692.2339*  692.6617*  693.6262*  693.8001*  694.3356*  694.5071*  694.8235*  695.2233*  695.6497*  696.0881*  696.8703*  697.3393*  697.9399   
      11   15     134   3.25e-05   690.7754*  691.8497*  692.2339*  692.6617*  693.6262*  693.8001*  694.3355*  694.5071*  694.8234*  695.2232*  695.6496*  696.0881*  696.8701*  697.3392*  697.9387*  

     Davidson procedure converged

 EOMEE transition 1/A'
 Total energy = -152.21189677 a.u.  Excitation energy = 690.7754 eV.
 R0^2 = 0.0000  R1^2 = 0.8523  R2_CCVV^2 = 0.0007  R2_COVV^2 = 0.0735  Res^2 = 3.17e-05
 Conv-d = yes

 Amplitude    Transitions between orbitals
 -0.3155       1 (A') A                  ->    14 (A') A                  
 -0.3155       1 (A') B                  ->    14 (A') B                  
 -0.2737       1 (A') A                  ->    23 (A') A                  
 -0.2737       1 (A') B                  ->    23 (A') B                  
  0.2190       1 (A') A                  ->    11 (A') A                  
  0.2190       1 (A') B                  ->    11 (A') B                  
  0.2061       1 (A') A                  ->    13 (A') A                  
  0.2061       1 (A') B                  ->    13 (A') B                  
 -0.1857       1 (A') A                  ->    28 (A') A                  
 -0.1857       1 (A') B                  ->    28 (A') B                  
  0.1524       1 (A') A                  ->    17 (A') A                  
  0.1524       1 (A') B                  ->    17 (A') B                  
 -0.1442       1 (A') A                  ->    19 (A') A                  
 -0.1442       1 (A') B                  ->    19 (A') B                  
 -0.1112       1 (A') A                  ->    36 (A') A                  
 -0.1112       1 (A') B                  ->    36 (A') B                  
 -0.1110       1 (A') A                  ->    18 (A') A                  
 -0.1110       1 (A') B                  ->    18 (A') B                  

              Summary of significant orbitals:

               Number  Type             Irrep      Energy
               1       Occ  Alpha       1 (A')    -26.3105
               1       Occ  Beta        1 (A')    -26.3105
               13      Vir  Alpha      11 (A')      0.0302
               15      Vir  Alpha      13 (A')      0.0463
               17      Vir  Alpha      14 (A')      0.0899
               21      Vir  Alpha      17 (A')      0.1392
               22      Vir  Alpha      18 (A')      0.1545
               24      Vir  Alpha      19 (A')      0.1817
               29      Vir  Alpha      23 (A')      0.2667
               37      Vir  Alpha      28 (A')      0.3793
               48      Vir  Alpha      36 (A')      0.5179
               13      Vir  Beta       11 (A')      0.0302
               15      Vir  Beta       13 (A')      0.0463
               17      Vir  Beta       14 (A')      0.0899
               21      Vir  Beta       17 (A')      0.1392
               22      Vir  Beta       18 (A')      0.1545
               24      Vir  Beta       19 (A')      0.1817
               29      Vir  Beta       23 (A')      0.2667
               37      Vir  Beta       28 (A')      0.3793
               48      Vir  Beta       36 (A')      0.5179


 EOMEE transition 2/A'
 Total energy = -152.17241690 a.u.  Excitation energy = 691.8497 eV.
 R0^2 = 0.0000  R1^2 = 0.8496  R2_CCVV^2 = 0.0007  R2_COVV^2 = 0.0748  Res^2 = 3.15e-05
 Conv-d = yes

 Amplitude    Transitions between orbitals
  0.4027       1 (A') A                  ->    11 (A') A                  
  0.4027       1 (A') B                  ->    11 (A') B                  
  0.2293       1 (A') A                  ->    23 (A') A                  
  0.2293       1 (A') B                  ->    23 (A') B                  
  0.2015       1 (A') A                  ->    13 (A') A                  
  0.2015       1 (A') B                  ->    13 (A') B                  
  0.1529       1 (A') A                  ->    36 (A') A                  
  0.1529       1 (A') B                  ->    36 (A') B                  
  0.1316       1 (A') A                  ->    16 (A') A                  
  0.1316       1 (A') B                  ->    16 (A') B                  
  0.1311       1 (A') A                  ->    31 (A') A                  
  0.1311       1 (A') B                  ->    31 (A') B                  
  0.1292       1 (A') A                  ->    12 (A') A                  
  0.1292       1 (A') B                  ->    12 (A') B                  
  0.1113       1 (A') A                  ->    28 (A') A                  
  0.1113       1 (A') B                  ->    28 (A') B                  

              Summary of significant orbitals:

               Number  Type             Irrep      Energy
               1       Occ  Alpha       1 (A')    -26.3105
               1       Occ  Beta        1 (A')    -26.3105
               13      Vir  Alpha      11 (A')      0.0302
               14      Vir  Alpha      12 (A')      0.0390
               15      Vir  Alpha      13 (A')      0.0463
               20      Vir  Alpha      16 (A')      0.1279
               29      Vir  Alpha      23 (A')      0.2667
               37      Vir  Alpha      28 (A')      0.3793
               41      Vir  Alpha      31 (A')      0.4101
               48      Vir  Alpha      36 (A')      0.5179
               13      Vir  Beta       11 (A')      0.0302
               14      Vir  Beta       12 (A')      0.0390
               15      Vir  Beta       13 (A')      0.0463
               20      Vir  Beta       16 (A')      0.1279
               29      Vir  Beta       23 (A')      0.2667
               37      Vir  Beta       28 (A')      0.3793
               41      Vir  Beta       31 (A')      0.4101
               48      Vir  Beta       36 (A')      0.5179


 EOMEE transition 3/A'
 Total energy = -152.15829627 a.u.  Excitation energy = 692.2339 eV.
 R0^2 = 0.0000  R1^2 = 0.8437  R2_CCVV^2 = 0.0006  R2_COVV^2 = 0.0778  Res^2 = 5.85e-06
 Conv-d = yes

 Amplitude    Transitions between orbitals
  0.4862       1 (A') A                  ->    12 (A') A                  
  0.4862       1 (A') B                  ->    12 (A') B                  
  0.2607       1 (A') A                  ->    16 (A') A                  
  0.2607       1 (A') B                  ->    16 (A') B                  
 -0.1863       1 (A') A                  ->    13 (A') A                  
 -0.1863       1 (A') B                  ->    13 (A') B                  
 -0.1769       1 (A') A                  ->    15 (A') A                  
 -0.1769       1 (A') B                  ->    15 (A') B                  
 -0.1133       1 (A') A                  ->    19 (A') A                  
 -0.1133       1 (A') B                  ->    19 (A') B                  

              Summary of significant orbitals:

               Number  Type             Irrep      Energy
               1       Occ  Alpha       1 (A')    -26.3105
               1       Occ  Beta        1 (A')    -26.3105
               14      Vir  Alpha      12 (A')      0.0390
               15      Vir  Alpha      13 (A')      0.0463
               19      Vir  Alpha      15 (A')      0.1032
               20      Vir  Alpha      16 (A')      0.1279
               24      Vir  Alpha      19 (A')      0.1817
               14      Vir  Beta       12 (A')      0.0390
               15      Vir  Beta       13 (A')      0.0463
               19      Vir  Beta       15 (A')      0.1032
               20      Vir  Beta       16 (A')      0.1279
               24      Vir  Beta       19 (A')      0.1817


 EOMEE transition 4/A'
 Total energy = -152.14257683 a.u.  Excitation energy = 692.6616 eV.
 R0^2 = 0.0000  R1^2 = 0.8431  R2_CCVV^2 = 0.0007  R2_COVV^2 = 0.0781  Res^2 = 1.21e-05
 Conv-d = yes

 Amplitude    Transitions between orbitals
  0.3642       1 (A') A                  ->    11 (A') A                  
  0.3642       1 (A') B                  ->    11 (A') B                  
 -0.3387       1 (A') A                  ->    13 (A') A                  
 -0.3387       1 (A') B                  ->    13 (A') B                  
  0.2451       1 (A') A                  ->    14 (A') A                  
  0.2451       1 (A') B                  ->    14 (A') B                  
  0.1635       1 (A') A                  ->    17 (A') A                  
  0.1635       1 (A') B                  ->    17 (A') B                  
 -0.1249       1 (A') A                  ->    12 (A') A                  
 -0.1249       1 (A') B                  ->    12 (A') B                  
  0.1152       1 (A') A                  ->    15 (A') A                  
  0.1152       1 (A') B                  ->    15 (A') B                  
  0.1075       1 (A') A                  ->    21 (A') A                  
  0.1075       1 (A') B                  ->    21 (A') B                  

              Summary of significant orbitals:

               Number  Type             Irrep      Energy
               1       Occ  Alpha       1 (A')    -26.3105
               1       Occ  Beta        1 (A')    -26.3105
               13      Vir  Alpha      11 (A')      0.0302
               14      Vir  Alpha      12 (A')      0.0390
               15      Vir  Alpha      13 (A')      0.0463
               17      Vir  Alpha      14 (A')      0.0899
               19      Vir  Alpha      15 (A')      0.1032
               21      Vir  Alpha      17 (A')      0.1392
               27      Vir  Alpha      21 (A')      0.2327
               13      Vir  Beta       11 (A')      0.0302
               14      Vir  Beta       12 (A')      0.0390
               15      Vir  Beta       13 (A')      0.0463
               17      Vir  Beta       14 (A')      0.0899
               19      Vir  Beta       15 (A')      0.1032
               21      Vir  Beta       17 (A')      0.1392
               27      Vir  Beta       21 (A')      0.2327


 EOMEE transition 5/A'
 Total energy = -152.10713159 a.u.  Excitation energy = 693.6262 eV.
 R0^2 = 0.0000  R1^2 = 0.8424  R2_CCVV^2 = 0.0006  R2_COVV^2 = 0.0785  Res^2 = 9.77e-06
 Conv-d = yes

 Amplitude    Transitions between orbitals
 -0.4782       1 (A') A                  ->    15 (A') A                  
 -0.4782       1 (A') B                  ->    15 (A') B                  
 -0.2901       1 (A') A                  ->    12 (A') A                  
 -0.2901       1 (A') B                  ->    12 (A') B                  
  0.1618       1 (A') A                  ->    16 (A') A                  
  0.1618       1 (A') B                  ->    16 (A') B                  
 -0.1244       1 (A') A                  ->    20 (A') A                  
 -0.1244       1 (A') B                  ->    20 (A') B                  
  0.1237       1 (A') A                  ->    11 (A') A                  
  0.1237       1 (A') B                  ->    11 (A') B                  

              Summary of significant orbitals:

               Number  Type             Irrep      Energy
               1       Occ  Alpha       1 (A')    -26.3105
               1       Occ  Beta        1 (A')    -26.3105
               13      Vir  Alpha      11 (A')      0.0302
               14      Vir  Alpha      12 (A')      0.0390
               19      Vir  Alpha      15 (A')      0.1032
               20      Vir  Alpha      16 (A')      0.1279
               25      Vir  Alpha      20 (A')      0.1933
               13      Vir  Beta       11 (A')      0.0302
               14      Vir  Beta       12 (A')      0.0390
               19      Vir  Beta       15 (A')      0.1032
               20      Vir  Beta       16 (A')      0.1279
               25      Vir  Beta       20 (A')      0.1933


 EOMEE transition 6/A'
 Total energy = -152.10073980 a.u.  Excitation energy = 693.8001 eV.
 R0^2 = 0.0000  R1^2 = 0.8444  R2_CCVV^2 = 0.0007  R2_COVV^2 = 0.0775  Res^2 = 1.06e-05
 Conv-d = yes

 Amplitude    Transitions between orbitals
  0.4068       1 (A') A                  ->    14 (A') A                  
  0.4068       1 (A') B                  ->    14 (A') B                  
  0.3664       1 (A') A                  ->    13 (A') A                  
  0.3664       1 (A') B                  ->    13 (A') B                  
 -0.1543       1 (A') A                  ->    18 (A') A                  
 -0.1543       1 (A') B                  ->    18 (A') B                  
  0.1458       1 (A') A                  ->    21 (A') A                  
  0.1458       1 (A') B                  ->    21 (A') B                  
 -0.1410       1 (A') A                  ->    20 (A') A                  
 -0.1410       1 (A') B                  ->    20 (A') B                  

              Summary of significant orbitals:

               Number  Type             Irrep      Energy
               1       Occ  Alpha       1 (A')    -26.3105
               1       Occ  Beta        1 (A')    -26.3105
               15      Vir  Alpha      13 (A')      0.0463
               17      Vir  Alpha      14 (A')      0.0899
               22      Vir  Alpha      18 (A')      0.1545
               25      Vir  Alpha      20 (A')      0.1933
               27      Vir  Alpha      21 (A')      0.2327
               15      Vir  Beta       13 (A')      0.0463
               17      Vir  Beta       14 (A')      0.0899
               22      Vir  Beta       18 (A')      0.1545
               25      Vir  Beta       20 (A')      0.1933
               27      Vir  Beta       21 (A')      0.2327


 EOMEE transition 7/A'
 Total energy = -152.08106263 a.u.  Excitation energy = 694.3355 eV.
 R0^2 = 0.0000  R1^2 = 0.8435  R2_CCVV^2 = 0.0007  R2_COVV^2 = 0.0779  Res^2 = 4.56e-05
 Conv-d = yes

 Amplitude    Transitions between orbitals
  0.3557       1 (A') A                  ->    17 (A') A                  
  0.3557       1 (A') B                  ->    17 (A') B                  
  0.2856       1 (A') A                  ->    16 (A') A                  
  0.2856       1 (A') B                  ->    16 (A') B                  
 -0.2438       1 (A') A                  ->    18 (A') A                  
 -0.2438       1 (A') B                  ->    18 (A') B                  
 -0.2068       1 (A') A                  ->    11 (A') A                  
 -0.2068       1 (A') B                  ->    11 (A') B                  
 -0.1881       1 (A') A                  ->    12 (A') A                  
 -0.1881       1 (A') B                  ->    12 (A') B                  
 -0.1088       1 (A') A                  ->    13 (A') A                  
 -0.1088       1 (A') B                  ->    13 (A') B                  

              Summary of significant orbitals:

               Number  Type             Irrep      Energy
               1       Occ  Alpha       1 (A')    -26.3105
               1       Occ  Beta        1 (A')    -26.3105
               13      Vir  Alpha      11 (A')      0.0302
               14      Vir  Alpha      12 (A')      0.0390
               15      Vir  Alpha      13 (A')      0.0463
               20      Vir  Alpha      16 (A')      0.1279
               21      Vir  Alpha      17 (A')      0.1392
               22      Vir  Alpha      18 (A')      0.1545
               13      Vir  Beta       11 (A')      0.0302
               14      Vir  Beta       12 (A')      0.0390
               15      Vir  Beta       13 (A')      0.0463
               20      Vir  Beta       16 (A')      0.1279
               21      Vir  Beta       17 (A')      0.1392
               22      Vir  Beta       18 (A')      0.1545


 EOMEE transition 8/A'
 Total energy = -152.07475829 a.u.  Excitation energy = 694.5071 eV.
 R0^2 = 0.0000  R1^2 = 0.8428  R2_CCVV^2 = 0.0007  R2_COVV^2 = 0.0783  Res^2 = 4.12e-05
 Conv-d = yes

 Amplitude    Transitions between orbitals
 -0.4310       1 (A') A                  ->    20 (A') A                  
 -0.4310       1 (A') B                  ->    20 (A') B                  
 -0.2573       1 (A') A                  ->    16 (A') A                  
 -0.2573       1 (A') B                  ->    16 (A') B                  
 -0.2281       1 (A') A                  ->    19 (A') A                  
 -0.2281       1 (A') B                  ->    19 (A') B                  
 -0.1578       1 (A') A                  ->    21 (A') A                  
 -0.1578       1 (A') B                  ->    21 (A') B                  
 -0.1502       1 (A') A                  ->    22 (A') A                  
 -0.1502       1 (A') B                  ->    22 (A') B                  
 -0.1236       1 (A') A                  ->    18 (A') A                  
 -0.1236       1 (A') B                  ->    18 (A') B                  

              Summary of significant orbitals:

               Number  Type             Irrep      Energy
               1       Occ  Alpha       1 (A')    -26.3105
               1       Occ  Beta        1 (A')    -26.3105
               20      Vir  Alpha      16 (A')      0.1279
               22      Vir  Alpha      18 (A')      0.1545
               24      Vir  Alpha      19 (A')      0.1817
               25      Vir  Alpha      20 (A')      0.1933
               27      Vir  Alpha      21 (A')      0.2327
               28      Vir  Alpha      22 (A')      0.2513
               20      Vir  Beta       16 (A')      0.1279
               22      Vir  Beta       18 (A')      0.1545
               24      Vir  Beta       19 (A')      0.1817
               25      Vir  Beta       20 (A')      0.1933
               27      Vir  Beta       21 (A')      0.2327
               28      Vir  Beta       22 (A')      0.2513


 EOMEE transition 9/A'
 Total energy = -152.06313318 a.u.  Excitation energy = 694.8234 eV.
 R0^2 = 0.0000  R1^2 = 0.8419  R2_CCVV^2 = 0.0006  R2_COVV^2 = 0.0787  Res^2 = 3.09e-05
 Conv-d = yes

 Amplitude    Transitions between orbitals
 -0.3009       1 (A') A                  ->    18 (A') A                  
 -0.3009       1 (A') B                  ->    18 (A') B                  
 -0.2948       1 (A') A                  ->    15 (A') A                  
 -0.2948       1 (A') B                  ->    15 (A') B                  
 -0.2591       1 (A') A                  ->    16 (A') A                  
 -0.2591       1 (A') B                  ->    16 (A') B                  
  0.2034       1 (A') A                  ->    19 (A') A                  
  0.2034       1 (A') B                  ->    19 (A') B                  
  0.1832       1 (A') A                  ->    20 (A') A                  
  0.1832       1 (A') B                  ->    20 (A') B                  
  0.1546       1 (A') A                  ->    14 (A') A                  
  0.1546       1 (A') B                  ->    14 (A') B                  
  0.1446       1 (A') A                  ->    12 (A') A                  
  0.1446       1 (A') B                  ->    12 (A') B                  
 -0.1168       1 (A') A                  ->    13 (A') A                  
 -0.1168       1 (A') B                  ->    13 (A') B                  
  0.1110       1 (A') A                  ->    17 (A') A                  
  0.1110       1 (A') B                  ->    17 (A') B                  

              Summary of significant orbitals:

               Number  Type             Irrep      Energy
               1       Occ  Alpha       1 (A')    -26.3105
               1       Occ  Beta        1 (A')    -26.3105
               14      Vir  Alpha      12 (A')      0.0390
               15      Vir  Alpha      13 (A')      0.0463
               17      Vir  Alpha      14 (A')      0.0899
               19      Vir  Alpha      15 (A')      0.1032
               20      Vir  Alpha      16 (A')      0.1279
               21      Vir  Alpha      17 (A')      0.1392
               22      Vir  Alpha      18 (A')      0.1545
               24      Vir  Alpha      19 (A')      0.1817
               25      Vir  Alpha      20 (A')      0.1933
               14      Vir  Beta       12 (A')      0.0390
               15      Vir  Beta       13 (A')      0.0463
               17      Vir  Beta       14 (A')      0.0899
               19      Vir  Beta       15 (A')      0.1032
               20      Vir  Beta       16 (A')      0.1279
               21      Vir  Beta       17 (A')      0.1392
               22      Vir  Beta       18 (A')      0.1545
               24      Vir  Beta       19 (A')      0.1817
               25      Vir  Beta       20 (A')      0.1933


 EOMEE transition 10/A'
 Total energy = -152.04844046 a.u.  Excitation energy = 695.2232 eV.
 R0^2 = 0.0000  R1^2 = 0.8403  R2_CCVV^2 = 0.0006  R2_COVV^2 = 0.0795  Res^2 = 1.86e-05
 Conv-d = yes

 Amplitude    Transitions between orbitals
 -0.4132       1 (A') A                  ->    17 (A') A                  
 -0.4132       1 (A') B                  ->    17 (A') B                  
 -0.3446       1 (A') A                  ->    18 (A') A                  
 -0.3446       1 (A') B                  ->    18 (A') B                  
  0.1917       1 (A') A                  ->    21 (A') A                  
  0.1917       1 (A') B                  ->    21 (A') B                  
 -0.1436       1 (A') A                  ->    13 (A') A                  
 -0.1436       1 (A') B                  ->    13 (A') B                  
 -0.1203       1 (A') A                  ->    14 (A') A                  
 -0.1203       1 (A') B                  ->    14 (A') B                  
  0.1098       1 (A') A                  ->    16 (A') A                  
  0.1098       1 (A') B                  ->    16 (A') B                  

              Summary of significant orbitals:

               Number  Type             Irrep      Energy
               1       Occ  Alpha       1 (A')    -26.3105
               1       Occ  Beta        1 (A')    -26.3105
               15      Vir  Alpha      13 (A')      0.0463
               17      Vir  Alpha      14 (A')      0.0899
               20      Vir  Alpha      16 (A')      0.1279
               21      Vir  Alpha      17 (A')      0.1392
               22      Vir  Alpha      18 (A')      0.1545
               27      Vir  Alpha      21 (A')      0.2327
               15      Vir  Beta       13 (A')      0.0463
               17      Vir  Beta       14 (A')      0.0899
               20      Vir  Beta       16 (A')      0.1279
               21      Vir  Beta       17 (A')      0.1392
               22      Vir  Beta       18 (A')      0.1545
               27      Vir  Beta       21 (A')      0.2327


 EOMEE transition 11/A'
 Total energy = -152.03277057 a.u.  Excitation energy = 695.6496 eV.
 R0^2 = 0.0000  R1^2 = 0.8415  R2_CCVV^2 = 0.0006  R2_COVV^2 = 0.0789  Res^2 = 3.82e-05
 Conv-d = yes

 Amplitude    Transitions between orbitals
  0.4633       1 (A') A                  ->    19 (A') A                  
  0.4633       1 (A') B                  ->    19 (A') B                  
 -0.2958       1 (A') A                  ->    20 (A') A                  
 -0.2958       1 (A') B                  ->    20 (A') B                  
 -0.1569       1 (A') A                  ->    14 (A') A                  
 -0.1569       1 (A') B                  ->    14 (A') B                  
  0.1546       1 (A') A                  ->    21 (A') A                  
  0.1546       1 (A') B                  ->    21 (A') B                  
 -0.1123       1 (A') A                  ->    22 (A') A                  
 -0.1123       1 (A') B                  ->    22 (A') B                  
  0.1096       1 (A') A                  ->    17 (A') A                  
  0.1096       1 (A') B                  ->    17 (A') B                  

              Summary of significant orbitals:

               Number  Type             Irrep      Energy
               1       Occ  Alpha       1 (A')    -26.3105
               1       Occ  Beta        1 (A')    -26.3105
               17      Vir  Alpha      14 (A')      0.0899
               21      Vir  Alpha      17 (A')      0.1392
               24      Vir  Alpha      19 (A')      0.1817
               25      Vir  Alpha      20 (A')      0.1933
               27      Vir  Alpha      21 (A')      0.2327
               28      Vir  Alpha      22 (A')      0.2513
               17      Vir  Beta       14 (A')      0.0899
               21      Vir  Beta       17 (A')      0.1392
               24      Vir  Beta       19 (A')      0.1817
               25      Vir  Beta       20 (A')      0.1933
               27      Vir  Beta       21 (A')      0.2327
               28      Vir  Beta       22 (A')      0.2513


 EOMEE transition 12/A'
 Total energy = -152.01665608 a.u.  Excitation energy = 696.0881 eV.
 R0^2 = 0.0000  R1^2 = 0.8435  R2_CCVV^2 = 0.0007  R2_COVV^2 = 0.0779  Res^2 = 4.03e-05
 Conv-d = yes

 Amplitude    Transitions between orbitals
  0.4520       1 (A') A                  ->    21 (A') A                  
  0.4520       1 (A') B                  ->    21 (A') B                  
  0.2849       1 (A') A                  ->    23 (A') A                  
  0.2849       1 (A') B                  ->    23 (A') B                  
 -0.1690       1 (A') A                  ->    19 (A') A                  
 -0.1690       1 (A') B                  ->    19 (A') B                  
 -0.1518       1 (A') A                  ->    15 (A') A                  
 -0.1518       1 (A') B                  ->    15 (A') B                  
  0.1469       1 (A') A                  ->    18 (A') A                  
  0.1469       1 (A') B                  ->    18 (A') B                  
  0.1198       1 (A') A                  ->    36 (A') A                  
  0.1198       1 (A') B                  ->    36 (A') B                  
 -0.1155       1 (A') A                  ->    16 (A') A                  
 -0.1155       1 (A') B                  ->    16 (A') B                  

              Summary of significant orbitals:

               Number  Type             Irrep      Energy
               1       Occ  Alpha       1 (A')    -26.3105
               1       Occ  Beta        1 (A')    -26.3105
               19      Vir  Alpha      15 (A')      0.1032
               20      Vir  Alpha      16 (A')      0.1279
               22      Vir  Alpha      18 (A')      0.1545
               24      Vir  Alpha      19 (A')      0.1817
               27      Vir  Alpha      21 (A')      0.2327
               29      Vir  Alpha      23 (A')      0.2667
               48      Vir  Alpha      36 (A')      0.5179
               19      Vir  Beta       15 (A')      0.1032
               20      Vir  Beta       16 (A')      0.1279
               22      Vir  Beta       18 (A')      0.1545
               24      Vir  Beta       19 (A')      0.1817
               27      Vir  Beta       21 (A')      0.2327
               29      Vir  Beta       23 (A')      0.2667
               48      Vir  Beta       36 (A')      0.5179


 EOMEE transition 13/A'
 Total energy = -151.98791819 a.u.  Excitation energy = 696.8701 eV.
 R0^2 = 0.0000  R1^2 = 0.8401  R2_CCVV^2 = 0.0006  R2_COVV^2 = 0.0796  Res^2 = 6.09e-05
 Conv-d = yes

 Amplitude    Transitions between orbitals
 -0.5722       1 (A') A                  ->    22 (A') A                  
 -0.5722       1 (A') B                  ->    22 (A') B                  
  0.1264       1 (A') A                  ->    20 (A') A                  
  0.1264       1 (A') B                  ->    20 (A') B                  
  0.1148       1 (A') A                  ->    18 (A') A                  
  0.1148       1 (A') B                  ->    18 (A') B                  
  0.1040       1 (A') A                  ->    34 (A') A                  
  0.1040       1 (A') B                  ->    34 (A') B                  

              Summary of significant orbitals:

               Number  Type             Irrep      Energy
               1       Occ  Alpha       1 (A')    -26.3105
               1       Occ  Beta        1 (A')    -26.3105
               22      Vir  Alpha      18 (A')      0.1545
               25      Vir  Alpha      20 (A')      0.1933
               28      Vir  Alpha      22 (A')      0.2513
               46      Vir  Alpha      34 (A')      0.4842
               22      Vir  Beta       18 (A')      0.1545
               25      Vir  Beta       20 (A')      0.1933
               28      Vir  Beta       22 (A')      0.2513
               46      Vir  Beta       34 (A')      0.4842


 EOMEE transition 14/A'
 Total energy = -151.97067964 a.u.  Excitation energy = 697.3392 eV.
 R0^2 = 0.0000  R1^2 = 0.8452  R2_CCVV^2 = 0.0007  R2_COVV^2 = 0.0771  Res^2 = 4.20e-05
 Conv-d = yes

 Amplitude    Transitions between orbitals
 -0.4916       1 (A') A                  ->    25 (A') A                  
 -0.4916       1 (A') B                  ->    25 (A') B                  
 -0.1765       1 (A') A                  ->    16 (A') A                  
 -0.1765       1 (A') B                  ->    16 (A') B                  
 -0.1550       1 (A') A                  ->    26 (A') A                  
 -0.1550       1 (A') B                  ->    26 (A') B                  
 -0.1463       1 (A') A                  ->    23 (A') A                  
 -0.1463       1 (A') B                  ->    23 (A') B                  
  0.1427       1 (A') A                  ->    21 (A') A                  
  0.1427       1 (A') B                  ->    21 (A') B                  
  0.1238       1 (A') A                  ->    24 (A') A                  
  0.1238       1 (A') B                  ->    24 (A') B                  

              Summary of significant orbitals:

               Number  Type             Irrep      Energy
               1       Occ  Alpha       1 (A')    -26.3105
               1       Occ  Beta        1 (A')    -26.3105
               20      Vir  Alpha      16 (A')      0.1279
               27      Vir  Alpha      21 (A')      0.2327
               29      Vir  Alpha      23 (A')      0.2667
               31      Vir  Alpha      24 (A')      0.2928
               33      Vir  Alpha      25 (A')      0.2997
               34      Vir  Alpha      26 (A')      0.3328
               20      Vir  Beta       16 (A')      0.1279
               27      Vir  Beta       21 (A')      0.2327
               29      Vir  Beta       23 (A')      0.2667
               31      Vir  Beta       24 (A')      0.2928
               33      Vir  Beta       25 (A')      0.2997
               34      Vir  Beta       26 (A')      0.3328


 EOMEE transition 15/A'
 Total energy = -151.94864847 a.u.  Excitation energy = 697.9387 eV.
 R0^2 = 0.0000  R1^2 = 0.8422  R2_CCVV^2 = 0.0007  R2_COVV^2 = 0.0786  Res^2 = 6.80e-05
 Conv-d = yes

 Amplitude    Transitions between orbitals
 -0.4243       1 (A') A                  ->    24 (A') A                  
 -0.4243       1 (A') B                  ->    24 (A') B                  
 -0.2397       1 (A') A                  ->    23 (A') A                  
 -0.2397       1 (A') B                  ->    23 (A') B                  
 -0.1741       1 (A') A                  ->    26 (A') A                  
 -0.1741       1 (A') B                  ->    26 (A') B                  
  0.1395       1 (A') A                  ->    31 (A') A                  
  0.1395       1 (A') B                  ->    31 (A') B                  
  0.1318       1 (A') A                  ->    25 (A') A                  
  0.1318       1 (A') B                  ->    25 (A') B                  
  0.1311       1 (A') A                  ->    18 (A') A                  
  0.1311       1 (A') B                  ->    18 (A') B                  
  0.1201       1 (A') A                  ->    22 (A') A                  
  0.1201       1 (A') B                  ->    22 (A') B                  
 -0.1124       1 (A') A                  ->    29 (A') A                  
 -0.1124       1 (A') B                  ->    29 (A') B                  
  0.1122       1 (A') A                  ->    35 (A') A                  
  0.1122       1 (A') B                  ->    35 (A') B                  

              Summary of significant orbitals:

               Number  Type             Irrep      Energy
               1       Occ  Alpha       1 (A')    -26.3105
               1       Occ  Beta        1 (A')    -26.3105
               22      Vir  Alpha      18 (A')      0.1545
               28      Vir  Alpha      22 (A')      0.2513
               29      Vir  Alpha      23 (A')      0.2667
               31      Vir  Alpha      24 (A')      0.2928
               33      Vir  Alpha      25 (A')      0.2997
               34      Vir  Alpha      26 (A')      0.3328
               38      Vir  Alpha      29 (A')      0.3852
               41      Vir  Alpha      31 (A')      0.4101
               47      Vir  Alpha      35 (A')      0.4919
               22      Vir  Beta       18 (A')      0.1545
               28      Vir  Beta       22 (A')      0.2513
               29      Vir  Beta       23 (A')      0.2667
               31      Vir  Beta       24 (A')      0.2928
               33      Vir  Beta       25 (A')      0.2997
               34      Vir  Beta       26 (A')      0.3328
               38      Vir  Beta       29 (A')      0.3852
               41      Vir  Beta       31 (A')      0.4101
               47      Vir  Beta       35 (A')      0.4919


      CVS-EOM-CCSD/MP2 left amplitudes will be solved using Davidson.
        Amplitudes will be solved using MOM  algorithm.
     Hard-coded thresholds: 
     LinDepThresh=1.00e-15  NormThresh=1.00e-06  ReorthogonThresh=1.00e-02

      Roots     MaxVec    MaxIter   Precond   Conv      Shift    
      15        1000      200       1         1.00e-04  2.54e+01  
 ------------------------------------------------------------------------------
      Iter ConvRoots NVecs ResNorm Current eigenvalues (eV)
 ------------------------------------------------------------------------------
      0    0      15    1.13e-01   690.7754   691.8497   692.2339   692.6617   693.6262   693.8001   694.3355   694.5071   694.8234   695.2232   695.6496   696.0881   696.8701   697.3392   697.9387   
      1    0      30    3.02e-02   690.7752   691.8495   692.2339   692.6615   693.6261   693.8000   694.3352   694.5068   694.8233   695.2233   695.6497   696.0883   696.8693   697.3389   697.9380   
      2    0      45    5.37e-04   690.7754   691.8495   692.2339   692.6616   693.6261   693.8001   694.3355   694.5070   694.8231   695.2231   695.6494   696.0879   696.8695   697.3391   697.9381   
      3    15     60    5.48e-05   690.7754*  691.8495*  692.2339*  692.6616*  693.6262*  693.8001*  694.3356*  694.5072*  694.8230*  695.2231*  695.6493*  696.0878*  696.8694*  697.3390*  697.9380*  

     Davidson procedure converged

        Solving for CVS-EOMEE-CCSD A" singlet states.

       EOMEE-CCSD-SINGLES right amplitudes will be solved using Davidson.
        Amplitudes will be solved using shifted  algorithm.
     Hard-coded thresholds: 
     LinDepThresh=1.00e-15  NormThresh=1.00e-06  ReorthogonThresh=1.00e-02

      Roots     MaxVec    MaxIter   Precond   Conv      Shift    
      10        1000      200       1         1.00e-04  2.54e+01  
 ------------------------------------------------------------------------------
      Iter ConvRoots NVecs ResNorm Current eigenvalues (eV)
 ------------------------------------------------------------------------------
      0    0      10    6.28e-03   713.2110   714.4669   716.3901   716.6431   719.2936   719.9383   721.4499   722.5061   723.2167   724.0136   
      1    0      20    7.20e-03   712.4029   714.3768   716.1426   716.3841   719.1726   719.8843   721.2626   722.3907   722.7921   723.9121   
      2    8      30    5.24e-05   712.1684*  714.3433*  716.0293*  716.3708*  719.1396*  719.8630*  721.2095*  722.3532*  722.4140   723.8624   
      3    10     32    4.92e-06   712.1684*  714.3432*  716.0292*  716.3707*  719.1395*  719.8628*  721.2095*  722.3529*  722.4105*  723.8608*  

     Davidson procedure converged

        CVS-EOMEE-CCSD/MP2 right amplitudes will be solved using Davidson.
        Amplitudes will be solved using shifted  algorithm.
     Hard-coded thresholds: 
     LinDepThresh=1.00e-15  NormThresh=1.00e-06  ReorthogonThresh=1.00e-02

      Roots     MaxVec    MaxIter   Precond   Conv      Shift    
      10        1000      200       1         1.00e-04  2.54e+01  
 ------------------------------------------------------------------------------
      Iter ConvRoots NVecs ResNorm Current eigenvalues (eV)
 ------------------------------------------------------------------------------
      0    0      10    4.15e+00   712.1684   714.3432   716.0292   716.3707   719.1395   719.8628   721.2095   722.3529   722.4105   723.8608   
      1    0      20    3.73e+00   705.2357   707.2310   709.0883   709.2531   711.9970   712.7251   714.0795   715.1502   715.3815   716.7361   
      2    0      30    1.40e-01   691.4326   693.3952   695.1547   695.6903   697.9702   698.6550   700.0653   700.9257   701.6640   702.6787   
      3    0      40    7.03e-03   690.8260   692.7845   694.4758   695.0629   697.3364   698.0116   699.4509   700.2326   701.0133   702.0090   
      4    0      50    1.04e-03   690.7907   692.7761   694.4672   695.0273   697.3240   698.0035   699.4370   700.2183   700.9696   701.9947   
      5    0      60    4.83e-04   690.7796   692.7714   694.4627   695.0147   697.3179   697.9973   699.4290   700.2105   700.9472   701.9875   
      6    4      70    1.60e-04   690.7766*  692.7692*  694.4606*  695.0093   697.3134*  697.9930   699.4217   700.2045   700.9278   701.9814   
      7    8      76    7.62e-05   690.7761*  692.7691*  694.4606*  695.0075*  697.3133*  697.9919*  699.4206*  700.2035*  700.9183   701.9783   
      8    9      78    4.12e-05   690.7762*  692.7691*  694.4606*  695.0075*  697.3133*  697.9919*  699.4204*  700.2035*  700.9168   701.9775*  
      9    10     79    2.96e-05   690.7761*  692.7691*  694.4606*  695.0075*  697.3132*  697.9919*  699.4204*  700.2035*  700.9159*  701.9769*  

     Davidson procedure converged

 EOMEE transition 1/A"
 Total energy = -152.21186811 a.u.  Excitation energy = 690.7761 eV.
 R0^2 = 0.0000  R1^2 = 0.8395  R2_CCVV^2 = 0.0007  R2_COVV^2 = 0.0799  Res^2 = 1.70e-05
 Conv-d = yes

 Amplitude    Transitions between orbitals
  0.4490       1 (A') A                  ->    5 (A") A                   
  0.4490       1 (A') B                  ->    5 (A") B                   
 -0.3521       1 (A') A                  ->    4 (A") A                   
 -0.3521       1 (A') B                  ->    4 (A") B                   
  0.2296       1 (A') A                  ->    3 (A") A                   
  0.2296       1 (A') B                  ->    3 (A") B                   
  0.1444       1 (A') A                  ->    6 (A") A                   
  0.1444       1 (A') B                  ->    6 (A") B                   

              Summary of significant orbitals:

               Number  Type             Irrep      Energy
               1       Occ  Alpha       1 (A')    -26.3105
               1       Occ  Beta        1 (A')    -26.3105
               16      Vir  Alpha       3 (A")      0.0897
               18      Vir  Alpha       4 (A")      0.0953
               23      Vir  Alpha       5 (A")      0.1704
               26      Vir  Alpha       6 (A")      0.2297
               16      Vir  Beta        3 (A")      0.0897
               18      Vir  Beta        4 (A")      0.0953
               23      Vir  Beta        5 (A")      0.1704
               26      Vir  Beta        6 (A")      0.2297


 EOMEE transition 2/A"
 Total energy = -152.13862808 a.u.  Excitation energy = 692.7691 eV.
 R0^2 = 0.0000  R1^2 = 0.8442  R2_CCVV^2 = 0.0006  R2_COVV^2 = 0.0776  Res^2 = 9.83e-06
 Conv-d = yes

 Amplitude    Transitions between orbitals
 -0.4650       1 (A') A                  ->    3 (A") A                   
 -0.4650       1 (A') B                  ->    3 (A") B                   
 -0.3927       1 (A') A                  ->    4 (A") A                   
 -0.3927       1 (A') B                  ->    4 (A") B                   
  0.1278       1 (A') A                  ->    6 (A") A                   
  0.1278       1 (A') B                  ->    6 (A") B                   
 -0.1103       1 (A') A                  ->    5 (A") A                   
 -0.1103       1 (A') B                  ->    5 (A") B                   

              Summary of significant orbitals:

               Number  Type             Irrep      Energy
               1       Occ  Alpha       1 (A')    -26.3105
               1       Occ  Beta        1 (A')    -26.3105
               16      Vir  Alpha       3 (A")      0.0897
               18      Vir  Alpha       4 (A")      0.0953
               23      Vir  Alpha       5 (A")      0.1704
               26      Vir  Alpha       6 (A")      0.2297
               16      Vir  Beta        3 (A")      0.0897
               18      Vir  Beta        4 (A")      0.0953
               23      Vir  Beta        5 (A")      0.1704
               26      Vir  Beta        6 (A")      0.2297


 EOMEE transition 3/A"
 Total energy = -152.07646725 a.u.  Excitation energy = 694.4606 eV.
 R0^2 = 0.0000  R1^2 = 0.8404  R2_CCVV^2 = 0.0006  R2_COVV^2 = 0.0795  Res^2 = 1.07e-05
 Conv-d = yes

 Amplitude    Transitions between orbitals
  0.4248       1 (A') A                  ->    5 (A") A                   
  0.4248       1 (A') B                  ->    5 (A") B                   
 -0.3758       1 (A') A                  ->    3 (A") A                   
 -0.3758       1 (A') B                  ->    3 (A") B                   
  0.2753       1 (A') A                  ->    4 (A") A                   
  0.2753       1 (A') B                  ->    4 (A") B                   
  0.1021       1 (A') A                  ->    9 (A") A                   
  0.1021       1 (A') B                  ->    9 (A") B                   

              Summary of significant orbitals:

               Number  Type             Irrep      Energy
               1       Occ  Alpha       1 (A')    -26.3105
               1       Occ  Beta        1 (A')    -26.3105
               16      Vir  Alpha       3 (A")      0.0897
               18      Vir  Alpha       4 (A")      0.0953
               23      Vir  Alpha       5 (A")      0.1704
               36      Vir  Alpha       9 (A")      0.3710
               16      Vir  Beta        3 (A")      0.0897
               18      Vir  Beta        4 (A")      0.0953
               23      Vir  Beta        5 (A")      0.1704
               36      Vir  Beta        9 (A")      0.3710


 EOMEE transition 4/A"
 Total energy = -152.05636913 a.u.  Excitation energy = 695.0075 eV.
 R0^2 = 0.0000  R1^2 = 0.8466  R2_CCVV^2 = 0.0007  R2_COVV^2 = 0.0764  Res^2 = 5.09e-06
 Conv-d = yes

 Amplitude    Transitions between orbitals
  0.5776       1 (A') A                  ->    6 (A") A                   
  0.5776       1 (A') B                  ->    6 (A") B                   
  0.2268       1 (A') A                  ->    4 (A") A                   
  0.2268       1 (A') B                  ->    4 (A") B                   
  0.1153       1 (A') A                  ->    7 (A") A                   
  0.1153       1 (A') B                  ->    7 (A") B                   

              Summary of significant orbitals:

               Number  Type             Irrep      Energy
               1       Occ  Alpha       1 (A')    -26.3105
               1       Occ  Beta        1 (A')    -26.3105
               18      Vir  Alpha       4 (A")      0.0953
               26      Vir  Alpha       6 (A")      0.2297
               30      Vir  Alpha       7 (A")      0.2761
               18      Vir  Beta        4 (A")      0.0953
               26      Vir  Beta        6 (A")      0.2297
               30      Vir  Beta        7 (A")      0.2761


 EOMEE transition 5/A"
 Total energy = -151.97163452 a.u.  Excitation energy = 697.3132 eV.
 R0^2 = 0.0000  R1^2 = 0.8410  R2_CCVV^2 = 0.0006  R2_COVV^2 = 0.0792  Res^2 = 3.71e-05
 Conv-d = yes

 Amplitude    Transitions between orbitals
  0.5288       1 (A') A                  ->    7 (A") A                   
  0.5288       1 (A') B                  ->    7 (A") B                   
 -0.2486       1 (A') A                  ->    8 (A") A                   
 -0.2486       1 (A') B                  ->    8 (A") B                   
 -0.1552       1 (A') A                  ->    9 (A") A                   
 -0.1552       1 (A') B                  ->    9 (A") B                   
 -0.1182       1 (A') A                  ->    6 (A") A                   
 -0.1182       1 (A') B                  ->    6 (A") B                   
 -0.1121       1 (A') A                  ->    12 (A") A                  
 -0.1121       1 (A') B                  ->    12 (A") B                  

              Summary of significant orbitals:

               Number  Type             Irrep      Energy
               1       Occ  Alpha       1 (A')    -26.3105
               1       Occ  Beta        1 (A')    -26.3105
               26      Vir  Alpha       6 (A")      0.2297
               30      Vir  Alpha       7 (A")      0.2761
               32      Vir  Alpha       8 (A")      0.2988
               36      Vir  Alpha       9 (A")      0.3710
               44      Vir  Alpha      12 (A")      0.4484
               26      Vir  Beta        6 (A")      0.2297
               30      Vir  Beta        7 (A")      0.2761
               32      Vir  Beta        8 (A")      0.2988
               36      Vir  Beta        9 (A")      0.3710
               44      Vir  Beta       12 (A")      0.4484


 EOMEE transition 6/A"
 Total energy = -151.94669303 a.u.  Excitation energy = 697.9919 eV.
 R0^2 = 0.0000  R1^2 = 0.8404  R2_CCVV^2 = 0.0006  R2_COVV^2 = 0.0795  Res^2 = 2.41e-05
 Conv-d = yes

 Amplitude    Transitions between orbitals
 -0.5591       1 (A') A                  ->    8 (A") A                   
 -0.5591       1 (A') B                  ->    8 (A") B                   
 -0.2858       1 (A') A                  ->    7 (A") A                   
 -0.2858       1 (A') B                  ->    7 (A") B                   
  0.1092       1 (A') A                  ->    11 (A") A                  
  0.1092       1 (A') B                  ->    11 (A") B                  

              Summary of significant orbitals:

               Number  Type             Irrep      Energy
               1       Occ  Alpha       1 (A')    -26.3105
               1       Occ  Beta        1 (A')    -26.3105
               30      Vir  Alpha       7 (A")      0.2761
               32      Vir  Alpha       8 (A")      0.2988
               43      Vir  Alpha      11 (A")      0.4406
               30      Vir  Beta        7 (A")      0.2761
               32      Vir  Beta        8 (A")      0.2988
               43      Vir  Beta       11 (A")      0.4406


 EOMEE transition 7/A"
 Total energy = -151.89419670 a.u.  Excitation energy = 699.4204 eV.
 R0^2 = 0.0000  R1^2 = 0.8407  R2_CCVV^2 = 0.0006  R2_COVV^2 = 0.0793  Res^2 = 5.83e-05
 Conv-d = yes

 Amplitude    Transitions between orbitals
  0.4199       1 (A') A                  ->    10 (A") A                  
  0.4199       1 (A') B                  ->    10 (A") B                  
 -0.3495       1 (A') A                  ->    9 (A") A                   
 -0.3495       1 (A') B                  ->    9 (A") B                   
 -0.2187       1 (A') A                  ->    12 (A") A                  
 -0.2187       1 (A') B                  ->    12 (A") B                  
  0.1412       1 (A') A                  ->    8 (A") A                   
  0.1412       1 (A') B                  ->    8 (A") B                   
  0.1399       1 (A') A                  ->    11 (A") A                  
  0.1399       1 (A') B                  ->    11 (A") B                  
 -0.1283       1 (A') A                  ->    7 (A") A                   
 -0.1283       1 (A') B                  ->    7 (A") B                   

              Summary of significant orbitals:

               Number  Type             Irrep      Energy
               1       Occ  Alpha       1 (A')    -26.3105
               1       Occ  Beta        1 (A')    -26.3105
               30      Vir  Alpha       7 (A")      0.2761
               32      Vir  Alpha       8 (A")      0.2988
               36      Vir  Alpha       9 (A")      0.3710
               39      Vir  Alpha      10 (A")      0.3965
               43      Vir  Alpha      11 (A")      0.4406
               44      Vir  Alpha      12 (A")      0.4484
               30      Vir  Beta        7 (A")      0.2761
               32      Vir  Beta        8 (A")      0.2988
               36      Vir  Beta        9 (A")      0.3710
               39      Vir  Beta       10 (A")      0.3965
               43      Vir  Beta       11 (A")      0.4406
               44      Vir  Beta       12 (A")      0.4484


 EOMEE transition 8/A"
 Total energy = -151.86541945 a.u.  Excitation energy = 700.2035 eV.
 R0^2 = 0.0000  R1^2 = 0.8363  R2_CCVV^2 = 0.0006  R2_COVV^2 = 0.0815  Res^2 = 3.07e-05
 Conv-d = yes

 Amplitude    Transitions between orbitals
[...]
   B->A: 0.010641 (X -0.004678, Y 0.009557, Z 0.000000)
 Oscillator strength (a.u.): 0.001885
 Norm of one-particle transition density matrix:
   A->B: 0.917147;   B->A: 0.883728
   ||gamma^AB||*||gamma^BA||: 0.810508

 ------------------------------------------------------------------------------
 State A: ccsd: 0/A'
 State B: cvs_eomee_ccsd/rhfref/singlets: 6/A'
 Transition dipole moment (a.u.):
   A->B: 0.016556 (X 0.015052, Y 0.006895, Z 0.000000)
   B->A: 0.016765 (X 0.015188, Y 0.007099, Z 0.000000)
 Oscillator strength (a.u.): 0.004718
 Norm of one-particle transition density matrix:
   A->B: 0.917602;   B->A: 0.885405
   ||gamma^AB||*||gamma^BA||: 0.812449

 ------------------------------------------------------------------------------
 State A: ccsd: 0/A'
 State B: cvs_eomee_ccsd/rhfref/singlets: 7/A'
 Transition dipole moment (a.u.):
   A->B: 0.007577 (X -0.006973, Y -0.002965, Z 0.000000)
   B->A: 0.007509 (X -0.006790, Y -0.003206, Z 0.000000)
 Oscillator strength (a.u.): 0.000967
 Norm of one-particle transition density matrix:
   A->B: 0.917101;   B->A: 0.884599
   ||gamma^AB||*||gamma^BA||: 0.811267

 ------------------------------------------------------------------------------
 State A: ccsd: 0/A'
 State B: cvs_eomee_ccsd/rhfref/singlets: 8/A'
 Transition dipole moment (a.u.):
   A->B: 0.011613 (X -0.009469, Y 0.006723, Z 0.000000)
   B->A: 0.011628 (X -0.009249, Y 0.007048, Z 0.000000)
 Oscillator strength (a.u.): 0.002296
 Norm of one-particle transition density matrix:
   A->B: 0.915436;   B->A: 0.884735
   ||gamma^AB||*||gamma^BA||: 0.809918

 ------------------------------------------------------------------------------
 State A: ccsd: 0/A'
 State B: cvs_eomee_ccsd/rhfref/singlets: 9/A'
 Transition dipole moment (a.u.):
   A->B: 0.009246 (X -0.002068, Y -0.009012, Z 0.000000)
   B->A: 0.009392 (X -0.002196, Y -0.009132, Z 0.000000)
 Oscillator strength (a.u.): 0.001478
 Norm of one-particle transition density matrix:
   A->B: 0.916414;   B->A: 0.883294
   ||gamma^AB||*||gamma^BA||: 0.809463

 ------------------------------------------------------------------------------
 State A: ccsd: 0/A'
 State B: cvs_eomee_ccsd/rhfref/singlets: 10/A'
 Transition dipole moment (a.u.):
   A->B: 0.002573 (X 0.001473, Y 0.002110, Z 0.000000)
   B->A: 0.002619 (X 0.001460, Y 0.002174, Z 0.000000)
 Oscillator strength (a.u.): 0.000115
 Norm of one-particle transition density matrix:
   A->B: 0.915902;   B->A: 0.881821
   ||gamma^AB||*||gamma^BA||: 0.807662

 ------------------------------------------------------------------------------
 State A: ccsd: 0/A'
 State B: cvs_eomee_ccsd/rhfref/singlets: 11/A'
 Transition dipole moment (a.u.):
   A->B: 0.010833 (X 0.010365, Y 0.003147, Z 0.000000)
   B->A: 0.011028 (X 0.010580, Y 0.003113, Z 0.000000)
 Oscillator strength (a.u.): 0.002036
 Norm of one-particle transition density matrix:
   A->B: 0.915915;   B->A: 0.883125
   ||gamma^AB||*||gamma^BA||: 0.808868

 ------------------------------------------------------------------------------
 State A: ccsd: 0/A'
 State B: cvs_eomee_ccsd/rhfref/singlets: 12/A'
 Transition dipole moment (a.u.):
   A->B: 0.011335 (X 0.004103, Y -0.010567, Z 0.000000)
   B->A: 0.011542 (X 0.004208, Y -0.010747, Z 0.000000)
 Oscillator strength (a.u.): 0.002231
 Norm of one-particle transition density matrix:
   A->B: 0.916689;   B->A: 0.884784
   ||gamma^AB||*||gamma^BA||: 0.811072

 ------------------------------------------------------------------------------
 State A: ccsd: 0/A'
 State B: cvs_eomee_ccsd/rhfref/singlets: 13/A'
 Transition dipole moment (a.u.):
   A->B: 0.001187 (X 0.000912, Y -0.000759, Z 0.000000)
   B->A: 0.001115 (X 0.000893, Y -0.000667, Z 0.000000)
 Oscillator strength (a.u.): 0.000023
 Norm of one-particle transition density matrix:
   A->B: 0.915386;   B->A: 0.881875
   ||gamma^AB||*||gamma^BA||: 0.807256

 ------------------------------------------------------------------------------
 State A: ccsd: 0/A'
 State B: cvs_eomee_ccsd/rhfref/singlets: 14/A'
 Transition dipole moment (a.u.):
   A->B: 0.013930 (X -0.012660, Y 0.005812, Z 0.000000)
   B->A: 0.014030 (X -0.012740, Y 0.005876, Z 0.000000)
 Oscillator strength (a.u.): 0.003339
 Norm of one-particle transition density matrix:
   A->B: 0.917410;   B->A: 0.885996
   ||gamma^AB||*||gamma^BA||: 0.812821

 ------------------------------------------------------------------------------
 State A: ccsd: 0/A'
 State B: cvs_eomee_ccsd/rhfref/singlets: 15/A'
 Transition dipole moment (a.u.):
   A->B: 0.014174 (X -0.013621, Y -0.003921, Z 0.000000)
   B->A: 0.014188 (X -0.013635, Y -0.003921, Z 0.000000)
 Oscillator strength (a.u.): 0.003439
 Norm of one-particle transition density matrix:
   A->B: 0.915644;   B->A: 0.884036
   ||gamma^AB||*||gamma^BA||: 0.809462

 ------------------------------------------------------------------------------
 State A: ccsd: 0/A'
 State B: cvs_eomee_ccsd/rhfref/singlets: 1/A"
 Transition dipole moment (a.u.):
   A->B: 0.022326 (X 0.000000, Y 0.000000, Z -0.022326)
   B->A: 0.023855 (X 0.000000, Y 0.000000, Z -0.023855)
 Oscillator strength (a.u.): 0.009013
 Norm of one-particle transition density matrix:
   A->B: 0.891995;   B->A: 0.885274
   ||gamma^AB||*||gamma^BA||: 0.789660

 ------------------------------------------------------------------------------
 State A: ccsd: 0/A'
 State B: cvs_eomee_ccsd/rhfref/singlets: 2/A"
 Transition dipole moment (a.u.):
   A->B: 0.007690 (X 0.000000, Y 0.000000, Z -0.007690)
   B->A: 0.007848 (X 0.000000, Y 0.000000, Z -0.007848)
 Oscillator strength (a.u.): 0.001024
 Norm of one-particle transition density matrix:
   A->B: 0.917526;   B->A: 0.884950
   ||gamma^AB||*||gamma^BA||: 0.811965

 ------------------------------------------------------------------------------
 State A: ccsd: 0/A'
 State B: cvs_eomee_ccsd/rhfref/singlets: 3/A"
 Transition dipole moment (a.u.):
   A->B: 0.001523 (X 0.000000, Y 0.000000, Z 0.001523)
   B->A: 0.001225 (X 0.000000, Y 0.000000, Z 0.001225)
 Oscillator strength (a.u.): 0.000032
 Norm of one-particle transition density matrix:
   A->B: 0.914408;   B->A: 0.882154
   ||gamma^AB||*||gamma^BA||: 0.806649

 ------------------------------------------------------------------------------
 State A: ccsd: 0/A'
 State B: cvs_eomee_ccsd/rhfref/singlets: 4/A"
 Transition dipole moment (a.u.):
   A->B: 0.019311 (X 0.000000, Y 0.000000, Z -0.019311)
   B->A: 0.019723 (X 0.000000, Y 0.000000, Z -0.019723)
 Oscillator strength (a.u.): 0.006485
 Norm of one-particle transition density matrix:
   A->B: 0.918455;   B->A: 0.887741
   ||gamma^AB||*||gamma^BA||: 0.815350

 ------------------------------------------------------------------------------
 State A: ccsd: 0/A'
 State B: cvs_eomee_ccsd/rhfref/singlets: 5/A"
 Transition dipole moment (a.u.):
   A->B: 0.004483 (X 0.000000, Y 0.000000, Z -0.004483)
   B->A: 0.004527 (X 0.000000, Y 0.000000, Z -0.004527)
 Oscillator strength (a.u.): 0.000347
 Norm of one-particle transition density matrix:
   A->B: 0.916025;   B->A: 0.882610
   ||gamma^AB||*||gamma^BA||: 0.808493

 ------------------------------------------------------------------------------
 State A: ccsd: 0/A'
 State B: cvs_eomee_ccsd/rhfref/singlets: 6/A"
 Transition dipole moment (a.u.):
   A->B: 0.001981 (X 0.000000, Y 0.000000, Z -0.001981)
   B->A: 0.002008 (X 0.000000, Y 0.000000, Z -0.002008)
 Oscillator strength (a.u.): 0.000068
 Norm of one-particle transition density matrix:
   A->B: 0.915936;   B->A: 0.882109
   ||gamma^AB||*||gamma^BA||: 0.807955

 ------------------------------------------------------------------------------
 State A: ccsd: 0/A'
 State B: cvs_eomee_ccsd/rhfref/singlets: 7/A"
 Transition dipole moment (a.u.):
   A->B: 0.000722 (X 0.000000, Y 0.000000, Z -0.000722)
   B->A: 0.000665 (X 0.000000, Y 0.000000, Z -0.000665)
 Oscillator strength (a.u.): 0.000008
 Norm of one-particle transition density matrix:
   A->B: 0.915596;   B->A: 0.882764
   ||gamma^AB||*||gamma^BA||: 0.808256

 ------------------------------------------------------------------------------
 State A: ccsd: 0/A'
 State B: cvs_eomee_ccsd/rhfref/singlets: 8/A"
 Transition dipole moment (a.u.):
   A->B: 0.001365 (X 0.000000, Y 0.000000, Z -0.001365)
   B->A: 0.001335 (X 0.000000, Y 0.000000, Z -0.001335)
 Oscillator strength (a.u.): 0.000031
 Norm of one-particle transition density matrix:
   A->B: 0.913435;   B->A: 0.879333
   ||gamma^AB||*||gamma^BA||: 0.803213

 ------------------------------------------------------------------------------
 State A: ccsd: 0/A'
 State B: cvs_eomee_ccsd/rhfref/singlets: 9/A"
 Transition dipole moment (a.u.):
   A->B: 0.013566 (X 0.000000, Y 0.000000, Z 0.013566)
   B->A: 0.013723 (X 0.000000, Y 0.000000, Z 0.013723)
 Oscillator strength (a.u.): 0.003197
 Norm of one-particle transition density matrix:
   A->B: 0.917097;   B->A: 0.884574
   ||gamma^AB||*||gamma^BA||: 0.811241

 ------------------------------------------------------------------------------
 State A: ccsd: 0/A'
 State B: cvs_eomee_ccsd/rhfref/singlets: 10/A"
 Transition dipole moment (a.u.):
   A->B: 0.003204 (X 0.000000, Y 0.000000, Z 0.003204)
   B->A: 0.003295 (X 0.000000, Y 0.000000, Z 0.003295)
 Oscillator strength (a.u.): 0.000182
 Norm of one-particle transition density matrix:
   A->B: 0.916178;   B->A: 0.881591
   ||gamma^AB||*||gamma^BA||: 0.807695


 All requested transition properties have been computed

 Transition Properties:   CPU 215.18 s  wall 38.28 s

 Total ccman2 time:   CPU 20132.56 s  wall 2761.96 s

 
 --------------------------------------------------------------
             Orbital Energies (a.u.) and Symmetries
 --------------------------------------------------------------
 
 Alpha MOs, Restricted
 -- Occupied --                  
-26.311 -11.329 -11.237  -1.627  -1.052  -0.838  -0.739  -0.691
  1 A'    2 A'    3 A'    4 A'    5 A'    6 A'    7 A'    1 A"                 
 -0.684  -0.589  -0.560  -0.385
  8 A'    9 A'   10 A'    2 A"                                                 
 -- Virtual --                   
  0.030   0.039   0.046   0.090   0.090   0.095   0.103   0.128
 11 A'   12 A'   13 A'    3 A"   14 A'    4 A"   15 A'   16 A'                 
  0.139   0.154   0.170   0.182   0.193   0.230   0.233   0.251
 17 A'   18 A'    5 A"   19 A'   20 A'    6 A"   21 A'   22 A'                 
  0.267   0.276   0.293   0.299   0.300   0.333   0.360   0.371
 23 A'    7 A"   24 A'    8 A"   25 A'   26 A'   27 A'    9 A"                 
  0.379   0.385   0.396   0.398   0.410   0.428   0.441   0.448
 28 A'   29 A'   10 A"   30 A'   31 A'   32 A'   11 A"   12 A"                 
  0.463   0.484   0.492   0.518   0.569   0.580   0.610   0.619
 33 A'   34 A'   35 A'   36 A'   13 A"   37 A'   14 A"   38 A'                 
  0.638   0.719   0.733   0.758   0.807   0.836   0.850   0.858
 39 A'   40 A'   15 A"   41 A'   42 A'   43 A'   16 A"   44 A'                 
  0.893   0.896   0.902   0.916   0.930   0.943   0.952   0.955
 45 A'   46 A'   17 A"   47 A'   48 A'   18 A"   49 A'   19 A"                 
  0.979   0.986   0.996   1.027   1.055   1.057   1.076   1.086
 20 A"   50 A'   51 A'   52 A'   53 A'   21 A"   22 A"   54 A'                 
  1.095   1.118   1.119   1.132   1.145   1.179   1.227   1.270
 23 A"   55 A'   24 A"   56 A'   25 A"   57 A'   58 A'   59 A'                 
  1.295   1.314   1.322   1.374   1.435   1.437   1.464   1.508
 60 A'   26 A"   61 A'   27 A"   28 A"   62 A'   63 A'   64 A'                 
  1.547   1.560   1.596   1.600   1.627   1.686   1.726   1.733
 29 A"   65 A'   66 A'   30 A"   31 A"   67 A'   68 A'   69 A'                 
  1.742   1.760   1.790   1.838   1.855   1.903   1.914   1.972
 32 A"   70 A'   33 A"   71 A'   72 A'   73 A'   34 A"   74 A'                 
  2.015   2.020   2.049   2.084   2.121   2.242   2.280   2.282
 35 A"   75 A'   76 A'   36 A"   77 A'   78 A'   37 A"   79 A'                 
  2.413   2.441   2.654   2.766   2.776   2.939   2.980   2.986
 80 A'   81 A'   82 A'   83 A'   38 A"   39 A"   40 A"   84 A'                 
  3.057   3.061   3.077   3.097   3.161   3.197   3.213   3.244
 41 A"   85 A'   86 A'   87 A'   88 A'   42 A"   89 A'   90 A'                 
  3.273   3.315   3.359   3.377   3.426   3.435   3.516   3.528
 43 A"   91 A'   44 A"   45 A"   92 A'   46 A"   47 A"   93 A'                 
  3.546   3.571   3.616   3.657   3.660   3.711   3.748   3.749
 94 A'   48 A"   95 A'   49 A"   96 A'   97 A'   50 A"   98 A'                 
  3.767   3.808   3.825   3.915   3.990   4.066   4.067   4.146
 51 A"   99 A'  100 A'  101 A'  102 A'   52 A"  103 A'  104 A'                 
  4.187   4.234   4.252   4.316   4.344   4.404   4.460   4.516
105 A'  106 A'   53 A"   54 A"  107 A'  108 A'   55 A"  109 A'                 
  4.581   4.639   4.690   4.787   4.787   4.873   4.909   4.961
 56 A"  110 A'   57 A"  111 A'  112 A'   58 A"  113 A'   59 A"                 
  4.992   5.012   5.121   5.123   5.242   5.296   5.344   5.380
 60 A"  114 A'  115 A'   61 A"  116 A'  117 A'   62 A"  118 A'                 
  5.478   5.494   5.636   5.641   5.703   5.852   6.116   6.292
119 A'   63 A"  120 A'   64 A"  121 A'  122 A'  123 A'  124 A'                 
  6.565   6.693   6.893   7.311   8.914   8.941   9.170   9.201
125 A'  126 A'  127 A'  128 A'   65 A"  129 A'   66 A"  130 A'                 
  9.323   9.372   9.403   9.485   9.495   9.634   9.871   9.890
 67 A"  131 A'   68 A"  132 A'  133 A'   69 A"  134 A'  135 A'                 
 14.746  17.068  17.328
136 A'  137 A'  138 A'                                                         
 
 Beta MOs, Restricted
 -- Occupied --                  
-26.311 -11.329 -11.237  -1.627  -1.052  -0.838  -0.739  -0.691
  1 A'    2 A'    3 A'    4 A'    5 A'    6 A'    7 A'    1 A"                 
 -0.684  -0.589  -0.560  -0.385
  8 A'    9 A'   10 A'    2 A"                                                 
 -- Virtual --                   
  0.030   0.039   0.046   0.090   0.090   0.095   0.103   0.128
 11 A'   12 A'   13 A'    3 A"   14 A'    4 A"   15 A'   16 A'                 
  0.139   0.154   0.170   0.182   0.193   0.230   0.233   0.251
 17 A'   18 A'    5 A"   19 A'   20 A'    6 A"   21 A'   22 A'                 
  0.267   0.276   0.293   0.299   0.300   0.333   0.360   0.371
 23 A'    7 A"   24 A'    8 A"   25 A'   26 A'   27 A'    9 A"                 
  0.379   0.385   0.396   0.398   0.410   0.428   0.441   0.448
 28 A'   29 A'   10 A"   30 A'   31 A'   32 A'   11 A"   12 A"                 
  0.463   0.484   0.492   0.518   0.569   0.580   0.610   0.619
 33 A'   34 A'   35 A'   36 A'   13 A"   37 A'   14 A"   38 A'                 
  0.638   0.719   0.733   0.758   0.807   0.836   0.850   0.858
 39 A'   40 A'   15 A"   41 A'   42 A'   43 A'   16 A"   44 A'                 
  0.893   0.896   0.902   0.916   0.930   0.943   0.952   0.955
 45 A'   46 A'   17 A"   47 A'   48 A'   18 A"   49 A'   19 A"                 
  0.979   0.986   0.996   1.027   1.055   1.057   1.076   1.086
 20 A"   50 A'   51 A'   52 A'   53 A'   21 A"   22 A"   54 A'                 
  1.095   1.118   1.119   1.132   1.145   1.179   1.227   1.270
 23 A"   55 A'   24 A"   56 A'   25 A"   57 A'   58 A'   59 A'                 
  1.295   1.314   1.322   1.374   1.435   1.437   1.464   1.508
 60 A'   26 A"   61 A'   27 A"   28 A"   62 A'   63 A'   64 A'                 
  1.547   1.560   1.596   1.600   1.627   1.686   1.726   1.733
 29 A"   65 A'   66 A'   30 A"   31 A"   67 A'   68 A'   69 A'                 
  1.742   1.760   1.790   1.838   1.855   1.903   1.914   1.972
 32 A"   70 A'   33 A"   71 A'   72 A'   73 A'   34 A"   74 A'                 
  2.015   2.020   2.049   2.084   2.121   2.242   2.280   2.282
 35 A"   75 A'   76 A'   36 A"   77 A'   78 A'   37 A"   79 A'                 
  2.413   2.441   2.654   2.766   2.776   2.939   2.980   2.986
 80 A'   81 A'   82 A'   83 A'   38 A"   39 A"   40 A"   84 A'                 
  3.057   3.061   3.077   3.097   3.161   3.197   3.213   3.244
 41 A"   85 A'   86 A'   87 A'   88 A'   42 A"   89 A'   90 A'                 
  3.273   3.315   3.359   3.377   3.426   3.435   3.516   3.528
 43 A"   91 A'   44 A"   45 A"   92 A'   46 A"   47 A"   93 A'                 
  3.546   3.571   3.616   3.657   3.660   3.711   3.748   3.749
 94 A'   48 A"   95 A'   49 A"   96 A'   97 A'   50 A"   98 A'                 
  3.767   3.808   3.825   3.915   3.990   4.066   4.067   4.146
 51 A"   99 A'  100 A'  101 A'  102 A'   52 A"  103 A'  104 A'                 
  4.187   4.234   4.252   4.316   4.344   4.404   4.460   4.516
105 A'  106 A'   53 A"   54 A"  107 A'  108 A'   55 A"  109 A'                 
  4.581   4.639   4.690   4.787   4.787   4.873   4.909   4.961
 56 A"  110 A'   57 A"  111 A'  112 A'   58 A"  113 A'   59 A"                 
  4.992   5.012   5.121   5.123   5.242   5.296   5.344   5.380
 60 A"  114 A'  115 A'   61 A"  116 A'  117 A'   62 A"  118 A'                 
  5.478   5.494   5.636   5.641   5.703   5.852   6.116   6.292
119 A'   63 A"  120 A'   64 A"  121 A'  122 A'  123 A'  124 A'                 
  6.565   6.693   6.893   7.311   8.914   8.941   9.170   9.201
125 A'  126 A'  127 A'  128 A'   65 A"  129 A'   66 A"  130 A'                 
  9.323   9.372   9.403   9.485   9.495   9.634   9.871   9.890
 67 A"  131 A'   68 A"  132 A'  133 A'   69 A"  134 A'  135 A'                 
 14.746  17.068  17.328
136 A'  137 A'  138 A'                                                         
 --------------------------------------------------------------
 
          Ground-State Mulliken Net Atomic Charges

     Atom                 Charge (a.u.)
  ----------------------------------------
      1 F                    -0.400006
      2 C                    -1.034089
      3 C                    -0.184387
      4 H                     0.733406
      5 H                     0.466920
      6 H                     0.418156
  ----------------------------------------
  Sum of atomic charges =     0.000000

 -----------------------------------------------------------------
                    Cartesian Multipole Moments
 -----------------------------------------------------------------
    Charge (ESU x 10^10)
                 0.0000
    Dipole Moment (Debye)
         X      -1.3467      Y      -0.8360      Z       0.0000
       Tot       1.5851
    Quadrupole Moments (Debye-Ang)
        XX     -17.8344     XY      -0.9542     YY     -15.3428
        XZ       0.0000     YZ       0.0000     ZZ     -19.3724
    Octopole Moments (Debye-Ang^2)
       XXX       3.8660    XXY      -0.1821    XYY       2.3132
       YYY       0.5588    XXZ       0.0000    XYZ       0.0000
       YYZ      -0.0000    XZZ       5.0470    YZZ       0.7889
       ZZZ      -0.0000
    Hexadecapole Moments (Debye-Ang^3)
      XXXX    -118.3746   XXXY       3.8680   XXYY     -26.0777
      XYYY      -0.5939   YYYY     -34.6755   XXXZ       0.0000
      XXYZ       0.0000   XYYZ       0.0000   YYYZ       0.0000
      XXZZ     -26.1620   XYZZ       0.3717   YYZZ     -10.9451
      XZZZ       0.0000   YZZZ       0.0000   ZZZZ     -21.2159
 -----------------------------------------------------------------
Archival summary:
1\1\n-62-29-14\SP\ProcedureUnspecified\BasisUnspecified\123\malop\TueAug1411:25:302018TueAug1411:25:302018\0\\#,ProcedureUnspecified,BasisUnspecified,\\0,1\C\H,1,1.08083\C,1,1.32523,2,125.835\H,3,1.07898,1,118.942,2,-0,0\H,3,1.08006,1,121.377,2,-180,0\F,1,1.34281,2,112.267,3,180,0\\HF=-176.956311\\@

 Total job time:  2812.45s(wall), 20412.79s(cpu) 
 Tue Aug 14 11:25:30 2018

        *************************************************************
        *                                                           *
        *  Thank you very much for using Q-Chem.  Have a nice day.  *
        *                                                           *
        *************************************************************


