n-62-29-11 10.66.29
Q-Chem Developer Version! Running on 10.66.29.*
                  Welcome to Q-Chem
     A Quantum Leap Into The Future Of Chemistry


 Q-Chem 5.1, Q-Chem, Inc., Pleasanton, CA (2018)

 Yihan Shao,  Zhengting Gan,  E. Epifanovsky,  A. T. B. Gilbert,  M. Wormit,  
 J. Kussmann,  A. W. Lange,  A. Behn,  Jia Deng,  Xintian Feng,  D. Ghosh,  
 M. Goldey,  P. R. Horn,  L. D. Jacobson,  I. Kaliman,  T. Kus,  A. Landau,  
 Jie Liu,  E. I. Proynov,  R. M. Richard,  R. P. Steele,  E. J. Sundstrom,  
 H. L. Woodcock III,  P. M. Zimmerman,  D. Zuev,  B. Albrecht,  E. Alguire,  
 S. A. Baeppler,  D. Barton,  Z. Benda,  Y. A. Bernard,  E. J. Berquist,  
 K. B. Bravaya,  H. Burton,  D. Casanova,  Chun-Min Chang,  Yunqing Chen,  
 A. Chien,  K. D. Closser,  M. P. Coons,  S. Coriani,  S. Dasgupta,  
 A. L. Dempwolff,  M. Diedenhofen,  Hainam Do,  R. G. Edgar,  Po-Tung Fang,  
 S. Faraji,  S. Fatehi,  Qingguo Feng,  K. D. Fenk,  J. Fosso-Tande,  
 Qinghui Ge,  A. Ghysels,  G. Gidofalvi,  J. Gomes,  J. Gonthier,  A. Gunina,  
 M. W. D. Hanson-Heine,  P. H. P. Harbach,  A. W. Hauser,  J. E. Herr,  
 E. G. Hohenstein,  Z. C. Holden,  Kerwin Hui,  T.-C. Jagau,  Hyunjun Ji,  
 B. Kaduk,  K. Khistyaev,  Jaehoon Kim,  P. Klunzinger,  K. Koh,  
 D. Kosenkov,  L. Koulias,  T. Kowalczyk,  C. M. Krauter,  A. Kunitsa,  
 Ka Un Lao,  A. Laurent,  K. V. Lawler,  Joonho Lee,  D. Lefrancois,  
 S. Lehtola,  D. S. Levine,  Yi-Pei Li,  You-Sheng Lin,  Fenglai Liu,  
 E. Livshits,  A. Luenser,  P. Manohar,  E. Mansoor,  S. F. Manzer,  
 Shan-Ping Mao,  Yuezhi Mao,  N. Mardirossian,  A. V. Marenich,  
 T. Markovich,  L. A. Martinez-Martinez,  S. A. Maurer,  N. J. Mayhall,  
 S. C. McKenzie,  J.-M. Mewes,  A. F. Morrison,  J. W. Mullinax,  K. Nanda,  
 T. S. Nguyen-Beck,  R. Olivares-Amaya,  J. A. Parkhill,  T. M. Perrine,  
 F. Plasser,  P. Pokhilko,  S. Prager,  A. Prociuk,  E. Ramos,  D. R. Rehn,  
 F. Rob,  M. Schneider,  N. Sergueev,  S. M. Sharada,  S. Sharma,  
 D. W. Small,  T. Stauch,  T. Stein,  Yu-Chuan Su,  A. J. W. Thom,  
 A. Tkatchenko,  T. Tsuchimochi,  N. M. Tubman,  L. Vogt,  M. L. Vidal,  
 O. Vydrov,  M. A. Watson,  J. Wenzel,  M. de Wergifosse,  T. A. Wesolowski,  
 A. White,  J. Witte,  A. Yamada,  Jun Yang,  K. Yao,  S. Yeganeh,  
 S. R. Yost,  Zhi-Qiang You,  A. Zech,  Igor Ying Zhang,  Xing Zhang,  
 Yan Zhao,  Ying Zhu,  B. R. Brooks,  G. K. L. Chan,  C. J. Cramer,  
 M. S. Gordon,  W. J. Hehre,  A. Klamt,  M. W. Schmidt,  C. D. Sherrill,  
 D. G. Truhlar,  A. Aspuru-Guzik,  R. Baer,  A. T. Bell,  N. A. Besley,  
 Jeng-Da Chai,  R. A. DiStasio Jr.,  A. Dreuw,  B. D. Dunietz,  
 T. R. Furlani,  Chao-Ping Hsu,  Yousung Jung,  Jing Kong,  D. S. Lambrecht,  
 WanZhen Liang,  C. Ochsenfeld,  V. A. Rassolov,  L. V. Slipchenko,  
 J. E. Subotnik,  T. Van Voorhis,  J. M. Herbert,  A. I. Krylov,  
 P. M. W. Gill,  M. Head-Gordon

 Contributors to earlier versions of Q-Chem not listed above: 
 R. D. Adamson,  B. Austin,  J. Baker,  G. J. O. Beran,  K. Brandhorst,  
 S. T. Brown,  E. F. C. Byrd,  A. K. Chakraborty,  C.-L. Cheng,  
 Siu Hung Chien,  D. M. Chipman,  D. L. Crittenden,  H. Dachsel,  
 R. J. Doerksen,  A. D. Dutoi,  L. Fusti-Molnar,  W. A. Goddard III,  
 A. Golubeva-Zadorozhnaya,  S. R. Gwaltney,  G. Hawkins,  A. Heyden,  
 S. Hirata,  G. Kedziora,  F. J. Keil,  C. Kelley,  Jihan Kim,  R. A. King,  
 R. Z. Khaliullin,  P. P. Korambath,  W. Kurlancheek,  A. M. Lee,  M. S. Lee,  
 S. V. Levchenko,  Ching Yeh Lin,  D. Liotard,  R. C. Lochan,  I. Lotan,  
 P. E. Maslen,  N. Nair,  D. P. O'Neill,  D. Neuhauser,  E. Neuscamman,  
 C. M. Oana,  R. Olson,  B. Peters,  R. Peverati,  P. A. Pieniazek,  
 Y. M. Rhee,  J. Ritchie,  M. A. Rohrdanz,  E. Rosta,  N. J. Russ,  
 H. F. Schaefer III,  N. E. Schultz,  N. Shenvi,  A. C. Simmonett,  A. Sodt,  
 D. Stuck,  K. S. Thanthiriwatte,  V. Vanovschi,  Tao Wang,  A. Warshel,  
 C. F. Williams,  Q. Wu,  X. Xu,  W. Zhang

 Please cite Q-Chem as follows:
 Y. Shao et al., Mol. Phys. 113, 184-215 (2015)
 DOI: 10.1080/00268976.2014.952696

 Q-Chem 5.1.0 for Intel X86 EM64T Linux

 Parts of Q-Chem use Armadillo 8.300.2 (Tropical Shenanigans).
 http://arma.sourceforge.net/

 Q-Chem begins on Fri May 25 16:40:05 2018  

Host: 
0

     Scratch files written to /work1/malop/qc_6079206.hnode2//

Checking the input file for inconsistencies... 	...done.

--------------------------------------------------------------
User input:
--------------------------------------------------------------
$comment 
NEXAFS VINYLFLUORIDE
$end

$molecule
0 1
C       1.1826448394     0.0548061476     0.0000000000
F      -1.1854318948     0.1635668874     0.0000000000
C       0.0616065814    -0.3344575735     0.0000000000
H       0.0709590846    -1.4152471088     0.0000000000
H       1.0359692299     1.5267000199     0.0000000000
H       2.1092745806    -0.0006549534     0.0000000000
$end

$rem
!    input_bohr = true
    jobtype = sp
    method = eom-ccsd
    cvs_ee_singlets    [5,5]
    basis = 6-311++G**
    n_frozen_core = fc 
    cc_trans_prop = true
    eom_preconv_singles = true
    eom_davidson_convergence = 3
    eom_davidson_threshold = 00103
$end

--------------------------------------------------------------
 ----------------------------------------------------------------
             Standard Nuclear Orientation (Angstroms)
    I     Atom           X                Y                Z
 ----------------------------------------------------------------
    1      C       1.1821106307     0.0587620256    -0.0000000000
    2      F      -1.1859658446     0.1675284028    -0.0000000000
    3      C       0.0610714460    -0.3304990268     0.0000000000
    4      H       0.0704213763    -1.4112885843     0.0000000000
    5      H       1.0354385251     1.5306562471    -0.0000000000
    6      H       2.1087402398     0.0032987187    -0.0000000000
 ----------------------------------------------------------------
 Molecular Point Group                 Cs    NOp =  2
 Largest Abelian Subgroup              Cs    NOp =  2
 Nuclear Repulsion Energy =    68.9560576729 hartrees
 There are       12 alpha and       12 beta electrons
 Requested basis set is 6-311++G(d,p)
 There are 33 shells and 87 basis functions
 Total memory of 2000MB is distributed as follows: 
   QALLOC including MEM_STATIC uses 192MB
   MEM_STATIC is set to 192MB
   CCMAN JOB total memory use is  1808MB
 Warning: actual memory use might exceed 2000MB

 Total QAlloc Memory Limit    192 MB
 Mega-Array Size       188 MB
 MEM_STATIC part       192 MB

                       Distance Matrix (Angstroms)
             C (  1)   F (  2)   C (  3)   H (  4)   H (  5)
   F (  2)  2.370573
   C (  3)  1.186698  1.342808
   H (  4)  1.843069  2.017715  1.080830
   H (  5)  1.479184  2.606291  2.100783  3.096175
   H (  6)  0.928288  3.298797  2.074697  2.481089  1.866761
 
 A cutoff of  1.0D-14 yielded    559 shell pairs
 There are      3934 function pairs (      4216 Cartesian)
 Smallest overlap matrix eigenvalue = 4.35E-05

 Scale SEOQF with 1.000000e-01/1.000000e-01/1.000000e-01

 Standard Electronic Orientation quadrupole field applied
 Nucleus-field energy     =     0.0000000013 hartrees
 Guess from superposition of atomic densities
 Warning:  Energy on first SCF cycle will be non-variational
 SAD guess density has 24.000000 electrons

 -----------------------------------------------------------------------
  General SCF calculation program by
  Eric Jon Sundstrom, Paul Horn, Yuezhi Mao, Dmitri Zuev, Alec White,
  David Stuck, Shaama M.S., Shane Yost, Joonho Lee, David Small,
  Daniel Levine, Susi Lehtola, Hugh Burton, Evgeny Epifanovsky
 -----------------------------------------------------------------------
 Hartree-Fock
 A restricted SCF calculation will be
 performed using DIIS
 SCF converges when DIIS error is below 1.0e-08
 ---------------------------------------
  Cycle       Energy         DIIS error
 ---------------------------------------
    1    -177.6806113308      7.25e-02  
    2    -176.7562857973      6.48e-03  
    3    -176.7936993798      2.71e-03  
    4    -176.7988433859      8.13e-04  
    5    -176.7996371278      1.89e-04  
    6    -176.7996921785      6.79e-05  
    7    -176.7996983713      1.93e-05  
    8    -176.7996992442      4.17e-06  
    9    -176.7996992852      8.27e-07  
   10    -176.7996992866      2.36e-07  
   11    -176.7996992867      6.29e-08  
   12    -176.7996992867      1.87e-08  
   13    -176.7996992867      4.95e-09  Convergence criterion met
 ---------------------------------------
 SCF time:   CPU 3.68s  wall 4.00s 
 SCF   energy in the final basis set =     -176.7996992867


 ------------------------------------------------------------------------------

   CCMAN2: suite of methods based on coupled cluster
           and equation of motion theories.

   Components:
   * libvmm-1.3-trunk
     by Evgeny Epifanovsky, Ilya Kaliman.
   * libtensor-2.5-trunk
     by Evgeny Epifanovsky, Michael Wormit, Dmitry Zuev, Sam Manzer, 
        Ilya Kaliman.
   * libcc-2.5-trunk
     by Evgeny Epifanovsky, Arik Landau, Tomasz Kus, Kirill Khistyaev, 
        Dmitry Zuev, Prashant Manohar, Xintian Feng, Anna Krylov, 
        Matthew Goldey, Alec White, Thomas Jagau, Kaushik Nanda, 
        Anastasia Gunina, Alexander Kunitsa, Joonho Lee.

   CCMAN original authors:
   Anna I. Krylov, C. David Sherrill, Steven R. Gwaltney,
   Edward F. C. Byrd (2000)
   Sergey V. Levchenko, Lyudmila V. Slipchenko, Tao Wang,
   Ana-Maria C. Cristian (2003)
   Piotr A. Pieniazek, C. Melania Oana, Evgeny Epifanovsky (2007)
   Prashant Manohar (2009)

 ------------------------------------------------------------------------------


 Calculation will run on 1 core with 1808MB of RAM.

 
 Alpha MOs, Restricted
 -- Occupied --                  
-26.327 -11.326 -11.251  -1.639  -1.114  -0.847  -0.764  -0.743
  1 A'    2 A'    3 A'    4 A'    5 A'    6 A'    7 A'    8 A'                 
 -0.704  -0.608  -0.442  -0.427
  1 A"    9 A'    2 A"   10 A'                                                 
 -- Virtual --                   
  0.040   0.057   0.078   0.112   0.113   0.124   0.136   0.170
 11 A'   12 A'   13 A'    3 A"   14 A'    4 A"   15 A'   16 A'                 
  0.177   0.181   0.191   0.229   0.236   0.310   0.334   0.380
 17 A'   18 A'   19 A'   20 A'    5 A"   21 A'   22 A'   23 A'                 
  0.387   0.445   0.461   0.530   0.554   0.619   0.645   0.658
  6 A"   24 A'   25 A'   26 A'   27 A'   28 A'   29 A'   30 A'                 
  0.670   0.794   0.804   0.835   0.887   0.998   1.137   1.221
  7 A"    8 A"   31 A'   32 A'   33 A'   34 A'   35 A'   36 A'                 
  1.232   1.394   1.451   1.502   1.615   1.652   1.680   1.722
  9 A"   10 A"   11 A"   37 A'   38 A'   12 A"   39 A'   40 A'                 
  1.774   1.872   1.877   1.903   2.007   2.030   2.198   2.210
 41 A'   13 A"   42 A'   43 A'   14 A"   44 A'   15 A"   45 A'                 
  2.365   2.416   2.518   2.646   2.716   2.887   2.906   3.050
 46 A'   47 A'   48 A'   16 A"   49 A'   50 A'   51 A'   52 A'                 
  3.080   3.129   3.282   3.494   3.651   3.759   4.107   4.202
 17 A"   53 A'   18 A"   54 A'   55 A'   56 A'   57 A'   58 A'                 
  4.215   4.270   4.452   4.601   5.262   6.923   7.007   7.339
 19 A"   59 A'   20 A"   60 A'   61 A'   21 A"   62 A'   63 A'                 
 24.807  26.227  68.737
 64 A'   65 A'   66 A'                                                         
 
 Beta MOs, Restricted
 -- Occupied --                  
-26.327 -11.326 -11.251  -1.639  -1.114  -0.847  -0.764  -0.743
  1 A'    2 A'    3 A'    4 A'    5 A'    6 A'    7 A'    8 A'                 
 -0.704  -0.608  -0.442  -0.427
  1 A"    9 A'    2 A"   10 A'                                                 
 -- Virtual --                   
  0.040   0.057   0.078   0.112   0.113   0.124   0.136   0.170
 11 A'   12 A'   13 A'    3 A"   14 A'    4 A"   15 A'   16 A'                 
  0.177   0.181   0.191   0.229   0.236   0.310   0.334   0.380
 17 A'   18 A'   19 A'   20 A'    5 A"   21 A'   22 A'   23 A'                 
  0.387   0.445   0.461   0.530   0.554   0.619   0.645   0.658
  6 A"   24 A'   25 A'   26 A'   27 A'   28 A'   29 A'   30 A'                 
  0.670   0.794   0.804   0.835   0.887   0.998   1.137   1.221
  7 A"    8 A"   31 A'   32 A'   33 A'   34 A'   35 A'   36 A'                 
  1.232   1.394   1.451   1.502   1.615   1.652   1.680   1.722
  9 A"   10 A"   11 A"   37 A'   38 A'   12 A"   39 A'   40 A'                 
  1.774   1.872   1.877   1.903   2.007   2.030   2.198   2.210
 41 A'   13 A"   42 A'   43 A'   14 A"   44 A'   15 A"   45 A'                 
  2.365   2.416   2.518   2.646   2.716   2.887   2.906   3.050
 46 A'   47 A'   48 A'   16 A"   49 A'   50 A'   51 A'   52 A'                 
  3.080   3.129   3.282   3.494   3.651   3.759   4.107   4.202
 17 A"   53 A'   18 A"   54 A'   55 A'   56 A'   57 A'   58 A'                 
  4.215   4.270   4.452   4.601   5.262   6.923   7.007   7.339
 19 A"   59 A'   20 A"   60 A'   61 A'   21 A"   62 A'   63 A'                 
 24.807  26.227  68.737
 64 A'   65 A'   66 A'                                                         

 Occupation and symmetry of molecular orbitals

 Point group: Cs (2 irreducible representations).

                           A'   A"    All 
 ------------------------------------------
 All molecular orbitals:
  - Alpha                  66   21    87  
  - Beta                   66   21    87  
 ------------------------------------------
 Alpha orbitals:
  - Frozen occupied        3    0     3   
  - Active occupied        7    2     9   
  - Active virtual         56   19    75  
  - Frozen virtual         0    0     0   
 ------------------------------------------
 Beta orbitals:
  - Frozen occupied        3    0     3   
  - Active occupied        7    2     9   
  - Active virtual         56   19    75  
  - Frozen virtual         0    0     0   
 ------------------------------------------

 Import integrals:   CPU 0.00 s  wall 0.00 s

 Import integrals:   CPU 2.72 s  wall 3.37 s

 MP2 amplitudes:   CPU 0.17 s  wall 0.19 s

           CCSD T amplitudes will be solved using DIIS.

           Start     Size      MaxIter   EConv     TConv     
           3         7         100       1.00e-06  1.00e-04  
 ------------------------------------------------------------------------------
           Energy (a.u.)   Ediff      Tdiff       Comment
 ------------------------------------------------------------------------------
          -177.29053211                           
     1    -177.29663660   6.10e-03   6.15e-01     
     2    -177.31062621   1.40e-02   7.77e-02     
     3    -177.31162801   1.00e-03   3.09e-02     
     4    -177.31334198   1.71e-03   1.18e-02     Switched to DIIS steps.
     5    -177.31400085   6.59e-04   9.95e-03     
     6    -177.31401722   1.64e-05   1.48e-03     
     7    -177.31401585   1.37e-06   6.83e-04     
     8    -177.31401626   4.16e-07   1.54e-04     
     9    -177.31401685   5.87e-07   6.13e-05     
 ------------------------------------------------------------------------------
          -177.31401685                           CCSD T converged.

 SCF energy                 = -176.79969929
 MP2 energy                 = -177.29053211
 CCSD correlation energy     =   -0.51431757
 CCSD total energy           = -177.31401685

 CCSD  T1^2 = 0.0066  T2^2 = 0.1705  Leading amplitudes:

 Amplitude    Orbitals with energies
  0.0180       1 (A") A                  ->    5 (A") A                   
              -0.7038                          0.2361                     
  0.0180       1 (A") B                  ->    5 (A") B                   
              -0.7038                          0.2361                     
  0.0144       1 (A") A                  ->    4 (A") A                   
              -0.7038                          0.1241                     
  0.0144       1 (A") B                  ->    4 (A") B                   
              -0.7038                          0.1241                     

 Amplitude    Orbitals with energies
 -0.0765       2 (A") A      2 (A") B    ->    5 (A") A      5 (A") B     
              -0.4417       -0.4417            0.2361        0.2361       
  0.0765       2 (A") A      2 (A") B    ->    5 (A") B      5 (A") A     
              -0.4417       -0.4417            0.2361        0.2361       
  0.0765       2 (A") B      2 (A") A    ->    5 (A") A      5 (A") B     
              -0.4417       -0.4417            0.2361        0.2361       
 -0.0765       2 (A") B      2 (A") A    ->    5 (A") B      5 (A") A     
              -0.4417       -0.4417            0.2361        0.2361       

 Computing CCSD intermediates for later calculations
 Finished.

           CCSD Lambda amplitudes will be solved using DIIS.
           Start     Size      MaxIter   EConv     LConv     
           3         7         100       1.00e-06  1.00e-04  
 ------------------------------------------------------------------------------
            Enorm      Ldiff       Comment
 ------------------------------------------------------------------------------
     1     3.86e-02   2.42e-02     
     2     1.14e-02   5.23e-03     
     3     4.35e-03   8.43e-04     
     4     2.21e-03   7.88e-04     Switched to DIIS steps.
     5     5.10e-04   4.65e-04     
     6     2.19e-04   7.54e-05     
     7     5.63e-05   1.65e-05     
     8     2.13e-05   3.81e-07     
     9     6.82e-06   1.73e-06     
    10     2.45e-06   6.18e-07     
    11     9.63e-07   1.79e-07     
 ------------------------------------------------------------------------------
                                   CCSD Lambda converged.

 CCSD calculation:   CPU 20.69 s  wall 21.15 s

        Solving for CVS-EOMEE-CCSD A' singlet states.

       EOMEE-CCSD-SINGLES right amplitudes will be solved using Davidson.
      Amplitudes will be solved using standard  algorithm
      Roots     MaxVec    MaxIter   Precond   Conv      Thresh    Shift    
      5         60        60        1         1.00e-03  1.00e-103 0.00e+00  
 ------------------------------------------------------------------------------
      Iter ConvRoots NVecs ResNorm Current eigenvalues (eV)
 ------------------------------------------------------------------------------
      0    0      5     7.70e-03   302.1105   302.9335   303.7496   304.4785   305.1416   
      1    0      10    6.26e-02   299.4388   302.1443   303.3412   304.0984   304.6186   
      2    1      15    3.64e-03   296.1642*  301.2554   302.8472   302.9577   303.5995   
      3    1      19    3.39e-03   296.1624*  301.2236   302.1174   302.7629   303.5537   
      4    1      23    4.01e-02   296.1614   301.2081   301.2692   302.7403*  303.2971   
      5    2      27    9.23e-03   296.1450*  300.3750   301.2183*  302.6720   302.7436   
      6    3      30    1.32e-03   296.1449*  300.1308   301.2181*  302.5254   302.7392*  
      7    5      32    1.25e-04   296.1450*  300.1120*  301.2181*  302.5056*  302.7391*  

     Davidson procedure converged

        CVS-EOMEE-CCSD/MP2 right amplitudes will be solved using Davidson.
      Amplitudes will be solved using standard  algorithm
      Roots     MaxVec    MaxIter   Precond   Conv      Thresh    Shift    
      5         60        60        1         1.00e-03  1.00e-103 0.00e+00  
 ------------------------------------------------------------------------------
      Iter ConvRoots NVecs ResNorm Current eigenvalues (eV)
 ------------------------------------------------------------------------------
      0    0      5     1.83e+00   296.1450   300.1120   301.2181   302.5056   302.7391   
      1    0      10    1.07e+00   293.7806   297.6162   298.4439   299.7958   299.9132   
      2    0      15    6.42e-02   287.0885   289.2353   290.1211   290.9975   291.9745   
      3    0      20    2.76e-02   286.2745   288.7483   289.6101   290.2157   291.2815   
      4    0      25    6.87e-03   286.0548   288.6609   289.5188   289.8880   291.0543   
      5    0      30    5.77e-03   286.0088   288.6123   289.4655   289.7161   290.9185   
      6    1      35    2.46e-03   285.9909*  288.5802   289.4290   289.6310   290.8174   
      7    2      39    1.52e-03   285.9883*  288.5653*  289.4069   289.5905   290.7573   
      8    3      42    9.36e-04   285.9877*  288.5652*  289.4003*  289.5765   290.7327   
      9    4      44    1.02e-03   285.9876*  288.5650*  289.4001*  289.5606*  290.7008   
      10   4      45    8.06e-04   285.9875*  288.5647*  289.3999*  289.5537*  290.6679   
      11   4      46    6.64e-04   285.9874*  288.5645*  289.3999*  289.5527*  290.6542   
      12   4      47    6.88e-04   285.9872*  288.5638*  289.3997*  289.5523*  290.6379   
      13   4      48    1.26e-03   285.9870*  288.5622*  289.3993*  289.5522*  290.6061   
      14   4      49    4.19e-03   285.9867*  288.5594*  289.3987*  289.5523*  290.4581   
      15   4      50    5.07e-03   285.9865*  288.5567*  289.3984*  289.5523*  290.1621   
      16   4      51    2.59e-03   285.9865*  288.5553*  289.3983*  289.5521*  289.9322   
      17   4      52    1.16e-03   285.9865*  288.5552*  289.3983*  289.5521*  289.8507   
      18   4      53    8.47e-04   285.9865*  288.5551*  289.3982*  289.5521*  289.8008   
      19   4      54    5.87e-04   285.9864*  288.5551*  289.3979*  289.5521*  289.7791   
      20   5      55    4.26e-04   285.9862*  288.5550*  289.3976*  289.5521*  289.7657*  

     Davidson procedure converged

 EOMEE transition 1/A'
 Total energy = -166.80421646 a.u.  Excitation energy = 285.9862 eV.
 R0^2 = 0.0000  R1^2 = 0.8145  R2_CCVV^2 = 0.0013  R2_COVV^2 = 0.0921  Res^2 = 4.77e-04
 Conv-d = yes

 Amplitude    Transitions between orbitals
 -0.2868       3 (A') A                  ->    18 (A') A                  
 -0.2868       3 (A') B                  ->    18 (A') B                  
 -0.2554       3 (A') A                  ->    13 (A') A                  
 -0.2554       3 (A') B                  ->    13 (A') B                  
 -0.2470       3 (A') A                  ->    19 (A') A                  
 -0.2470       3 (A') B                  ->    19 (A') B                  
  0.2173       3 (A') A                  ->    20 (A') A                  
  0.2173       3 (A') B                  ->    20 (A') B                  
  0.2129       3 (A') A                  ->    12 (A') A                  
  0.2129       3 (A') B                  ->    12 (A') B                  
 -0.2025       3 (A') A                  ->    14 (A') A                  
 -0.2025       3 (A') B                  ->    14 (A') B                  
  0.1231       3 (A') A                  ->    11 (A') A                  
  0.1231       3 (A') B                  ->    11 (A') B                  
  0.1095       3 (A') A                  ->    17 (A') A                  
  0.1095       3 (A') B                  ->    17 (A') B                  
 -0.1019       3 (A') A                  ->    16 (A') A                  
 -0.1019       3 (A') B                  ->    16 (A') B                  

              Summary of significant orbitals:

               Number  Type             Irrep      Energy
               3       Occ  Alpha       3 (A')    -11.2514
               3       Occ  Beta        3 (A')    -11.2514
               13      Vir  Alpha      11 (A')      0.0405
               14      Vir  Alpha      12 (A')      0.0567
               15      Vir  Alpha      13 (A')      0.0775
               17      Vir  Alpha      14 (A')      0.1131
               20      Vir  Alpha      16 (A')      0.1704
               21      Vir  Alpha      17 (A')      0.1775
               22      Vir  Alpha      18 (A')      0.1806
               23      Vir  Alpha      19 (A')      0.1908
               24      Vir  Alpha      20 (A')      0.2289
               13      Vir  Beta       11 (A')      0.0405
               14      Vir  Beta       12 (A')      0.0567
               15      Vir  Beta       13 (A')      0.0775
               17      Vir  Beta       14 (A')      0.1131
               20      Vir  Beta       16 (A')      0.1704
               21      Vir  Beta       17 (A')      0.1775
               22      Vir  Beta       18 (A')      0.1806
               23      Vir  Beta       19 (A')      0.1908
               24      Vir  Beta       20 (A')      0.2289


 EOMEE transition 2/A'
 Total energy = -166.70981503 a.u.  Excitation energy = 288.5550 eV.
 R0^2 = 0.0000  R1^2 = 0.8104  R2_CCVV^2 = 0.0012  R2_COVV^2 = 0.0942  Res^2 = 4.20e-04
 Conv-d = yes

 Amplitude    Transitions between orbitals
  0.5557       3 (A') A                  ->    11 (A') A                  
  0.5557       3 (A') B                  ->    11 (A') B                  
  0.1791       3 (A') A                  ->    17 (A') A                  
  0.1791       3 (A') B                  ->    17 (A') B                  
  0.1450       3 (A') A                  ->    19 (A') A                  
  0.1450       3 (A') B                  ->    19 (A') B                  
 -0.1192       3 (A') A                  ->    22 (A') A                  
 -0.1192       3 (A') B                  ->    22 (A') B                  

              Summary of significant orbitals:

               Number  Type             Irrep      Energy
               3       Occ  Alpha       3 (A')    -11.2514
               3       Occ  Beta        3 (A')    -11.2514
               13      Vir  Alpha      11 (A')      0.0405
               21      Vir  Alpha      17 (A')      0.1775
               23      Vir  Alpha      19 (A')      0.1908
               27      Vir  Alpha      22 (A')      0.3338
               13      Vir  Beta       11 (A')      0.0405
               21      Vir  Beta       17 (A')      0.1775
               23      Vir  Beta       19 (A')      0.1908
               27      Vir  Beta       22 (A')      0.3338


 EOMEE transition 3/A'
 Total energy = -166.67884947 a.u.  Excitation energy = 289.3976 eV.
 R0^2 = 0.0000  R1^2 = 0.8066  R2_CCVV^2 = 0.0012  R2_COVV^2 = 0.0961  Res^2 = 3.92e-04
 Conv-d = yes

 Amplitude    Transitions between orbitals
 -0.4812       3 (A') A                  ->    12 (A') A                  
 -0.4812       3 (A') B                  ->    12 (A') B                  
 -0.2111       3 (A') A                  ->    13 (A') A                  
 -0.2111       3 (A') B                  ->    13 (A') B                  
 -0.2039       3 (A') A                  ->    15 (A') A                  
 -0.2039       3 (A') B                  ->    15 (A') B                  
  0.1408       3 (A') A                  ->    16 (A') A                  
  0.1408       3 (A') B                  ->    16 (A') B                  
 -0.1361       3 (A') A                  ->    17 (A') A                  
 -0.1361       3 (A') B                  ->    17 (A') B                  
  0.1195       3 (A') A                  ->    20 (A') A                  
  0.1195       3 (A') B                  ->    20 (A') B                  
 -0.1099       3 (A') A                  ->    18 (A') A                  
 -0.1099       3 (A') B                  ->    18 (A') B                  

              Summary of significant orbitals:

               Number  Type             Irrep      Energy
               3       Occ  Alpha       3 (A')    -11.2514
               3       Occ  Beta        3 (A')    -11.2514
               14      Vir  Alpha      12 (A')      0.0567
               15      Vir  Alpha      13 (A')      0.0775
               19      Vir  Alpha      15 (A')      0.1361
               20      Vir  Alpha      16 (A')      0.1704
               21      Vir  Alpha      17 (A')      0.1775
               22      Vir  Alpha      18 (A')      0.1806
               24      Vir  Alpha      20 (A')      0.2289
               14      Vir  Beta       12 (A')      0.0567
               15      Vir  Beta       13 (A')      0.0775
               19      Vir  Beta       15 (A')      0.1361
               20      Vir  Beta       16 (A')      0.1704
               21      Vir  Beta       17 (A')      0.1775
               22      Vir  Beta       18 (A')      0.1806
               24      Vir  Beta       20 (A')      0.2289


 EOMEE transition 4/A'
 Total energy = -166.67317333 a.u.  Excitation energy = 289.5521 eV.
 R0^2 = 0.0000  R1^2 = 0.8284  R2_CCVV^2 = 0.0013  R2_COVV^2 = 0.0851  Res^2 = 2.13e-04
 Conv-d = yes

 Amplitude    Transitions between orbitals
 -0.2950       2 (A') A                  ->    14 (A') A                  
 -0.2950       2 (A') B                  ->    14 (A') B                  
  0.2664       2 (A') A                  ->    12 (A') A                  
  0.2664       2 (A') B                  ->    12 (A') B                  
 -0.2537       2 (A') A                  ->    19 (A') A                  
 -0.2537       2 (A') B                  ->    19 (A') B                  
 -0.2444       2 (A') A                  ->    18 (A') A                  
 -0.2444       2 (A') B                  ->    18 (A') B                  
 -0.1775       2 (A') A                  ->    13 (A') A                  
 -0.1775       2 (A') B                  ->    13 (A') B                  
  0.1394       2 (A') A                  ->    20 (A') A                  
  0.1394       2 (A') B                  ->    20 (A') B                  
  0.1371       2 (A') A                  ->    23 (A') A                  
  0.1371       2 (A') B                  ->    23 (A') B                  
 -0.1304       2 (A') A                  ->    16 (A') A                  
 -0.1304       2 (A') B                  ->    16 (A') B                  
  0.1086       2 (A') A                  ->    22 (A') A                  
  0.1086       2 (A') B                  ->    22 (A') B                  

              Summary of significant orbitals:

               Number  Type             Irrep      Energy
               2       Occ  Alpha       2 (A')    -11.3258
               2       Occ  Beta        2 (A')    -11.3258
               14      Vir  Alpha      12 (A')      0.0567
               15      Vir  Alpha      13 (A')      0.0775
               17      Vir  Alpha      14 (A')      0.1131
               20      Vir  Alpha      16 (A')      0.1704
               22      Vir  Alpha      18 (A')      0.1806
               23      Vir  Alpha      19 (A')      0.1908
               24      Vir  Alpha      20 (A')      0.2289
               27      Vir  Alpha      22 (A')      0.3338
               28      Vir  Alpha      23 (A')      0.3799
               14      Vir  Beta       12 (A')      0.0567
               15      Vir  Beta       13 (A')      0.0775
               17      Vir  Beta       14 (A')      0.1131
               20      Vir  Beta       16 (A')      0.1704
               22      Vir  Beta       18 (A')      0.1806
               23      Vir  Beta       19 (A')      0.1908
               24      Vir  Beta       20 (A')      0.2289
               27      Vir  Beta       22 (A')      0.3338
               28      Vir  Beta       23 (A')      0.3799


 EOMEE transition 5/A'
 Total energy = -166.66532240 a.u.  Excitation energy = 289.7657 eV.
 R0^2 = 0.0000  R1^2 = 0.7991  R2_CCVV^2 = 0.0012  R2_COVV^2 = 0.0999  Res^2 = 6.26e-04
 Conv-d = yes

 Amplitude    Transitions between orbitals
  0.3931       3 (A') A                  ->    14 (A') A                  
  0.3931       3 (A') B                  ->    14 (A') B                  
 -0.3833       3 (A') A                  ->    13 (A') A                  
 -0.3833       3 (A') B                  ->    13 (A') B                  
  0.1741       3 (A') A                  ->    16 (A') A                  
  0.1741       3 (A') B                  ->    16 (A') B                  
  0.1220       3 (A') A                  ->    12 (A') A                  
  0.1220       3 (A') B                  ->    12 (A') B                  
 -0.1070       3 (A') A                  ->    23 (A') A                  
 -0.1070       3 (A') B                  ->    23 (A') B                  

              Summary of significant orbitals:

               Number  Type             Irrep      Energy
               3       Occ  Alpha       3 (A')    -11.2514
               3       Occ  Beta        3 (A')    -11.2514
               14      Vir  Alpha      12 (A')      0.0567
               15      Vir  Alpha      13 (A')      0.0775
               17      Vir  Alpha      14 (A')      0.1131
               20      Vir  Alpha      16 (A')      0.1704
               28      Vir  Alpha      23 (A')      0.3799
               14      Vir  Beta       12 (A')      0.0567
               15      Vir  Beta       13 (A')      0.0775
               17      Vir  Beta       14 (A')      0.1131
               20      Vir  Beta       16 (A')      0.1704
               28      Vir  Beta       23 (A')      0.3799


      CVS-EOM-CCSD/MP2 left amplitudes will be solved using Davidson.
      Amplitudes will be solved using MOM  algorithm
      Roots     MaxVec    MaxIter   Precond   Conv      Thresh    Shift    
      5         60        60        1         1.00e-03  1.00e-103 0.00e+00  
 ------------------------------------------------------------------------------
      Iter ConvRoots NVecs ResNorm Current eigenvalues (eV)
 ------------------------------------------------------------------------------
      0    0      5     2.25e-02   285.9862   288.5550   289.3976   289.5521   289.7657   
      1    0      10    4.32e-02   285.9804   288.5514   289.3927   289.5497   289.7595   
      2    1      15    1.19e-03   285.9815*  288.5529   289.3927   289.5509   289.7631   
      3    5      19    3.53e-04   285.9815*  288.5512*  289.3905*  289.5501*  289.7612*  

     Davidson procedure converged

        Solving for CVS-EOMEE-CCSD A" singlet states.

       EOMEE-CCSD-SINGLES right amplitudes will be solved using Davidson.
      Amplitudes will be solved using standard  algorithm
      Roots     MaxVec    MaxIter   Precond   Conv      Thresh    Shift    
      5         60        60        1         1.00e-03  1.00e-103 0.00e+00  
 ------------------------------------------------------------------------------
      Iter ConvRoots NVecs ResNorm Current eigenvalues (eV)
 ------------------------------------------------------------------------------
      0    0      5     1.90e-02   299.5260   303.4350   304.9361   305.5675   305.8146   
      1    0      10    3.90e-02   297.6743   301.7291   302.9713   305.3706   305.5756   
      2    5      15    1.79e-04   297.3381*  298.2852*  302.8922*  305.3417*  305.5000*  

     Davidson procedure converged

        CVS-EOMEE-CCSD/MP2 right amplitudes will be solved using Davidson.
      Amplitudes will be solved using standard  algorithm
      Roots     MaxVec    MaxIter   Precond   Conv      Thresh    Shift    
      5         60        60        1         1.00e-03  1.00e-103 0.00e+00  
 ------------------------------------------------------------------------------
      Iter ConvRoots NVecs ResNorm Current eigenvalues (eV)
 ------------------------------------------------------------------------------
      0    0      5     1.85e+00   297.3381   298.2852   302.8922   305.3417   305.5000   
      1    0      10    1.06e+00   294.7848   295.8858   299.9951   302.3571   302.5677   
      2    0      15    5.58e-02   287.6197   289.5694   290.4135   292.2375   292.8662   
      3    0      20    1.23e-02   287.0612   288.9138   289.9238   291.7705   292.4370   
      4    0      25    1.96e-03   286.9668   288.7693   289.8595   291.7271   292.3938   
      5    4      30    5.44e-04   286.9546*  288.7438   289.8428*  291.7137*  292.3743*  
      6    5      31    3.11e-04   286.9546*  288.7375*  289.8428*  291.7137*  292.3720*  

     Davidson procedure converged

 EOMEE transition 1/A"
 Total energy = -166.76862861 a.u.  Excitation energy = 286.9546 eV.
 R0^2 = 0.0000  R1^2 = 0.8337  R2_CCVV^2 = 0.0013  R2_COVV^2 = 0.0825  Res^2 = 3.24e-04
 Conv-d = yes

 Amplitude    Transitions between orbitals
  0.4892       3 (A') A                  ->    5 (A") A                   
  0.4892       3 (A') B                  ->    5 (A") B                   
  0.3182       3 (A') A                  ->    4 (A") A                   
  0.3182       3 (A') B                  ->    4 (A") B                   
 -0.2446       3 (A') A                  ->    3 (A") A                   
 -0.2446       3 (A') B                  ->    3 (A") B                   
 -0.1147       3 (A') A                  ->    8 (A") A                   
 -0.1147       3 (A') B                  ->    8 (A") B                   

              Summary of significant orbitals:

               Number  Type             Irrep      Energy
               3       Occ  Alpha       3 (A')    -11.2514
               3       Occ  Beta        3 (A')    -11.2514
               16      Vir  Alpha       3 (A")      0.1117
               18      Vir  Alpha       4 (A")      0.1241
               25      Vir  Alpha       5 (A")      0.2361
               38      Vir  Alpha       8 (A")      0.7942
               16      Vir  Beta        3 (A")      0.1117
               18      Vir  Beta        4 (A")      0.1241
               25      Vir  Beta        5 (A")      0.2361
               38      Vir  Beta        8 (A")      0.7942


 EOMEE transition 2/A"
 Total energy = -166.70310967 a.u.  Excitation energy = 288.7375 eV.
 R0^2 = 0.0000  R1^2 = 0.8433  R2_CCVV^2 = 0.0014  R2_COVV^2 = 0.0777  Res^2 = 1.10e-04
 Conv-d = yes

 Amplitude    Transitions between orbitals
 -0.4937       2 (A') A                  ->    5 (A") A                   
 -0.4937       2 (A') B                  ->    5 (A") B                   
  0.3042       2 (A') A                  ->    3 (A") A                   
  0.3042       2 (A') B                  ->    3 (A") B                   
 -0.2529       2 (A') A                  ->    4 (A") A                   
 -0.2529       2 (A') B                  ->    4 (A") B                   
  0.1262       2 (A') A                  ->    8 (A") A                   
  0.1262       2 (A') B                  ->    8 (A") B                   

              Summary of significant orbitals:

               Number  Type             Irrep      Energy
               2       Occ  Alpha       2 (A')    -11.3258
               2       Occ  Beta        2 (A')    -11.3258
               16      Vir  Alpha       3 (A")      0.1117
               18      Vir  Alpha       4 (A")      0.1241
               25      Vir  Alpha       5 (A")      0.2361
               38      Vir  Alpha       8 (A")      0.7942
               16      Vir  Beta        3 (A")      0.1117
               18      Vir  Beta        4 (A")      0.1241
               25      Vir  Beta        5 (A")      0.2361
               38      Vir  Beta        8 (A")      0.7942


 EOMEE transition 3/A"
 Total energy = -166.66248849 a.u.  Excitation energy = 289.8428 eV.
 R0^2 = 0.0000  R1^2 = 0.8097  R2_CCVV^2 = 0.0012  R2_COVV^2 = 0.0945  Res^2 = 3.16e-04
 Conv-d = yes

 Amplitude    Transitions between orbitals
 -0.5687       3 (A') A                  ->    3 (A") A                   
 -0.5687       3 (A') B                  ->    3 (A") B                   
 -0.2371       3 (A') A                  ->    4 (A") A                   
 -0.2371       3 (A') B                  ->    4 (A") B                   
 -0.1161       3 (A') A                  ->    5 (A") A                   
 -0.1161       3 (A') B                  ->    5 (A") B                   

              Summary of significant orbitals:

               Number  Type             Irrep      Energy
               3       Occ  Alpha       3 (A')    -11.2514
               3       Occ  Beta        3 (A')    -11.2514
               16      Vir  Alpha       3 (A")      0.1117
               18      Vir  Alpha       4 (A")      0.1241
               25      Vir  Alpha       5 (A")      0.2361
               16      Vir  Beta        3 (A")      0.1117
               18      Vir  Beta        4 (A")      0.1241
               25      Vir  Beta        5 (A")      0.2361


 EOMEE transition 4/A"
 Total energy = -166.59373410 a.u.  Excitation energy = 291.7137 eV.
 R0^2 = 0.0000  R1^2 = 0.8039  R2_CCVV^2 = 0.0012  R2_COVV^2 = 0.0974  Res^2 = 3.19e-04
 Conv-d = yes

 Amplitude    Transitions between orbitals
  0.4863       3 (A') A                  ->    4 (A") A                   
  0.4863       3 (A') B                  ->    4 (A") B                   
 -0.3763       3 (A') A                  ->    5 (A") A                   
 -0.3763       3 (A') B                  ->    5 (A") B                   
 -0.1282       3 (A') A                  ->    3 (A") A                   
 -0.1282       3 (A') B                  ->    3 (A") B                   

              Summary of significant orbitals:

               Number  Type             Irrep      Energy
               3       Occ  Alpha       3 (A')    -11.2514
               3       Occ  Beta        3 (A')    -11.2514
               16      Vir  Alpha       3 (A")      0.1117
               18      Vir  Alpha       4 (A")      0.1241
               25      Vir  Alpha       5 (A")      0.2361
               16      Vir  Beta        3 (A")      0.1117
               18      Vir  Beta        4 (A")      0.1241
               25      Vir  Beta        5 (A")      0.2361


 EOMEE transition 5/A"
 Total energy = -166.56954331 a.u.  Excitation energy = 292.3720 eV.
 R0^2 = 0.0000  R1^2 = 0.8099  R2_CCVV^2 = 0.0012  R2_COVV^2 = 0.0944  Res^2 = 4.84e-04
 Conv-d = yes

 Amplitude    Transitions between orbitals
  0.4701       2 (A') A                  ->    4 (A") A                   
  0.4701       2 (A') B                  ->    4 (A") B                   
  0.4199       2 (A') A                  ->    3 (A") A                   
  0.4199       2 (A') B                  ->    3 (A") B                   

              Summary of significant orbitals:

               Number  Type             Irrep      Energy
               2       Occ  Alpha       2 (A')    -11.3258
               2       Occ  Beta        2 (A')    -11.3258
               16      Vir  Alpha       3 (A")      0.1117
               18      Vir  Alpha       4 (A")      0.1241
               16      Vir  Beta        3 (A")      0.1117
               18      Vir  Beta        4 (A")      0.1241


      CVS-EOM-CCSD/MP2 left amplitudes will be solved using Davidson.
      Amplitudes will be solved using MOM  algorithm
      Roots     MaxVec    MaxIter   Precond   Conv      Thresh    Shift    
      5         60        60        1         1.00e-03  1.00e-103 0.00e+00  
 ------------------------------------------------------------------------------
      Iter ConvRoots NVecs ResNorm Current eigenvalues (eV)
 ------------------------------------------------------------------------------
      0    0      5     2.08e-02   286.9546   288.7375   289.8428   291.7137   292.3720   
      1    0      10    2.51e-02   286.9507   288.7363   289.8374   291.7087   292.3647   
      2    4      15    9.34e-04   286.9528*  288.7365*  289.8408*  291.7116*  292.3665   
      3    5      16    7.56e-04   286.9528*  288.7365*  289.8408*  291.7116*  292.3637*  

     Davidson procedure converged

 CVS-EOMEE-CCSD calculation:   CPU 114.58 s  wall 114.92 s


 Start computing the transition properties

 ------------------------------------------------------------------------------
 State A: ccsd: 0/A'
 State B: cvs_eomee_ccsd/rhfref/singlets: 1/A'
 Transition dipole moment (a.u.):
   A->B: 0.083004 (X 0.000214, Y 0.083003, Z 0.000000)
   B->A: 0.083144 (X 0.000675, Y 0.083142, Z 0.000000)
 Oscillator strength (a.u.): 0.048353
 Norm of one-particle transition density matrix:
   A->B: 0.884694;   B->A: 0.882441
   ||gamma^AB||*||gamma^BA||: 0.780690

 ------------------------------------------------------------------------------
 State A: ccsd: 0/A'
 State B: cvs_eomee_ccsd/rhfref/singlets: 2/A'
 Transition dipole moment (a.u.):
   A->B: 0.018051 (X 0.017127, Y -0.005699, Z 0.000000)
   B->A: 0.017718 (X 0.016816, Y -0.005581, Z 0.000000)
 Oscillator strength (a.u.): 0.002261
 Norm of one-particle transition density matrix:
   A->B: 0.902679;   B->A: 0.867141
   ||gamma^AB||*||gamma^BA||: 0.782750

 ------------------------------------------------------------------------------
 State A: ccsd: 0/A'
 State B: cvs_eomee_ccsd/rhfref/singlets: 3/A'
 Transition dipole moment (a.u.):
   A->B: 0.020572 (X -0.017986, Y 0.009985, Z 0.000000)
   B->A: 0.020055 (X -0.017605, Y 0.009604, Z 0.000000)
 Oscillator strength (a.u.): 0.002925
 Norm of one-particle transition density matrix:
   A->B: 0.901047;   B->A: 0.863519
   ||gamma^AB||*||gamma^BA||: 0.778072

 ------------------------------------------------------------------------------
 State A: ccsd: 0/A'
 State B: cvs_eomee_ccsd/rhfref/singlets: 4/A'
 Transition dipole moment (a.u.):
   A->B: 0.057290 (X 0.037379, Y -0.043416, Z 0.000000)
   B->A: 0.056501 (X 0.036858, Y -0.042823, Z 0.000000)
 Oscillator strength (a.u.): 0.022963
 Norm of one-particle transition density matrix:
   A->B: 0.894141;   B->A: 0.883712
   ||gamma^AB||*||gamma^BA||: 0.790163

 ------------------------------------------------------------------------------
 State A: ccsd: 0/A'
 State B: cvs_eomee_ccsd/rhfref/singlets: 5/A'
 Transition dipole moment (a.u.):
   A->B: 0.016706 (X -0.015506, Y 0.006219, Z 0.000000)
   B->A: 0.016047 (X -0.014854, Y 0.006071, Z 0.000000)
 Oscillator strength (a.u.): 0.001903
 Norm of one-particle transition density matrix:
   A->B: 0.896238;   B->A: 0.858559
   ||gamma^AB||*||gamma^BA||: 0.769473

 ------------------------------------------------------------------------------
 State A: ccsd: 0/A'
 State B: cvs_eomee_ccsd/rhfref/singlets: 1/A"
 Transition dipole moment (a.u.):
   A->B: 0.078675 (X 0.000000, Y 0.000000, Z -0.078675)
   B->A: 0.080270 (X 0.000000, Y 0.000000, Z -0.080270)
 Oscillator strength (a.u.): 0.044398
 Norm of one-particle transition density matrix:
   A->B: 0.896168;   B->A: 0.892685
   ||gamma^AB||*||gamma^BA||: 0.799996

 ------------------------------------------------------------------------------
 State A: ccsd: 0/A'
 State B: cvs_eomee_ccsd/rhfref/singlets: 2/A"
 Transition dipole moment (a.u.):
   A->B: 0.089534 (X 0.000000, Y 0.000000, Z 0.089534)
   B->A: 0.091015 (X 0.000000, Y 0.000000, Z 0.091015)
 Oscillator strength (a.u.): 0.057645
 Norm of one-particle transition density matrix:
   A->B: 0.900698;   B->A: 0.901068
   ||gamma^AB||*||gamma^BA||: 0.811591

 ------------------------------------------------------------------------------
 State A: ccsd: 0/A'
 State B: cvs_eomee_ccsd/rhfref/singlets: 3/A"
 Transition dipole moment (a.u.):
   A->B: 0.038146 (X 0.000000, Y 0.000000, Z 0.038146)
   B->A: 0.038409 (X 0.000000, Y 0.000000, Z 0.038409)
 Oscillator strength (a.u.): 0.010404
 Norm of one-particle transition density matrix:
   A->B: 0.902861;   B->A: 0.867693
   ||gamma^AB||*||gamma^BA||: 0.783407

 ------------------------------------------------------------------------------
 State A: ccsd: 0/A'
 State B: cvs_eomee_ccsd/rhfref/singlets: 4/A"
 Transition dipole moment (a.u.):
   A->B: 0.029410 (X 0.000000, Y 0.000000, Z 0.029410)
   B->A: 0.028668 (X 0.000000, Y 0.000000, Z 0.028668)
 Oscillator strength (a.u.): 0.006026
 Norm of one-particle transition density matrix:
   A->B: 0.900228;   B->A: 0.862491
   ||gamma^AB||*||gamma^BA||: 0.776439

 ------------------------------------------------------------------------------
 State A: ccsd: 0/A'
 State B: cvs_eomee_ccsd/rhfref/singlets: 5/A"
 Transition dipole moment (a.u.):
   A->B: 0.018357 (X 0.000000, Y 0.000000, Z 0.018357)
   B->A: 0.018111 (X 0.000000, Y 0.000000, Z 0.018111)
 Oscillator strength (a.u.): 0.002381
 Norm of one-particle transition density matrix:
   A->B: 0.902784;   B->A: 0.868963
   ||gamma^AB||*||gamma^BA||: 0.784486


 All requested transition properties have been computed

 Transition Properties:   CPU 2.30 s  wall 2.30 s

 Total ccman2 time:   CPU 141.60 s  wall 143.09 s

 
 --------------------------------------------------------------
             Orbital Energies (a.u.) and Symmetries
 --------------------------------------------------------------
 
 Alpha MOs, Restricted
 -- Occupied --                  
-26.327 -11.326 -11.251  -1.639  -1.114  -0.847  -0.764  -0.743
  1 A'    2 A'    3 A'    4 A'    5 A'    6 A'    7 A'    8 A'                 
 -0.704  -0.608  -0.442  -0.427
  1 A"    9 A'    2 A"   10 A'                                                 
 -- Virtual --                   
  0.040   0.057   0.078   0.112   0.113   0.124   0.136   0.170
 11 A'   12 A'   13 A'    3 A"   14 A'    4 A"   15 A'   16 A'                 
  0.177   0.181   0.191   0.229   0.236   0.310   0.334   0.380
 17 A'   18 A'   19 A'   20 A'    5 A"   21 A'   22 A'   23 A'                 
  0.387   0.445   0.461   0.530   0.554   0.619   0.645   0.658
  6 A"   24 A'   25 A'   26 A'   27 A'   28 A'   29 A'   30 A'                 
  0.670   0.794   0.804   0.835   0.887   0.998   1.137   1.221
  7 A"    8 A"   31 A'   32 A'   33 A'   34 A'   35 A'   36 A'                 
  1.232   1.394   1.451   1.502   1.615   1.652   1.680   1.722
  9 A"   10 A"   11 A"   37 A'   38 A'   12 A"   39 A'   40 A'                 
  1.774   1.872   1.877   1.903   2.007   2.030   2.198   2.210
 41 A'   13 A"   42 A'   43 A'   14 A"   44 A'   15 A"   45 A'                 
  2.365   2.416   2.518   2.646   2.716   2.887   2.906   3.050
 46 A'   47 A'   48 A'   16 A"   49 A'   50 A'   51 A'   52 A'                 
  3.080   3.129   3.282   3.494   3.651   3.759   4.107   4.202
 17 A"   53 A'   18 A"   54 A'   55 A'   56 A'   57 A'   58 A'                 
  4.215   4.270   4.452   4.601   5.262   6.923   7.007   7.339
 19 A"   59 A'   20 A"   60 A'   61 A'   21 A"   62 A'   63 A'                 
 24.807  26.227  68.737
 64 A'   65 A'   66 A'                                                         
 
 Beta MOs, Restricted
 -- Occupied --                  
-26.327 -11.326 -11.251  -1.639  -1.114  -0.847  -0.764  -0.743
  1 A'    2 A'    3 A'    4 A'    5 A'    6 A'    7 A'    8 A'                 
 -0.704  -0.608  -0.442  -0.427
  1 A"    9 A'    2 A"   10 A'                                                 
 -- Virtual --                   
  0.040   0.057   0.078   0.112   0.113   0.124   0.136   0.170
 11 A'   12 A'   13 A'    3 A"   14 A'    4 A"   15 A'   16 A'                 
  0.177   0.181   0.191   0.229   0.236   0.310   0.334   0.380
 17 A'   18 A'   19 A'   20 A'    5 A"   21 A'   22 A'   23 A'                 
  0.387   0.445   0.461   0.530   0.554   0.619   0.645   0.658
  6 A"   24 A'   25 A'   26 A'   27 A'   28 A'   29 A'   30 A'                 
  0.670   0.794   0.804   0.835   0.887   0.998   1.137   1.221
  7 A"    8 A"   31 A'   32 A'   33 A'   34 A'   35 A'   36 A'                 
  1.232   1.394   1.451   1.502   1.615   1.652   1.680   1.722
  9 A"   10 A"   11 A"   37 A'   38 A'   12 A"   39 A'   40 A'                 
  1.774   1.872   1.877   1.903   2.007   2.030   2.198   2.210
 41 A'   13 A"   42 A'   43 A'   14 A"   44 A'   15 A"   45 A'                 
  2.365   2.416   2.518   2.646   2.716   2.887   2.906   3.050
 46 A'   47 A'   48 A'   16 A"   49 A'   50 A'   51 A'   52 A'                 
  3.080   3.129   3.282   3.494   3.651   3.759   4.107   4.202
 17 A"   53 A'   18 A"   54 A'   55 A'   56 A'   57 A'   58 A'                 
  4.215   4.270   4.452   4.601   5.262   6.923   7.007   7.339
 19 A"   59 A'   20 A"   60 A'   61 A'   21 A"   62 A'   63 A'                 
 24.807  26.227  68.737
 64 A'   65 A'   66 A'                                                         
 --------------------------------------------------------------
 
          Ground-State Mulliken Net Atomic Charges

     Atom                 Charge (a.u.)
  ----------------------------------------
      1 C                     0.006818
      2 F                    -0.188180
      3 C                    -0.114201
      4 H                     0.100792
      5 H                    -0.010850
      6 H                     0.205620
  ----------------------------------------
  Sum of atomic charges =    -0.000000

 -----------------------------------------------------------------
                    Cartesian Multipole Moments
 -----------------------------------------------------------------
    Charge (ESU x 10^10)
                -0.0000
    Dipole Moment (Debye)
         X       1.7616      Y      -1.0970      Z      -0.0000
       Tot       2.0753
    Quadrupole Moments (Debye-Ang)
        XX     -17.1938     XY      -0.1369     YY     -17.4848
        XZ       0.0000     YZ       0.0000     ZZ     -18.9874
    Octopole Moments (Debye-Ang^2)
       XXX      -1.1273    XXY      -1.0912    XYY      -3.7341
       YYY      -2.2049    XXZ      -0.0000    XYZ      -0.0000
       YYZ      -0.0000    XZZ      -4.6322    YZZ      -0.3809
       ZZZ      -0.0000
    Hexadecapole Moments (Debye-Ang^3)
      XXXX    -109.7385   XXXY      -4.0997   XXYY     -30.2459
      XYYY      -4.4552   YYYY     -44.2363   XXXZ      -0.0000
      XXYZ      -0.0000   XYYZ      -0.0000   YYYZ      -0.0000
      XXZZ     -25.2877   XYZZ      -1.3899   YYZZ     -11.7209
      XZZZ      -0.0000   YZZZ       0.0000   ZZZZ     -19.2408
 -----------------------------------------------------------------
Archival summary:
1\1\n-62-29-11\SP\ProcedureUnspecified\BasisUnspecified\123\malop\FriMay2516:42:342018FriMay2516:42:342018\0\\#,ProcedureUnspecified,BasisUnspecified,\\0,1\C\H,1,1.08083\C,1,1.1867,2,108.653\H,3,0.928288,1,157.426,2,0,0\F,1,1.34281,2,112.266,3,-180,0\H,3,1.47918,1,103.458,2,-180,0\\HF=-176.799699\\@

 Total job time:  148.53s(wall), 145.92s(cpu) 
 Fri May 25 16:42:34 2018

        *************************************************************
        *                                                           *
        *  Thank you very much for using Q-Chem.  Have a nice day.  *
        *                                                           *
        *************************************************************


