

     ************************************************************************
     *************** Dalton - An Electronic Structure Program ***************
     ************************************************************************

    This is output from DALTON release Dalton2017.alpha (2016)
         ( Web site: http://daltonprogram.org )

   ----------------------------------------------------------------------------

    NOTE:
     
    Dalton is an experimental code for the evaluation of molecular
    properties using (MC)SCF, DFT, CI, and CC wave functions.
    The authors accept no responsibility for the performance of
    the code or for the correctness of the results.
     
    The code (in whole or part) is provided under a licence and
    is not to be reproduced for further distribution without
    the written permission of the authors or their representatives.
     
    See the home page "http://daltonprogram.org" for further information.
     
    If results obtained with this code are published,
    the appropriate citations would be both of:
     
       K. Aidas, C. Angeli, K. L. Bak, V. Bakken, R. Bast,
       L. Boman, O. Christiansen, R. Cimiraglia, S. Coriani,
       P. Dahle, E. K. Dalskov, U. Ekstroem,
       T. Enevoldsen, J. J. Eriksen, P. Ettenhuber, B. Fernandez,
       L. Ferrighi, H. Fliegl, L. Frediani, K. Hald, A. Halkier,
       C. Haettig, H. Heiberg, T. Helgaker, A. C. Hennum,
       H. Hettema, E. Hjertenaes, S. Hoest, I.-M. Hoeyvik,
       M. F. Iozzi, B. Jansik, H. J. Aa. Jensen, D. Jonsson,
       P. Joergensen, J. Kauczor, S. Kirpekar,
       T. Kjaergaard, W. Klopper, S. Knecht, R. Kobayashi, H. Koch,
       J. Kongsted, A. Krapp, K. Kristensen, A. Ligabue,
       O. B. Lutnaes, J. I. Melo, K. V. Mikkelsen, R. H. Myhre,
       C. Neiss, C. B. Nielsen, P. Norman, J. Olsen,
       J. M. H. Olsen, A. Osted, M. J. Packer, F. Pawlowski,
       T. B. Pedersen, P. F. Provasi, S. Reine, Z. Rinkevicius,
       T. A. Ruden, K. Ruud, V. Rybkin, P. Salek, C. C. M. Samson,
       A. Sanchez de Meras, T. Saue, S. P. A. Sauer,
       B. Schimmelpfennig, K. Sneskov, A. H. Steindal,
       K. O. Sylvester-Hvid, P. R. Taylor, A. M. Teale,
       E. I. Tellgren, D. P. Tew, A. J. Thorvaldsen, L. Thoegersen,
       O. Vahtras, M. A. Watson, D. J. D. Wilson, M. Ziolkowski
       and H. Agren,
       "The Dalton quantum chemistry program system",
       WIREs Comput. Mol. Sci. 2014, 4:269–284 (doi: 10.1002/wcms.1172)
     
    and
     
       Dalton, a Molecular Electronic Structure Program,
       Release Dalton2017.alpha (2016), see http://daltonprogram.org
   ----------------------------------------------------------------------------

    Authors in alphabetical order (major contribution(s) in parenthesis):

  Kestutis Aidas,           Vilnius University,           Lithuania   (QM/MM)
  Celestino Angeli,         University of Ferrara,        Italy       (NEVPT2)
  Keld L. Bak,              UNI-C,                        Denmark     (AOSOPPA, non-adiabatic coupling, magnetic properties)
  Vebjoern Bakken,          University of Oslo,           Norway      (DALTON; geometry optimizer, symmetry detection)
  Radovan Bast,             UiT The Arctic U. of Norway,  Norway      (DALTON installation and execution frameworks)
  Pablo Baudin,             University of Valencia,       Spain       (Cholesky excitation energies)
  Linus Boman,              NTNU,                         Norway      (Cholesky decomposition and subsystems)
  Ove Christiansen,         Aarhus University,            Denmark     (CC module)
  Renzo Cimiraglia,         University of Ferrara,        Italy       (NEVPT2)
  Sonia Coriani,            University of Trieste,        Italy       (CC module, MCD in RESPONS)
  Janusz Cukras,            University of Trieste,        Italy       (MChD in RESPONS)
  Paal Dahle,               University of Oslo,           Norway      (Parallelization)
  Erik K. Dalskov,          UNI-C,                        Denmark     (SOPPA)
  Thomas Enevoldsen,        Univ. of Southern Denmark,    Denmark     (SOPPA)
  Janus J. Eriksen,         Aarhus University,            Denmark     (Polarizable embedding model, TDA)
  Rasmus Faber,             University of Copenhagen,     Denmark     (Vib.avg. NMR with SOPPA, parallel AO-SOPPA)
  Berta Fernandez,          U. of Santiago de Compostela, Spain       (doublet spin, ESR in RESPONS)
  Lara Ferrighi,            Aarhus University,            Denmark     (PCM Cubic response)
  Heike Fliegl,             University of Oslo,           Norway      (CCSD(R12))
  Luca Frediani,            UiT The Arctic U. of Norway,  Norway      (PCM)
  Bin Gao,                  UiT The Arctic U. of Norway,  Norway      (Gen1Int library)
  Christof Haettig,         Ruhr-University Bochum,       Germany     (CC module)
  Kasper Hald,              Aarhus University,            Denmark     (CC module)
  Asger Halkier,            Aarhus University,            Denmark     (CC module)
  Frederik Beyer Hansen,    University of Copenhagen,     Denmark     (Parallel AO-SOPPA)
  Erik D. Hedegaard,        Univ. of Southern Denmark,    Denmark     (Polarizable embedding model, QM/MM)
  Hanne Heiberg,            University of Oslo,           Norway      (geometry analysis, selected one-electron integrals)
  Trygve Helgaker,          University of Oslo,           Norway      (DALTON; ABACUS, ERI, DFT modules, London, and much more)
  Alf Christian Hennum,     University of Oslo,           Norway      (Parity violation)
  Hinne Hettema,            University of Auckland,       New Zealand (quadratic response in RESPONS; SIRIUS supersymmetry)
  Eirik Hjertenaes,         NTNU,                         Norway      (Cholesky decomposition)
  Pi A. B. Haase,           University of Copenhagen,     Denmark     (Triplet AO-SOPPA)
  Maria Francesca Iozzi,    University of Oslo,           Norway      (RPA)
  Brano Jansik              Technical Univ. of Ostrava    Czech Rep.  (DFT cubic response)
  Hans Joergen Aa. Jensen,  Univ. of Southern Denmark,    Denmark     (DALTON; SIRIUS, RESPONS, ABACUS modules, London, and much more)
  Dan Jonsson,              UiT The Arctic U. of Norway,  Norway      (cubic response in RESPONS module)
  Poul Joergensen,          Aarhus University,            Denmark     (RESPONS, ABACUS, and CC modules)
  Maciej Kaminski,          University of Warsaw,         Poland      (CPPh in RESPONS)
  Joanna Kauczor,           Linkoeping University,        Sweden      (Complex polarization propagator (CPP) module)
  Sheela Kirpekar,          Univ. of Southern Denmark,    Denmark     (Mass-velocity & Darwin integrals)
  Wim Klopper,              KIT Karlsruhe,                Germany     (R12 code in CC, SIRIUS, and ABACUS modules)
  Stefan Knecht,            ETH Zurich,                   Switzerland (Parallel CI and MCSCF)
  Rika Kobayashi,           Australian National Univ.,    Australia   (DIIS in CC, London in MCSCF)
  Henrik Koch,              NTNU,                         Norway      (CC module, Cholesky decomposition)
  Jacob Kongsted,           Univ. of Southern Denmark,    Denmark     (Polarizable embedding model, QM/MM)
  Andrea Ligabue,           University of Modena,         Italy       (CTOCD, AOSOPPA)
  Nanna H. List             Univ. of Southern Denmark,    Denmark     (Polarizable embedding model)
  Ola B. Lutnaes,           University of Oslo,           Norway      (DFT Hessian)
  Juan I. Melo,             University of Buenos Aires,   Argentina   (LRESC, Relativistic Effects on NMR Shieldings)
  Kurt V. Mikkelsen,        University of Copenhagen,     Denmark     (MC-SCRF and QM/MM)
  Rolf H. Myhre,            NTNU,                         Norway      (Cholesky, subsystems and ECC2)
  Christian Neiss,          Univ. Erlangen-Nuernberg,     Germany     (CCSD(R12))
  Christian B. Nielsen,     University of Copenhagen,     Denmark     (QM/MM)
  Patrick Norman,           Linkoeping University,        Sweden      (Cubic response and complex frequency response in RESPONS)
  Jeppe Olsen,              Aarhus University,            Denmark     (SIRIUS CI/density modules)
  Jogvan Magnus H. Olsen,   Univ. of Southern Denmark,    Denmark     (Polarizable embedding model, QM/MM)
  Anders Osted,             Copenhagen University,        Denmark     (QM/MM)
  Martin J. Packer,         University of Sheffield,      UK          (SOPPA)
  Filip Pawlowski,          Kazimierz Wielki University,  Poland      (CC3)
  Morten N. Pedersen,       Univ. of Southern Denmark,    Denmark     (Polarizable embedding model)
  Thomas B. Pedersen,       University of Oslo,           Norway      (Cholesky decomposition)
  Patricio F. Provasi,      University of Northeastern,   Argentina   (Analysis of coupling constants in localized orbitals)
  Zilvinas Rinkevicius,     KTH Stockholm,                Sweden      (open-shell DFT, ESR)
  Elias Rudberg,            KTH Stockholm,                Sweden      (DFT grid and basis info)
  Torgeir A. Ruden,         University of Oslo,           Norway      (Numerical derivatives in ABACUS)
  Kenneth Ruud,             UiT The Arctic U. of Norway,  Norway      (DALTON; ABACUS magnetic properties and much more)
  Pawel Salek,              KTH Stockholm,                Sweden      (DALTON; DFT code)
  Claire C. M. Samson       University of Karlsruhe       Germany     (Boys localization, r12 integrals in ERI)
  Alfredo Sanchez de Meras, University of Valencia,       Spain       (CC module, Cholesky decomposition)
  Trond Saue,               Paul Sabatier University,     France      (direct Fock matrix construction)
  Stephan P. A. Sauer,      University of Copenhagen,     Denmark     (SOPPA(CCSD), SOPPA prop., AOSOPPA, vibrational g-factors)
  Bernd Schimmelpfennig,    Forschungszentrum Karlsruhe,  Germany     (AMFI module)
  Kristian Sneskov,         Aarhus University,            Denmark     (Polarizable embedding model, QM/MM)
  Arnfinn H. Steindal,      UiT The Arctic U. of Norway,  Norway      (parallel QM/MM, Polarizable embedding model)
  Casper Steinmann,         Univ. of Southern Denmark,    Denmark     (QFIT, Polarizable embedding model)
  K. O. Sylvester-Hvid,     University of Copenhagen,     Denmark     (MC-SCRF)
  Peter R. Taylor,          VLSCI/Univ. of Melbourne,     Australia   (Symmetry handling ABACUS, integral transformation)
  Andrew M. Teale,          University of Nottingham,     England     (DFT-AC, DFT-D)
  David P. Tew,             University of Bristol,        England     (CCSD(R12))
  Olav Vahtras,             KTH Stockholm,                Sweden      (triplet response, spin-orbit, ESR, TDDFT, open-shell DFT)
  David J. Wilson,          La Trobe University,          Australia   (DFT Hessian and DFT magnetizabilities)
  Hans Agren,               KTH Stockholm,                Sweden      (SIRIUS module, RESPONS, MC-SCRF solvation model)
 --------------------------------------------------------------------------------

     Date and time (Linux)  : Sun Aug 12 15:37:47 2018
     Host name              : n-62-29-10                              

 * Work memory size             :   512000000 =  3.815 gigabytes.

 * Directories for basis set searches:
   1) /zhome/d7/7/119775/Vinylfluoride
   2) /zhome/d7/7/119775/My_Codes/dalton-private/build2016/basis


Compilation information
-----------------------

 Who compiled             | soco
 Host                     | hpclogin1
 System                   | Linux-2.6.32-696.20.1.el6.x86_64
 CMake generator          | Unix Makefiles
 Processor                | x86_64
 64-bit integers          | ON
 MPI                      | OFF
 Fortran compiler         | /opt/intel/2016update2/compilers_and_libraries_201
                          | 6.2.181/linux/bin/intel64/ifort
 Fortran compiler version | ifort (IFORT) 16.0.2 20160204
 C compiler               | /opt/intel/2016update2/compilers_and_libraries_201
                          | 6.2.181/linux/bin/intel64/icc
 C compiler version       | icc (ICC) 16.0.2 20160204
 C++ compiler             | /opt/intel/2016update2/compilers_and_libraries_201
                          | 6.2.181/linux/bin/intel64/icpc
 C++ compiler version     | icpc (ICC) 16.0.2 20160204
 Static linking           | OFF
 Last Git revision        | ed040e3212b88786272871181646ac7f3e590142
 Git branch               | cvs
 Configuration time       | 2018-07-17 12:04:55.895650


   Content of the .dal input file
 ----------------------------------

**DALTON INPUT
.RUN WAVE FUNCTIONS
*MOLBAS
.CM FUN
 2 3 4
.ZCMVAL
 1
**INTEGRALS
.DIPLEN  !integrali dell'operatore dipolo elettrico
**WAVE FUNCTION
.CC      !funzione d'onda coupled cluster
*PRINT
.PRINTL
   0 11
*SCF INP !parte da Hartree-Fock
!.DOUBLY OCCUPIED
!3 1 1 0
.THRESH  !soglia di convergenza
 1.0D-10
*ORBITAL INPUT
.MOSTART
 NEWORB
*CC INPUT !specifiche funzione CC
.PRINT
 2
.CCSD
.FCORE
3 0
!.LCOR
!.CC3
.MAXRED
 3000
.MAX ITE
 900
.MXLRV
 2999
.RESTART
*CCEXCI
.NCCEXC     !nro di eccitazioni per IRRE8
22 15
.CVSEPARATION
2 0
2 3 !quali di A1
0   !quali di B1
*CCLRSD     !momenti di transizione di dipolo
.EOMTMO
.DIPOLE
**END OF DALTON INPUT


   Content of the .mol file
 ----------------------------

ATOMBASIS
riga di commento
riga di commento
ATOMTYPES=4 Angstrom
   9.0    1    basis=6-311++G**
F      -1.1529023119     0.2247766372     0.0000000000
   6.0    2    basis=6-311++G**
C1      1.1793501171     0.1997294858     0.0000000000
C2      0.0163188564    -0.4355681094     0.0000000000
   1.0    3    basis=6-311++G**
H      -0.1189530186    -1.5078996853     0.0000000000
H       1.2308254859     1.2785611362     0.0000000000
H       2.0902344982    -0.3786194440     0.0000000000
   0.0    1
X        0.000         0.000         0.000



       *******************************************************************
       *********** Output from DALTON general input processing ***********
       *******************************************************************

 --------------------------------------------------------------------------------
   Overall default print level:    0
   Print level for DALTON.STAT:    1

    HERMIT 1- and 2-electron integral sections will be executed
    "Old" integral transformation used (limited to max 255 basis functions)
    Wave function sections will be executed (SIRIUS module)
 --------------------------------------------------------------------------------


 Changes of defaults for *MOLBAS
 -------------------------------


 Rydberg center of mass basis fctns with l(max) =    2
 Sequence starts at n= 3.0 and ends at n= 4.0

 Proper reference for these basis functions:
 K. Kaufmann, W. Baumeister, and M. Jungen
 "Universal Gaussian basis sets for an optimum
 representation of Rydberg and continuum wavefunctions"
 J. Phys. B: At. Mol. Opt. Phys. 22 (1989) 2223-2240



   ****************************************************************************
   *************** Output of molecule and basis set information ***************
   ****************************************************************************


    The two title cards from your ".mol" input:
    ------------------------------------------------------------------------
 1: riga di commento                                                        
 2: riga di commento                                                        
    ------------------------------------------------------------------------

  Coordinates are entered in Angstrom and converted to atomic units.
          - Conversion factor : 1 bohr = 0.52917721 A

  Atomic type no.    1
  --------------------
  Nuclear charge:   9.00000
  Number of symmetry independent centers:    1
  Number of basis sets to read;    1
  The basis set is "6-311++G**" from the basis set library.
  Basis set file used for this atomic type with Z =   9 :
     "/zhome/d7/7/119775/My_Codes/dalton-private/build2016/basis/6-311++G**"

  Info about the basis set file: your basis has no documentation.
  Basis set: 6-311++G**                                                                      

  Atomic type no.    2
  --------------------
  Nuclear charge:   6.00000
  Number of symmetry independent centers:    2
  Number of basis sets to read;    1
  The basis set is "6-311++G**" from the basis set library.
  Basis set file used for this atomic type with Z =   6 :
     "/zhome/d7/7/119775/My_Codes/dalton-private/build2016/basis/6-311++G**"

  Info about the basis set file: your basis has no documentation.
  Basis set: 6-311++G**                                                                      

  Atomic type no.    3
  --------------------
  Nuclear charge:   1.00000
  Number of symmetry independent centers:    3
  Number of basis sets to read;    1
  The basis set is "6-311++G**" from the basis set library.
  Basis set file used for this atomic type with Z =   1 :
     "/zhome/d7/7/119775/My_Codes/dalton-private/build2016/basis/6-311++G**"

  Info about the basis set file: your basis has no documentation.
  Basis set: 6-311++G**                                                                      

  Atomic type no.    4
  --------------------
  Nuclear charge:   0.00000
  Number of symmetry independent centers:    1
  Number of basis sets to read;    1


                      SYMADD: Requested addition of symmetry
                      --------------------------------------

 Symmetry test threshold:  5.00E-06

@   The molecule is centered at center of mass and rotated
@   so principal axes of inertia are along coordinate axes.

 Symmetry class found: C(s)           

 Symmetry Independent Centres             
 ----------------------------
       9 :      0.00000000    -0.33348548    -2.01129402  Isotope  1
       6 :      0.00000000     0.85078270     0.23294635  Isotope  1
       6 :      0.00000000    -0.41202583     2.39557865  Isotope  1
       1 :      0.00000000     2.88366890     0.03528909  Isotope  1
       1 :      0.00000000    -2.45266854     2.43459728  Isotope  1
       1 :      0.00000000     0.63129631     4.14740766  Isotope  1
       0 :      0.00000000     0.02889452     0.17861658  Isotope  1

 The following element was found:   X        


                         SYMGRP: Point group information
                         -------------------------------

@    Full point group is: C(s)           
@    Represented as:      Cs 

@  * The irrep name for each symmetry:    1: A'     2: A" 

   * The point group was generated by:

      Reflection in the yz-plane

   * Group multiplication table

        |  E   Oyz
   -----+----------
     E  |  E   Oyz
    Oyz | Oyz   E 

   * Character table

        |  E   Oyz
   -----+----------
    A'  |   1    1
    A"  |   1   -1

   * Direct product table

        | A'   A" 
   -----+----------
    A'  | A'   A" 
    A"  | A"   A' 


                                 Isotopic Masses
                                 ---------------

                           F          18.998403
                           C1         12.000000
                           C2         12.000000
                           H           1.007825
                           H           1.007825
                           H           1.007825

                       Total mass:    46.021878 amu
                       Natural abundance:  97.768 %

 Center-of-mass coordinates (a.u.):    0.000000    0.000000   -0.000000


  Atoms and basis sets
  --------------------

  Number of atom types :    4
  Total number of atoms:    7

  label    atoms   charge   prim   cont     basis
  ----------------------------------------------------------------------
  F           1    9.0000    35    22      [12s6p1d|5s4p1d]                                   
  C2          2    6.0000    35    22      [12s6p1d|5s4p1d]                                   
  H           3    1.0000     9     7      [6s1p|4s1p]                                        
  X           1    0.0000    27    27      [3s3p3d|3s3p3d]                                    
  ----------------------------------------------------------------------
  total:      7   24.0000   159   114
  ----------------------------------------------------------------------
  Spherical harmonic basis used.

  Threshold for neglecting AO integrals:  1.00D-12


  Cartesian Coordinates (a.u.)
  ----------------------------

  Total number of coordinates:   21
  F       :     1  x   0.0000000000    2  y  -0.3334854839    3  z  -2.0112940222
  C1      :     4  x   0.0000000000    5  y  -0.4120258297    6  z   2.3955786504
  C2      :     7  x   0.0000000000    8  y   0.8507827028    9  z   0.2329463520
  H       :    10  x   0.0000000000   11  y   2.8836688990   12  z   0.0352890906
  H       :    13  x   0.0000000000   14  y  -2.4526685398   15  z   2.4345972819
  H       :    16  x   0.0000000000   17  y   0.6312963095   18  z   4.1474076585
  X       :    19  x   0.0000000000   20  y   0.0288945230   21  z   0.1786165769


  Symmetry Coordinates
  --------------------

  Number of coordinates in each symmetry:    14    7

  Symmetry  A'  ( 1)

    1   F     y    2
    2   F     z    3
    3   C1    y    5
    4   C1    z    6
    5   C2    y    8
    6   C2    z    9
    7   H     y   11
    8   H     z   12
    9   H     y   14
   10   H     z   15
   11   H     y   17
   12   H     z   18
   13   X     y   20
   14   X     z   21

  Symmetry  A"  ( 2)

   15   F     x    1
   16   C1    x    4
   17   C2    x    7
   18   H     x   10
   19   H     x   13
   20   H     x   16
   21   X     x   19


   Interatomic separations (in Angstrom):
   --------------------------------------

            F           C1          C2          H           H           H     
            ------      ------      ------      ------      ------      ------
 F     :    0.000000
 C1    :    2.332387    0.000000
 C2    :    1.342808    1.325234    0.000000
 H     :    2.017726    2.145131    1.080830    0.000000
 H     :    2.606266    1.080059    2.100777    3.096170    0.000000
 H     :    3.298791    1.078980    2.074697    2.481085    1.866770    0.000000
 X     :    1.174610    1.196143    0.435874    1.512584    1.774725    2.124249

            X     
            ------
 X     :    0.000000


  Max    interatomic separation is    3.2988 Angstrom (    6.2338 Bohr)
  between atoms    6 and    1, "H     " and "F     ".

  Min HX interatomic separation is    1.0790 Angstrom (    2.0390 Bohr)

  Min YX interatomic separation is    1.3252 Angstrom (    2.5043 Bohr)


  Bond distances (Angstrom):
  --------------------------

                  atom 1     atom 2       distance
                  ------     ------       --------
  bond distance:  C2         F            1.342808
  bond distance:  C2         C1           1.325234
  bond distance:  H          C2           1.080830
  bond distance:  H          C1           1.080059
  bond distance:  H          C1           1.078980


  Bond angles (degrees):
  ----------------------

                  atom 1     atom 2     atom 3         angle
                  ------     ------     ------         -----
  bond angle:     C2         C1         H            121.377
  bond angle:     C2         C1         H            118.942
  bond angle:     H          C1         H            119.681
  bond angle:     F          C2         C1           121.898
  bond angle:     F          C2         H            112.267
  bond angle:     C1         C2         H            125.835




 Principal moments of inertia (u*A**2) and principal axes
 --------------------------------------------------------

   IA       7.751454          0.000000    0.000000    1.000000
   IB      47.515668          0.000000    1.000000    0.000000
   IC      55.267121          1.000000    0.000000    0.000000


 Rotational constants
 --------------------

@    The molecule is planar.

               A                   B                   C

          65197.9664          10636.0498           9144.2976 MHz
            2.174770            0.354780            0.305021 cm-1


@  Nuclear repulsion energy :   67.548214669811 Hartree


  Symmetry Orbitals
  -----------------

  Number of orbitals in each symmetry:          84   30


  Symmetry  A' ( 1)

    1     F        1s         1
    2     F        1s         2
    3     F        1s         3
    4     F        1s         4
    5     F        1s         5
    6     F        2py        7
    7     F        2pz        8
    8     F        2py       10
    9     F        2pz       11
   10     F        2py       13
   11     F        2pz       14
   12     F        2py       16
   13     F        2pz       17
   14     F        3d1-      19
   15     F        3d0       20
   16     F        3d2+      22
   17     C1       1s        23
   18     C1       1s        24
   19     C1       1s        25
   20     C1       1s        26
   21     C1       1s        27
   22     C1       2py       29
   23     C1       2pz       30
   24     C1       2py       32
   25     C1       2pz       33
   26     C1       2py       35
   27     C1       2pz       36
   28     C1       2py       38
   29     C1       2pz       39
   30     C1       3d1-      41
   31     C1       3d0       42
   32     C1       3d2+      44
   33     C2       1s        45
   34     C2       1s        46
   35     C2       1s        47
   36     C2       1s        48
   37     C2       1s        49
   38     C2       2py       51
   39     C2       2pz       52
   40     C2       2py       54
   41     C2       2pz       55
   42     C2       2py       57
   43     C2       2pz       58
   44     C2       2py       60
   45     C2       2pz       61
   46     C2       3d1-      63
   47     C2       3d0       64
   48     C2       3d2+      66
   49     H        1s        67
   50     H        1s        68
   51     H        1s        69
   52     H        1s        70
   53     H        2py       72
   54     H        2pz       73
   55     H        1s        74
   56     H        1s        75
   57     H        1s        76
   58     H        1s        77
   59     H        2py       79
   60     H        2pz       80
   61     H        1s        81
   62     H        1s        82
   63     H        1s        83
   64     H        1s        84
   65     H        2py       86
   66     H        2pz       87
   67     X        1s        88
   68     X        1s        89
   69     X        1s        90
   70     X        2py       92
   71     X        2pz       93
   72     X        2py       95
   73     X        2pz       96
   74     X        2py       98
   75     X        2pz       99
   76     X        3d1-     101
   77     X        3d0      102
   78     X        3d2+     104
   79     X        3d1-     106
   80     X        3d0      107
   81     X        3d2+     109
   82     X        3d1-     111
   83     X        3d0      112
   84     X        3d2+     114


  Symmetry  A" ( 2)

   85     F        2px        6
   86     F        2px        9
   87     F        2px       12
   88     F        2px       15
   89     F        3d2-      18
   90     F        3d1+      21
   91     C1       2px       28
   92     C1       2px       31
   93     C1       2px       34
   94     C1       2px       37
   95     C1       3d2-      40
   96     C1       3d1+      43
   97     C2       2px       50
   98     C2       2px       53
   99     C2       2px       56
  100     C2       2px       59
  101     C2       3d2-      62
  102     C2       3d1+      65
  103     H        2px       71
  104     H        2px       78
  105     H        2px       85
  106     X        2px       91
  107     X        2px       94
  108     X        2px       97
  109     X        3d2-     100
  110     X        3d1+     103
  111     X        3d2-     105
  112     X        3d1+     108
  113     X        3d2-     110
  114     X        3d1+     113

  Number of floating/multiple basis set orbitals :    1

  Symmetries of electric field:  A" (2)  A' (1)  A' (1)

  Symmetries of magnetic field:  A' (1)  A" (2)  A" (2)


                     .---------------------------------------.
                     | Starting in Integral Section (HERMIT) |
                     `---------------------------------------'



 ***************************************************************************************
 ****************** Output from **INTEGRALS input processing (HERMIT) ******************
 ***************************************************************************************



    *************************************************************************
    ****************** Output from HERMIT input processing ******************
    *************************************************************************


 Default print level:        1

 * Nuclear model: Point charge

 Calculation of one- and two-electron Hamiltonian integrals.

 The following one-electron property integrals are calculated as requested:
          - overlap integrals
          - dipole length integrals

 Center of mass  (bohr):      0.000000000000      0.000000000000     -0.000000000000
 Operator center (bohr):      0.000000000000      0.000000000000      0.000000000000
 Gauge origin    (bohr):      0.000000000000      0.000000000000     -0.000000000000
 Dipole origin   (bohr):      0.000000000000      0.000000000000     -0.000000000000


     ************************************************************************
     ************************** Output from HERINT **************************
     ************************************************************************



                      Nuclear contribution to dipole moments
                      --------------------------------------

                 au               Debye          C m (/(10**-30)

      y      0.69346855         1.76262113         5.87947123
      z      4.28679785        10.89595260        36.34498569



 Threshold for neglecting two-electron integrals:  1.00D-12
 HERMIT - Number of two-electron integrals written:    11040852 ( 51.4% )
 HERMIT - Megabytes written:                            126.427

  Time used in TWOINT     is       1.68 seconds
  Total CPU  time used in HERMIT:   1.77 seconds
  Total wall time used in HERMIT:   2.12 seconds


                        .----------------------------------.
                        | End of Integral Section (HERMIT) |
                        `----------------------------------'



                   .--------------------------------------------.
                   | Starting in Wave Function Section (SIRIUS) |
                   `--------------------------------------------'

NCCEXCI for singlet:   22   15
 CCSD_INPUT: core-val requested
 Requested number of core orbs per sym
                     2                     0
 Indices of requested core orbs
                     2                     3
 
* Read MO coefficients from SIRIUS.RST with label "NEWORB  " and header info: 11Aug18  FOCKDIIS

 **********************************************************************
 *SIRIUS* a direct, restricted step, second order MCSCF program       *
 **********************************************************************

 
     Date and time (Linux)  : Sun Aug 12 15:37:49 2018
     Host name              : n-62-29-10                              

 Title lines from ".mol" input file:
     riga di commento                                                        
     riga di commento                                                        

 Print level on unit LUPRI =   2 is   0
 Print level on unit LUW4  =   2 is  11

@    (Integral direct) CC calculation.

@    This is a combination run starting with
@              a restricted, closed shell Hartree-Fock calculation


 Initial molecular orbitals are obtained according to
 ".MOSTART NEWORB" input option

     Wave function specification
     ============================

     For the specification of the Coupled Cluster: see later.

@    Wave function type        --- CC ---
@    Number of closed shell electrons          24
@    Number of electrons in active shells       0
@    Total charge of the molecule               0

@    Spin multiplicity and 2 M_S                1         0
@    Total number of symmetries                 2 (point group: Cs )
@    Reference state symmetry                   1 (irrep name : A' )

     Orbital specifications
     ======================
@    Abelian symmetry species          All |    1    2
@                                          |  A'   A" 
                                       --- |  ---  ---
@    Total number of orbitals          114 |   84   30
@    Number of basis functions         114 |   84   30

      ** Automatic occupation of RHF orbitals **

      -- Initial occupation of symmetries is determined from SIRIUS restart file (SIRIUS.RST).
      -- Initial occupation of symmetries is :
@    Occupied SCF orbitals              12 |   10    2

     Maximum number of Fock   iterations      0
     Maximum number of DIIS   iterations     60
     Maximum number of QC-SCF iterations     60
     Threshold for SCF convergence     1.00D-10


 Changes of defaults for CC:
 ---------------------------

 -Excitation energies calculated
 -One-photon absorption strengths will be calculated
 -Oscillator strengths calculated
  
* Read MO coefficients from SIRIUS.RST with label "NEWORB  " and header info: 12Aug18  REORTHO 


 ***********************************************
 ***** DIIS acceleration of SCF iterations *****
 ***********************************************

 C1-DIIS algorithm; max error vectors =    8
 -----------------------------------------------------------------------------

 *** DIIS iteration number    1
 RDSUPM called. NFMAT, ISYMDM(1:NFMAT)                     1
                     1

Calculating AOSUPINT
     (Precalculated AO two-electron integrals are transformed to P-supermatrix elements.
      Threshold for discarding integrals :  1.00D-12 )
  CPU  time used in FORMSUP    is   1.34 seconds
  WALL time used in FORMSUP    is   2.43 seconds

 ITDIIS, energy, error norm, change in energy, scr.thr., difden:
@ DIIS iter.   1    -176.936773814        4.37360D-11   -1.77D+02  -20    T

@ AUTO OCC: current SCF occupation  10   2

@ *** DIIS converged in   1 iterations !
@     Converged SCF energy, gradient:   -176.936773813928    4.37D-11
    - total time used in SIRFCK :              0.00 seconds


 *** SCF orbital energy analysis ***

 Number of electrons :   24
 Orbital occupations :   10    2

 Sym       Hartree-Fock orbital energies

1 A'    -26.31020584   -11.33240701   -11.24001087    -1.62849353    -1.05472647
         -0.83973556    -0.74037193    -0.68569999    -0.59105598    -0.56197871
          0.00201426     0.00590753     0.00621898     0.00978269     0.01298920
          0.01309536     0.01335108     0.01960833     0.02077817     0.02887225
          0.03619186     0.03663673     0.03759408     0.04868881     0.05235611
          0.08163547     0.08348664     0.08519514     0.09392641     0.11692567
          0.12283900     0.15903667     0.17365028     0.20961014     0.22098156
          0.22978087     0.23791194     0.29693012     0.31220254     0.35740971
          0.40526807     0.47662033     0.48355713     0.52315397     0.56499559
          0.64457827     0.66653336     0.72001999     0.86022157     0.92144890
          0.93241292     0.97798566     1.01852197     1.08824630     1.58412442
          1.64805270     1.67863362     1.73810288     1.81875482     1.84676461
          1.95267795     2.14776119     2.23321346     2.34816475     2.44212447
          2.56766228     2.75394064     2.86780853     2.92073016     3.00443341
          3.05329835     3.36972953     3.58625291     3.87970506     4.14681611
          4.24906367     4.43169368     4.59050345     5.31879583     7.01703901
          7.33304383    24.83663839    25.41003327    68.75804579

2 A"     -0.69047327    -0.38607261     0.00631575     0.01312165     0.01339077
          0.02114767     0.03664784     0.03782901     0.05385776     0.08071113
          0.08772309     0.13654391     0.17696177     0.25744410     0.40532508
          0.74357420     0.82249681     1.25015340     1.31156562     1.46483609
          1.68604189     1.90886660     2.03030698     2.31235722     2.40143912
          3.08892835     3.27277746     4.22462886     4.44337352     6.94130940

    E(LUMO) :     0.00201426 au (symmetry 1)
  - E(HOMO) :    -0.38607261 au (symmetry 2)
  ------------------------------------------
    gap     :     0.38808688 au

 Deviation from canonical Hartree-Fock orbitals :
 Largest off-diagonal Fock matrix element is  3.64D-11

 --- Writing SIRIFC interface file

 CPU and wall time for SCF :       1.469       2.692


                       .-----------------------------------.
                       | --- Final results from SIRIUS --- |
                       `-----------------------------------'


@    Spin multiplicity:           1
@    Spatial symmetry:            1 ( irrep  A'  in Cs  )
@    Total charge of molecule:    0

@    Final HF energy:            -176.936773813928                 
@    Nuclear repulsion:            67.548214669811
@    Electronic energy:          -244.484988483739

@    Final gradient norm:           0.000000000044

 
     Date and time (Linux)  : Sun Aug 12 15:37:52 2018
     Host name              : n-62-29-10                              

File label for MO orbitals:  12Aug18   FOCKDIIS

 Molecular orbitals for symmetry species 1  (A' )
 ------------------------------------------------

    Orbital         1        2        3        4        5        6        7
   1 F   :1s     0.5477  -0.0001  -0.0000  -0.1192   0.0252   0.0251  -0.0117
   2 F   :1s     0.4735  -0.0001  -0.0000  -0.1999   0.0427   0.0426  -0.0198
   3 F   :1s     0.0062   0.0003   0.0000   0.5880  -0.1298  -0.1314   0.0620
   4 F   :1s    -0.0010   0.0004  -0.0000   0.4629  -0.1372  -0.1627   0.0832
   5 F   :1s     0.0011  -0.0011   0.0000  -0.0550  -0.0398  -0.0442   0.0302
   6 F   :2py    0.0005   0.0001   0.0000   0.0135   0.0151   0.1227   0.0910
   7 F   :2pz    0.0010   0.0001   0.0000   0.0254   0.0548   0.1078  -0.1996
   8 F   :2py   -0.0002   0.0003  -0.0000   0.0249   0.0235   0.1882   0.1376
   9 F   :2pz   -0.0004   0.0006   0.0000   0.0468   0.0852   0.1661  -0.3054
  10 F   :2py    0.0001   0.0000   0.0001   0.0120   0.0110   0.1365   0.1278
  11 F   :2pz    0.0001   0.0001   0.0000   0.0238   0.0484   0.1061  -0.2355
  12 F   :2py    0.0000  -0.0001  -0.0001  -0.0021  -0.0056  -0.0102  -0.0059
  13 F   :2pz    0.0001  -0.0003  -0.0000  -0.0064  -0.0185  -0.0052   0.0022
  14 F   :3d1-  -0.0001   0.0002   0.0000   0.0053   0.0027   0.0113  -0.0010
  15 F   :3d0   -0.0001   0.0002  -0.0000   0.0050   0.0049   0.0045  -0.0135
  16 F   :3d2+   0.0000  -0.0000  -0.0000  -0.0015  -0.0003  -0.0041  -0.0024
  17 C1  :1s     0.0000   0.0053  -0.5633  -0.0042  -0.0847   0.0561  -0.0081
  18 C1  :1s    -0.0000   0.0044  -0.4665  -0.0072  -0.1392   0.0931  -0.0127
  19 C1  :1s     0.0000   0.0001  -0.0045   0.0204   0.3475  -0.2343   0.0265
  20 C1  :1s    -0.0001  -0.0004   0.0004   0.0054   0.1881  -0.1825   0.0645
  21 C1  :1s     0.0010  -0.0005  -0.0003  -0.0604   0.0011   0.1537   0.1777
  22 C1  :2py   -0.0000   0.0001   0.0000   0.0006   0.0284   0.0216   0.0460
  23 C1  :2pz    0.0000  -0.0002  -0.0002  -0.0046  -0.0445  -0.0282   0.0538
  24 C1  :2py    0.0000  -0.0003  -0.0003   0.0067   0.0448   0.0389   0.0583
  25 C1  :2pz   -0.0000   0.0004   0.0006  -0.0215  -0.0690  -0.0558   0.0940
  26 C1  :2py    0.0001   0.0002  -0.0000  -0.0130   0.0102   0.0096   0.0471
  27 C1  :2pz    0.0001   0.0000   0.0000  -0.0104  -0.0093  -0.0193   0.0339
  28 C1  :2py   -0.0003   0.0001   0.0001  -0.0099  -0.0371  -0.0321   0.0526
  29 C1  :2pz   -0.0005   0.0004  -0.0001   0.0183  -0.0238  -0.0504  -0.0107
  30 C1  :3d1-  -0.0000   0.0001   0.0003  -0.0045  -0.0140  -0.0089   0.0092
  31 C1  :3d0    0.0000  -0.0001  -0.0003   0.0072   0.0118   0.0024  -0.0076
  32 C1  :3d2+   0.0000   0.0001   0.0003   0.0038  -0.0072   0.0116  -0.0047
  33 C2  :1s    -0.0000   0.5635   0.0056  -0.0304  -0.0790  -0.0537  -0.0042
  34 C2  :1s    -0.0000   0.4666   0.0047  -0.0494  -0.1311  -0.0908  -0.0063
  35 C2  :1s     0.0001   0.0038  -0.0002   0.1170   0.3415   0.2419   0.0157
  36 C2  :1s    -0.0001   0.0002   0.0005   0.0194   0.2101   0.1979   0.0195
  37 C2  :1s    -0.0013   0.0020  -0.0008   0.1154  -0.0083  -0.0818  -0.1563
  38 C2  :2py   -0.0000  -0.0006   0.0002  -0.0199  -0.0234   0.0532   0.1263
  39 C2  :2pz   -0.0000  -0.0018  -0.0003  -0.0354   0.0633  -0.0763   0.0297
  40 C2  :2py   -0.0001   0.0001  -0.0001  -0.0358  -0.0425   0.0700   0.2009
  41 C2  :2pz   -0.0002   0.0018   0.0002  -0.0694   0.0813  -0.1468   0.0735
  42 C2  :2py   -0.0000  -0.0004  -0.0000   0.0132  -0.0149   0.0400   0.0982
  43 C2  :2pz    0.0001  -0.0007   0.0000   0.0102   0.0150  -0.0379  -0.0045
  44 C2  :2py    0.0006  -0.0005   0.0002  -0.0146   0.0332   0.0721   0.0338
  45 C2  :2pz    0.0001   0.0003  -0.0002  -0.0053  -0.0015  -0.0244  -0.0686
  46 C2  :3d1-   0.0001  -0.0007  -0.0000   0.0260  -0.0118   0.0222  -0.0354
  47 C2  :3d0    0.0001   0.0002   0.0001   0.0201   0.0107   0.0154  -0.0027
  48 C2  :3d2+  -0.0000  -0.0003  -0.0001  -0.0010  -0.0077  -0.0076   0.0036
  49 H   :1s    -0.0000   0.0004   0.0000   0.0101   0.0470   0.0891   0.0923
  50 H   :1s     0.0001  -0.0001   0.0000   0.0158   0.0649   0.1324   0.1293
  51 H   :1s    -0.0001   0.0004   0.0000  -0.0144  -0.0140  -0.0171   0.0112
  52 H   :1s    -0.0001  -0.0004   0.0000  -0.0164  -0.0168  -0.0426  -0.0133
  53 H   :2py   -0.0000  -0.0000  -0.0000  -0.0078  -0.0126  -0.0203  -0.0121
  54 H   :2pz    0.0000   0.0000  -0.0000  -0.0023   0.0039  -0.0006   0.0054
  55 H   :1s    -0.0000  -0.0000  -0.0004   0.0028   0.0495  -0.0682  -0.0228
  56 H   :1s     0.0001  -0.0000   0.0001   0.0029   0.0689  -0.0920  -0.0406
  57 H   :1s    -0.0001   0.0002  -0.0002  -0.0073  -0.0178  -0.0196   0.0113
  58 H   :1s    -0.0002  -0.0003   0.0006  -0.0098  -0.0182  -0.0506   0.0324
  59 H   :2py    0.0000  -0.0000  -0.0000   0.0036   0.0139  -0.0113  -0.0074
  60 H   :2pz   -0.0000  -0.0000   0.0000  -0.0002  -0.0025  -0.0010   0.0044
  61 H   :1s     0.0000  -0.0000  -0.0004   0.0003   0.0534  -0.0629   0.0580
  62 H   :1s    -0.0000   0.0000   0.0000   0.0093   0.0690  -0.0867   0.0799
  63 H   :1s    -0.0000  -0.0001  -0.0002   0.0036  -0.0052  -0.0009  -0.0014
  64 H   :1s     0.0003  -0.0005   0.0005   0.0030   0.0588   0.0315  -0.0310
  65 H   :2py    0.0000   0.0000   0.0000  -0.0003  -0.0058   0.0076  -0.0038
  66 H   :2pz    0.0000  -0.0000   0.0000  -0.0028  -0.0136   0.0083  -0.0062
  67 X   :1s     0.0001   0.0003  -0.0003  -0.0043  -0.0143   0.0094  -0.0025
  68 X   :1s    -0.0001  -0.0003   0.0004   0.0060   0.0156  -0.0101   0.0030
  69 X   :1s     0.0000   0.0001  -0.0001  -0.0026  -0.0060   0.0039  -0.0012
  70 X   :2py   -0.0001   0.0001   0.0001   0.0046  -0.0015  -0.0074   0.0006
  71 X   :2pz   -0.0002   0.0001  -0.0002   0.0093  -0.0107   0.0003   0.0069
  72 X   :2py    0.0001  -0.0001  -0.0001  -0.0049   0.0012   0.0074   0.0002
  73 X   :2pz    0.0002  -0.0001   0.0001  -0.0105   0.0088  -0.0003  -0.0067
  74 X   :2py   -0.0000   0.0000   0.0000   0.0019  -0.0004  -0.0028  -0.0002
  75 X   :2pz   -0.0001   0.0000  -0.0000   0.0043  -0.0031   0.0001   0.0026
  76 X   :3d1-  -0.0000  -0.0001   0.0001   0.0018   0.0025   0.0009   0.0059
  77 X   :3d0   -0.0000   0.0000  -0.0001  -0.0015  -0.0066  -0.0027  -0.0005
  78 X   :3d2+   0.0001  -0.0002   0.0001  -0.0083   0.0013  -0.0002   0.0023
  79 X   :3d1-   0.0000   0.0001  -0.0000  -0.0022  -0.0033  -0.0019  -0.0053
  80 X   :3d0    0.0000  -0.0000   0.0000   0.0005   0.0051   0.0024   0.0007
  81 X   :3d2+  -0.0001   0.0002  -0.0001   0.0089  -0.0014  -0.0010  -0.0025
  82 X   :3d1-  -0.0000  -0.0000   0.0000   0.0009   0.0014   0.0009   0.0021
  83 X   :3d0   -0.0000   0.0000  -0.0000  -0.0000  -0.0019  -0.0010  -0.0002
  84 X   :3d2+   0.0000  -0.0001   0.0000  -0.0037   0.0005   0.0006   0.0011

    Orbital         8        9       10       11       12       13       14
   1 F   :1s    -0.0071   0.0002   0.0015   0.0005   0.0000  -0.0002  -0.0011
   2 F   :1s    -0.0121   0.0003   0.0025   0.0008   0.0001  -0.0004  -0.0018
   3 F   :1s     0.0381  -0.0009  -0.0084  -0.0026  -0.0003   0.0006   0.0059
   4 F   :1s     0.0573   0.0014  -0.0013  -0.0039   0.0010   0.0077   0.0102
   5 F   :1s     0.0121  -0.0355   0.0132  -0.0085  -0.0074  -0.0274   0.0019
   6 F   :2py   -0.1833   0.1177  -0.1370   0.0009  -0.0002   0.0003  -0.0019
   7 F   :2pz   -0.0459  -0.1285   0.0094   0.0002   0.0005  -0.0008  -0.0006
   8 F   :2py   -0.2795   0.1786  -0.2073   0.0012  -0.0005   0.0007  -0.0033
   9 F   :2pz   -0.0713  -0.1943   0.0134   0.0003   0.0008  -0.0007  -0.0009
  10 F   :2py   -0.2335   0.1674  -0.1886   0.0024   0.0010  -0.0001  -0.0003
  11 F   :2pz   -0.0423  -0.1734   0.0243  -0.0000   0.0006  -0.0034   0.0011
  12 F   :2py   -0.0051   0.0103  -0.0290  -0.0037  -0.0039   0.0039  -0.0150
  13 F   :2pz   -0.0089  -0.0320   0.0069  -0.0041  -0.0003   0.0050  -0.0054
  14 F   :3d1-  -0.0096  -0.0001  -0.0026  -0.0001  -0.0001  -0.0001   0.0002
  15 F   :3d0   -0.0006  -0.0046  -0.0010   0.0001   0.0001  -0.0000  -0.0001
  16 F   :3d2+   0.0044  -0.0013   0.0004   0.0001   0.0000   0.0000  -0.0001
  17 C1  :1s     0.0236  -0.0051   0.0082   0.0014  -0.0005   0.0009  -0.0028
  18 C1  :1s     0.0395  -0.0081   0.0138   0.0024  -0.0009   0.0015  -0.0049
  19 C1  :1s    -0.1003   0.0207  -0.0385  -0.0056   0.0012  -0.0039   0.0167
  20 C1  :1s    -0.1466   0.0194  -0.0165  -0.0249   0.0177  -0.0219   0.0080
  21 C1  :1s    -0.1308   0.1433  -0.0770   0.0604  -0.0577   0.1162   0.4013
  22 C1  :2py    0.0947  -0.0752  -0.1438   0.0005  -0.0018  -0.0007  -0.0016
  23 C1  :2pz   -0.1015  -0.1518   0.0223  -0.0028  -0.0002  -0.0026   0.0048
  24 C1  :2py    0.1443  -0.1223  -0.2160   0.0010  -0.0010  -0.0012  -0.0019
  25 C1  :2pz   -0.1484  -0.2222   0.0325  -0.0035  -0.0008  -0.0031   0.0081
  26 C1  :2py    0.0656  -0.0701  -0.1640   0.0024  -0.0078  -0.0046  -0.0034
  27 C1  :2pz   -0.0698  -0.1322  -0.0034  -0.0087  -0.0003  -0.0027   0.0030
  28 C1  :2py   -0.0033   0.0143  -0.0014  -0.0586   0.0255   0.1988  -0.0200
  29 C1  :2pz    0.0403  -0.0126   0.0058  -0.0210  -0.0023   0.0760  -0.0091
  30 C1  :3d1-  -0.0213  -0.0174  -0.0036   0.0002   0.0000  -0.0000  -0.0002
  31 C1  :3d0    0.0024  -0.0082  -0.0258   0.0002   0.0004  -0.0002  -0.0004
  32 C1  :3d2+   0.0058  -0.0025  -0.0159   0.0007   0.0000   0.0001  -0.0008
  33 C2  :1s    -0.0288  -0.0107  -0.0041   0.0006   0.0008   0.0001  -0.0012
  34 C2  :1s    -0.0474  -0.0180  -0.0065   0.0009   0.0014   0.0002  -0.0021
  35 C2  :1s     0.1276   0.0507   0.0137  -0.0025  -0.0034  -0.0013   0.0087
  36 C2  :1s     0.1018   0.0502   0.0594  -0.0089  -0.0178   0.0089  -0.0015
  37 C2  :1s     0.0785  -0.0662   0.0309   0.1041   0.0901  -0.2474   0.0805
  38 C2  :2py    0.0111  -0.0553   0.1254  -0.0033  -0.0023  -0.0011   0.0065
  39 C2  :2pz    0.1137   0.0643  -0.0494   0.0002  -0.0002   0.0008  -0.0004
  40 C2  :2py    0.0299  -0.0785   0.1940  -0.0050  -0.0016  -0.0015   0.0103
  41 C2  :2pz    0.1814   0.1067  -0.0690   0.0009  -0.0010   0.0008   0.0009
  42 C2  :2py   -0.0052  -0.0394   0.1212  -0.0099  -0.0119  -0.0057   0.0121
  43 C2  :2pz    0.0743   0.0102  -0.0185  -0.0035   0.0002   0.0063  -0.0033
  44 C2  :2py   -0.0770   0.0484  -0.0222   0.0634   0.0509  -0.1440   0.1181
  45 C2  :2pz    0.0385  -0.0514   0.0278   0.0109  -0.0258  -0.0914  -0.0507
  46 C2  :3d1-  -0.0190  -0.0373  -0.0055  -0.0000   0.0002  -0.0003  -0.0003
  47 C2  :3d0   -0.0272   0.0018  -0.0443  -0.0002  -0.0005  -0.0002   0.0003
  48 C2  :3d2+  -0.0097   0.0028  -0.0244   0.0005  -0.0001  -0.0004  -0.0006
  49 H   :1s     0.0369  -0.0356   0.1255  -0.0016  -0.0003  -0.0001   0.0034
  50 H   :1s     0.0531  -0.0644   0.2021  -0.0021  -0.0020  -0.0033   0.0058
  51 H   :1s     0.0369  -0.0246   0.0749   0.0002   0.0252   0.0252   0.0005
  52 H   :1s     0.0771  -0.0538   0.0354  -0.1578  -0.2458   0.2282  -0.2872
  53 H   :2py   -0.0013   0.0081  -0.0115   0.0006   0.0007   0.0006  -0.0019
  54 H   :2pz    0.0041   0.0047  -0.0012   0.0000  -0.0002   0.0002   0.0000
  55 H   :1s    -0.1005   0.0661   0.1205  -0.0011   0.0003   0.0002   0.0025
  56 H   :1s    -0.1525   0.1015   0.1869  -0.0012   0.0041  -0.0017   0.0055
  57 H   :1s    -0.0208   0.0251   0.0572   0.0000  -0.0287   0.0192  -0.0013
  58 H   :1s    -0.0158   0.0182   0.0249  -0.1219   0.2168   0.2430  -0.1307
  59 H   :2py   -0.0169   0.0080   0.0129  -0.0003   0.0006  -0.0002   0.0015
  60 H   :2pz   -0.0072  -0.0069  -0.0006  -0.0000  -0.0002  -0.0000   0.0004
  61 H   :1s    -0.0571  -0.1410  -0.0581  -0.0007  -0.0000  -0.0013   0.0017
  62 H   :1s    -0.0848  -0.2302  -0.0873  -0.0032   0.0009  -0.0027  -0.0006
  63 H   :1s    -0.0147  -0.0732  -0.0143   0.0227  -0.0044   0.0025   0.0179
  64 H   :1s    -0.0221  -0.0263  -0.0169  -0.0238   0.0290  -0.3549  -0.2224
  65 H   :2py    0.0091   0.0105  -0.0041   0.0005   0.0003   0.0005  -0.0012
  66 H   :2pz    0.0034   0.0169   0.0100   0.0007   0.0000   0.0006  -0.0014
  67 X   :1s    -0.0035   0.0048  -0.0030   0.9686  -0.1964  -0.6087   3.1040
  68 X   :1s     0.0039  -0.0046   0.0031  -3.0391   0.5846   1.9092  -7.9643
  69 X   :1s    -0.0015   0.0016  -0.0011   3.0283  -0.4307  -1.4412   4.6859
  70 X   :2py   -0.0078   0.0107  -0.0004   0.0951   0.7761   0.1958   0.2170
  71 X   :2pz    0.0063   0.0048   0.0012   0.1621  -0.3009   0.7072   0.3708
  72 X   :2py    0.0064  -0.0094   0.0004  -0.2141  -2.1529  -0.5945  -0.6586
  73 X   :2pz   -0.0057  -0.0047  -0.0005  -0.3619   0.7968  -2.0591  -0.9889
  74 X   :2py   -0.0023   0.0035  -0.0001   0.2548   2.3300   0.6787   0.5261
  75 X   :2pz    0.0021   0.0018   0.0000   0.4110  -0.8266   2.2577   0.7488
  76 X   :3d1-  -0.0014   0.0086  -0.0024   0.0006   0.0713   0.0787   0.0443
  77 X   :3d0    0.0019  -0.0051   0.0082   0.0074  -0.0694   0.1077   0.0520
  78 X   :3d2+  -0.0000   0.0001   0.0026  -0.0477  -0.0317   0.0247  -0.0519
  79 X   :3d1-   0.0010  -0.0079   0.0033  -0.0086  -0.1325  -0.1425  -0.1032
  80 X   :3d0   -0.0007   0.0056  -0.0073  -0.0134   0.1261  -0.1816  -0.0837
  81 X   :3d2+   0.0010  -0.0010  -0.0016   0.0602   0.0702  -0.0194   0.0702
  82 X   :3d1-  -0.0003   0.0031  -0.0015   0.0156   0.1489   0.1644   0.1042
  83 X   :3d0    0.0001  -0.0023   0.0029   0.0152  -0.1390   0.1980   0.0805
  84 X   :3d2+  -0.0006   0.0006   0.0005  -0.0512  -0.0937  -0.0065  -0.0054

    Orbital        15       16       17       18       19       20       21
   1 F   :1s     0.0002   0.0001   0.0001   0.0000   0.0010   0.0025   0.0008
   2 F   :1s     0.0002   0.0001   0.0001   0.0000   0.0017   0.0044   0.0014
   3 F   :1s    -0.0001  -0.0001  -0.0008  -0.0005  -0.0071  -0.0140  -0.0064
   4 F   :1s    -0.0067  -0.0032   0.0019   0.0038   0.0034  -0.0268   0.0057
   5 F   :1s     0.0654  -0.0038   0.0004  -0.0234  -0.0709  -0.0200  -0.1543
   6 F   :2py    0.0001  -0.0008   0.0003   0.0008  -0.0008   0.0040  -0.0014
   7 F   :2pz   -0.0001   0.0001   0.0001  -0.0013   0.0023   0.0014  -0.0009
   8 F   :2py   -0.0001  -0.0007   0.0007   0.0008  -0.0010   0.0046  -0.0023
   9 F   :2pz   -0.0000   0.0001   0.0001  -0.0018   0.0047   0.0020  -0.0018
  10 F   :2py    0.0010  -0.0039  -0.0008   0.0030  -0.0036   0.0125  -0.0016
  11 F   :2pz   -0.0010  -0.0000   0.0002  -0.0026  -0.0028   0.0019  -0.0008
  12 F   :2py    0.0011   0.0111   0.0074  -0.0107   0.0031  -0.0285  -0.0226
  13 F   :2pz    0.0225  -0.0087   0.0024  -0.0012   0.0229  -0.0203  -0.0487
  14 F   :3d1-  -0.0000  -0.0000   0.0000   0.0003   0.0001  -0.0002   0.0002
  15 F   :3d0   -0.0000   0.0000   0.0000  -0.0002  -0.0000   0.0003   0.0001
  16 F   :3d2+   0.0000   0.0000  -0.0000  -0.0001  -0.0000   0.0002   0.0000
  17 C1  :1s     0.0002   0.0002   0.0002   0.0018  -0.0024   0.0057   0.0005
  18 C1  :1s     0.0004   0.0003   0.0003   0.0032  -0.0041   0.0095   0.0009
  19 C1  :1s    -0.0024  -0.0011   0.0001  -0.0114   0.0126  -0.0200  -0.0008
  20 C1  :1s     0.0060   0.0025  -0.0080   0.0014   0.0101  -0.1167  -0.0224
  21 C1  :1s     0.3533  -0.7515  -0.0606  -0.2192   0.6981   0.5757  -0.0862
  22 C1  :2py   -0.0013   0.0001  -0.0006   0.0046   0.0023   0.0037  -0.0042
  23 C1  :2pz   -0.0007  -0.0001  -0.0009   0.0008   0.0066  -0.0092  -0.0012
  24 C1  :2py   -0.0003   0.0017   0.0008   0.0104   0.0036   0.0078  -0.0105
  25 C1  :2pz    0.0005  -0.0011  -0.0022   0.0002   0.0114  -0.0098  -0.0045
  26 C1  :2py   -0.0191  -0.0042  -0.0089  -0.0042   0.0046   0.0167   0.0195
  27 C1  :2pz   -0.0106   0.0096  -0.0005   0.0099   0.0134  -0.0437   0.0162
  28 C1  :2py   -0.0762  -0.0324  -0.1678   0.1212   0.4765  -0.4716   0.0149
  29 C1  :2pz   -0.1683   0.0349  -0.0592   0.0214   0.1345  -0.2084   0.1063
  30 C1  :3d1-   0.0002   0.0004   0.0002  -0.0015   0.0007   0.0015  -0.0005
  31 C1  :3d0    0.0003   0.0003   0.0004   0.0001  -0.0002   0.0009  -0.0008
  32 C1  :3d2+   0.0002  -0.0002   0.0003  -0.0002  -0.0002   0.0036   0.0003
  33 C2  :1s    -0.0001  -0.0003  -0.0001  -0.0025  -0.0002   0.0025  -0.0013
  34 C2  :1s    -0.0002  -0.0006  -0.0003  -0.0043  -0.0003   0.0042  -0.0022
  35 C2  :1s    -0.0003   0.0023   0.0024   0.0137   0.0001  -0.0095   0.0063
  36 C2  :1s     0.0010   0.0083  -0.0061   0.0232   0.0143  -0.0605   0.0402
  37 C2  :1s    -0.4559   0.3378   0.2407   0.3840  -0.7933   0.6837   0.6833
  38 C2  :2py    0.0005   0.0002  -0.0003   0.0057   0.0019  -0.0134   0.0021
  39 C2  :2pz   -0.0002   0.0001   0.0000   0.0008  -0.0022  -0.0008  -0.0024
  40 C2  :2py   -0.0008   0.0007  -0.0025   0.0125   0.0025  -0.0204   0.0055
  41 C2  :2pz   -0.0024   0.0011   0.0002  -0.0002  -0.0043   0.0031  -0.0005
  42 C2  :2py    0.0212  -0.0040   0.0057  -0.0022   0.0012  -0.0411  -0.0316
  43 C2  :2pz    0.0165  -0.0073   0.0038   0.0067  -0.0051  -0.0263  -0.0333
  44 C2  :2py    0.2168  -0.1974   0.0929   0.1699  -0.2556   0.5613  -0.1083
  45 C2  :2pz   -0.0608   0.2231   0.0823  -0.0892  -0.2782   0.0874  -0.0808
  46 C2  :3d1-   0.0000   0.0003   0.0002   0.0006  -0.0001   0.0001  -0.0011
  47 C2  :3d0   -0.0002  -0.0002   0.0002   0.0003   0.0008  -0.0010  -0.0012
  48 C2  :3d2+  -0.0000  -0.0002   0.0003   0.0006  -0.0005   0.0028   0.0001
  49 H   :1s     0.0001   0.0005  -0.0005   0.0015   0.0007  -0.0070   0.0010
  50 H   :1s     0.0000  -0.0034   0.0068  -0.0012  -0.0063  -0.0076   0.0042
  51 H   :1s    -0.0411   0.0271  -0.0461   0.0050   0.0421  -0.0211   0.0311
  52 H   :1s     0.0196   0.2460  -0.1027  -0.7037   0.4856  -1.2643  -0.5121
  53 H   :2py    0.0001  -0.0000  -0.0004  -0.0021  -0.0001   0.0019  -0.0014
  54 H   :2pz   -0.0002   0.0001   0.0000   0.0003  -0.0006  -0.0002   0.0003
  55 H   :1s     0.0001  -0.0001  -0.0003  -0.0023  -0.0003  -0.0056   0.0014
  56 H   :1s     0.0023  -0.0028   0.0061   0.0023  -0.0032  -0.0038  -0.0015
  57 H   :1s    -0.0499   0.0060  -0.0461  -0.0343   0.0273  -0.0156   0.0714
  58 H   :1s     0.1173   0.0751  -0.1599   0.6197   0.5032  -0.9520  -0.5325
  59 H   :2py    0.0000  -0.0002   0.0004  -0.0017   0.0004  -0.0009   0.0010
  60 H   :2pz    0.0000   0.0000  -0.0000   0.0003   0.0001  -0.0001  -0.0004
  61 H   :1s    -0.0001   0.0003  -0.0003  -0.0004   0.0040  -0.0008  -0.0025
  62 H   :1s    -0.0044  -0.0075  -0.0005   0.0010   0.0052  -0.0142   0.0066
  63 H   :1s     0.0515   0.0308   0.0190  -0.0200  -0.0135   0.1415  -0.1020
  64 H   :1s     0.0052   0.0562   0.0839   0.0186  -0.8654  -0.0602   0.4257
  65 H   :2py    0.0004   0.0003   0.0002   0.0000  -0.0011   0.0015  -0.0005
  66 H   :2pz    0.0004   0.0005   0.0002   0.0002  -0.0019   0.0023   0.0007
  67 X   :1s    -0.2832  -0.1338   0.1737  -0.5810  -1.0948   7.1059   0.3033
  68 X   :1s     0.4897   0.2011  -0.2570   1.0286   2.1096 -10.0608  -0.2852
  69 X   :1s    -0.2195  -0.0910   0.1150  -0.4936  -1.0491   4.2627   0.0881
  70 X   :2py    0.0139   0.0661  -0.0652   1.8930   0.4288   0.6656  -0.1546
  71 X   :2pz   -0.1043  -0.0450  -0.0969  -0.6798   1.8730   0.8758   0.0888
  72 X   :2py    0.0148  -0.3644   0.2199  -5.0297  -1.2728  -1.1206   0.2418
  73 X   :2pz    0.3673   0.1421   0.3843   1.6306  -4.9812  -1.2951  -0.3931
  74 X   :2py   -0.0295   0.3568  -0.1891   2.9959   0.7710   0.5440  -0.1119
  75 X   :2pz   -0.3221  -0.1238  -0.3467  -0.9428   2.9315   0.5941   0.2356
  76 X   :3d1-   0.3631  -0.3638   0.1446   0.1539   0.1662  -0.0184  -0.6214
  77 X   :3d0    0.2428   0.3549   0.3139  -0.1386   0.2300   0.0565  -0.8814
  78 X   :3d2+   0.3762   0.1475  -0.2884  -0.0555   0.0623  -0.3274  -0.9151
  79 X   :3d1-  -1.0827   1.1875  -0.5250  -0.3453  -0.3857  -0.0517   1.6488
  80 X   :3d0   -0.6940  -1.1103  -1.0782   0.3082  -0.4833  -0.1933   2.3641
  81 X   :3d2+  -1.1751  -0.4552   1.0510   0.1973  -0.0211   0.3654   2.6972
  82 X   :3d1-   1.3142  -1.4892   0.6830   0.2325   0.2642   0.0412  -0.9512
  83 X   :3d0    0.8254   1.3681   1.3691  -0.2054   0.3254   0.1265  -1.3653
  84 X   :3d2+   1.4536   0.5707  -1.3806  -0.1576  -0.0190  -0.1367  -1.5933

    Orbital        22       23       24       25       26       27       28
   1 F   :1s     0.0003  -0.0004  -0.0004  -0.0037   0.0034   0.0015   0.0002
   2 F   :1s     0.0005  -0.0007  -0.0006  -0.0062   0.0058   0.0026   0.0004
   3 F   :1s    -0.0018   0.0017   0.0010   0.0172  -0.0162  -0.0065  -0.0010
   4 F   :1s     0.0003   0.0087   0.0113   0.0637  -0.0511  -0.0322  -0.0033
   5 F   :1s     0.0180  -0.0088  -0.0488  -0.1236   0.2384   0.0027   0.1607
   6 F   :2py   -0.0026  -0.0010  -0.0028   0.0010   0.0021  -0.0135   0.0015
   7 F   :2pz    0.0004  -0.0003   0.0028  -0.0059  -0.0024   0.0014   0.0015
   8 F   :2py   -0.0052  -0.0008  -0.0051   0.0022   0.0026  -0.0190   0.0008
   9 F   :2pz    0.0009  -0.0004   0.0047  -0.0066  -0.0023   0.0027   0.0018
  10 F   :2py    0.0017  -0.0047   0.0021   0.0015   0.0029  -0.0321   0.0110
  11 F   :2pz   -0.0004  -0.0005   0.0037  -0.0160  -0.0147  -0.0035   0.0074
  12 F   :2py   -0.0330   0.0120  -0.0204   0.0131   0.0160   0.0213  -0.0202
  13 F   :2pz    0.0257   0.0045  -0.0013   0.0166   0.1278  -0.0187   0.0399
  14 F   :3d1-  -0.0002  -0.0000  -0.0006  -0.0002   0.0002  -0.0003   0.0009
  15 F   :3d0    0.0001  -0.0002   0.0005  -0.0000  -0.0004   0.0008   0.0006
  16 F   :3d2+   0.0000   0.0001   0.0003   0.0000   0.0004   0.0004  -0.0008
  17 C1  :1s     0.0005  -0.0011  -0.0046   0.0040   0.0035  -0.0001  -0.0031
  18 C1  :1s     0.0010  -0.0019  -0.0078   0.0067   0.0066  -0.0005  -0.0059
  19 C1  :1s    -0.0031   0.0067   0.0152  -0.0130  -0.0310   0.0044   0.0317
  20 C1  :1s    -0.0011   0.0151   0.1153  -0.1449   0.0488   0.0144  -0.0752
  21 C1  :1s     1.4168   0.0266  -0.3691   0.8740   2.1181  -3.2287   2.2076
  22 C1  :2py    0.0025   0.0007  -0.0133  -0.0060  -0.0114  -0.0055  -0.0115
  23 C1  :2pz   -0.0011   0.0043  -0.0008  -0.0137  -0.0029  -0.0017  -0.0015
  24 C1  :2py    0.0022   0.0045  -0.0114  -0.0108  -0.0139   0.0010  -0.0063
  25 C1  :2pz    0.0010   0.0044  -0.0041  -0.0159   0.0021  -0.0044  -0.0006
  26 C1  :2py    0.0083  -0.0109  -0.0503  -0.0304  -0.1038  -0.0519  -0.0857
  27 C1  :2pz   -0.0235   0.0108  -0.0005  -0.0205  -0.0501   0.0298  -0.0508
  28 C1  :2py   -0.1608  -0.2055   0.2193   1.2714   0.3270  -0.5565  -1.3755
  29 C1  :2pz   -0.0807  -0.0099   0.0368   0.5784  -0.7226   0.1417  -0.8866
  30 C1  :3d1-  -0.0019   0.0000   0.0006  -0.0012   0.0016  -0.0000   0.0009
  31 C1  :3d0    0.0008  -0.0003   0.0023  -0.0023  -0.0009   0.0032   0.0030
  32 C1  :3d2+   0.0010   0.0011  -0.0001  -0.0002   0.0026   0.0005  -0.0010
  33 C2  :1s    -0.0009   0.0002   0.0055  -0.0000  -0.0001  -0.0046  -0.0050
  34 C2  :1s    -0.0014   0.0003   0.0095  -0.0001   0.0002  -0.0082  -0.0092
  35 C2  :1s     0.0030   0.0013  -0.0238  -0.0006  -0.0139   0.0276   0.0442
  36 C2  :1s     0.0022  -0.0110  -0.1106   0.0436   0.0522   0.0731  -0.0632
  37 C2  :1s    -0.4271   0.4299   0.3745  -1.3078  -3.4717   1.9572   0.9383
  38 C2  :2py   -0.0001   0.0032  -0.0142  -0.0005   0.0024   0.0029   0.0096
  39 C2  :2pz    0.0014  -0.0006  -0.0010   0.0061  -0.0076  -0.0012  -0.0028
  40 C2  :2py   -0.0021   0.0012  -0.0123   0.0010  -0.0014   0.0023   0.0041
  41 C2  :2pz   -0.0003   0.0005  -0.0045   0.0092  -0.0246   0.0030  -0.0047
  42 C2  :2py    0.0195   0.0220  -0.0700  -0.0209   0.0985   0.0110   0.0790
  43 C2  :2pz    0.0124  -0.0036  -0.0015   0.0463   0.0683  -0.0458   0.0421
  44 C2  :2py    0.5324   0.0939   0.1334  -0.8983   0.8035  -0.6980   1.7999
  45 C2  :2pz   -0.3978   0.1514  -0.1383  -0.5530  -0.7025   1.1721   0.0649
  46 C2  :3d1-  -0.0008   0.0008   0.0007  -0.0014  -0.0004   0.0000   0.0004
  47 C2  :3d0   -0.0002   0.0004  -0.0034  -0.0005  -0.0032  -0.0033   0.0021
  48 C2  :3d2+   0.0003   0.0015  -0.0017  -0.0027   0.0017  -0.0017  -0.0011
  49 H   :1s    -0.0008  -0.0009  -0.0007   0.0027  -0.0025   0.0043   0.0048
  50 H   :1s     0.0071   0.0107  -0.0085  -0.0120  -0.0157  -0.0129   0.0481
  51 H   :1s    -0.0884  -0.0998   0.1648   0.1554  -0.1840   0.0740  -0.2974
  52 H   :1s    -0.5936  -0.0588  -1.1406   1.3267   0.6834   1.0223  -2.6233
  53 H   :2py   -0.0005  -0.0014   0.0046   0.0016   0.0014  -0.0017  -0.0067
  54 H   :2pz   -0.0009   0.0000  -0.0011   0.0020  -0.0006  -0.0014   0.0002
  55 H   :1s    -0.0027  -0.0014   0.0029   0.0043  -0.0003  -0.0018   0.0059
  56 H   :1s     0.0046   0.0095   0.0207  -0.0058  -0.0037  -0.0129   0.0468
  57 H   :1s    -0.0602  -0.0972  -0.1483   0.1465  -0.1914  -0.0635  -0.2850
  58 H   :1s    -0.3111  -0.1925   1.3406   1.4437   1.6719  -0.2337  -1.6607
  59 H   :2py   -0.0002   0.0010   0.0042  -0.0002  -0.0005   0.0017   0.0060
  60 H   :2pz    0.0009   0.0003  -0.0009   0.0006  -0.0011   0.0021   0.0004
  61 H   :1s    -0.0011   0.0003   0.0000  -0.0079  -0.0028   0.0005   0.0024
  62 H   :1s     0.0079   0.0026   0.0041  -0.0147  -0.0050  -0.0473  -0.0091
  63 H   :1s    -0.0274  -0.0111  -0.0256   0.0044   0.1126   0.2416   0.3058
  64 H   :1s    -0.0161  -0.1294   0.0330  -2.6191  -0.2215  -0.0656   0.1692
  65 H   :2py   -0.0012  -0.0007   0.0015   0.0021   0.0027  -0.0007  -0.0003
  66 H   :2pz    0.0001  -0.0014   0.0000   0.0026   0.0027   0.0038  -0.0000
  67 X   :1s     0.3169  -0.1025  -0.6621  -0.4273  -1.3791   0.5541   2.3626
  68 X   :1s    -0.3993   0.2197   0.8388   0.7082   1.5172  -0.6841  -2.6696
  69 X   :1s     0.1612  -0.1090  -0.3380  -0.3190  -0.5700   0.2735   1.0220
  70 X   :2py   -0.1753  -0.1975   4.7109   1.1810   0.1224   0.1222   0.2485
  71 X   :2pz   -0.0467  -0.1808  -1.5082   4.7862  -0.3316   0.1650  -0.1147
  72 X   :2py    0.5125   0.3815  -6.2680  -1.5712  -0.0709  -0.2776  -0.1692
  73 X   :2pz    0.0645   0.5090   1.9098  -6.1928   0.3674  -0.0978   0.3129
  74 X   :2py   -0.2880  -0.1921   2.6510   0.6661   0.0152   0.1369   0.0452
  75 X   :2pz   -0.0259  -0.2822  -0.7890   2.5895  -0.1441   0.0209  -0.1586
  76 X   :3d1-   1.0427   0.3065   0.4265   0.5637   2.1420  -1.7396   1.8459
  77 X   :3d0   -0.6406   0.7762  -0.3525   0.7442   0.4979   2.5375   1.8675
  78 X   :3d2+  -0.1362  -0.6948  -0.1959   0.0644   2.6171   1.1777  -1.3914
  79 X   :3d1-  -3.2805  -1.0092  -0.5032  -0.6650  -2.6229   2.2593  -2.4034
  80 X   :3d0    1.8781  -2.4261   0.4269  -0.7351  -0.5262  -3.1663  -2.4067
  81 X   :3d2+   0.3638   2.4974   0.3406   0.0516  -3.2802  -1.5249   1.7025
  82 X   :3d1-   1.9529   0.6044   0.2091   0.2807   1.0976  -0.9679   1.0265
  83 X   :3d0   -1.1028   1.4397  -0.1788   0.2829   0.2036   1.3341   1.0270
  84 X   :3d2+  -0.2130  -1.5257  -0.1685  -0.0479   1.3860   0.6552  -0.7185

    Orbital        29       30       31       32       33       34       35
   1 F   :1s    -0.0053  -0.0009   0.0047   0.0150  -0.0102  -0.0061  -0.0020
   2 F   :1s    -0.0093  -0.0016   0.0082   0.0266  -0.0183  -0.0110  -0.0035
   3 F   :1s     0.0328   0.0077  -0.0287  -0.1028   0.0744   0.0443   0.0119
   4 F   :1s     0.0317  -0.0129  -0.0228  -0.0269  -0.0261  -0.0065   0.0309
   5 F   :1s     0.0796   0.1405  -0.0228  -1.4463   1.2189   1.1482   0.3485
   6 F   :2py   -0.0096  -0.0060   0.0028  -0.0143   0.0147  -0.0178   0.0203
   7 F   :2pz   -0.0015   0.0030   0.0127  -0.0084   0.0158   0.0146   0.0027
   8 F   :2py   -0.0208  -0.0064   0.0091  -0.0274   0.0185  -0.0419   0.0402
   9 F   :2pz   -0.0036   0.0034   0.0270  -0.0061   0.0225   0.0275   0.0018
  10 F   :2py    0.0174  -0.0215  -0.0244  -0.0086   0.0515   0.0487  -0.0101
  11 F   :2pz    0.0150   0.0122  -0.0209  -0.0735   0.0439   0.0093   0.0223
  12 F   :2py   -0.1959   0.0649   0.1751  -0.2983   0.0127  -0.4273   0.4523
  13 F   :2pz   -0.0813  -0.0230   0.3230  -0.1144   0.1478   0.5007   0.0045
  14 F   :3d1-   0.0013  -0.0011  -0.0002  -0.0003  -0.0014  -0.0033   0.0009
  15 F   :3d0   -0.0003   0.0010  -0.0002  -0.0005  -0.0002   0.0014  -0.0006
  16 F   :3d2+  -0.0004   0.0004   0.0003  -0.0006  -0.0008  -0.0012  -0.0019
  17 C1  :1s    -0.0134  -0.0135  -0.0059  -0.0019  -0.0010  -0.0066  -0.0110
  18 C1  :1s    -0.0241  -0.0239  -0.0107  -0.0034  -0.0030  -0.0107  -0.0186
  19 C1  :1s     0.0922   0.0876   0.0418   0.0261   0.0366   0.0134   0.0214
  20 C1  :1s    -0.0098   0.0075   0.0286  -0.2633  -0.3853   0.2376   0.2361
  21 C1  :1s     4.7884   3.7971   2.8842  22.1414  18.1663  23.8011 -21.1182
  22 C1  :2py   -0.0049  -0.0264   0.0219  -0.0075  -0.0007   0.0263   0.0199
  23 C1  :2pz    0.0248  -0.0011   0.0235   0.0098   0.0034  -0.0174   0.0041
  24 C1  :2py   -0.0038  -0.0626   0.0411  -0.0160   0.0068   0.0427   0.0168
  25 C1  :2pz    0.0477   0.0067   0.0432   0.0158  -0.0132  -0.0015   0.0374
  26 C1  :2py    0.0122   0.0453   0.0024   0.0032  -0.1625  -0.0656   0.1203
  27 C1  :2pz   -0.0189  -0.0675  -0.0641   0.2525   0.1783  -0.1432   0.0033
  28 C1  :2py   -0.6430  -1.8299   5.5347   3.6177   4.8338   0.1038  -2.1876
  29 C1  :2pz   -0.1782  -0.1796   4.0129  -6.5338  -7.8056  -6.6634   1.0430
  30 C1  :3d1-  -0.0038   0.0064  -0.0048   0.0197   0.0146  -0.0065   0.0159
  31 C1  :3d0   -0.0028   0.0023  -0.0049  -0.0019  -0.0233   0.0096   0.0168
  32 C1  :3d2+  -0.0009   0.0056   0.0012   0.0090  -0.0101  -0.0093  -0.0266
  33 C2  :1s    -0.0063   0.0107   0.0035  -0.0034   0.0143   0.0027  -0.0071
  34 C2  :1s    -0.0117   0.0186   0.0053  -0.0051   0.0246   0.0058  -0.0124
  35 C2  :1s     0.0528  -0.0621  -0.0078  -0.0192  -0.0715  -0.0331   0.0263
  36 C2  :1s    -0.0511  -0.1184  -0.2507   0.6787  -0.0585   0.0325   0.0909
  37 C2  :1s     1.7765  -3.5007  -4.4722 -19.8798 -23.3401 -20.9093   4.9288
  38 C2  :2py    0.0329  -0.0245  -0.0066  -0.0012   0.0095  -0.0257   0.0165
  39 C2  :2pz   -0.0020  -0.0050  -0.0051  -0.0315   0.0072   0.0327   0.0149
  40 C2  :2py    0.0580  -0.0598  -0.0143   0.0026   0.0045  -0.0542   0.0528
  41 C2  :2pz    0.0118  -0.0002  -0.0163  -0.0331   0.0308   0.0249  -0.0139
  42 C2  :2py    0.0528   0.0287   0.0624  -0.2371   0.0340   0.1574  -0.0318
  43 C2  :2pz   -0.0630  -0.0464  -0.0017  -0.1934   0.2468   0.3200   0.2502
  44 C2  :2py    1.9696  -1.2837  -4.0271   3.5900   4.6198  10.0459  -6.3010
  45 C2  :2pz   -0.5202   0.5371  -0.7298  -7.6361  -3.7478  -7.4153   4.1916
  46 C2  :3d1-  -0.0012  -0.0068   0.0060  -0.0195   0.0126  -0.0062  -0.0087
  47 C2  :3d0    0.0014  -0.0021   0.0060  -0.0061   0.0125   0.0084   0.0098
  48 C2  :3d2+   0.0007  -0.0065   0.0010  -0.0054  -0.0046  -0.0136  -0.0248
  49 H   :1s     0.0127   0.0024  -0.0039  -0.0007   0.0001   0.0041   0.0334
  50 H   :1s     0.0132   0.0169  -0.0587  -0.0400   0.0209   0.0741  -0.1058
  51 H   :1s    -0.0062   0.0669   0.3513   0.2064  -0.1298  -0.7129   1.7003
  52 H   :1s    -4.9101   6.1479   7.2876  -4.4148  -1.7330  -7.1457   8.7648
  53 H   :2py   -0.0113   0.0104   0.0042   0.0012   0.0024   0.0085   0.0062
  54 H   :2pz   -0.0000  -0.0026  -0.0023  -0.0104   0.0043  -0.0129   0.0021
  55 H   :1s     0.0081   0.0038  -0.0060  -0.0098   0.0309  -0.0015   0.0207
  56 H   :1s     0.0176  -0.0019  -0.0501  -0.0052  -0.0065   0.0115  -0.0254
  57 H   :1s     0.0113   0.0164   0.2790  -0.0184   0.5337  -0.3598   0.8168
  58 H   :1s    -2.2705  -7.2960   7.7551  -0.4660   4.5231   1.3289   0.1566
  59 H   :2py    0.0089   0.0143  -0.0033   0.0056  -0.0034  -0.0090  -0.0072
  60 H   :2pz    0.0039  -0.0005   0.0033  -0.0107  -0.0097   0.0036  -0.0053
  61 H   :1s     0.0042   0.0019   0.0064   0.0215   0.0010   0.0085   0.0414
  62 H   :1s    -0.0264  -0.0024   0.0697   0.0117   0.0001  -0.0074  -0.1440
  63 H   :1s     0.1682   0.1033  -0.3778   0.0199   0.0849   0.5266   1.7454
  64 H   :1s    -1.9757   0.1841 -13.7917   3.1828   1.0332   3.1583   4.6337
  65 H   :2py   -0.0086  -0.0039  -0.0067   0.0018   0.0125  -0.0003   0.0075
  66 H   :2pz   -0.0077  -0.0019  -0.0139   0.0012  -0.0131   0.0008   0.0080
  67 X   :1s     5.2250   0.8386  -0.1726   0.0512   0.1962  -0.3013  -2.1302
  68 X   :1s    -5.8792  -0.9193   0.3502   0.0593  -0.2908   0.3060   2.1242
  69 X   :1s     2.2515   0.3490  -0.1618  -0.0480   0.1248  -0.1106  -0.7717
  70 X   :2py    1.2626  -4.6333   0.8953   0.6518  -0.1703   0.6480  -0.7593
  71 X   :2pz    1.1729   1.7759   3.8399   1.6537  -0.2177  -0.5239  -0.0010
  72 X   :2py   -1.2471   4.5021  -0.8036  -0.6986   0.3227  -0.4425   0.4607
  73 X   :2pz   -1.0379  -1.6609  -3.4589  -1.9170   0.2843   0.3999  -0.2479
  74 X   :2py    0.4622  -1.6635   0.2859   0.2752  -0.1480   0.1322  -0.1230
  75 X   :2pz    0.3618   0.6014   1.2341   0.7705  -0.1247  -0.1324   0.1358
  76 X   :3d1-   0.0928  -0.4423   1.3849  -0.4066  -0.7726   1.8856  -0.8153
  77 X   :3d0   -0.9328   0.3200   2.1796  -0.7749   1.2314  -0.6746   0.3842
  78 X   :3d2+   0.1826   0.1658   0.7308  -0.8737   0.6608   0.8461   1.3060
  79 X   :3d1-  -0.0734   0.1910  -0.9771   0.2819   0.8082  -1.9143   0.7764
  80 X   :3d0    1.2644  -0.1774  -1.5031   0.6187  -1.1557   0.5740  -0.4175
  81 X   :3d2+  -0.6845  -0.1978  -0.4181   0.7907  -0.6661  -0.9773  -1.2628
  82 X   :3d1-   0.0179  -0.0332   0.3184  -0.0910  -0.3187   0.7544  -0.2997
  83 X   :3d0   -0.5466   0.0443   0.4846  -0.2163   0.4343  -0.2161   0.1627
  84 X   :3d2+   0.3666   0.0836   0.1096  -0.2959   0.2627   0.4038   0.4979

    Orbital        36       37       38       39       40       41       42
   1 F   :1s    -0.0042   0.0026  -0.0087  -0.0025  -0.0168  -0.0292  -0.0043
   2 F   :1s    -0.0076   0.0052  -0.0148  -0.0039  -0.0280  -0.0490  -0.0069
   3 F   :1s     0.0330  -0.0329   0.0439   0.0036   0.0643   0.1242   0.0080
   4 F   :1s    -0.0332   0.0940   0.1579   0.1220   0.4707   0.7753   0.2131
   5 F   :1s     0.7107  -1.0661   0.0054  -0.0381  -1.4422   0.9494  -1.5502
   6 F   :2py    0.0093   0.0070  -0.0265   0.0161   0.0636   0.0204   0.0821
   7 F   :2pz   -0.0057  -0.0048   0.0318   0.0310   0.0974   0.0232  -0.0278
   8 F   :2py    0.0186   0.0063  -0.0293   0.0194   0.0821   0.0451   0.0616
   9 F   :2pz   -0.0134  -0.0159   0.0501   0.0418   0.1423   0.0745  -0.0143
  10 F   :2py   -0.0043   0.0403  -0.1085   0.0599   0.2392   0.0175   0.4931
  11 F   :2pz    0.0124   0.0520   0.0395   0.1034   0.2701  -0.0609  -0.1874
  12 F   :2py    0.2367  -0.2681   0.1805  -0.1186  -0.2630   1.0814  -3.0237
  13 F   :2pz   -0.1641  -0.5604   0.2675   0.0885  -0.5163   2.3946   0.2869
  14 F   :3d1-  -0.0008  -0.0013   0.0012  -0.0007  -0.0010  -0.0100   0.0109
  15 F   :3d0   -0.0018  -0.0019  -0.0039  -0.0017   0.0005  -0.0111  -0.0048
  16 F   :3d2+  -0.0013   0.0015   0.0015   0.0002   0.0005   0.0030  -0.0074
  17 C1  :1s     0.0059  -0.0019  -0.0234   0.0393  -0.0146  -0.0023  -0.0073
  18 C1  :1s     0.0104  -0.0036  -0.0378   0.0656  -0.0255  -0.0049  -0.0110
  19 C1  :1s     0.0004  -0.0041   0.0325  -0.0891   0.0606   0.0207  -0.0286
  20 C1  :1s    -0.3774   0.1910   1.1253  -1.9168   0.0672  -0.1363   2.2534
  21 C1  :1s    26.1868 -26.6539  -0.9628  -0.8192   0.5202  -1.2107  19.0885
  22 C1  :2py    0.0384   0.0268   0.0271   0.0841   0.0622  -0.0310  -0.0211
  23 C1  :2pz    0.0140   0.0237   0.0869  -0.0246   0.0226  -0.0381  -0.0040
  24 C1  :2py    0.0920   0.0734   0.0053   0.0355   0.0581   0.0033  -0.0184
  25 C1  :2pz    0.0137   0.0601   0.0803   0.0134  -0.0091  -0.0587   0.0119
  26 C1  :2py    0.0334   0.0560   0.1491   0.9404   0.9994  -0.4866   0.2488
  27 C1  :2pz    0.1509  -0.0319   0.9783  -0.4363   0.7726  -0.4073  -0.8873
  28 C1  :2py   -4.4352 -11.9791   0.2611  -0.2719   2.9691   2.8936  -0.0926
  29 C1  :2pz   -7.6508  -1.1469  -0.7844   1.7443   2.3742   3.0650  -3.8138
  30 C1  :3d1-  -0.0004   0.0271  -0.0261   0.0023  -0.0218  -0.0058   0.0063
  31 C1  :3d0    0.0031   0.0110  -0.0273  -0.0307  -0.0188  -0.0074  -0.0021
  32 C1  :3d2+   0.0365  -0.0040  -0.0112  -0.0248  -0.0102  -0.0062  -0.0036
  33 C2  :1s     0.0013   0.0161  -0.0136  -0.0082   0.0437   0.0326  -0.0046
  34 C2  :1s     0.0026   0.0285  -0.0203  -0.0146   0.0763   0.0541  -0.0071
  35 C2  :1s    -0.0276  -0.0672  -0.0051   0.0317  -0.1833  -0.0465  -0.0083
  36 C2  :1s     0.1887  -0.2284   1.3116   0.1375  -1.1299  -2.6366   0.5069
  37 C2  :1s   -22.9391  32.7099  -0.7262   3.5128   0.9484  -0.2805  -9.2237
  38 C2  :2py    0.0195  -0.0207   0.0942   0.0596  -0.0297   0.0646   0.0499
  39 C2  :2pz    0.0057  -0.0038   0.0207   0.0382   0.0783   0.0960  -0.0269
  40 C2  :2py    0.0300  -0.0545   0.0971   0.0338   0.0569   0.0622   0.0371
  41 C2  :2pz    0.0122   0.0308   0.0039   0.0945   0.1330   0.0725   0.0181
  42 C2  :2py    0.0741  -0.0194   0.5848   0.5817  -1.1313   0.9010   1.4800
  43 C2  :2pz    0.1478  -0.2826   0.3149   0.1124   0.3141   1.3712  -1.6666
  44 C2  :2py    3.6857   4.5762   0.8564  -0.9025  -3.3724  -3.5179   9.0655
  45 C2  :2pz   -2.4716   7.1756  -0.6180   0.0180  -1.5617  -1.2787  -5.8760
  46 C2  :3d1-  -0.0014  -0.0045   0.0161   0.0076   0.0269   0.0188   0.0093
  47 C2  :3d0    0.0026  -0.0027   0.0258   0.0256   0.0189   0.0050  -0.0099
  48 C2  :3d2+  -0.0066   0.0298   0.0246   0.0127  -0.0149  -0.0000  -0.0094
  49 H   :1s     0.0109  -0.0322  -0.0464  -0.0409   0.0317   0.0176  -0.0074
  50 H   :1s    -0.1093   0.1624   0.0190  -0.0528  -0.0366   0.0491  -0.2182
  51 H   :1s     0.6538  -2.0406  -2.5530  -1.5298   3.6237   0.0055  -2.5897
  52 H   :1s     2.6527  -9.5670   0.3428   1.8208  -1.2127   3.7228  -8.2051
  53 H   :2py    0.0075  -0.0046  -0.0196  -0.0174   0.0188  -0.0076   0.0068
  54 H   :2pz   -0.0049   0.0012   0.0042   0.0151   0.0175   0.0088   0.0132
  55 H   :1s    -0.0478  -0.0102   0.0133   0.0711   0.0161   0.0172  -0.0089
  56 H   :1s     0.2557   0.0156  -0.0116   0.0963   0.1762   0.1999   0.0671
  57 H   :1s    -2.6124  -0.6258   0.1548   3.3189   1.4491  -0.9829  -1.0986
  58 H   :1s    -9.7267  -7.2409   0.2894  -3.8487  -0.1277   4.0081  -0.1118
  59 H   :2py    0.0125  -0.0060  -0.0102  -0.0241   0.0031   0.0132   0.0025
  60 H   :2pz   -0.0024   0.0001   0.0102   0.0049   0.0010  -0.0029  -0.0054
  61 H   :1s    -0.0084   0.0351  -0.0577   0.0075  -0.0532  -0.0155  -0.0080
  62 H   :1s    -0.0033  -0.2202  -0.0983  -0.0127  -0.1470  -0.0912  -0.0976
  63 H   :1s    -0.1076   2.2666  -2.5453   0.7219  -2.8186   0.8801   0.0536
  64 H   :1s     4.5307  11.4564   3.6425  -1.6875  -0.2213  -5.7692   0.6880
  65 H   :2py   -0.0040   0.0061  -0.0081   0.0052   0.0022   0.0122   0.0010
  66 H   :2pz   -0.0088   0.0064  -0.0173  -0.0039  -0.0170   0.0041   0.0111
  67 X   :1s     0.5470   1.2838  -2.0454   1.1665   0.2628  -0.4939   0.5318
  68 X   :1s    -0.5642  -1.4453   2.2247  -1.2350  -0.2618   0.5759  -0.5105
  69 X   :1s     0.2085   0.5570  -0.8488   0.4649   0.0944  -0.2269   0.1827
  70 X   :2py   -1.2303   0.2127  -0.8810  -1.6245   0.7504   0.6244   0.5580
  71 X   :2pz   -0.1110  -1.3597  -0.8055   1.2795  -0.0640   1.1473   0.0899
  72 X   :2py    0.8533  -0.1783   0.8718   1.5382  -0.7815  -0.5944  -0.4169
  73 X   :2pz    0.2420   1.0316   0.6191  -1.1727  -0.0303  -1.0317  -0.1205
  74 X   :2py   -0.2604   0.0604  -0.3315  -0.5728   0.3055   0.2231   0.1382
  75 X   :2pz   -0.1167  -0.3418  -0.2058   0.4315   0.0301   0.3776   0.0513
  76 X   :3d1-   0.2293  -0.1621  -0.0214  -0.0942  -0.6161   0.7796   0.6289
  77 X   :3d0    0.6813   0.3407  -0.1809  -0.2377  -1.0902   0.6880  -0.3386
  78 X   :3d2+  -0.0697  -0.4390  -0.3233  -0.0680  -0.5793  -0.0280   0.0017
  79 X   :3d1-  -0.4608  -0.0612  -0.0828  -0.0019   0.5812  -0.6478  -0.5572
  80 X   :3d0   -0.7604  -0.8038  -0.0019   0.3471   0.9570  -0.5573   0.2379
  81 X   :3d2+   0.0236   0.2649   0.4402   0.0065   0.4687   0.1709  -0.1277
  82 X   :3d1-   0.2091   0.0503   0.0505   0.0145  -0.2262   0.2428   0.2076
  83 X   :3d0    0.3098   0.3742   0.0254  -0.1525  -0.3582   0.2115  -0.0800
  84 X   :3d2+  -0.0055  -0.0846  -0.1971   0.0082  -0.1668  -0.0902   0.0694

    Orbital        43       44       45       46       47       48       49
   1 F   :1s    -0.0158   0.0013   0.0187   0.0109   0.0031  -0.0030   0.0117
   2 F   :1s    -0.0255   0.0020   0.0302   0.0182   0.0063  -0.0064   0.0203
   3 F   :1s     0.0389  -0.0082  -0.0477  -0.0397  -0.0408   0.0468  -0.0617
   4 F   :1s     0.7208  -0.0016  -0.8426  -0.3716   0.2410  -0.3286  -0.2639
   5 F   :1s    -3.0113   2.6520   7.5076  -0.9457   0.4171   0.4038   2.4146
   6 F   :2py    0.0116   0.0071   0.0617  -0.0740   0.0198   0.0110  -0.0125
   7 F   :2pz    0.0444   0.1113   0.0301  -0.0387  -0.0666   0.0583  -0.0331
   8 F   :2py    0.0199   0.0112   0.0530  -0.0998   0.0158   0.0148  -0.0203
   9 F   :2pz    0.0540   0.1066   0.0199  -0.0376  -0.1040   0.0810  -0.0595
  10 F   :2py    0.0455   0.0554   0.3976  -0.3016   0.1617   0.0185  -0.0224
  11 F   :2pz    0.1930   0.7031   0.2459  -0.3022  -0.1788   0.1494  -0.0422
  12 F   :2py   -0.2927   0.1711   0.7427  -0.0245   0.3749  -0.4814   0.1921
  13 F   :2pz   -2.1395  -0.6958   2.3024  -0.1019   0.2915  -0.0167   1.1701
  14 F   :3d1-   0.0055  -0.0013  -0.0093   0.0098  -0.0001  -0.0011   0.0095
  15 F   :3d0    0.0097  -0.0008  -0.0076  -0.0046   0.0125  -0.0110   0.0065
  16 F   :3d2+   0.0025  -0.0035   0.0057  -0.0018   0.0066   0.0007   0.0014
  17 C1  :1s     0.0142  -0.0197   0.0137   0.0101   0.0332   0.0043  -0.0073
  18 C1  :1s     0.0229  -0.0302   0.0221   0.0192   0.0628   0.0012  -0.0146
  19 C1  :1s     0.0300  -0.0473  -0.0107  -0.0768  -0.1359   0.3157   0.0977
  20 C1  :1s    -3.0708   2.8197  -2.6318   0.4510  -3.8824  -0.4921   0.3705
  21 C1  :1s    -2.7604  -3.8617  13.4034   3.2453  12.0842   9.0670   2.3346
  22 C1  :2py   -0.0855  -0.0334  -0.0402  -0.0059  -0.0368   0.0479  -0.0587
  23 C1  :2pz   -0.0224  -0.0507   0.0682   0.0345   0.0609  -0.0695  -0.0546
  24 C1  :2py   -0.0471  -0.0386  -0.0129   0.0601  -0.1423   0.3222  -0.3613
  25 C1  :2pz    0.0305   0.0434   0.0444   0.0939   0.1064  -0.4286  -0.2830
  26 C1  :2py   -1.8545  -0.0795  -2.0745   1.2519  -0.4962  -0.5821   2.2891
  27 C1  :2pz    1.2093  -2.9963   1.8057   0.0922   0.6052   0.6440   1.3054
  28 C1  :2py   -7.0111  -7.7938   1.5978   0.5184   1.3135  -0.1913  -2.2899
  29 C1  :2pz   -5.4224  -1.0956  -3.7535  -0.1870  -0.2689  -2.0164  -1.5183
  30 C1  :3d1-  -0.0009   0.0135  -0.0384  -0.0198  -0.0154  -0.0353   0.0594
  31 C1  :3d0    0.0001  -0.0156   0.0059   0.0062   0.0257   0.0231   0.0749
  32 C1  :3d2+   0.0101  -0.0207  -0.0026   0.0142   0.0002  -0.0335   0.0293
[...]
             4 ^1A'      -166.8013716210                                        
             5 ^1A'      -166.7881603521                                        
             6 ^1A'      -166.7835897628                                        
             7 ^1A'      -166.7784125022                                        
             8 ^1A'      -166.7742490055                                        
             9 ^1A'      -166.7689031178                                        
            10 ^1A'      -166.7681188676                                        
            11 ^1A'      -166.7655810749                                        
            12 ^1A'      -166.7606111436                                        
            13 ^1A'      -166.7579856827                                        
            14 ^1A'      -166.7552312689                                        
            15 ^1A'      -166.7529994227                                        
            16 ^1A'      -166.7503689907                                        
            17 ^1A'      -166.7462384493                                        
            18 ^1A'      -166.7452540779                                        
            19 ^1A'      -166.7399707730                                        
            20 ^1A'      -166.7378035720                                        
            21 ^1A'      -166.7359366537                                        
            22 ^1A'      -166.7332653059                                        
             1 ^1A"      -166.9411138517                                        
             2 ^1A"      -166.8628345029                                        
             3 ^1A"      -166.8144797807                                        
             4 ^1A"      -166.7775555307                                        
             5 ^1A"      -166.7747365987                                        
             6 ^1A"      -166.7688551696                                        
             7 ^1A"      -166.7539726977                                        
             8 ^1A"      -166.7524519531                                        
             9 ^1A"      -166.7499630124                                        
            10 ^1A"      -166.7310190963                                        
            11 ^1A"      -166.7291927042                                        
            12 ^1A"      -166.7189622273                                        
            13 ^1A"      -166.7098972970                                        
            14 ^1A"      -166.6846599229                                        
            15 ^1A"      -166.6827852169                                        
                                                                                
                                                                                
 +=============================================================================+
 |  sym. | Exci.  |        CCSD       Length   Gauge Oscillator Strength       |
 |(spin, |        +------------------------------------------------------------+
 | spat) |        | Dipole Strength(a.u.) | Oscillator strength  | Direction   |
 +=============================================================================+
 | ^1A'  |    1   |        0.0007647      |      0.0053983       |  (Y,Z)      |
 | ^1A'  |    2   |        0.0015451      |      0.0109308       |  (Y,Z)      |
 | ^1A'  |    3   |        0.0004348      |      0.0030822       |  (Y,Z)      |
 | ^1A'  |    4   |        0.0005988      |      0.0042504       |  (Y,Z)      |
 | ^1A'  |    5   |        0.0002020      |      0.0014353       |  (Y,Z)      |
 | ^1A'  |    6   |        0.0001838      |      0.0013068       |  (Y,Z)      |
 | ^1A'  |    7   |        0.0000341      |      0.0002424       |  (Y,Z)      |
 | ^1A'  |    8   |        0.0001454      |      0.0010347       |  (Y,Z)      |
 | ^1A'  |    9   |        0.0002003      |      0.0014263       |  (Y,Z)      |
 | ^1A'  |   10   |        0.0026658      |      0.0189804       |  (Y,Z)      |
 | ^1A'  |   11   |        0.0001443      |      0.0010277       |  (Y,Z)      |
 | ^1A'  |   12   |        0.0001194      |      0.0008509       |  (Y,Z)      |
 | ^1A'  |   13   |        0.0000713      |      0.0005084       |  (Y,Z)      |
 | ^1A'  |   14   |        0.0000152      |      0.0001086       |  (Y,Z)      |
 | ^1A'  |   15   |        0.0000756      |      0.0005389       |  (Y,Z)      |
 | ^1A'  |   16   |        0.0000675      |      0.0004816       |  (Y,Z)      |
 | ^1A'  |   17   |        0.0001065      |      0.0007597       |  (Y,Z)      |
 | ^1A'  |   18   |        0.0000873      |      0.0006226       |  (Y,Z)      |
 | ^1A'  |   19   |        0.0001249      |      0.0008915       |  (Y,Z)      |
 | ^1A'  |   20   |        0.0026662      |      0.0190369       |  (Y,Z)      |
 | ^1A'  |   21   |        0.0001404      |      0.0010026       |  (Y,Z)      |
 | ^1A'  |   22   |        0.0003380      |      0.0024144       |  (Y,Z)      |
 +-----------------------------------------------------------------------------+
 | ^1A"  |    1   |        0.0065509      |      0.0458861       |    X        |
 | ^1A"  |    2   |        0.0083392      |      0.0588470       |    X        |
 | ^1A"  |    3   |        0.0005765      |      0.0040869       |    X        |
 | ^1A"  |    4   |        0.0001139      |      0.0008105       |    X        |
 | ^1A"  |    5   |        0.0000261      |      0.0001857       |    X        |
 | ^1A"  |    6   |        0.0001812      |      0.0012904       |    X        |
 | ^1A"  |    7   |        0.0000804      |      0.0005729       |    X        |
 | ^1A"  |    8   |        0.0000171      |      0.0001218       |    X        |
 | ^1A"  |    9   |        0.0000932      |      0.0006646       |    X        |
 | ^1A"  |   10   |        0.0000930      |      0.0006641       |    X        |
 | ^1A"  |   11   |        0.0001621      |      0.0011585       |    X        |
 | ^1A"  |   12   |        0.0001686      |      0.0012056       |    X        |
 | ^1A"  |   13   |        0.0004682      |      0.0033514       |    X        |
 | ^1A"  |   14   |        0.0001375      |      0.0009863       |    X        |
 | ^1A"  |   15   |        0.0000088      |      0.0000631       |    X        |
 +=============================================================================+

  1 a.u. =        27.21138 eV.  
  1 a.u. =    219474.62934 cm-1.
  

 *******************************************************************************
 *******************************************************************************
 *                                                                             *
 *                                                                             *
 *                      END OF COUPLED CLUSTER CALCULATION                     *
 *                                                                             *
 *                                                                             *
 *******************************************************************************
 *******************************************************************************


 CPU and wall time for CC :    1562.208    1661.979

 
     Date and time (Linux)  : Sun Aug 12 16:05:34 2018
     Host name              : n-62-29-10                              


                      .-------------------------------------.
                      | End of Coupled Cluster Section (CC) |
                      `-------------------------------------'

  Total CPU  time used in DALTON: 26 minutes  6 seconds
  Total wall time used in DALTON: 27 minutes 47 seconds

 
     Date and time (Linux)  : Sun Aug 12 16:05:34 2018
     Host name              : n-62-29-10                              
  

 +---------------------------------------------------------+ 
 | List of selected calculated molecular properties (a.u.) | 
 +---------------------------------------------------------+ 

  Properties are read from unit number                      4

 CCSD       properties :
 #  1 1 ENERGY   Ground state Energy =    -177.4478935747
 #  2 1 Sy: 1 Sp: 1 Exc:  1 E_tot:   -166.8585045143 w:     10.5893890603 E_grs:   -177.4478935747
 #  3 1 Exctot   Excited state Energy =    -166.8585045143
 #  4 1 Sy: 1 Sp: 1 Exc:  2 E_tot:   -166.8358403984 w:     10.6120531763 E_grs:   -177.4478935747
 #  5 1 Exctot   Excited state Energy =    -166.8358403984
 #  6 1 Sy: 1 Sp: 1 Exc:  3 E_tot:   -166.8143964585 w:     10.6334971161 E_grs:   -177.4478935747
 #  7 1 Exctot   Excited state Energy =    -166.8143964585
 #  8 1 Sy: 1 Sp: 1 Exc:  4 E_tot:   -166.8013716210 w:     10.6465219537 E_grs:   -177.4478935747
 #  9 1 Exctot   Excited state Energy =    -166.8013716210
 # 10 1 Sy: 1 Sp: 1 Exc:  5 E_tot:   -166.7881603521 w:     10.6597332225 E_grs:   -177.4478935747
 # 11 1 Exctot   Excited state Energy =    -166.7881603521
 # 12 1 Sy: 1 Sp: 1 Exc:  6 E_tot:   -166.7835897628 w:     10.6643038119 E_grs:   -177.4478935747
 # 13 1 Exctot   Excited state Energy =    -166.7835897628
 # 14 1 Sy: 1 Sp: 1 Exc:  7 E_tot:   -166.7784125022 w:     10.6694810724 E_grs:   -177.4478935747
 # 15 1 Exctot   Excited state Energy =    -166.7784125022
 # 16 1 Sy: 1 Sp: 1 Exc:  8 E_tot:   -166.7742490055 w:     10.6736445692 E_grs:   -177.4478935747
 # 17 1 Exctot   Excited state Energy =    -166.7742490055
 # 18 1 Sy: 1 Sp: 1 Exc:  9 E_tot:   -166.7689031178 w:     10.6789904569 E_grs:   -177.4478935747
 # 19 1 Exctot   Excited state Energy =    -166.7689031178
 # 20 1 Sy: 1 Sp: 1 Exc: 10 E_tot:   -166.7681188676 w:     10.6797747070 E_grs:   -177.4478935747
 # 21 1 Exctot   Excited state Energy =    -166.7681188676
 # 22 1 Sy: 1 Sp: 1 Exc: 11 E_tot:   -166.7655810749 w:     10.6823124998 E_grs:   -177.4478935747
 # 23 1 Exctot   Excited state Energy =    -166.7655810749
 # 24 1 Sy: 1 Sp: 1 Exc: 12 E_tot:   -166.7606111436 w:     10.6872824311 E_grs:   -177.4478935747
 # 25 1 Exctot   Excited state Energy =    -166.7606111436
 # 26 1 Sy: 1 Sp: 1 Exc: 13 E_tot:   -166.7579856827 w:     10.6899078919 E_grs:   -177.4478935747
 # 27 1 Exctot   Excited state Energy =    -166.7579856827
 # 28 1 Sy: 1 Sp: 1 Exc: 14 E_tot:   -166.7552312689 w:     10.6926623058 E_grs:   -177.4478935747
 # 29 1 Exctot   Excited state Energy =    -166.7552312689
 # 30 1 Sy: 1 Sp: 1 Exc: 15 E_tot:   -166.7529994227 w:     10.6948941520 E_grs:   -177.4478935747
 # 31 1 Exctot   Excited state Energy =    -166.7529994227
 # 32 1 Sy: 1 Sp: 1 Exc: 16 E_tot:   -166.7503689907 w:     10.6975245840 E_grs:   -177.4478935747
 # 33 1 Exctot   Excited state Energy =    -166.7503689907
 # 34 1 Sy: 1 Sp: 1 Exc: 17 E_tot:   -166.7462384493 w:     10.7016551254 E_grs:   -177.4478935747
 # 35 1 Exctot   Excited state Energy =    -166.7462384493
 # 36 1 Sy: 1 Sp: 1 Exc: 18 E_tot:   -166.7452540779 w:     10.7026394967 E_grs:   -177.4478935747
 # 37 1 Exctot   Excited state Energy =    -166.7452540779
 # 38 1 Sy: 1 Sp: 1 Exc: 19 E_tot:   -166.7399707730 w:     10.7079228016 E_grs:   -177.4478935747
 # 39 1 Exctot   Excited state Energy =    -166.7399707730
 # 40 1 Sy: 1 Sp: 1 Exc: 20 E_tot:   -166.7378035720 w:     10.7100900027 E_grs:   -177.4478935747
 # 41 1 Exctot   Excited state Energy =    -166.7378035720
 # 42 1 Sy: 1 Sp: 1 Exc: 21 E_tot:   -166.7359366537 w:     10.7119569209 E_grs:   -177.4478935747
 # 43 1 Exctot   Excited state Energy =    -166.7359366537
 # 44 1 Sy: 1 Sp: 1 Exc: 22 E_tot:   -166.7332653059 w:     10.7146282688 E_grs:   -177.4478935747
 # 45 1 Exctot   Excited state Energy =    -166.7332653059
 # 46 1 Sy: 2 Sp: 1 Exc:  1 E_tot:   -166.9411138517 w:     10.5067797230 E_grs:   -177.4478935747
 # 47 1 Exctot   Excited state Energy =    -166.9411138517
 # 48 1 Sy: 2 Sp: 1 Exc:  2 E_tot:   -166.8628345029 w:     10.5850590717 E_grs:   -177.4478935747
 # 49 1 Exctot   Excited state Energy =    -166.8628345029
 # 50 1 Sy: 2 Sp: 1 Exc:  3 E_tot:   -166.8144797807 w:     10.6334137940 E_grs:   -177.4478935747
 # 51 1 Exctot   Excited state Energy =    -166.8144797807
 # 52 1 Sy: 2 Sp: 1 Exc:  4 E_tot:   -166.7775555307 w:     10.6703380440 E_grs:   -177.4478935747
 # 53 1 Exctot   Excited state Energy =    -166.7775555307
 # 54 1 Sy: 2 Sp: 1 Exc:  5 E_tot:   -166.7747365987 w:     10.6731569760 E_grs:   -177.4478935747
 # 55 1 Exctot   Excited state Energy =    -166.7747365987
 # 56 1 Sy: 2 Sp: 1 Exc:  6 E_tot:   -166.7688551696 w:     10.6790384051 E_grs:   -177.4478935747
 # 57 1 Exctot   Excited state Energy =    -166.7688551696
 # 58 1 Sy: 2 Sp: 1 Exc:  7 E_tot:   -166.7539726977 w:     10.6939208770 E_grs:   -177.4478935747
 # 59 1 Exctot   Excited state Energy =    -166.7539726977
 # 60 1 Sy: 2 Sp: 1 Exc:  8 E_tot:   -166.7524519531 w:     10.6954416216 E_grs:   -177.4478935747
 # 61 1 Exctot   Excited state Energy =    -166.7524519531
 # 62 1 Sy: 2 Sp: 1 Exc:  9 E_tot:   -166.7499630124 w:     10.6979305622 E_grs:   -177.4478935747
 # 63 1 Exctot   Excited state Energy =    -166.7499630124
 # 64 1 Sy: 2 Sp: 1 Exc: 10 E_tot:   -166.7310190963 w:     10.7168744784 E_grs:   -177.4478935747
 # 65 1 Exctot   Excited state Energy =    -166.7310190963
 # 66 1 Sy: 2 Sp: 1 Exc: 11 E_tot:   -166.7291927042 w:     10.7187008705 E_grs:   -177.4478935747
 # 67 1 Exctot   Excited state Energy =    -166.7291927042
 # 68 1 Sy: 2 Sp: 1 Exc: 12 E_tot:   -166.7189622273 w:     10.7289313474 E_grs:   -177.4478935747
 # 69 1 Exctot   Excited state Energy =    -166.7189622273
 # 70 1 Sy: 2 Sp: 1 Exc: 13 E_tot:   -166.7098972970 w:     10.7379962776 E_grs:   -177.4478935747
 # 71 1 Exctot   Excited state Energy =    -166.7098972970
 # 72 1 Sy: 2 Sp: 1 Exc: 14 E_tot:   -166.6846599229 w:     10.7632336518 E_grs:   -177.4478935747
 # 73 1 Exctot   Excited state Energy =    -166.6846599229
 # 74 1 Sy: 2 Sp: 1 Exc: 15 E_tot:   -166.6827852169 w:     10.7651083578 E_grs:   -177.4478935747
 # 75 1 Exctot   Excited state Energy =    -166.6827852169
 # 76 2 |<O|XDIPLEN |i(10.589389)>| =     0.00000000
 # 78 2 |<O|XDIPLEN |i(10.612053)>| =     0.00000000
 # 80 2 |<O|XDIPLEN |i(10.633497)>| =     0.00000000
 # 82 2 |<O|XDIPLEN |i(10.646522)>| =     0.00000000
 # 84 2 |<O|XDIPLEN |i(10.659733)>| =     0.00000000
 # 86 2 |<O|XDIPLEN |i(10.664304)>| =     0.00000000
 # 88 2 |<O|XDIPLEN |i(10.669481)>| =     0.00000000
 # 90 2 |<O|XDIPLEN |i(10.673645)>| =     0.00000000
 # 92 2 |<O|XDIPLEN |i(10.678990)>| =     0.00000000
 # 94 2 |<O|XDIPLEN |i(10.679775)>| =     0.00000000
 # 96 2 |<O|XDIPLEN |i(10.682312)>| =     0.00000000
 # 98 2 |<O|XDIPLEN |i(10.687282)>| =     0.00000000
 #100 2 |<O|XDIPLEN |i(10.689908)>| =     0.00000000
 #102 2 |<O|XDIPLEN |i(10.692662)>| =     0.00000000
 #104 2 |<O|XDIPLEN |i(10.694894)>| =     0.00000000
 #106 2 |<O|XDIPLEN |i(10.697525)>| =     0.00000000
 #108 2 |<O|XDIPLEN |i(10.701655)>| =     0.00000000
 #110 2 |<O|XDIPLEN |i(10.702639)>| =     0.00000000
 #112 2 |<O|XDIPLEN |i(10.707923)>| =     0.00000000
 #114 2 |<O|XDIPLEN |i(10.710090)>| =     0.00000000
 #116 2 |<O|XDIPLEN |i(10.711957)>| =     0.00000000
 #118 2 |<O|XDIPLEN |i(10.714628)>| =     0.00000000
 #120 1 |<O|XDIPLEN |i(10.506780)>| =     0.08093779
 #122 1 |<O|XDIPLEN |i(10.585059)>| =     0.09131900
 #124 1 |<O|XDIPLEN |i(10.633414)>| =     0.02401084
 #126 1 |<O|XDIPLEN |i(10.670338)>| =     0.01067433
 #128 1 |<O|XDIPLEN |i(10.673157)>| =     0.00510805
 #130 1 |<O|XDIPLEN |i(10.679038)>| =     0.01346280
 #132 1 |<O|XDIPLEN |i(10.693921)>| =     0.00896459
 #134 1 |<O|XDIPLEN |i(10.695442)>| =     0.00413264
 #136 1 |<O|XDIPLEN |i(10.697931)>| =     0.00965312
 #138 1 |<O|XDIPLEN |i(10.716874)>| =     0.00964145
 #140 1 |<O|XDIPLEN |i(10.718701)>| =     0.01273261
 #142 1 |<O|XDIPLEN |i(10.728931)>| =     0.01298304
 #144 1 |<O|XDIPLEN |i(10.737996)>| =     0.02163686
 #146 1 |<O|XDIPLEN |i(10.763234)>| =     0.01172428
 #148 1 |<O|XDIPLEN |i(10.765108)>| =     0.00296629
 #150 1 |<O|YDIPLEN |i(10.589389)>| =    -0.00012147
 #152 1 |<O|YDIPLEN |i(10.612053)>| =     0.03803028
 #154 1 |<O|YDIPLEN |i(10.633497)>| =     0.01275236
 #156 1 |<O|YDIPLEN |i(10.646522)>| =     0.02442706
 #158 1 |<O|YDIPLEN |i(10.659733)>| =     0.00507534
 #160 1 |<O|YDIPLEN |i(10.664304)>| =     0.00240336
 #162 1 |<O|YDIPLEN |i(10.669481)>| =     0.00559131
 #164 1 |<O|YDIPLEN |i(10.673645)>| =     0.01172085
 #166 1 |<O|YDIPLEN |i(10.678990)>| =     0.00929181
 #168 1 |<O|YDIPLEN |i(10.679775)>| =     0.04731613
 #170 1 |<O|YDIPLEN |i(10.682312)>| =     0.01197642
 #172 1 |<O|YDIPLEN |i(10.687282)>| =     0.00175083
 #174 1 |<O|YDIPLEN |i(10.689908)>| =     0.00368849
 #176 1 |<O|YDIPLEN |i(10.692662)>| =     0.00378749
 #178 1 |<O|YDIPLEN |i(10.694894)>| =     0.00842915
 #180 1 |<O|YDIPLEN |i(10.697525)>| =     0.00439593
 #182 1 |<O|YDIPLEN |i(10.701655)>| =     0.00969046
 #184 1 |<O|YDIPLEN |i(10.702639)>| =     0.00369260
 #186 1 |<O|YDIPLEN |i(10.707923)>| =     0.00186312
 #188 1 |<O|YDIPLEN |i(10.710090)>| =     0.01267213
 #190 1 |<O|YDIPLEN |i(10.711957)>| =     0.01179514
 #192 1 |<O|YDIPLEN |i(10.714628)>| =     0.01708781
 #194 2 |<O|YDIPLEN |i(10.506780)>| =     0.00000000
 #196 2 |<O|YDIPLEN |i(10.585059)>| =     0.00000000
 #198 2 |<O|YDIPLEN |i(10.633414)>| =     0.00000000
 #200 2 |<O|YDIPLEN |i(10.670338)>| =     0.00000000
 #202 2 |<O|YDIPLEN |i(10.673157)>| =     0.00000000
 #204 2 |<O|YDIPLEN |i(10.679038)>| =     0.00000000
 #206 2 |<O|YDIPLEN |i(10.693921)>| =     0.00000000
 #208 2 |<O|YDIPLEN |i(10.695442)>| =     0.00000000
 #210 2 |<O|YDIPLEN |i(10.697931)>| =     0.00000000
 #212 2 |<O|YDIPLEN |i(10.716874)>| =     0.00000000
 #214 2 |<O|YDIPLEN |i(10.718701)>| =     0.00000000
 #216 2 |<O|YDIPLEN |i(10.728931)>| =     0.00000000
 #218 2 |<O|YDIPLEN |i(10.737996)>| =     0.00000000
 #220 2 |<O|YDIPLEN |i(10.763234)>| =     0.00000000
 #222 2 |<O|YDIPLEN |i(10.765108)>| =     0.00000000
 #224 1 |<O|ZDIPLEN |i(10.589389)>| =     0.02765310
 #226 1 |<O|ZDIPLEN |i(10.612053)>| =     0.00993772
 #228 1 |<O|ZDIPLEN |i(10.633497)>| =     0.01649726
 #230 1 |<O|ZDIPLEN |i(10.646522)>| =     0.00146916
 #232 1 |<O|ZDIPLEN |i(10.659733)>| =     0.01327456
 #234 1 |<O|ZDIPLEN |i(10.664304)>| =     0.01334275
 #236 1 |<O|ZDIPLEN |i(10.669481)>| =     0.00167715
 #238 1 |<O|ZDIPLEN |i(10.673645)>| =     0.00283311
 #240 1 |<O|ZDIPLEN |i(10.678990)>| =     0.01067747
 #242 1 |<O|ZDIPLEN |i(10.679775)>| =     0.02066466
 #244 1 |<O|ZDIPLEN |i(10.682312)>| =     0.00093300
 #246 1 |<O|ZDIPLEN |i(10.687282)>| =     0.01078678
 #248 1 |<O|ZDIPLEN |i(10.689908)>| =     0.00759825
 #250 1 |<O|ZDIPLEN |i(10.692662)>| =     0.00094261
 #252 1 |<O|ZDIPLEN |i(10.694894)>| =     0.00212789
 #254 1 |<O|ZDIPLEN |i(10.697525)>| =     0.00694325
 #256 1 |<O|ZDIPLEN |i(10.701655)>| =     0.00354654
 #258 1 |<O|ZDIPLEN |i(10.702639)>| =     0.00858078
 #260 1 |<O|ZDIPLEN |i(10.707923)>| =     0.01101863
 #262 1 |<O|ZDIPLEN |i(10.710090)>| =     0.05005618
 #264 1 |<O|ZDIPLEN |i(10.711957)>| =     0.00112821
 #266 1 |<O|ZDIPLEN |i(10.714628)>| =     0.00678324
 #268 2 |<O|ZDIPLEN |i(10.506780)>| =     0.00000000
 #270 2 |<O|ZDIPLEN |i(10.585059)>| =     0.00000000
 #272 2 |<O|ZDIPLEN |i(10.633414)>| =     0.00000000
 #274 2 |<O|ZDIPLEN |i(10.670338)>| =     0.00000000
 #276 2 |<O|ZDIPLEN |i(10.673157)>| =     0.00000000
 #278 2 |<O|ZDIPLEN |i(10.679038)>| =     0.00000000
 #280 2 |<O|ZDIPLEN |i(10.693921)>| =     0.00000000
 #282 2 |<O|ZDIPLEN |i(10.695442)>| =     0.00000000
 #284 2 |<O|ZDIPLEN |i(10.697931)>| =     0.00000000
 #286 2 |<O|ZDIPLEN |i(10.716874)>| =     0.00000000
 #288 2 |<O|ZDIPLEN |i(10.718701)>| =     0.00000000
 #290 2 |<O|ZDIPLEN |i(10.728931)>| =     0.00000000
 #292 2 |<O|ZDIPLEN |i(10.737996)>| =     0.00000000
 #294 2 |<O|ZDIPLEN |i(10.763234)>| =     0.00000000
 #296 2 |<O|ZDIPLEN |i(10.765108)>| =     0.00000000

 THE_END   
