n-62-24-3 10.66.24
Q-Chem Developer Version! Running on 10.66.24.*
                  Welcome to Q-Chem
     A Quantum Leap Into The Future Of Chemistry


 Q-Chem 5.1, Q-Chem, Inc., Pleasanton, CA (2018)

 Yihan Shao,  Zhengting Gan,  E. Epifanovsky,  A. T. B. Gilbert,  M. Wormit,  
 J. Kussmann,  A. W. Lange,  A. Behn,  Jia Deng,  Xintian Feng,  D. Ghosh,  
 M. Goldey,  P. R. Horn,  L. D. Jacobson,  I. Kaliman,  T. Kus,  A. Landau,  
 Jie Liu,  E. I. Proynov,  R. M. Richard,  R. P. Steele,  E. J. Sundstrom,  
 H. L. Woodcock III,  P. M. Zimmerman,  D. Zuev,  B. Albrecht,  E. Alguire,  
 S. A. Baeppler,  D. Barton,  Z. Benda,  Y. A. Bernard,  E. J. Berquist,  
 K. B. Bravaya,  H. Burton,  D. Casanova,  Chun-Min Chang,  Yunqing Chen,  
 A. Chien,  K. D. Closser,  M. P. Coons,  S. Coriani,  S. Dasgupta,  
 A. L. Dempwolff,  M. Diedenhofen,  Hainam Do,  R. G. Edgar,  Po-Tung Fang,  
 S. Faraji,  S. Fatehi,  Qingguo Feng,  K. D. Fenk,  J. Fosso-Tande,  
 Qinghui Ge,  A. Ghysels,  G. Gidofalvi,  J. Gomes,  J. Gonthier,  A. Gunina,  
 M. W. D. Hanson-Heine,  P. H. P. Harbach,  A. W. Hauser,  J. E. Herr,  
 E. G. Hohenstein,  Z. C. Holden,  Kerwin Hui,  T.-C. Jagau,  Hyunjun Ji,  
 B. Kaduk,  K. Khistyaev,  Jaehoon Kim,  P. Klunzinger,  K. Koh,  
 D. Kosenkov,  L. Koulias,  T. Kowalczyk,  C. M. Krauter,  A. Kunitsa,  
 Ka Un Lao,  A. Laurent,  K. V. Lawler,  Joonho Lee,  D. Lefrancois,  
 S. Lehtola,  D. S. Levine,  Yi-Pei Li,  You-Sheng Lin,  Fenglai Liu,  
 E. Livshits,  A. Luenser,  P. Manohar,  E. Mansoor,  S. F. Manzer,  
 Shan-Ping Mao,  Yuezhi Mao,  N. Mardirossian,  A. V. Marenich,  
 T. Markovich,  L. A. Martinez-Martinez,  S. A. Maurer,  N. J. Mayhall,  
 S. C. McKenzie,  J.-M. Mewes,  A. F. Morrison,  J. W. Mullinax,  K. Nanda,  
 T. S. Nguyen-Beck,  R. Olivares-Amaya,  J. A. Parkhill,  T. M. Perrine,  
 F. Plasser,  P. Pokhilko,  S. Prager,  A. Prociuk,  E. Ramos,  D. R. Rehn,  
 F. Rob,  M. Schneider,  N. Sergueev,  S. M. Sharada,  S. Sharma,  
 D. W. Small,  T. Stauch,  T. Stein,  Yu-Chuan Su,  A. J. W. Thom,  
 A. Tkatchenko,  T. Tsuchimochi,  N. M. Tubman,  L. Vogt,  M. L. Vidal,  
 O. Vydrov,  M. A. Watson,  J. Wenzel,  M. de Wergifosse,  T. A. Wesolowski,  
 A. White,  J. Witte,  A. Yamada,  Jun Yang,  K. Yao,  S. Yeganeh,  
 S. R. Yost,  Zhi-Qiang You,  A. Zech,  Igor Ying Zhang,  Xing Zhang,  
 Yan Zhao,  Ying Zhu,  B. R. Brooks,  G. K. L. Chan,  C. J. Cramer,  
 M. S. Gordon,  W. J. Hehre,  A. Klamt,  M. W. Schmidt,  C. D. Sherrill,  
 D. G. Truhlar,  A. Aspuru-Guzik,  R. Baer,  A. T. Bell,  N. A. Besley,  
 Jeng-Da Chai,  R. A. DiStasio Jr.,  A. Dreuw,  B. D. Dunietz,  
 T. R. Furlani,  Chao-Ping Hsu,  Yousung Jung,  Jing Kong,  D. S. Lambrecht,  
 WanZhen Liang,  C. Ochsenfeld,  V. A. Rassolov,  L. V. Slipchenko,  
 J. E. Subotnik,  T. Van Voorhis,  J. M. Herbert,  A. I. Krylov,  
 P. M. W. Gill,  M. Head-Gordon

 Contributors to earlier versions of Q-Chem not listed above: 
 R. D. Adamson,  B. Austin,  J. Baker,  G. J. O. Beran,  K. Brandhorst,  
 S. T. Brown,  E. F. C. Byrd,  A. K. Chakraborty,  C.-L. Cheng,  
 Siu Hung Chien,  D. M. Chipman,  D. L. Crittenden,  H. Dachsel,  
 R. J. Doerksen,  A. D. Dutoi,  L. Fusti-Molnar,  W. A. Goddard III,  
 A. Golubeva-Zadorozhnaya,  S. R. Gwaltney,  G. Hawkins,  A. Heyden,  
 S. Hirata,  G. Kedziora,  F. J. Keil,  C. Kelley,  Jihan Kim,  R. A. King,  
 R. Z. Khaliullin,  P. P. Korambath,  W. Kurlancheek,  A. M. Lee,  M. S. Lee,  
 S. V. Levchenko,  Ching Yeh Lin,  D. Liotard,  R. C. Lochan,  I. Lotan,  
 P. E. Maslen,  N. Nair,  D. P. O'Neill,  D. Neuhauser,  E. Neuscamman,  
 C. M. Oana,  R. Olson,  B. Peters,  R. Peverati,  P. A. Pieniazek,  
 Y. M. Rhee,  J. Ritchie,  M. A. Rohrdanz,  E. Rosta,  N. J. Russ,  
 H. F. Schaefer III,  N. E. Schultz,  N. Shenvi,  A. C. Simmonett,  A. Sodt,  
 D. Stuck,  K. S. Thanthiriwatte,  V. Vanovschi,  Tao Wang,  A. Warshel,  
 C. F. Williams,  Q. Wu,  X. Xu,  W. Zhang

 Please cite Q-Chem as follows:
 Y. Shao et al., Mol. Phys. 113, 184-215 (2015)
 DOI: 10.1080/00268976.2014.952696

 Q-Chem 5.1.0 for Intel X86 EM64T Linux

 Parts of Q-Chem use Armadillo 8.300.2 (Tropical Shenanigans).
 http://arma.sourceforge.net/

 Q-Chem begins on Sat Jun 16 15:35:19 2018  

Host: 
0

     Scratch files written to /work1/malop/qc_6464211.hnode2//

Checking the input file for inconsistencies... 	...done.

--------------------------------------------------------------
User input:
--------------------------------------------------------------
$comment 
NEXAFS VINYLFLUORIDE
$end

$molecule
0 1
C       1.1793501531     0.1997297036     0.0000000000
F      -1.1529022759     0.2247768549     0.0000000000
C       0.0163188924    -0.4355678917     0.0000000000
H      -0.1189529826    -1.5078994676     0.0000000000
H       1.2308255218     1.2785613540     0.0000000000
H       2.0902345342    -0.3786192262     0.0000000000
$end

$rem
!    input_bohr = true
    jobtype = sp
    method = eom-ccsd
    cvs_ee_singlets    [5,5]
    basis = 6-311++G**
    print_general_basis = true
    n_frozen_core = fc 
    cc_trans_prop = true
    eom_preconv_singles = true
    eom_davidson_convergence = 3
    eom_davidson_threshold = 00103
state_analysis = true
molden_format  = true
nto_pairs      = 4
pop_mulliken   = true
$end

--------------------------------------------------------------
 ----------------------------------------------------------------
             Standard Nuclear Orientation (Angstroms)
    I     Atom           X                Y                Z
 ----------------------------------------------------------------
    1      C       1.1793501171     0.1997294858    -0.0000000000
    2      F      -1.1529023119     0.2247766372    -0.0000000000
    3      C       0.0163188564    -0.4355681094     0.0000000000
    4      H      -0.1189530186    -1.5078996853     0.0000000000
    5      H       1.2308254859     1.2785611362    -0.0000000000
    6      H       2.0902344982    -0.3786194440     0.0000000000
 ----------------------------------------------------------------
 Molecular Point Group                 Cs    NOp =  2
 Largest Abelian Subgroup              Cs    NOp =  2
 Nuclear Repulsion Energy =    67.5482146693 hartrees
 There are       12 alpha and       12 beta electrons
 Requested basis set is 6-311++G(d,p)
Basis set in general basis input format:
-----------------------------------------------------------------------
$basis
C    0
S    6    1.000000
   4.56324000E+03    1.96665000E-03 
   6.82024000E+02    1.52306000E-02 
   1.54973000E+02    7.61269000E-02 
   4.44553000E+01    2.60801000E-01 
   1.30290000E+01    6.16462000E-01 
   1.82773000E+00    2.21006000E-01 
SP   3    1.000000
   2.09642000E+01    1.14660000E-01   4.02487000E-02 
   4.80331000E+00    9.19999000E-01   2.37594000E-01 
   1.45933000E+00   -3.03068000E-03   8.15854000E-01 
SP   1    1.000000
   4.83456000E-01    1.00000000E+00   1.00000000E+00 
SP   1    1.000000
   1.45585000E-01    1.00000000E+00   1.00000000E+00 
SP   1    1.000000
   4.38000000E-02    1.00000000E+00   1.00000000E+00 
D    1    1.000000
   6.26000000E-01    1.00000000E+00 
****
F    0
S    6    1.000000
   1.14271000E+04    1.80093000E-03 
   1.72235000E+03    1.37419000E-02 
   3.95746000E+02    6.81334000E-02 
   1.15139000E+02    2.33325000E-01 
   3.36026000E+01    5.89086000E-01 
   4.91901000E+00    2.99505000E-01 
SP   3    1.000000
   5.54441000E+01    1.14536000E-01   3.54609000E-02 
   1.26323000E+01    9.20512000E-01   2.37451000E-01 
   3.71756000E+00   -3.37804000E-03   8.20458000E-01 
SP   1    1.000000
   1.16545000E+00    1.00000000E+00   1.00000000E+00 
SP   1    1.000000
   3.21892000E-01    1.00000000E+00   1.00000000E+00 
SP   1    1.000000
   1.07600000E-01    1.00000000E+00   1.00000000E+00 
D    1    1.000000
   1.75000000E+00    1.00000000E+00 
****
C    0
S    6    1.000000
   4.56324000E+03    1.96665000E-03 
   6.82024000E+02    1.52306000E-02 
   1.54973000E+02    7.61269000E-02 
   4.44553000E+01    2.60801000E-01 
   1.30290000E+01    6.16462000E-01 
   1.82773000E+00    2.21006000E-01 
SP   3    1.000000
   2.09642000E+01    1.14660000E-01   4.02487000E-02 
   4.80331000E+00    9.19999000E-01   2.37594000E-01 
   1.45933000E+00   -3.03068000E-03   8.15854000E-01 
SP   1    1.000000
   4.83456000E-01    1.00000000E+00   1.00000000E+00 
SP   1    1.000000
   1.45585000E-01    1.00000000E+00   1.00000000E+00 
SP   1    1.000000
   4.38000000E-02    1.00000000E+00   1.00000000E+00 
D    1    1.000000
   6.26000000E-01    1.00000000E+00 
****
H    0
S    3    1.000000
   3.38650000E+01    2.54938000E-02 
   5.09479000E+00    1.90373000E-01 
   1.15879000E+00    8.52161000E-01 
S    1    1.000000
   3.25840000E-01    1.00000000E+00 
S    1    1.000000
   1.02741000E-01    1.00000000E+00 
S    1    1.000000
   3.60000000E-02    1.00000000E+00 
P    1    1.000000
   7.50000000E-01    1.00000000E+00 
****
H    0
S    3    1.000000
   3.38650000E+01    2.54938000E-02 
   5.09479000E+00    1.90373000E-01 
   1.15879000E+00    8.52161000E-01 
S    1    1.000000
   3.25840000E-01    1.00000000E+00 
S    1    1.000000
   1.02741000E-01    1.00000000E+00 
S    1    1.000000
   3.60000000E-02    1.00000000E+00 
P    1    1.000000
   7.50000000E-01    1.00000000E+00 
****
H    0
S    3    1.000000
   3.38650000E+01    2.54938000E-02 
   5.09479000E+00    1.90373000E-01 
   1.15879000E+00    8.52161000E-01 
S    1    1.000000
   3.25840000E-01    1.00000000E+00 
S    1    1.000000
   1.02741000E-01    1.00000000E+00 
S    1    1.000000
   3.60000000E-02    1.00000000E+00 
P    1    1.000000
   7.50000000E-01    1.00000000E+00 
****
$end
-----------------------------------------------------------------------
 There are 33 shells and 87 basis functions
 Total memory of 2000MB is distributed as follows: 
   QALLOC including MEM_STATIC uses 192MB
   MEM_STATIC is set to 192MB
   CCMAN JOB total memory use is  1808MB
 Warning: actual memory use might exceed 2000MB

 Total QAlloc Memory Limit    192 MB
 Mega-Array Size       188 MB
 MEM_STATIC part       192 MB

                       Distance Matrix (Angstroms)
             C (  1)   F (  2)   C (  3)   H (  4)   H (  5)
   F (  2)  2.332387
   C (  3)  1.325234  1.342808
   H (  4)  2.145131  2.017726  1.080830
   H (  5)  1.080059  2.606266  2.100777  3.096170
   H (  6)  1.078980  3.298791  2.074697  2.481085  1.866770
 
 A cutoff of  1.0D-14 yielded    559 shell pairs
 There are      3934 function pairs (      4216 Cartesian)
 Smallest overlap matrix eigenvalue = 1.26E-04

 Scale SEOQF with 1.000000e-01/1.000000e-01/1.000000e-01

 Standard Electronic Orientation quadrupole field applied
 Nucleus-field energy     =     0.0000000014 hartrees
 Guess from superposition of atomic densities
 Warning:  Energy on first SCF cycle will be non-variational
 SAD guess density has 24.000000 electrons

 -----------------------------------------------------------------------
  General SCF calculation program by
  Eric Jon Sundstrom, Paul Horn, Yuezhi Mao, Dmitri Zuev, Alec White,
  David Stuck, Shaama M.S., Shane Yost, Joonho Lee, David Small,
  Daniel Levine, Susi Lehtola, Hugh Burton, Evgeny Epifanovsky
 -----------------------------------------------------------------------
 Hartree-Fock
 A restricted SCF calculation will be
 performed using DIIS
 SCF converges when DIIS error is below 1.0e-08
 ---------------------------------------
  Cycle       Energy         DIIS error
 ---------------------------------------
    1    -177.5071171347      6.50e-02  
    2    -176.8894812054      6.89e-03  
    3    -176.9276658309      3.48e-03  
    4    -176.9358686513      7.40e-04  
    5    -176.9366096217      1.59e-04  
    6    -176.9366534689      6.88e-05  
    7    -176.9366606979      2.33e-05  
    8    -176.9366624006      7.45e-06  
    9    -176.9366625352      1.61e-06  
   10    -176.9366625405      5.78e-07  
   11    -176.9366625413      1.32e-07  
   12    -176.9366625414      2.47e-08  
   13    -176.9366625414      3.54e-09  Convergence criterion met
 ---------------------------------------
 SCF time:   CPU 3.86s  wall 5.00s 
 SCF   energy in the final basis set =     -176.9366625414


 ------------------------------------------------------------------------------

   CCMAN2: suite of methods based on coupled cluster
           and equation of motion theories.

   Components:
   * libvmm-1.3-trunk
     by Evgeny Epifanovsky, Ilya Kaliman.
   * libtensor-2.5-trunk
     by Evgeny Epifanovsky, Michael Wormit, Dmitry Zuev, Sam Manzer, 
        Ilya Kaliman.
   * libcc-2.5-trunk
     by Evgeny Epifanovsky, Arik Landau, Tomasz Kus, Kirill Khistyaev, 
        Dmitry Zuev, Prashant Manohar, Xintian Feng, Anna Krylov, 
        Matthew Goldey, Alec White, Thomas Jagau, Kaushik Nanda, 
        Anastasia Gunina, Alexander Kunitsa, Joonho Lee.

   CCMAN original authors:
   Anna I. Krylov, C. David Sherrill, Steven R. Gwaltney,
   Edward F. C. Byrd (2000)
   Sergey V. Levchenko, Lyudmila V. Slipchenko, Tao Wang,
   Ana-Maria C. Cristian (2003)
   Piotr A. Pieniazek, C. Melania Oana, Evgeny Epifanovsky (2007)
   Prashant Manohar (2009)

 ------------------------------------------------------------------------------


 Calculation will run on 1 core with 1808MB of RAM.

 
 Alpha MOs, Restricted
 -- Occupied --                  
-26.310 -11.332 -11.240  -1.629  -1.055  -0.840  -0.740  -0.691
  1 A'    2 A'    3 A'    4 A'    5 A'    6 A'    7 A'    1 A"                 
 -0.686  -0.591  -0.562  -0.386
  8 A'    9 A'   10 A'    2 A"                                                 
 -- Virtual --                   
  0.046   0.059   0.067   0.109   0.121   0.122   0.139   0.175
 11 A'   12 A'   13 A'    3 A"   14 A'    4 A"   15 A'   16 A'                 
  0.180   0.205   0.214   0.216   0.267   0.287   0.325   0.376
 17 A'   18 A'    5 A"   19 A'   20 A'   21 A'   22 A'    6 A"                 
  0.378   0.455   0.475   0.501   0.547   0.636   0.647   0.700
 23 A'   24 A'   25 A'   26 A'   27 A'   28 A'   29 A'   30 A'                 
  0.702   0.784   0.839   0.902   0.916   0.946   1.010   1.083
  7 A"    8 A"   31 A'   32 A'   33 A'   34 A'   35 A'   36 A'                 
  1.250   1.311   1.457   1.569   1.644   1.660   1.670   1.733
  9 A"   10 A"   11 A"   37 A'   38 A'   39 A'   12 A"   40 A'                 
  1.807   1.842   1.904   1.947   2.030   2.142   2.210   2.310
 41 A'   42 A'   13 A"   43 A'   14 A"   44 A'   45 A'   15 A"                 
  2.342   2.401   2.432   2.554   2.740   2.863   2.916   2.981
 46 A'   16 A"   47 A'   48 A'   49 A'   50 A'   51 A'   52 A'                 
  3.044   3.064   3.250   3.363   3.580   3.873   4.142   4.225
 53 A'   17 A"   18 A"   54 A'   55 A'   56 A'   57 A'   19 A"                 
  4.248   4.424   4.443   4.590   5.310   6.925   7.004   7.324
 58 A'   59 A'   20 A"   60 A'   61 A'   21 A"   62 A'   63 A'                 
 24.828  25.409  68.750
 64 A'   65 A'   66 A'                                                         
 
 Beta MOs, Restricted
 -- Occupied --                  
-26.310 -11.332 -11.240  -1.629  -1.055  -0.840  -0.740  -0.691
  1 A'    2 A'    3 A'    4 A'    5 A'    6 A'    7 A'    1 A"                 
 -0.686  -0.591  -0.562  -0.386
  8 A'    9 A'   10 A'    2 A"                                                 
 -- Virtual --                   
  0.046   0.059   0.067   0.109   0.121   0.122   0.139   0.175
 11 A'   12 A'   13 A'    3 A"   14 A'    4 A"   15 A'   16 A'                 
  0.180   0.205   0.214   0.216   0.267   0.287   0.325   0.376
 17 A'   18 A'    5 A"   19 A'   20 A'   21 A'   22 A'    6 A"                 
  0.378   0.455   0.475   0.501   0.547   0.636   0.647   0.700
 23 A'   24 A'   25 A'   26 A'   27 A'   28 A'   29 A'   30 A'                 
  0.702   0.784   0.839   0.902   0.916   0.946   1.010   1.083
  7 A"    8 A"   31 A'   32 A'   33 A'   34 A'   35 A'   36 A'                 
  1.250   1.311   1.457   1.569   1.644   1.660   1.670   1.733
  9 A"   10 A"   11 A"   37 A'   38 A'   39 A'   12 A"   40 A'                 
  1.807   1.842   1.904   1.947   2.030   2.142   2.210   2.310
 41 A'   42 A'   13 A"   43 A'   14 A"   44 A'   45 A'   15 A"                 
  2.342   2.401   2.432   2.554   2.740   2.863   2.916   2.981
 46 A'   16 A"   47 A'   48 A'   49 A'   50 A'   51 A'   52 A'                 
  3.044   3.064   3.250   3.363   3.580   3.873   4.142   4.225
 53 A'   17 A"   18 A"   54 A'   55 A'   56 A'   57 A'   19 A"                 
  4.248   4.424   4.443   4.590   5.310   6.925   7.004   7.324
 58 A'   59 A'   20 A"   60 A'   61 A'   21 A"   62 A'   63 A'                 
 24.828  25.409  68.750
 64 A'   65 A'   66 A'                                                         

 Occupation and symmetry of molecular orbitals

 Point group: Cs (2 irreducible representations).

                           A'   A"    All 
 ------------------------------------------
 All molecular orbitals:
  - Alpha                  66   21    87  
  - Beta                   66   21    87  
 ------------------------------------------
 Alpha orbitals:
  - Frozen occupied        3    0     3   
  - Active occupied        7    2     9   
  - Active virtual         56   19    75  
  - Frozen virtual         0    0     0   
 ------------------------------------------
 Beta orbitals:
  - Frozen occupied        3    0     3   
  - Active occupied        7    2     9   
  - Active virtual         56   19    75  
  - Frozen virtual         0    0     0   
 ------------------------------------------

 Import integrals:   CPU 0.00 s  wall 0.00 s

 Import integrals:   CPU 2.68 s  wall 3.36 s

 MP2 amplitudes:   CPU 0.16 s  wall 0.16 s

           CCSD T amplitudes will be solved using DIIS.

           Start     Size      MaxIter   EConv     TConv     
           3         7         100       1.00e-06  1.00e-04  
 ------------------------------------------------------------------------------
           Energy (a.u.)   Ediff      Tdiff       Comment
 ------------------------------------------------------------------------------
          -177.42527230                           
     1    -177.43121620   5.94e-03   6.17e-01     
     2    -177.44474611   1.35e-02   7.48e-02     
     3    -177.44550138   7.55e-04   2.95e-02     
     4    -177.44700173   1.50e-03   1.07e-02     Switched to DIIS steps.
     5    -177.44758593   5.84e-04   9.17e-03     
     6    -177.44760205   1.61e-05   1.55e-03     
     7    -177.44759692   5.13e-06   6.66e-04     
     8    -177.44759605   8.66e-07   1.06e-04     
     9    -177.44759618   1.25e-07   4.18e-05     
 ------------------------------------------------------------------------------
          -177.44759618                           CCSD T converged.

 SCF energy                 = -176.93666254
 MP2 energy                 = -177.42527230
 CCSD correlation energy     =   -0.51093364
 CCSD total energy           = -177.44759618

 CCSD  T1^2 = 0.0059  T2^2 = 0.1645  Leading amplitudes:

 Amplitude    Orbitals with energies
  0.0213       2 (A") A                  ->    7 (A") A                   
              -0.3861                          0.7018                     
  0.0213       2 (A") B                  ->    7 (A") B                   
              -0.3861                          0.7018                     
  0.0180       1 (A") A                  ->    3 (A") A                   
              -0.6905                          0.1085                     
  0.0180       1 (A") B                  ->    3 (A") B                   
              -0.6905                          0.1085                     

 Amplitude    Orbitals with energies
 -0.0807       2 (A") A      2 (A") B    ->    5 (A") A      5 (A") B     
              -0.3861       -0.3861            0.2142        0.2142       
  0.0807       2 (A") A      2 (A") B    ->    5 (A") B      5 (A") A     
              -0.3861       -0.3861            0.2142        0.2142       
  0.0807       2 (A") B      2 (A") A    ->    5 (A") A      5 (A") B     
              -0.3861       -0.3861            0.2142        0.2142       
 -0.0807       2 (A") B      2 (A") A    ->    5 (A") B      5 (A") A     
              -0.3861       -0.3861            0.2142        0.2142       

 Computing CCSD intermediates for later calculations
 Finished.

           CCSD Lambda amplitudes will be solved using DIIS.
           Start     Size      MaxIter   EConv     LConv     
           3         7         100       1.00e-06  1.00e-04  
 ------------------------------------------------------------------------------
            Enorm      Ldiff       Comment
 ------------------------------------------------------------------------------
     1     3.66e-02   2.32e-02     
     2     1.08e-02   4.90e-03     
     3     4.07e-03   7.02e-04     
     4     2.06e-03   6.97e-04     Switched to DIIS steps.
     5     5.06e-04   3.86e-04     
     6     2.22e-04   6.80e-05     
     7     5.94e-05   1.43e-05     
     8     2.42e-05   1.04e-06     
     9     8.82e-06   2.36e-06     
    10     3.32e-06   9.57e-07     
    11     1.24e-06   3.02e-07     
    12     3.51e-07   1.39e-07     
 ------------------------------------------------------------------------------
                                   CCSD Lambda converged.

 CCSD calculation:   CPU 28.46 s  wall 28.84 s

        Solving for CVS-EOMEE-CCSD A' singlet states.

       EOMEE-CCSD-SINGLES right amplitudes will be solved using Davidson.
      Amplitudes will be solved using standard  algorithm
      Roots     MaxVec    MaxIter   Precond   Conv      Thresh    Shift    
      5         60        60        1         1.00e-03  1.00e-103 0.00e+00  
 ------------------------------------------------------------------------------
      Iter ConvRoots NVecs ResNorm Current eigenvalues (eV)
 ------------------------------------------------------------------------------
      0    0      5     4.20e-03   302.3088   303.1630   303.7462   304.7140   305.0480   
      1    0      10    4.89e-02   301.5111   302.3331   303.4908   304.2788   304.3037   
      2    0      15    3.32e-03   300.3268   300.5436   302.3834   303.2009   303.6405   
      3    1      20    6.04e-03   300.2630   300.4993*  301.8334   303.1021   303.4736   
      4    3      24    1.04e-02   300.2578*  300.4978*  301.3980   303.0775*  303.3785   
      5    3      26    8.07e-03   300.2575*  300.4970*  300.9658   302.9445   303.0781*  
      6    4      28    4.99e-04   300.2575*  300.4967*  300.8768*  302.7443   303.0777*  
      7    5      29    7.94e-05   300.2575*  300.4966*  300.8733*  302.7309*  303.0777*  

     Davidson procedure converged

        CVS-EOMEE-CCSD/MP2 right amplitudes will be solved using Davidson.
      Amplitudes will be solved using standard  algorithm
      Roots     MaxVec    MaxIter   Precond   Conv      Thresh    Shift    
      5         60        60        1         1.00e-03  1.00e-103 0.00e+00  
 ------------------------------------------------------------------------------
      Iter ConvRoots NVecs ResNorm Current eigenvalues (eV)
 ------------------------------------------------------------------------------
      0    0      5     1.80e+00   300.2575   300.4966   300.8733   302.7309   303.0777   
      1    0      10    1.02e+00   297.6997   297.9865   298.5350   300.1914   300.2138   
      2    0      15    6.49e-02   289.1117   289.7827   290.4331   291.9074   292.7054   
      3    0      20    2.87e-02   288.5123   289.1934   289.8009   291.1602   292.0217   
      4    0      25    6.71e-03   288.3569   289.0175   289.6824   290.9156   291.7734   
      5    0      30    6.63e-03   288.2726   288.9233   289.6332   290.7926   291.6384   
      6    0      35    2.73e-03   288.2203   288.8654   289.5950   290.7187   291.5584   
      7    1      40    1.80e-03   288.1940*  288.8306   289.5634   290.6778   291.5120   
      8    4      44    6.24e-03   288.1938*  288.8232*  289.5513*  290.6656*  291.3259   
      9    4      45    4.74e-03   288.1933*  288.8230*  289.5462*  290.6656*  291.0539   
      10   4      46    2.65e-03   288.1913*  288.8224*  289.5378*  290.6656*  290.7389   
      11   4      47    1.27e-03   288.1906*  288.8226*  289.5390*  290.6568   290.6658*  
      12   4      48    8.96e-04   288.1905*  288.8226*  289.5381*  290.5927   290.6657*  
      13   4      49    9.77e-04   288.1904*  288.8226*  289.5372*  290.5549   290.6656*  
      14   4      50    1.41e-03   288.1902*  288.8223*  289.5363*  290.5070   290.6656*  
      15   4      51    1.93e-03   288.1901*  288.8212*  289.5348*  290.4221   290.6655*  
      16   4      52    3.86e-03   288.1901*  288.8194*  289.5327*  290.2380   290.6655*  
      17   4      53    2.04e-03   288.1900*  288.8177*  289.5287*  290.0793   290.6654*  
      18   4      54    1.62e-03   288.1900*  288.8161*  289.5253*  289.9531   290.6642*  
      19   3      55    9.45e-04   288.1900*  288.8157*  289.5231*  289.9119   290.6555   
      20   5      57    4.34e-04   288.1899*  288.8143*  289.5229*  289.8851*  290.6486*  

     Davidson procedure converged

 EOMEE transition 1/A'
 Total energy = -166.85681058 a.u.  Excitation energy = 288.1899 eV.
 R0^2 = 0.0000  R1^2 = 0.8147  R2_CCVV^2 = 0.0012  R2_COVV^2 = 0.0920  Res^2 = 5.03e-04
 Conv-d = yes

 Amplitude    Transitions between orbitals
  0.5404       3 (A') A                  ->    11 (A') A                  
  0.5404       3 (A') B                  ->    11 (A') B                  
  0.2210       3 (A') A                  ->    20 (A') A                  
  0.2210       3 (A') B                  ->    20 (A') B                  
  0.1786       3 (A') A                  ->    12 (A') A                  
  0.1786       3 (A') B                  ->    12 (A') B                  
 -0.1003       3 (A') A                  ->    17 (A') A                  
 -0.1003       3 (A') B                  ->    17 (A') B                  

              Summary of significant orbitals:

               Number  Type             Irrep      Energy
               3       Occ  Alpha       3 (A')    -11.2400
               3       Occ  Beta        3 (A')    -11.2400
               13      Vir  Alpha      11 (A')      0.0456
               14      Vir  Alpha      12 (A')      0.0589
               21      Vir  Alpha      17 (A')      0.1802
               25      Vir  Alpha      20 (A')      0.2666
               13      Vir  Beta       11 (A')      0.0456
               14      Vir  Beta       12 (A')      0.0589
               21      Vir  Beta       17 (A')      0.1802
               25      Vir  Beta       20 (A')      0.2666


 EOMEE transition 2/A'
 Total energy = -166.83386419 a.u.  Excitation energy = 288.8143 eV.
 R0^2 = 0.0000  R1^2 = 0.8163  R2_CCVV^2 = 0.0012  R2_COVV^2 = 0.0912  Res^2 = 2.86e-04
 Conv-d = yes

 Amplitude    Transitions between orbitals
  0.4527       3 (A') A                  ->    12 (A') A                  
  0.4527       3 (A') B                  ->    12 (A') B                  
  0.2526       3 (A') A                  ->    13 (A') A                  
  0.2526       3 (A') B                  ->    13 (A') B                  
  0.2413       3 (A') A                  ->    21 (A') A                  
  0.2413       3 (A') B                  ->    21 (A') B                  
 -0.1685       3 (A') A                  ->    18 (A') A                  
 -0.1685       3 (A') B                  ->    18 (A') B                  
 -0.1104       3 (A') A                  ->    14 (A') A                  
 -0.1104       3 (A') B                  ->    14 (A') B                  
 -0.1028       3 (A') A                  ->    11 (A') A                  
 -0.1028       3 (A') B                  ->    11 (A') B                  

              Summary of significant orbitals:

               Number  Type             Irrep      Energy
               3       Occ  Alpha       3 (A')    -11.2400
               3       Occ  Beta        3 (A')    -11.2400
               13      Vir  Alpha      11 (A')      0.0456
               14      Vir  Alpha      12 (A')      0.0589
               15      Vir  Alpha      13 (A')      0.0672
               17      Vir  Alpha      14 (A')      0.1208
               22      Vir  Alpha      18 (A')      0.2053
               26      Vir  Alpha      21 (A')      0.2869
               13      Vir  Beta       11 (A')      0.0456
               14      Vir  Beta       12 (A')      0.0589
               15      Vir  Beta       13 (A')      0.0672
               17      Vir  Beta       14 (A')      0.1208
               22      Vir  Beta       18 (A')      0.2053
               26      Vir  Beta       21 (A')      0.2869


 EOMEE transition 3/A'
 Total energy = -166.80782559 a.u.  Excitation energy = 289.5229 eV.
 R0^2 = 0.0000  R1^2 = 0.8061  R2_CCVV^2 = 0.0012  R2_COVV^2 = 0.0964  Res^2 = 2.74e-04
 Conv-d = yes

 Amplitude    Transitions between orbitals
  0.4952       3 (A') A                  ->    13 (A') A                  
  0.4952       3 (A') B                  ->    13 (A') B                  
 -0.2460       3 (A') A                  ->    12 (A') A                  
 -0.2460       3 (A') B                  ->    12 (A') B                  
 -0.1512       3 (A') A                  ->    18 (A') A                  
 -0.1512       3 (A') B                  ->    18 (A') B                  
  0.1184       3 (A') A                  ->    11 (A') A                  
  0.1184       3 (A') B                  ->    11 (A') B                  
  0.1151       3 (A') A                  ->    15 (A') A                  
  0.1151       3 (A') B                  ->    15 (A') B                  
 -0.1087       3 (A') A                  ->    17 (A') A                  
 -0.1087       3 (A') B                  ->    17 (A') B                  
  0.1008       3 (A') A                  ->    19 (A') A                  
  0.1008       3 (A') B                  ->    19 (A') B                  

              Summary of significant orbitals:

               Number  Type             Irrep      Energy
               3       Occ  Alpha       3 (A')    -11.2400
               3       Occ  Beta        3 (A')    -11.2400
               13      Vir  Alpha      11 (A')      0.0456
               14      Vir  Alpha      12 (A')      0.0589
               15      Vir  Alpha      13 (A')      0.0672
               19      Vir  Alpha      15 (A')      0.1393
               21      Vir  Alpha      17 (A')      0.1802
               22      Vir  Alpha      18 (A')      0.2053
               24      Vir  Alpha      19 (A')      0.2159
               13      Vir  Beta       11 (A')      0.0456
               14      Vir  Beta       12 (A')      0.0589
               15      Vir  Beta       13 (A')      0.0672
               19      Vir  Beta       15 (A')      0.1393
               21      Vir  Beta       17 (A')      0.1802
               22      Vir  Beta       18 (A')      0.2053
               24      Vir  Beta       19 (A')      0.2159


 EOMEE transition 4/A'
 Total energy = -166.79451573 a.u.  Excitation energy = 289.8851 eV.
 R0^2 = 0.0000  R1^2 = 0.8031  R2_CCVV^2 = 0.0012  R2_COVV^2 = 0.0979  Res^2 = 6.39e-04
 Conv-d = yes

 Amplitude    Transitions between orbitals
 -0.4659       3 (A') A                  ->    14 (A') A                  
 -0.4659       3 (A') B                  ->    14 (A') B                  
  0.2036       3 (A') A                  ->    21 (A') A                  
  0.2036       3 (A') B                  ->    21 (A') B                  
 -0.1866       3 (A') A                  ->    22 (A') A                  
 -0.1866       3 (A') B                  ->    22 (A') B                  
 -0.1565       3 (A') A                  ->    12 (A') A                  
 -0.1565       3 (A') B                  ->    12 (A') B                  
  0.1402       3 (A') A                  ->    16 (A') A                  
  0.1402       3 (A') B                  ->    16 (A') B                  
  0.1296       3 (A') A                  ->    15 (A') A                  
  0.1296       3 (A') B                  ->    15 (A') B                  
  0.1287       3 (A') A                  ->    23 (A') A                  
  0.1287       3 (A') B                  ->    23 (A') B                  

              Summary of significant orbitals:

               Number  Type             Irrep      Energy
               3       Occ  Alpha       3 (A')    -11.2400
               3       Occ  Beta        3 (A')    -11.2400
               14      Vir  Alpha      12 (A')      0.0589
               17      Vir  Alpha      14 (A')      0.1208
               19      Vir  Alpha      15 (A')      0.1393
               20      Vir  Alpha      16 (A')      0.1755
               26      Vir  Alpha      21 (A')      0.2869
               27      Vir  Alpha      22 (A')      0.3253
               29      Vir  Alpha      23 (A')      0.3781
               14      Vir  Beta       12 (A')      0.0589
               17      Vir  Beta       14 (A')      0.1208
               19      Vir  Beta       15 (A')      0.1393
               20      Vir  Beta       16 (A')      0.1755
               26      Vir  Beta       21 (A')      0.2869
               27      Vir  Beta       22 (A')      0.3253
               29      Vir  Beta       23 (A')      0.3781


 EOMEE transition 5/A'
 Total energy = -166.76645801 a.u.  Excitation energy = 290.6486 eV.
 R0^2 = 0.0000  R1^2 = 0.8078  R2_CCVV^2 = 0.0012  R2_COVV^2 = 0.0955  Res^2 = 4.67e-04
 Conv-d = yes

 Amplitude    Transitions between orbitals
 -0.5388       3 (A') A                  ->    15 (A') A                  
 -0.5388       3 (A') B                  ->    15 (A') B                  
 -0.1337       2 (A') A                  ->    11 (A') A                  
 -0.1337       2 (A') B                  ->    11 (A') B                  
 -0.1158       3 (A') A                  ->    14 (A') A                  
 -0.1158       3 (A') B                  ->    14 (A') B                  
  0.1084       3 (A') A                  ->    11 (A') A                  
  0.1084       3 (A') B                  ->    11 (A') B                  
  0.1006       3 (A') A                  ->    16 (A') A                  
  0.1006       3 (A') B                  ->    16 (A') B                  

              Summary of significant orbitals:

               Number  Type             Irrep      Energy
               2       Occ  Alpha       2 (A')    -11.3324
               3       Occ  Alpha       3 (A')    -11.2400
               2       Occ  Beta        2 (A')    -11.3324
               3       Occ  Beta        3 (A')    -11.2400
               13      Vir  Alpha      11 (A')      0.0456
               17      Vir  Alpha      14 (A')      0.1208
               19      Vir  Alpha      15 (A')      0.1393
               20      Vir  Alpha      16 (A')      0.1755
               13      Vir  Beta       11 (A')      0.0456
               17      Vir  Beta       14 (A')      0.1208
               19      Vir  Beta       15 (A')      0.1393
               20      Vir  Beta       16 (A')      0.1755


      CVS-EOM-CCSD/MP2 left amplitudes will be solved using Davidson.
      Amplitudes will be solved using MOM  algorithm
      Roots     MaxVec    MaxIter   Precond   Conv      Thresh    Shift    
      5         60        60        1         1.00e-03  1.00e-103 0.00e+00  
 ------------------------------------------------------------------------------
      Iter ConvRoots NVecs ResNorm Current eigenvalues (eV)
 ------------------------------------------------------------------------------
      0    0      5     2.60e-02   288.1899   288.8143   289.5229   289.8851   290.6486   
      1    0      10    3.84e-02   288.1863   288.8104   289.5192   289.8795   290.6422   
      2    4      15    8.31e-04   288.1882*  288.8117*  289.5203*  289.8829   290.6433*  
      3    5      16    6.63e-04   288.1882*  288.8116*  289.5203*  289.8807*  290.6431*  

     Davidson procedure converged

 Excited state properties for  CVS-EOMEE-CCSD transition 1/A'
 Dipole moment (a.u.): 1.622121 (X -1.509270, Y 0.594457, Z 0.000000)
 R-squared (a.u.): 187.044539 (XX 124.083213, YY 42.364993, ZZ 20.596333)

State OPDM analysis using libwa module will be excecuted
Created directory /work1/malop/qc_6464211.hnode2/plots
 NOs
   Occupation of frontier NOs:
      0.0043   0.0062   0.0116   0.9864   1.0084   1.9894   1.9938   1.9953
   Number of electrons: 24.000000
   Number of unpaired electrons: n_u =  2.03339, n_u,nl =  2.00122
   NO participation ratio (PR_NO):  2.113266
 
 Mulliken Population Analysis
 Atom      Charge (e)
 --------------------
  1 C        0.985880
  2 F       -0.088616
  3 C        0.400771
  4 H       -0.112900
  5 H       -0.225621
  6 H       -0.959514
 --------------------
 Sum:       -0.000000
 

 Excited state properties for  CVS-EOMEE-CCSD transition 2/A'
 Dipole moment (a.u.): 1.834790 (X 0.088397, Y -1.832659, Z 0.000000)
 R-squared (a.u.): 183.710637 (XX 112.533739, YY 52.960442, ZZ 18.216456)

State OPDM analysis using libwa module will be excecuted
 NOs
   Occupation of frontier NOs:
      0.0047   0.0074   0.0112   0.9894   1.0026   1.9899   1.9937   1.9953
   Number of electrons: 24.000000
   Number of unpaired electrons: n_u =  2.04597, n_u,nl =  2.00166
   NO participation ratio (PR_NO):  2.120432
 
 Mulliken Population Analysis
 Atom      Charge (e)
 --------------------
  1 C        0.548062
  2 F       -0.096555
  3 C        0.393446
  4 H       -0.229687
  5 H       -0.840175
  6 H        0.224908
 --------------------
 Sum:       -0.000000
 

 Excited state properties for  CVS-EOMEE-CCSD transition 3/A'
 Dipole moment (a.u.): 1.280419 (X 1.136814, Y 0.589176, Z 0.000000)
 R-squared (a.u.): 193.410120 (XX 125.364471, YY 45.717105, ZZ 22.328544)

State OPDM analysis using libwa module will be excecuted
 NOs
   Occupation of frontier NOs:
      0.0055   0.0078   0.0117   0.9897   1.0002   1.9897   1.9949   1.9954
   Number of electrons: 24.000000
   Number of unpaired electrons: n_u =  2.04872, n_u,nl =  2.00195
   NO participation ratio (PR_NO):  2.120268
 
 Mulliken Population Analysis
 Atom      Charge (e)
 --------------------
  1 C        0.119378
  2 F        0.048158
  3 C        1.108427
  4 H       -1.063235
  5 H       -0.081762
  6 H       -0.130965
 --------------------
 Sum:        0.000000
 

 Excited state properties for  CVS-EOMEE-CCSD transition 4/A'
 Dipole moment (a.u.): 1.883877 (X 1.606384, Y 0.984135, Z 0.000000)
 R-squared (a.u.): 173.674296 (XX 111.983019, YY 43.507069, ZZ 18.184208)

State OPDM analysis using libwa module will be excecuted
 NOs
   Occupation of frontier NOs:
      0.0062   0.0091   0.0117   0.9917   1.0002   1.9896   1.9938   1.9944
   Number of electrons: 24.000000
   Number of unpaired electrons: n_u =  2.06363, n_u,nl =  2.00256
   NO participation ratio (PR_NO):  2.146697
 
 Mulliken Population Analysis
 Atom      Charge (e)
 --------------------
  1 C       -0.033135
  2 F        0.238983
  3 C       -0.864049
  4 H        0.081199
  5 H        0.346397
  6 H        0.230605
 --------------------
 Sum:       -0.000000
 

 Excited state properties for  CVS-EOMEE-CCSD transition 5/A'
 Dipole moment (a.u.): 0.585127 (X 0.377998, Y 0.446645, Z 0.000000)
 R-squared (a.u.): 187.368481 (XX 119.871758, YY 47.984491, ZZ 19.512232)

State OPDM analysis using libwa module will be excecuted
 NOs
   Occupation of frontier NOs:
      0.0092   0.0200   0.0891   0.9090   1.0897   1.9098   1.9705   1.9894
   Number of electrons: 24.000000
   Number of unpaired electrons: n_u =  2.12264, n_u,nl =  2.03320
   NO participation ratio (PR_NO):  2.693511
 
 Mulliken Population Analysis
 Atom      Charge (e)
 --------------------
  1 C       -1.333731
  2 F       -0.035905
  3 C        1.018301
  4 H       -0.136718
  5 H        0.268397
  6 H        0.219655
 --------------------
 Sum:       -0.000000
 

        Solving for CVS-EOMEE-CCSD A" singlet states.

       EOMEE-CCSD-SINGLES right amplitudes will be solved using Davidson.
      Amplitudes will be solved using standard  algorithm
      Roots     MaxVec    MaxIter   Precond   Conv      Thresh    Shift    
      5         60        60        1         1.00e-03  1.00e-103 0.00e+00  
 ------------------------------------------------------------------------------
      Iter ConvRoots NVecs ResNorm Current eigenvalues (eV)
 ------------------------------------------------------------------------------
      0    0      5     2.21e-02   298.6286   303.4009   303.8715   305.3903   305.9996   
      1    0      10    3.31e-02   296.7063   300.5697   302.9664   305.2125   305.7253   
      2    5      15    1.06e-04   296.3683*  297.6373*  302.8989*  305.1866*  305.6818*  

     Davidson procedure converged

        CVS-EOMEE-CCSD/MP2 right amplitudes will be solved using Davidson.
      Amplitudes will be solved using standard  algorithm
      Roots     MaxVec    MaxIter   Precond   Conv      Thresh    Shift    
      5         60        60        1         1.00e-03  1.00e-103 0.00e+00  
 ------------------------------------------------------------------------------
      Iter ConvRoots NVecs ResNorm Current eigenvalues (eV)
 ------------------------------------------------------------------------------
      0    0      5     1.83e+00   296.3683   297.6373   302.8989   305.1866   305.6818   
      1    0      10    1.00e+00   293.8996   295.3144   300.0749   302.2826   302.8519   
      2    0      15    5.70e-02   286.6526   288.9057   290.3768   292.0395   293.0734   
      3    0      20    1.28e-02   286.0335   288.2167   289.9169   291.5787   292.6119   
      4    0      25    2.15e-03   285.9245   288.0676   289.8660   291.5383   292.5525   
      5    4      30    5.55e-04   285.9103*  288.0422*  289.8513*  291.5259*  292.5227   
      6    5      31    4.47e-04   285.9103*  288.0405*  289.8513*  291.5259*  292.5036*  

     Davidson procedure converged

 EOMEE transition 1/A"
 Total energy = -166.94058609 a.u.  Excitation energy = 285.9103 eV.
 R0^2 = 0.0000  R1^2 = 0.8255  R2_CCVV^2 = 0.0013  R2_COVV^2 = 0.0866  Res^2 = 3.57e-04
 Conv-d = yes

 Amplitude    Transitions between orbitals
  0.4385       3 (A') A                  ->    3 (A") A                   
  0.4385       3 (A') B                  ->    3 (A") B                   
  0.4381       3 (A') A                  ->    5 (A") A                   
  0.4381       3 (A') B                  ->    5 (A") B                   
 -0.1151       3 (A') A                  ->    8 (A") A                   
 -0.1151       3 (A') B                  ->    8 (A") B                   
 -0.1126       3 (A') A                  ->    4 (A") A                   
 -0.1126       3 (A') B                  ->    4 (A") B                   

              Summary of significant orbitals:

               Number  Type             Irrep      Energy
               3       Occ  Alpha       3 (A')    -11.2400
               3       Occ  Beta        3 (A')    -11.2400
               16      Vir  Alpha       3 (A")      0.1085
               18      Vir  Alpha       4 (A")      0.1220
               23      Vir  Alpha       5 (A")      0.2142
               38      Vir  Alpha       8 (A")      0.7837
               16      Vir  Beta        3 (A")      0.1085
               18      Vir  Beta        4 (A")      0.1220
               23      Vir  Beta        5 (A")      0.2142
               38      Vir  Beta        8 (A")      0.7837


 EOMEE transition 2/A"
 Total energy = -166.86230304 a.u.  Excitation energy = 288.0405 eV.
 R0^2 = 0.0000  R1^2 = 0.8306  R2_CCVV^2 = 0.0013  R2_COVV^2 = 0.0840  Res^2 = 5.23e-04
 Conv-d = yes

 Amplitude    Transitions between orbitals
  0.4558       2 (A') A                  ->    3 (A") A                   
  0.4558       2 (A') B                  ->    3 (A") B                   
  0.4334       2 (A') A                  ->    5 (A") A                   
  0.4334       2 (A') B                  ->    5 (A") B                   
 -0.1120       2 (A') A                  ->    8 (A") A                   
 -0.1120       2 (A') B                  ->    8 (A") B                   

              Summary of significant orbitals:

               Number  Type             Irrep      Energy
               2       Occ  Alpha       2 (A')    -11.3324
               2       Occ  Beta        2 (A')    -11.3324
               16      Vir  Alpha       3 (A")      0.1085
               23      Vir  Alpha       5 (A")      0.2142
               38      Vir  Alpha       8 (A")      0.7837
               16      Vir  Beta        3 (A")      0.1085
               23      Vir  Beta        5 (A")      0.2142
               38      Vir  Beta        8 (A")      0.7837


 EOMEE transition 3/A"
 Total energy = -166.79575560 a.u.  Excitation energy = 289.8513 eV.
 R0^2 = 0.0000  R1^2 = 0.8112  R2_CCVV^2 = 0.0012  R2_COVV^2 = 0.0938  Res^2 = 2.43e-04
 Conv-d = yes

 Amplitude    Transitions between orbitals
 -0.5574       3 (A') A                  ->    4 (A") A                   
 -0.5574       3 (A') B                  ->    4 (A") B                   
 -0.2692       3 (A') A                  ->    3 (A") A                   
 -0.2692       3 (A') B                  ->    3 (A") B                   
  0.1097       3 (A') A                  ->    5 (A") A                   
  0.1097       3 (A') B                  ->    5 (A") B                   

              Summary of significant orbitals:

               Number  Type             Irrep      Energy
               3       Occ  Alpha       3 (A')    -11.2400
               3       Occ  Beta        3 (A')    -11.2400
               16      Vir  Alpha       3 (A")      0.1085
               18      Vir  Alpha       4 (A")      0.1220
               23      Vir  Alpha       5 (A")      0.2142
               16      Vir  Beta        3 (A")      0.1085
               18      Vir  Beta        4 (A")      0.1220
               23      Vir  Beta        5 (A")      0.2142


 EOMEE transition 4/A"
 Total energy = -166.73421587 a.u.  Excitation energy = 291.5259 eV.
 R0^2 = 0.0000  R1^2 = 0.8046  R2_CCVV^2 = 0.0012  R2_COVV^2 = 0.0971  Res^2 = 2.77e-04
 Conv-d = yes

 Amplitude    Transitions between orbitals
 -0.4338       3 (A') A                  ->    5 (A") A                   
 -0.4338       3 (A') B                  ->    5 (A") B                   
  0.3746       3 (A') A                  ->    3 (A") A                   
  0.3746       3 (A') B                  ->    3 (A") B                   
 -0.2580       3 (A') A                  ->    4 (A") A                   
 -0.2580       3 (A') B                  ->    4 (A") B                   

              Summary of significant orbitals:

               Number  Type             Irrep      Energy
               3       Occ  Alpha       3 (A')    -11.2400
               3       Occ  Beta        3 (A')    -11.2400
               16      Vir  Alpha       3 (A")      0.1085
               18      Vir  Alpha       4 (A")      0.1220
               23      Vir  Alpha       5 (A")      0.2142
               16      Vir  Beta        3 (A")      0.1085
               18      Vir  Beta        4 (A")      0.1220
               23      Vir  Beta        5 (A")      0.2142


 EOMEE transition 5/A"
 Total energy = -166.69828651 a.u.  Excitation energy = 292.5036 eV.
 R0^2 = 0.0000  R1^2 = 0.8007  R2_CCVV^2 = 0.0011  R2_COVV^2 = 0.0991  Res^2 = 8.32e-04
 Conv-d = yes

 Amplitude    Transitions between orbitals
 -0.6262       2 (A') A                  ->    4 (A") A                   
 -0.6262       2 (A') B                  ->    4 (A") B                   
  0.0775       2 (A') A                  ->    7 (A") A                   
  0.0775       2 (A') B                  ->    7 (A") B                   

              Summary of significant orbitals:

               Number  Type             Irrep      Energy
               2       Occ  Alpha       2 (A')    -11.3324
               2       Occ  Beta        2 (A')    -11.3324
               18      Vir  Alpha       4 (A")      0.1220
               37      Vir  Alpha       7 (A")      0.7018
               18      Vir  Beta        4 (A")      0.1220
               37      Vir  Beta        7 (A")      0.7018


      CVS-EOM-CCSD/MP2 left amplitudes will be solved using Davidson.
      Amplitudes will be solved using MOM  algorithm
      Roots     MaxVec    MaxIter   Precond   Conv      Thresh    Shift    
      5         60        60        1         1.00e-03  1.00e-103 0.00e+00  
 ------------------------------------------------------------------------------
      Iter ConvRoots NVecs ResNorm Current eigenvalues (eV)
 ------------------------------------------------------------------------------
      0    0      5     2.16e-02   285.9103   288.0405   289.8513   291.5259   292.5036   
      1    0      10    2.89e-02   285.9059   288.0353   289.8470   291.5217   292.4969   
      2    3      15    8.72e-04   285.9078*  288.0369   289.8495*  291.5240*  292.5009   
      3    5      17    5.67e-04   285.9078*  288.0358*  289.8495*  291.5240*  292.4963*  

     Davidson procedure converged

 Excited state properties for  CVS-EOMEE-CCSD transition 1/A"
 Dipole moment (a.u.): 1.190033 (X 1.189848, Y 0.021011, Z 0.000000)
 R-squared (a.u.): 153.893823 (XX 105.767460, YY 32.487084, ZZ 15.639280)

State OPDM analysis using libwa module will be excecuted
 NOs
   Occupation of frontier NOs:
      0.0059   0.0078   0.0097   0.9921   0.9998   1.9870   1.9941   1.9953
   Number of electrons: 24.000000
   Number of unpaired electrons: n_u =  2.06036, n_u,nl =  2.00209
   NO participation ratio (PR_NO):  2.139289
 
 Mulliken Population Analysis
 Atom      Charge (e)
 --------------------
  1 C       -0.239767
  2 F       -0.159106
  3 C       -0.186233
  4 H        0.145665
  5 H        0.228173
  6 H        0.211267
 --------------------
 Sum:       -0.000000
 

 Excited state properties for  CVS-EOMEE-CCSD transition 2/A"
 Dipole moment (a.u.): 0.677757 (X 0.012905, Y -0.677634, Z 0.000000)
 R-squared (a.u.): 156.066485 (XX 108.314391, YY 32.044328, ZZ 15.707767)

State OPDM analysis using libwa module will be excecuted
 NOs
   Occupation of frontier NOs:
      0.0067   0.0081   0.0087   0.9867   0.9998   1.9919   1.9936   1.9957
   Number of electrons: 24.000000
   Number of unpaired electrons: n_u =  2.05509, n_u,nl =  2.00125
   NO participation ratio (PR_NO):  2.139882
 
 Mulliken Population Analysis
 Atom      Charge (e)
 --------------------
  1 C       -0.376512
  2 F       -0.110761
  3 C       -0.009566
  4 H        0.228052
  5 H        0.138136
  6 H        0.130652
 --------------------
 Sum:       -0.000000
 

 Excited state properties for  CVS-EOMEE-CCSD transition 3/A"
 Dipole moment (a.u.): 0.425439 (X 0.300771, Y -0.300890, Z 0.000000)
 R-squared (a.u.): 180.402035 (XX 110.637494, YY 36.695203, ZZ 33.069338)

State OPDM analysis using libwa module will be excecuted
 NOs
   Occupation of frontier NOs:
      0.0034   0.0050   0.0105   0.9998   1.0069   1.9897   1.9955   1.9956
   Number of electrons: 24.000000
   Number of unpaired electrons: n_u =  2.03119, n_u,nl =  2.00153
   NO participation ratio (PR_NO):  2.077059
 
 Mulliken Population Analysis
 Atom      Charge (e)
 --------------------
  1 C       -0.583738
  2 F       -0.067307
  3 C       -0.053230
  4 H        0.188167
  5 H        0.266392
  6 H        0.249716
 --------------------
 Sum:       -0.000000
 

 Excited state properties for  CVS-EOMEE-CCSD transition 4/A"
 Dipole moment (a.u.): 1.666645 (X 1.575068, Y 0.544853, Z 0.000000)
 R-squared (a.u.): 188.028803 (XX 115.841568, YY 39.986901, ZZ 32.200333)

State OPDM analysis using libwa module will be excecuted
 NOs
   Occupation of frontier NOs:
      0.0052   0.0084   0.0127   0.9915   0.9998   1.9891   1.9953   1.9954
   Number of electrons: 24.000000
   Number of unpaired electrons: n_u =  2.04929, n_u,nl =  2.00181
   NO participation ratio (PR_NO):  2.117484
 
 Mulliken Population Analysis
 Atom      Charge (e)
 --------------------
  1 C       -0.029797
  2 F       -0.032193
  3 C       -0.641661
  4 H        0.192742
  5 H        0.264032
  6 H        0.246876
 --------------------
 Sum:       -0.000000
 

 Excited state properties for  CVS-EOMEE-CCSD transition 5/A"
 Dipole moment (a.u.): 1.257358 (X 1.179713, Y 0.435002, Z 0.000000)
 R-squared (a.u.): 179.721542 (XX 108.513571, YY 37.599224, ZZ 33.608747)

State OPDM analysis using libwa module will be excecuted
 NOs
   Occupation of frontier NOs:
      0.0042   0.0090   0.0102   0.9968   0.9999   1.9917   1.9923   1.9957
   Number of electrons: 24.000000
   Number of unpaired electrons: n_u =  2.05575, n_u,nl =  2.00158
   NO participation ratio (PR_NO):  2.119805
 
 Mulliken Population Analysis
 Atom      Charge (e)
 --------------------
  1 C        0.197632
  2 F        0.037549
  3 C       -0.834717
  4 H        0.269501
  5 H        0.166603
  6 H        0.163431
 --------------------
 Sum:       -0.000000
 

 CVS-EOMEE-CCSD calculation:   CPU 150.44 s  wall 151.14 s


 Start computing the transition properties

 ------------------------------------------------------------------------------
 State A: ccsd: 0/A'
 State B: cvs_eomee_ccsd/rhfref/singlets: 1/A'
 Transition dipole moment (a.u.):
   A->B: 0.029250 (X -0.029228, Y 0.001124, Z 0.000000)
   B->A: 0.029068 (X -0.029053, Y 0.000911, Z 0.000000)
 Oscillator strength (a.u.): 0.006003
 Norm of one-particle transition density matrix:
   A->B: 0.903769;   B->A: 0.871360
   ||gamma^AB||*||gamma^BA||: 0.787508

State analysis of transition OPDM (A->B) using libwa module will be excecuted
 NTOs
   Leading SVs and ENEs:
        0.8168   0.0000   0.0000   0.0000   0.0000   0.0000   0.0000   0.0000
 E(h) -11.2400 -11.3322  -0.2165  -0.0597  -0.3942  -0.2900  -0.1965  -0.4246
 E(e)   0.0923   0.2753  -0.0994   0.2203   0.0320  -0.2345  -0.3464  -0.2855
 
   Sum of SVs (Omega):               0.816798
   Participation ratio (PR_NTO):     1.000027
   Entanglement entropy (S_HE):      0.238658
   Nr of entangled states (Z_HE):    1.179895
   Renormalized S_HE/Z_HE:  0.000240 /  1.000166
 
 Atomic CT numbers
   omega =     0.8168
 
 Exciton analysis of the transition density matrix
   <r_h> [Ang]:                        [  1.179234,   0.199660,  -0.000000]
   <r_e> [Ang]:                        [  2.032826,  -0.443345,   0.000000]
   |<r_e - r_h>| [Ang]:                  1.068679
   Hole size [Ang]:                      0.165902
     Cartesian components [Ang]:       [  0.096197,   0.095700,   0.095451]
   Electron size [Ang]:                  2.809063
     Cartesian components [Ang]:       [  1.585327,   1.805867,   1.454792]
   RMS electron-hole separation [Ang]:   3.010014
     Cartesian components [Ang]:       [  1.803026,   1.919308,   1.457922]
   Covariance(r_h, r_e) [Ang^2]:         0.000125
   Correlation coefficient:              0.000269
   Center-of-mass size [Ang]:            1.407001
     Cartesian components [Ang]:       [  0.794157,   0.904204,   0.728959]

 ------------------------------------------------------------------------------
 State A: ccsd: 0/A'
 State B: cvs_eomee_ccsd/rhfref/singlets: 2/A'
 Transition dipole moment (a.u.):
   A->B: 0.041898 (X 0.009096, Y -0.040898, Z 0.000000)
   B->A: 0.041354 (X 0.008652, Y -0.040439, Z 0.000000)
 Oscillator strength (a.u.): 0.012260
 Norm of one-particle transition density matrix:
   A->B: 0.903989;   B->A: 0.872273
   ||gamma^AB||*||gamma^BA||: 0.788526

State analysis of transition OPDM (A->B) using libwa module will be excecuted
 NTOs
   Leading SVs and ENEs:
        0.8172   0.0000   0.0000   0.0000   0.0000   0.0000   0.0000   0.0000
 E(h) -11.2400 -11.3324  -0.2165  -0.0597  -0.3713  -0.3196  -0.1965  -0.3660
 E(e)   0.1280   0.3278  -0.0994   0.2203  -0.0594  -0.2331  -0.3464  -0.3395
 
   Sum of SVs (Omega):               0.817197
   Participation ratio (PR_NTO):     1.000084
   Entanglement entropy (S_HE):      0.238556
   Nr of entangled states (Z_HE):    1.179811
   Renormalized S_HE/Z_HE:  0.000675 /  1.000468
 
 Atomic CT numbers
   omega =     0.8172
 
 Exciton analysis of the transition density matrix
   <r_h> [Ang]:                        [  1.179156,   0.199616,  -0.000000]
   <r_e> [Ang]:                        [  1.150865,   0.881851,   0.000000]
   |<r_e - r_h>| [Ang]:                  0.682821
   Hole size [Ang]:                      0.166262
     Cartesian components [Ang]:       [  0.096675,   0.095844,   0.095451]
   Electron size [Ang]:                  3.007860
     Cartesian components [Ang]:       [  1.410012,   2.368301,   1.204258]
   RMS electron-hole separation [Ang]:   3.088790
     Cartesian components [Ang]:       [  1.413543,   2.466409,   1.208034]
   Covariance(r_h, r_e) [Ang^2]:         0.000242
   Correlation coefficient:              0.000484
   Center-of-mass size [Ang]:            1.506266
     Cartesian components [Ang]:       [  0.706692,   1.185152,   0.604017]

 ------------------------------------------------------------------------------
 State A: ccsd: 0/A'
 State B: cvs_eomee_ccsd/rhfref/singlets: 3/A'
 Transition dipole moment (a.u.):
   A->B: 0.025663 (X 0.017644, Y -0.018635, Z 0.000000)
   B->A: 0.025396 (X 0.017185, Y -0.018698, Z 0.000000)
 Oscillator strength (a.u.): 0.004622
 Norm of one-particle transition density matrix:
   A->B: 0.900748;   B->A: 0.863746
   ||gamma^AB||*||gamma^BA||: 0.778018

State analysis of transition OPDM (A->B) using libwa module will be excecuted
 NTOs
   Leading SVs and ENEs:
        0.8113   0.0000   0.0000   0.0000   0.0000   0.0000   0.0000   0.0000
 E(h) -11.2400 -11.3324  -0.2165  -0.0597  -0.4402  -0.3372  -0.1965  -0.6599
 E(e)   0.0973   0.2204  -0.0994   0.2203   0.0129  -0.2127  -0.3464  -0.2529
 
   Sum of SVs (Omega):               0.811347
   Participation ratio (PR_NTO):     1.000038
   Entanglement entropy (S_HE):      0.244973
   Nr of entangled states (Z_HE):    1.185071
   Renormalized S_HE/Z_HE:  0.000324 /  1.000225
 
 Atomic CT numbers
   omega =     0.8113
 
 Exciton analysis of the transition density matrix
   <r_h> [Ang]:                        [  1.179076,   0.199573,  -0.000000]
   <r_e> [Ang]:                        [  0.547046,  -0.422685,  -0.000000]
   |<r_e - r_h>| [Ang]:                  0.886943
   Hole size [Ang]:                      0.166625
     Cartesian components [Ang]:       [  0.097156,   0.095988,   0.095451]
   Electron size [Ang]:                  3.675553
     Cartesian components [Ang]:       [  2.580756,   2.051845,   1.624598]
   RMS electron-hole separation [Ang]:   3.784653
     Cartesian components [Ang]:       [  2.658732,   2.146233,   1.627399]
   Covariance(r_h, r_e) [Ang^2]:         0.000261
   Correlation coefficient:              0.000426
   Center-of-mass size [Ang]:            1.839699
     Cartesian components [Ang]:       [  1.291326,   1.027065,   0.813700]

 ------------------------------------------------------------------------------
 State A: ccsd: 0/A'
 State B: cvs_eomee_ccsd/rhfref/singlets: 4/A'
 Transition dipole moment (a.u.):
   A->B: 0.020475 (X -0.005196, Y -0.019804, Z 0.000000)
   B->A: 0.020053 (X -0.004747, Y -0.019483, Z 0.000000)
 Oscillator strength (a.u.): 0.002916
 Norm of one-particle transition density matrix:
   A->B: 0.895592;   B->A: 0.862023
   ||gamma^AB||*||gamma^BA||: 0.772020

State analysis of transition OPDM (A->B) using libwa module will be excecuted
 NTOs
   Leading SVs and ENEs:
        0.8020   0.0001   0.0000   0.0000   0.0000   0.0000   0.0000   0.0000
 E(h) -11.2400 -11.3324  -0.2165  -0.0597  -0.3484  -0.3945  -0.1965  -0.4310
 E(e)   0.1741   0.2828  -0.0994   0.2203  -0.0851  -0.1596  -0.3464  -0.3648
 
   Sum of SVs (Omega):               0.802084
   Participation ratio (PR_NTO):     1.000261
   Entanglement entropy (S_HE):      0.256706
   Nr of entangled states (Z_HE):    1.194748
   Renormalized S_HE/Z_HE:  0.001875 /  1.001300
 
 Atomic CT numbers
   omega =     0.8021
 
 Exciton analysis of the transition density matrix
   <r_h> [Ang]:                        [  1.178805,   0.199425,  -0.000000]
   <r_e> [Ang]:                        [  0.277878,  -0.672696,   0.000000]
   |<r_e - r_h>| [Ang]:                  1.253900
   Hole size [Ang]:                      0.167851
     Cartesian components [Ang]:       [  0.098769,   0.096478,   0.095450]
   Electron size [Ang]:                  2.787496
     Cartesian components [Ang]:       [  1.734196,   1.817655,   1.207820]
   RMS electron-hole separation [Ang]:   3.061017
     Cartesian components [Ang]:       [  1.956566,   2.018350,   1.211586]
   Covariance(r_h, r_e) [Ang^2]:         0.000373
   Correlation coefficient:              0.000797
   Center-of-mass size [Ang]:            1.396339
     Cartesian components [Ang]:       [  0.868605,   0.910112,   0.605793]

 ------------------------------------------------------------------------------
 State A: ccsd: 0/A'
 State B: cvs_eomee_ccsd/rhfref/singlets: 5/A'
 Transition dipole moment (a.u.):
   A->B: 0.023904 (X 0.003930, Y -0.023579, Z 0.000000)
   B->A: 0.023206 (X 0.004046, Y -0.022851, Z 0.000000)
 Oscillator strength (a.u.): 0.003950
 Norm of one-particle transition density matrix:
   A->B: 0.901459;   B->A: 0.865030
   ||gamma^AB||*||gamma^BA||: 0.779789

State analysis of transition OPDM (A->B) using libwa module will be excecuted
 NTOs
   Leading SVs and ENEs:
        0.7404   0.0722   0.0000   0.0000   0.0000   0.0000   0.0000   0.0000
 E(h) -11.2404 -11.3320  -0.2165  -0.0597  -0.5616  -0.3457  -0.1965  -1.5599
 E(e)   0.1488   0.1375  -0.0994   0.2203  -0.0357  -0.1843  -0.3464  -0.0759
 
   Sum of SVs (Omega):               0.812628
   Participation ratio (PR_NTO):     1.193225
   Entanglement entropy (S_HE):      0.594845
   Nr of entangled states (Z_HE):    1.510310
   Renormalized S_HE/Z_HE:  0.432669 /  1.349728
 
 Atomic CT numbers
   omega =     0.8126
 
 Exciton analysis of the transition density matrix
   <r_h> [Ang]:                        [  1.070283,   0.140165,  -0.000000]
   <r_e> [Ang]:                        [  0.925900,  -0.386757,   0.000000]
   |<r_e - r_h>| [Ang]:                  0.546345
   Hole size [Ang]:                      0.420258
     Cartesian components [Ang]:       [  0.352284,   0.208336,   0.095439]
   Electron size [Ang]:                  3.358408
     Cartesian components [Ang]:       [  2.121850,   2.221715,   1.356701]
   RMS electron-hole separation [Ang]:   3.369531
     Cartesian components [Ang]:       [  2.097961,   2.258882,   1.360055]
   Covariance(r_h, r_e) [Ang^2]:         0.200137
   Correlation coefficient:              0.141801
   Center-of-mass size [Ang]:            1.721612
     Cartesian components [Ang]:       [  1.103643,   1.132910,   0.680027]

 ------------------------------------------------------------------------------
 State A: ccsd: 0/A'
 State B: cvs_eomee_ccsd/rhfref/singlets: 1/A"
 Transition dipole moment (a.u.):
   A->B: 0.079997 (X 0.000000, Y 0.000000, Z 0.079997)
   B->A: 0.082603 (X 0.000000, Y 0.000000, Z 0.082603)
 Oscillator strength (a.u.): 0.046287
 Norm of one-particle transition density matrix:
   A->B: 0.884437;   B->A: 0.888852
   ||gamma^AB||*||gamma^BA||: 0.786134

State analysis of transition OPDM (A->B) using libwa module will be excecuted
 NTOs
   Leading SVs and ENEs:
        0.7822   0.0000   0.0000   0.0000   0.0000   0.0000   0.0000   0.0000
 E(h) -11.2400 -11.3324 -26.3102  20.6711  19.5215   2.5641   2.7155   1.3661
 E(e)   0.1851   0.5800   4.8360   0.2853   0.4995   0.8993   1.0181   0.8808
 
   Sum of SVs (Omega):               0.782229
   Participation ratio (PR_NTO):     1.000002
   Entanglement entropy (S_HE):      0.277187
   Nr of entangled states (Z_HE):    1.211830
   Renormalized S_HE/Z_HE:  0.000019 /  1.000013
 
 Atomic CT numbers
   omega =     0.7822
 
 Exciton analysis of the transition density matrix
   <r_h> [Ang]:                        [  1.179311,   0.199702,  -0.000000]
   <r_e> [Ang]:                        [  0.657095,  -0.098264,   0.000000]
   |<r_e - r_h>| [Ang]:                  0.601243
   Hole size [Ang]:                      0.165551
     Cartesian components [Ang]:       [  0.095730,   0.095561,   0.095452]
   Electron size [Ang]:                  1.402295
     Cartesian components [Ang]:       [  0.917750,   0.684218,   0.809946]
   RMS electron-hole separation [Ang]:   1.534704
     Cartesian components [Ang]:       [  1.060249,   0.752374,   0.815551]
   Covariance(r_h, r_e) [Ang^2]:         0.000008
   Correlation coefficient:              0.000033
   Center-of-mass size [Ang]:            0.706020
     Cartesian components [Ang]:       [  0.461367,   0.345431,   0.407776]

 ------------------------------------------------------------------------------
 State A: ccsd: 0/A'
 State B: cvs_eomee_ccsd/rhfref/singlets: 2/A"
 Transition dipole moment (a.u.):
   A->B: 0.090498 (X 0.000000, Y 0.000000, Z -0.090498)
   B->A: 0.092422 (X 0.000000, Y 0.000000, Z -0.092422)
 Oscillator strength (a.u.): 0.059024
 Norm of one-particle transition density matrix:
   A->B: 0.887694;   B->A: 0.892085
   ||gamma^AB||*||gamma^BA||: 0.791899

State analysis of transition OPDM (A->B) using libwa module will be excecuted
 NTOs
   Leading SVs and ENEs:
        0.7880   0.0000   0.0000   0.0000   0.0000   0.0000   0.0000   0.0000
 E(h) -11.3324 -11.2400 -26.3102  11.1535  15.2854   2.1263   1.8596   1.6820
 E(e)   0.1896   0.2961   4.8535   0.0081   0.9213   0.1946   1.6840   0.9154
 
   Sum of SVs (Omega):               0.788001
   Participation ratio (PR_NTO):     1.000074
   Entanglement entropy (S_HE):      0.271334
   Nr of entangled states (Z_HE):    1.206923
   Renormalized S_HE/Z_HE:  0.000601 /  1.000416
 
 Atomic CT numbers
   omega =     0.7880
 
 Exciton analysis of the transition density matrix
   <r_h> [Ang]:                        [  0.016178,  -0.435447,   0.000000]
   <r_e> [Ang]:                        [  0.511475,  -0.153051,  -0.000000]
   |<r_e - r_h>| [Ang]:                  0.570146
   Hole size [Ang]:                      0.165576
     Cartesian components [Ang]:       [  0.095824,   0.095555,   0.095406]
   Electron size [Ang]:                  1.393754
     Cartesian components [Ang]:       [  0.920905,   0.667240,   0.805775]
   RMS electron-hole separation [Ang]:   1.514916
     Cartesian components [Ang]:       [  1.050008,   0.730806,   0.811404]
   Covariance(r_h, r_e) [Ang^2]:         0.000030
   Correlation coefficient:              0.000131
   Center-of-mass size [Ang]:            0.701788
     Cartesian components [Ang]:       [  0.462952,   0.337027,   0.405702]

 ------------------------------------------------------------------------------
 State A: ccsd: 0/A'
 State B: cvs_eomee_ccsd/rhfref/singlets: 3/A"
 Transition dipole moment (a.u.):
   A->B: 0.034087 (X 0.000000, Y 0.000000, Z 0.034087)
   B->A: 0.034716 (X 0.000000, Y 0.000000, Z 0.034716)
 Oscillator strength (a.u.): 0.008403
 Norm of one-particle transition density matrix:
   A->B: 0.902548;   B->A: 0.868466
   ||gamma^AB||*||gamma^BA||: 0.783833

State analysis of transition OPDM (A->B) using libwa module will be excecuted
 NTOs
   Leading SVs and ENEs:
        0.8146   0.0000   0.0000   0.0000   0.0000   0.0000   0.0000   0.0000
 E(h) -11.2400 -11.3324 -26.3102   3.3876  21.4666   1.5672   1.8102   1.4745
 E(e)   0.1376   0.1347   4.8347  -0.2490   0.3483   0.8067   2.4681   1.8208
 
   Sum of SVs (Omega):               0.814593
   Participation ratio (PR_NTO):     1.000096
   Entanglement entropy (S_HE):      0.241614
   Nr of entangled states (Z_HE):    1.182315
   Renormalized S_HE/Z_HE:  0.000759 /  1.000526
 
 Atomic CT numbers
   omega =     0.8146
 
 Exciton analysis of the transition density matrix
   <r_h> [Ang]:                        [  1.179197,   0.199639,  -0.000000]
   <r_e> [Ang]:                        [  1.036010,   0.045930,  -0.000000]
   |<r_e - r_h>| [Ang]:                  0.210069
   Hole size [Ang]:                      0.166073
     Cartesian components [Ang]:       [  0.096424,   0.095768,   0.095451]
   Electron size [Ang]:                  3.039957
     Cartesian components [Ang]:       [  1.331778,   1.375383,   2.361362]
   RMS electron-hole separation [Ang]:   3.051684
     Cartesian components [Ang]:       [  1.342846,   1.387228,   2.363290]
   Covariance(r_h, r_e) [Ang^2]:         0.000137
   Correlation coefficient:              0.000272
   Center-of-mass size [Ang]:            1.522268
     Cartesian components [Ang]:       [  0.667669,   0.689371,   1.181645]

 ------------------------------------------------------------------------------
 State A: ccsd: 0/A'
 State B: cvs_eomee_ccsd/rhfref/singlets: 4/A"
 Transition dipole moment (a.u.):
   A->B: 0.028100 (X 0.000000, Y 0.000000, Z -0.028100)
   B->A: 0.027366 (X 0.000000, Y 0.000000, Z -0.027366)
 Oscillator strength (a.u.): 0.005492
 Norm of one-particle transition density matrix:
   A->B: 0.900140;   B->A: 0.862509
   ||gamma^AB||*||gamma^BA||: 0.776379

State analysis of transition OPDM (A->B) using libwa module will be excecuted
 NTOs
   Leading SVs and ENEs:
        0.8102   0.0000   0.0000   0.0000   0.0000   0.0000   0.0000   0.0000
 E(h) -11.2400 -11.3324 -26.3102  22.2872   3.3804   3.4869   2.6537   1.8412
 E(e)   0.1720   0.1607   4.6261  -0.2143   0.4262   0.9255   1.4569   1.9395
 
   Sum of SVs (Omega):               0.810252
   Participation ratio (PR_NTO):     1.000052
   Entanglement entropy (S_HE):      0.246312
   Nr of entangled states (Z_HE):    1.186171
   Renormalized S_HE/Z_HE:  0.000437 /  1.000303
 
 Atomic CT numbers
   omega =     0.8103
 
 Exciton analysis of the transition density matrix
   <r_h> [Ang]:                        [  1.179156,   0.199617,  -0.000000]
   <r_e> [Ang]:                        [  0.328326,  -0.427632,  -0.000000]
   |<r_e - r_h>| [Ang]:                  1.057049
   Hole size [Ang]:                      0.166262
     Cartesian components [Ang]:       [  0.096675,   0.095844,   0.095451]
   Electron size [Ang]:                  3.499759
     Cartesian components [Ang]:       [  2.045577,   1.631606,   2.324175]
   RMS electron-hole separation [Ang]:   3.659638
     Cartesian components [Ang]:       [  2.217516,   1.750621,   2.326134]
   Covariance(r_h, r_e) [Ang^2]:         0.000179
   Correlation coefficient:              0.000307
   Center-of-mass size [Ang]:            1.751879
     Cartesian components [Ang]:       [  1.023962,   0.817224,   1.163067]

 ------------------------------------------------------------------------------
 State A: ccsd: 0/A'
 State B: cvs_eomee_ccsd/rhfref/singlets: 5/A"
 Transition dipole moment (a.u.):
   A->B: 0.023329 (X 0.000000, Y 0.000000, Z 0.023329)
   B->A: 0.023563 (X 0.000000, Y 0.000000, Z 0.023563)
 Oscillator strength (a.u.): 0.003939
 Norm of one-particle transition density matrix:
   A->B: 0.897675;   B->A: 0.862231
   ||gamma^AB||*||gamma^BA||: 0.774004

State analysis of transition OPDM (A->B) using libwa module will be excecuted
 NTOs
   Leading SVs and ENEs:
        0.8058   0.0000   0.0000   0.0000   0.0000   0.0000   0.0000   0.0000
 E(h) -11.3324 -11.2400 -26.3102   8.4264  15.7736   1.6358   3.8963   1.6554
 E(e)   0.1321   0.1964   4.7619  -0.0569   0.4516   1.7801   1.0796   0.7015
 
   Sum of SVs (Omega):               0.805821
   Participation ratio (PR_NTO):     1.000042
   Entanglement entropy (S_HE):      0.251275
   Nr of entangled states (Z_HE):    1.190258
   Renormalized S_HE/Z_HE:  0.000356 /  1.000247
 
 Atomic CT numbers
   omega =     0.8058
 
 Exciton analysis of the transition density matrix
   <r_h> [Ang]:                        [  0.016341,  -0.435358,   0.000000]
   <r_e> [Ang]:                        [ -0.069370,  -0.687467,  -0.000000]
   |<r_e - r_h>| [Ang]:                  0.266281
   Hole size [Ang]:                      0.166311
     Cartesian components [Ang]:       [  0.096798,   0.095848,   0.095408]
   Electron size [Ang]:                  3.026702
     Cartesian components [Ang]:       [  1.260305,   1.336220,   2.405633]
   RMS electron-hole separation [Ang]:   3.042981
     Cartesian components [Ang]:       [  1.266990,   1.363194,   2.407524]
   Covariance(r_h, r_e) [Ang^2]:        -0.000123
   Correlation coefficient:             -0.000245
   Center-of-mass size [Ang]:            1.515613
     Cartesian components [Ang]:       [  0.631974,   0.669813,   1.203762]


 All requested transition properties have been computed

 Transition Properties:   CPU 3.02 s  wall 3.57 s

 Total ccman2 time:   CPU 185.91 s  wall 188.28 s

 
 --------------------------------------------------------------
             Orbital Energies (a.u.) and Symmetries
 --------------------------------------------------------------
 
 Alpha MOs, Restricted
 -- Occupied --                  
-26.310 -11.332 -11.240  -1.629  -1.055  -0.840  -0.740  -0.691
  1 A'    2 A'    3 A'    4 A'    5 A'    6 A'    7 A'    1 A"                 
 -0.686  -0.591  -0.562  -0.386
  8 A'    9 A'   10 A'    2 A"                                                 
 -- Virtual --                   
  0.046   0.059   0.067   0.109   0.121   0.122   0.139   0.175
 11 A'   12 A'   13 A'    3 A"   14 A'    4 A"   15 A'   16 A'                 
  0.180   0.205   0.214   0.216   0.267   0.287   0.325   0.376
 17 A'   18 A'    5 A"   19 A'   20 A'   21 A'   22 A'    6 A"                 
  0.378   0.455   0.475   0.501   0.547   0.636   0.647   0.700
 23 A'   24 A'   25 A'   26 A'   27 A'   28 A'   29 A'   30 A'                 
  0.702   0.784   0.839   0.902   0.916   0.946   1.010   1.083
  7 A"    8 A"   31 A'   32 A'   33 A'   34 A'   35 A'   36 A'                 
  1.250   1.311   1.457   1.569   1.644   1.660   1.670   1.733
  9 A"   10 A"   11 A"   37 A'   38 A'   39 A'   12 A"   40 A'                 
  1.807   1.842   1.904   1.947   2.030   2.142   2.210   2.310
 41 A'   42 A'   13 A"   43 A'   14 A"   44 A'   45 A'   15 A"                 
  2.342   2.401   2.432   2.554   2.740   2.863   2.916   2.981
 46 A'   16 A"   47 A'   48 A'   49 A'   50 A'   51 A'   52 A'                 
  3.044   3.064   3.250   3.363   3.580   3.873   4.142   4.225
 53 A'   17 A"   18 A"   54 A'   55 A'   56 A'   57 A'   19 A"                 
  4.248   4.424   4.443   4.590   5.310   6.925   7.004   7.324
 58 A'   59 A'   20 A"   60 A'   61 A'   21 A"   62 A'   63 A'                 
 24.828  25.409  68.750
 64 A'   65 A'   66 A'                                                         
 
 Beta MOs, Restricted
 -- Occupied --                  
-26.310 -11.332 -11.240  -1.629  -1.055  -0.840  -0.740  -0.691
  1 A'    2 A'    3 A'    4 A'    5 A'    6 A'    7 A'    1 A"                 
 -0.686  -0.591  -0.562  -0.386
  8 A'    9 A'   10 A'    2 A"                                                 
 -- Virtual --                   
  0.046   0.059   0.067   0.109   0.121   0.122   0.139   0.175
 11 A'   12 A'   13 A'    3 A"   14 A'    4 A"   15 A'   16 A'                 
  0.180   0.205   0.214   0.216   0.267   0.287   0.325   0.376
 17 A'   18 A'    5 A"   19 A'   20 A'   21 A'   22 A'    6 A"                 
  0.378   0.455   0.475   0.501   0.547   0.636   0.647   0.700
 23 A'   24 A'   25 A'   26 A'   27 A'   28 A'   29 A'   30 A'                 
  0.702   0.784   0.839   0.902   0.916   0.946   1.010   1.083
  7 A"    8 A"   31 A'   32 A'   33 A'   34 A'   35 A'   36 A'                 
  1.250   1.311   1.457   1.569   1.644   1.660   1.670   1.733
  9 A"   10 A"   11 A"   37 A'   38 A'   39 A'   12 A"   40 A'                 
  1.807   1.842   1.904   1.947   2.030   2.142   2.210   2.310
 41 A'   42 A'   13 A"   43 A'   14 A"   44 A'   45 A'   15 A"                 
  2.342   2.401   2.432   2.554   2.740   2.863   2.916   2.981
 46 A'   16 A"   47 A'   48 A'   49 A'   50 A'   51 A'   52 A'                 
  3.044   3.064   3.250   3.363   3.580   3.873   4.142   4.225
 53 A'   17 A"   18 A"   54 A'   55 A'   56 A'   57 A'   19 A"                 
  4.248   4.424   4.443   4.590   5.310   6.925   7.004   7.324
 58 A'   59 A'   20 A"   60 A'   61 A'   21 A"   62 A'   63 A'                 
 24.828  25.409  68.750
 64 A'   65 A'   66 A'                                                         
 --------------------------------------------------------------
 
          Ground-State Mulliken Net Atomic Charges

     Atom                 Charge (a.u.)
  ----------------------------------------
      1 C                    -0.250461
      2 F                    -0.161411
      3 C                    -0.020824
      4 H                     0.169571
      5 H                     0.148351
      6 H                     0.114774
  ----------------------------------------
  Sum of atomic charges =    -0.000000

 -----------------------------------------------------------------
                    Cartesian Multipole Moments
 -----------------------------------------------------------------
    Charge (ESU x 10^10)
                -0.0000
    Dipole Moment (Debye)
         X       1.4919      Y      -0.9315      Z       0.0000
       Tot       1.7588
    Quadrupole Moments (Debye-Ang)
        XX     -18.0169     XY       0.9545     YY     -15.3190
        XZ       0.0000     YZ       0.0000     ZZ     -19.4634
    Octopole Moments (Debye-Ang^2)
       XXX      -3.3630    XXY      -0.3982    XYY      -2.1562
       YYY       0.4379    XXZ       0.0000    XYZ       0.0000
       YYZ      -0.0000    XZZ      -4.9913    YZZ       0.6898
       ZZZ       0.0000
    Hexadecapole Moments (Debye-Ang^3)
      XXXX    -118.9090   XXXY      -3.8287   XXYY     -26.0404
      XYYY       0.5470   YYYY     -34.4769   XXXZ       0.0000
      XXYZ       0.0000   XYYZ       0.0000   YYYZ       0.0000
      XXZZ     -26.3130   XYZZ      -0.5238   YYZZ     -10.9109
      XZZZ       0.0000   YZZZ       0.0000   ZZZZ     -21.3270
 -----------------------------------------------------------------
Archival summary:
1\1\n-62-24-3\SP\ProcedureUnspecified\BasisUnspecified\123\malop\SatJun1615:38:352018SatJun1615:38:352018\0\\#,ProcedureUnspecified,BasisUnspecified,\\0,1\C\H,1,1.08083\C,1,1.32523,2,125.835\H,3,1.07898,1,118.942,2,-0,0\H,3,1.08006,1,121.377,2,-180,0\F,1,1.34281,2,112.267,3,180,0\\HF=-176.936663\\@

 Total job time:  196.71s(wall), 190.68s(cpu) 
 Sat Jun 16 15:38:35 2018

======= MOLDEN-FORMATTED INPUT FILE FOLLOWS =======
[Molden Format]
[Atoms] (Angs)
  C      1    6      1.17935012      0.19972949     -0.00000000
  F      2    9     -1.15290231      0.22477664     -0.00000000
  C      3    6      0.01631886     -0.43556811      0.00000000
  H      4    1     -0.11895302     -1.50789969      0.00000000
  H      5    1      1.23082549      1.27856114     -0.00000000
  H      6    1      2.09023450     -0.37861944      0.00000000

======= END OF MOLDEN-FORMATTED INPUT FILE =======


        *************************************************************
        *                                                           *
        *  Thank you very much for using Q-Chem.  Have a nice day.  *
        *                                                           *
        *************************************************************


