n-62-29-18 10.66.29
Q-Chem Developer Version! Running on 10.66.29.*
                  Welcome to Q-Chem
     A Quantum Leap Into The Future Of Chemistry


 Q-Chem 5.1, Q-Chem, Inc., Pleasanton, CA (2018)

 Yihan Shao,  Zhengting Gan,  E. Epifanovsky,  A. T. B. Gilbert,  M. Wormit,  
 J. Kussmann,  A. W. Lange,  A. Behn,  Jia Deng,  Xintian Feng,  D. Ghosh,  
 M. Goldey,  P. R. Horn,  L. D. Jacobson,  I. Kaliman,  T. Kus,  A. Landau,  
 Jie Liu,  E. I. Proynov,  R. M. Richard,  R. P. Steele,  E. J. Sundstrom,  
 H. L. Woodcock III,  P. M. Zimmerman,  D. Zuev,  B. Albrecht,  E. Alguire,  
 S. A. Baeppler,  D. Barton,  Z. Benda,  Y. A. Bernard,  E. J. Berquist,  
 K. B. Bravaya,  H. Burton,  D. Casanova,  Chun-Min Chang,  Yunqing Chen,  
 A. Chien,  K. D. Closser,  M. P. Coons,  S. Coriani,  S. Dasgupta,  
 A. L. Dempwolff,  M. Diedenhofen,  Hainam Do,  R. G. Edgar,  Po-Tung Fang,  
 S. Faraji,  S. Fatehi,  Qingguo Feng,  K. D. Fenk,  J. Fosso-Tande,  
 Qinghui Ge,  A. Ghysels,  G. Gidofalvi,  J. Gomes,  J. Gonthier,  A. Gunina,  
 M. W. D. Hanson-Heine,  P. H. P. Harbach,  A. W. Hauser,  J. E. Herr,  
 E. G. Hohenstein,  Z. C. Holden,  Kerwin Hui,  T.-C. Jagau,  Hyunjun Ji,  
 B. Kaduk,  K. Khistyaev,  Jaehoon Kim,  P. Klunzinger,  K. Koh,  
 D. Kosenkov,  L. Koulias,  T. Kowalczyk,  C. M. Krauter,  A. Kunitsa,  
 Ka Un Lao,  A. Laurent,  K. V. Lawler,  Joonho Lee,  D. Lefrancois,  
 S. Lehtola,  D. S. Levine,  Yi-Pei Li,  You-Sheng Lin,  Fenglai Liu,  
 E. Livshits,  A. Luenser,  P. Manohar,  E. Mansoor,  S. F. Manzer,  
 Shan-Ping Mao,  Yuezhi Mao,  N. Mardirossian,  A. V. Marenich,  
 T. Markovich,  L. A. Martinez-Martinez,  S. A. Maurer,  N. J. Mayhall,  
 S. C. McKenzie,  J.-M. Mewes,  A. F. Morrison,  J. W. Mullinax,  K. Nanda,  
 T. S. Nguyen-Beck,  R. Olivares-Amaya,  J. A. Parkhill,  T. M. Perrine,  
 F. Plasser,  P. Pokhilko,  S. Prager,  A. Prociuk,  E. Ramos,  D. R. Rehn,  
 F. Rob,  M. Schneider,  N. Sergueev,  S. M. Sharada,  S. Sharma,  
 D. W. Small,  T. Stauch,  T. Stein,  Yu-Chuan Su,  A. J. W. Thom,  
 A. Tkatchenko,  T. Tsuchimochi,  N. M. Tubman,  L. Vogt,  M. L. Vidal,  
 O. Vydrov,  M. A. Watson,  J. Wenzel,  M. de Wergifosse,  T. A. Wesolowski,  
 A. White,  J. Witte,  A. Yamada,  Jun Yang,  K. Yao,  S. Yeganeh,  
 S. R. Yost,  Zhi-Qiang You,  A. Zech,  Igor Ying Zhang,  Xing Zhang,  
 Yan Zhao,  Ying Zhu,  B. R. Brooks,  G. K. L. Chan,  C. J. Cramer,  
 M. S. Gordon,  W. J. Hehre,  A. Klamt,  M. W. Schmidt,  C. D. Sherrill,  
 D. G. Truhlar,  A. Aspuru-Guzik,  R. Baer,  A. T. Bell,  N. A. Besley,  
 Jeng-Da Chai,  R. A. DiStasio Jr.,  A. Dreuw,  B. D. Dunietz,  
 T. R. Furlani,  Chao-Ping Hsu,  Yousung Jung,  Jing Kong,  D. S. Lambrecht,  
 WanZhen Liang,  C. Ochsenfeld,  V. A. Rassolov,  L. V. Slipchenko,  
 J. E. Subotnik,  T. Van Voorhis,  J. M. Herbert,  A. I. Krylov,  
 P. M. W. Gill,  M. Head-Gordon

 Contributors to earlier versions of Q-Chem not listed above: 
 R. D. Adamson,  B. Austin,  J. Baker,  G. J. O. Beran,  K. Brandhorst,  
 S. T. Brown,  E. F. C. Byrd,  A. K. Chakraborty,  C.-L. Cheng,  
 Siu Hung Chien,  D. M. Chipman,  D. L. Crittenden,  H. Dachsel,  
 R. J. Doerksen,  A. D. Dutoi,  L. Fusti-Molnar,  W. A. Goddard III,  
 A. Golubeva-Zadorozhnaya,  S. R. Gwaltney,  G. Hawkins,  A. Heyden,  
 S. Hirata,  G. Kedziora,  F. J. Keil,  C. Kelley,  Jihan Kim,  R. A. King,  
 R. Z. Khaliullin,  P. P. Korambath,  W. Kurlancheek,  A. M. Lee,  M. S. Lee,  
 S. V. Levchenko,  Ching Yeh Lin,  D. Liotard,  R. C. Lochan,  I. Lotan,  
 P. E. Maslen,  N. Nair,  D. P. O'Neill,  D. Neuhauser,  E. Neuscamman,  
 C. M. Oana,  R. Olson,  B. Peters,  R. Peverati,  P. A. Pieniazek,  
 Y. M. Rhee,  J. Ritchie,  M. A. Rohrdanz,  E. Rosta,  N. J. Russ,  
 H. F. Schaefer III,  N. E. Schultz,  N. Shenvi,  A. C. Simmonett,  A. Sodt,  
 D. Stuck,  K. S. Thanthiriwatte,  V. Vanovschi,  Tao Wang,  A. Warshel,  
 C. F. Williams,  Q. Wu,  X. Xu,  W. Zhang

 Please cite Q-Chem as follows:
 Y. Shao et al., Mol. Phys. 113, 184-215 (2015)
 DOI: 10.1080/00268976.2014.952696

 Q-Chem 5.1.0 for Intel X86 EM64T Linux

 Parts of Q-Chem use Armadillo 8.300.2 (Tropical Shenanigans).
 http://arma.sourceforge.net/

 Q-Chem begins on Mon Aug 13 18:59:43 2018  

Host: 
0

     Scratch files written to /work1/malop/qc_7112783.hnode2//

Checking the input file for inconsistencies... 	...done.

--------------------------------------------------------------
User input:
--------------------------------------------------------------
$comment 
NEXAFS VINYLFLUORIDE / 6-311++G**
Optimized geometry with CFour
$end

$molecule
0 1
F      -1.1529023119     0.2247766372     0.0000000000
C1      1.1793501171     0.1997294858     0.0000000000
C2      0.0163188564    -0.4355681094     0.0000000000
H      -0.1189530186    -1.5078996853     0.0000000000
H       1.2308254859     1.2785611362     0.0000000000
H       2.0902344982    -0.3786194440     0.0000000000
$end

$rem
!    input_bohr = true
    jobtype = sp
    method = eom-ccsd
    cvs_ee_singlets    [20,13]
    basis = 6-311++G**
    n_frozen_core = fc 
    cc_trans_prop = true
   EOM_DAVIDSON_MAXVECTORS = 1000
   eom_preconv_singles = true
   eom_shift = 10470
   eom_davidson_convergence = 4   !as we discussed, this is good for core
   use_libqints = 1   !use new int library (will be def in trunk)
   thresh = 14   !this already should be default, but just in case
   scf_convergence = 13   !v. tight scf convergence, to reduce noise
   cc_convergence = 12   !tight CC, for the same reason
   basis_lin_dep_thresh = 8  !default is 6, use smaller, just in case
   cc_memory = 100000
   EOM_DAVIDSON_MAX_ITER 200
$end
--------------------------------------------------------------
 ----------------------------------------------------------------
             Standard Nuclear Orientation (Angstroms)
    I     Atom           X                Y                Z
 ----------------------------------------------------------------
    1      F       1.1529023119     0.2247766372    -0.0000000000
    2      C      -1.1793501171     0.1997294858    -0.0000000000
    3      C      -0.0163188564    -0.4355681094     0.0000000000
    4      H       0.1189530185    -1.5078996853     0.0000000000
    5      H      -1.2308254859     1.2785611362    -0.0000000000
    6      H      -2.0902344982    -0.3786194440     0.0000000000
 ----------------------------------------------------------------
 Molecular Point Group                 Cs    NOp =  2
 Largest Abelian Subgroup              Cs    NOp =  2
 Nuclear Repulsion Energy =    67.5482146698 hartrees
 There are       12 alpha and       12 beta electrons
 Requested basis set is 6-311++G(d,p)
 There are 33 shells and 87 basis functions
MEM_TOTAL is adjusted to CC_MEMORY + MEM_STATIC!
 Total memory of 100192MB is distributed as follows: 
   QALLOC including MEM_STATIC uses 192MB
   MEM_STATIC is set to 192MB
   CCMAN JOB total memory use is  100000MB
 Warning: actual memory use might exceed 100192MB

 Total QAlloc Memory Limit    192 MB
 Mega-Array Size       188 MB
 MEM_STATIC part       192 MB

                       Distance Matrix (Angstroms)
             F (  1)   C (  2)   C (  3)   H (  4)   H (  5)
   C (  2)  2.332387
   C (  3)  1.342808  1.325234
   H (  4)  2.017726  2.145131  1.080830
   H (  5)  2.606266  1.080059  2.100777  3.096170
   H (  6)  3.298791  1.078980  2.074697  2.481085  1.866770
 
 A cutoff of  1.0D-14 yielded    559 shell pairs
 There are      3934 function pairs (      4216 Cartesian)
 
 -------------------------------------------------------
 OpenMP Integral Computing Module                       
 Release: version 1.0, May 2013, Q-Chem Inc. Pittsburgh 
 -------------------------------------------------------
 Integral Job Info:
 Integral job number is                      11
 Integral operator is                         1
 short-range coefficients                     0
 long-range coefficients              100000000
 Omega coefficients                           0
 if combine SR and LR in K                    0
 Integral screening is                        0
 Integral computing path is                   2
 max size of driver memory is            800000
 size of driver memory is                593474
 size of scratch memory is              2361544
 max col of scratch BK array               1296
 max len of scratch array in speh3          155
 max len of scratch index in speh4           18
 max int batch size is                      520
 min int batch size is                       52
 fixed nKL is                                52
 max L of basis functions is                  2
 order of int derivative is                   0
 number of shells is                         33
 number of basis is                          90
 number of cartesian basis is                90
 number of contracted shell pairs           559
 number of primitive shell pairs           1601
 maxK2 (contraction) of shell pair           36
 max number of K2 of shell pair               1
 max number of CS2 of shell pair             82
 max number of PS2 of shell pair            174
 mem total for path MDJ                  511554
 -------------------------------------------------------
 Smallest overlap matrix eigenvalue = 1.26E-04

 Scale SEOQF with 1.000000e-01/1.000000e-01/1.000000e-01

 Standard Electronic Orientation quadrupole field applied
 Nucleus-field energy     =     0.0000000014 hartrees
 Guess from superposition of atomic densities
 Warning:  Energy on first SCF cycle will be non-variational
 SAD guess density has 24.000000 electrons

 -----------------------------------------------------------------------
  General SCF calculation program by
  Eric Jon Sundstrom, Paul Horn, Yuezhi Mao, Dmitri Zuev, Alec White,
  David Stuck, Shaama M.S., Shane Yost, Joonho Lee, David Small,
  Daniel Levine, Susi Lehtola, Hugh Burton, Evgeny Epifanovsky
 -----------------------------------------------------------------------
 Hartree-Fock
 A restricted SCF calculation will be
 performed using DIIS
 SCF converges when DIIS error is below 1.0e-13
 ---------------------------------------
  Cycle       Energy         DIIS error
 ---------------------------------------
    1    -177.5071171334      6.50e-02  
    2    -176.8894812042      6.89e-03  
    3    -176.9276658298      3.48e-03  
    4    -176.9358686501      7.40e-04  
    5    -176.9366096205      1.59e-04  
    6    -176.9366534677      6.88e-05  
    7    -176.9366606967      2.33e-05  
    8    -176.9366623994      7.45e-06  
    9    -176.9366625340      1.61e-06  
   10    -176.9366625393      5.78e-07  
   11    -176.9366625401      1.32e-07  
   12    -176.9366625402      2.47e-08  
   13    -176.9366625402      3.54e-09  
   14    -176.9366625402      5.67e-10  
   15    -176.9366625402      1.18e-10  
   16    -176.9366625402      2.50e-11  
   17    -176.9366625402      3.81e-12  
   18    -176.9366625402      5.94e-13  
   19    -176.9366625402      1.31e-13  
   20    -176.9366625402      4.08e-14  Convergence criterion met
 ---------------------------------------
 SCF time:   CPU 30.55s  wall 3.00s 
 SCF   energy in the final basis set =     -176.9366625402


 ------------------------------------------------------------------------------

   CCMAN2: suite of methods based on coupled cluster
           and equation of motion theories.

   Components:
   * libvmm-1.3-trunk
     by Evgeny Epifanovsky, Ilya Kaliman.
   * libtensor-2.5-trunk
     by Evgeny Epifanovsky, Michael Wormit, Dmitry Zuev, Sam Manzer, 
        Ilya Kaliman.
   * libcc-2.5-trunk
     by Evgeny Epifanovsky, Arik Landau, Tomasz Kus, Kirill Khistyaev, 
        Dmitry Zuev, Prashant Manohar, Xintian Feng, Anna Krylov, 
        Matthew Goldey, Alec White, Thomas Jagau, Kaushik Nanda, 
        Anastasia Gunina, Alexander Kunitsa, Joonho Lee.

   CCMAN original authors:
   Anna I. Krylov, C. David Sherrill, Steven R. Gwaltney,
   Edward F. C. Byrd (2000)
   Sergey V. Levchenko, Lyudmila V. Slipchenko, Tao Wang,
   Ana-Maria C. Cristian (2003)
   Piotr A. Pieniazek, C. Melania Oana, Evgeny Epifanovsky (2007)
   Prashant Manohar (2009)

 ------------------------------------------------------------------------------


 Calculation will run on 10 cores with 100000MB of RAM.

 
 Alpha MOs, Restricted
 -- Occupied --                  
-26.310 -11.332 -11.240  -1.629  -1.055  -0.840  -0.740  -0.691
  1 A'    2 A'    3 A'    4 A'    5 A'    6 A'    7 A'    1 A"                 
 -0.686  -0.591  -0.562  -0.386
  8 A'    9 A'   10 A'    2 A"                                                 
 -- Virtual --                   
  0.046   0.059   0.067   0.109   0.121   0.122   0.139   0.175
 11 A'   12 A'   13 A'    3 A"   14 A'    4 A"   15 A'   16 A'                 
  0.180   0.205   0.214   0.216   0.267   0.287   0.325   0.376
 17 A'   18 A'    5 A"   19 A'   20 A'   21 A'   22 A'    6 A"                 
  0.378   0.455   0.475   0.501   0.547   0.636   0.647   0.700
 23 A'   24 A'   25 A'   26 A'   27 A'   28 A'   29 A'   30 A'                 
  0.702   0.784   0.839   0.902   0.916   0.946   1.010   1.083
  7 A"    8 A"   31 A'   32 A'   33 A'   34 A'   35 A'   36 A'                 
  1.250   1.311   1.457   1.569   1.644   1.660   1.670   1.733
  9 A"   10 A"   11 A"   37 A'   38 A'   39 A'   12 A"   40 A'                 
  1.807   1.842   1.904   1.947   2.030   2.142   2.210   2.310
 41 A'   42 A'   13 A"   43 A'   14 A"   44 A'   45 A'   15 A"                 
  2.342   2.401   2.432   2.554   2.740   2.863   2.916   2.981
 46 A'   16 A"   47 A'   48 A'   49 A'   50 A'   51 A'   52 A'                 
  3.044   3.064   3.250   3.363   3.580   3.873   4.142   4.225
 53 A'   17 A"   18 A"   54 A'   55 A'   56 A'   57 A'   19 A"                 
  4.248   4.424   4.443   4.590   5.310   6.925   7.004   7.324
 58 A'   59 A'   20 A"   60 A'   61 A'   21 A"   62 A'   63 A'                 
 24.828  25.409  68.750
 64 A'   65 A'   66 A'                                                         
 
 Beta MOs, Restricted
 -- Occupied --                  
-26.310 -11.332 -11.240  -1.629  -1.055  -0.840  -0.740  -0.691
  1 A'    2 A'    3 A'    4 A'    5 A'    6 A'    7 A'    1 A"                 
 -0.686  -0.591  -0.562  -0.386
  8 A'    9 A'   10 A'    2 A"                                                 
 -- Virtual --                   
  0.046   0.059   0.067   0.109   0.121   0.122   0.139   0.175
 11 A'   12 A'   13 A'    3 A"   14 A'    4 A"   15 A'   16 A'                 
  0.180   0.205   0.214   0.216   0.267   0.287   0.325   0.376
 17 A'   18 A'    5 A"   19 A'   20 A'   21 A'   22 A'    6 A"                 
  0.378   0.455   0.475   0.501   0.547   0.636   0.647   0.700
 23 A'   24 A'   25 A'   26 A'   27 A'   28 A'   29 A'   30 A'                 
  0.702   0.784   0.839   0.902   0.916   0.946   1.010   1.083
  7 A"    8 A"   31 A'   32 A'   33 A'   34 A'   35 A'   36 A'                 
  1.250   1.311   1.457   1.569   1.644   1.660   1.670   1.733
  9 A"   10 A"   11 A"   37 A'   38 A'   39 A'   12 A"   40 A'                 
  1.807   1.842   1.904   1.947   2.030   2.142   2.210   2.310
 41 A'   42 A'   13 A"   43 A'   14 A"   44 A'   45 A'   15 A"                 
  2.342   2.401   2.432   2.554   2.740   2.863   2.916   2.981
 46 A'   16 A"   47 A'   48 A'   49 A'   50 A'   51 A'   52 A'                 
  3.044   3.064   3.250   3.363   3.580   3.873   4.142   4.225
 53 A'   17 A"   18 A"   54 A'   55 A'   56 A'   57 A'   19 A"                 
  4.248   4.424   4.443   4.590   5.310   6.925   7.004   7.324
 58 A'   59 A'   20 A"   60 A'   61 A'   21 A"   62 A'   63 A'                 
 24.828  25.409  68.750
 64 A'   65 A'   66 A'                                                         

 Occupation and symmetry of molecular orbitals

 Point group: Cs (2 irreducible representations).

                           A'   A"    All 
 ------------------------------------------
 All molecular orbitals:
  - Alpha                  66   21    87  
  - Beta                   66   21    87  
 ------------------------------------------
 Alpha orbitals:
  - Frozen occupied        3    0     3   
  - Active occupied        7    2     9   
  - Active virtual         56   19    75  
  - Frozen virtual         0    0     0   
 ------------------------------------------
 Beta orbitals:
  - Frozen occupied        3    0     3   
  - Active occupied        7    2     9   
  - Active virtual         56   19    75  
  - Frozen virtual         0    0     0   
 ------------------------------------------

 Import integrals:   CPU 0.00 s  wall 0.00 s

 Import integrals:   CPU 13.39 s  wall 1.72 s

 MP2 amplitudes:   CPU 0.23 s  wall 0.16 s

           CCSD T amplitudes will be solved using DIIS.

           Start     Size      MaxIter   EConv     TConv     
           3         7         100       1.00e-12  1.00e-11  
 ------------------------------------------------------------------------------
           Energy (a.u.)   Ediff      Tdiff       Comment
 ------------------------------------------------------------------------------
          -177.42527230                           
     1    -177.43121620   5.94e-03   6.17e-01     
     2    -177.44474611   1.35e-02   7.48e-02     
     3    -177.44550138   7.55e-04   2.95e-02     
     4    -177.44700173   1.50e-03   1.07e-02     Switched to DIIS steps.
     5    -177.44758592   5.84e-04   9.17e-03     
     6    -177.44760205   1.61e-05   1.55e-03     
     7    -177.44759692   5.13e-06   6.66e-04     
     8    -177.44759605   8.66e-07   1.06e-04     
     9    -177.44759618   1.25e-07   4.18e-05     
    10    -177.44759618   6.30e-09   1.06e-05     
    11    -177.44759619   9.37e-09   3.50e-06     
    12    -177.44759620   3.97e-09   1.62e-06     
    13    -177.44759619   3.48e-09   5.14e-07     
    14    -177.44759619   9.20e-10   1.69e-07     
    15    -177.44759619   7.56e-11   5.82e-08     
    16    -177.44759619   5.11e-10   2.75e-08     
    17    -177.44759619   7.84e-11   1.08e-08     
    18    -177.44759619   3.98e-11   4.49e-09     
    19    -177.44759619   1.95e-11   1.58e-09     
    20    -177.44759619   3.08e-13   6.00e-10     
    21    -177.44759619   5.44e-13   2.33e-10     
    22    -177.44759619   6.40e-13   9.14e-11     
    23    -177.44759619   1.54e-13   3.79e-11     
    24    -177.44759619   3.32e-13   1.45e-11     
    25    -177.44759619   2.61e-14   6.34e-12     
 ------------------------------------------------------------------------------
          -177.44759619                           CCSD T converged.

 SCF energy                 = -176.93666254
 MP2 energy                 = -177.42527230
 CCSD correlation energy     =   -0.51093365
 CCSD total energy           = -177.44759619

 CCSD  T1^2 = 0.0059  T2^2 = 0.1645  Leading amplitudes:

 Amplitude    Orbitals with energies
 -0.0213       2 (A") A                  ->    7 (A") A                   
              -0.3861                          0.7018                     
 -0.0213       2 (A") B                  ->    7 (A") B                   
              -0.3861                          0.7018                     
 -0.0180       1 (A") A                  ->    3 (A") A                   
              -0.6905                          0.1085                     
 -0.0180       1 (A") B                  ->    3 (A") B                   
              -0.6905                          0.1085                     

 Amplitude    Orbitals with energies
 -0.0807       2 (A") A      2 (A") B    ->    5 (A") A      5 (A") B     
              -0.3861       -0.3861            0.2142        0.2142       
  0.0807       2 (A") A      2 (A") B    ->    5 (A") B      5 (A") A     
              -0.3861       -0.3861            0.2142        0.2142       
  0.0807       2 (A") B      2 (A") A    ->    5 (A") A      5 (A") B     
              -0.3861       -0.3861            0.2142        0.2142       
 -0.0807       2 (A") B      2 (A") A    ->    5 (A") B      5 (A") A     
              -0.3861       -0.3861            0.2142        0.2142       

 Computing CCSD intermediates for later calculations
 Finished.

           CCSD Lambda amplitudes will be solved using DIIS.
           Start     Size      MaxIter   EConv     LConv     
           3         7         100       1.00e-12  1.00e-11  
 ------------------------------------------------------------------------------
            Enorm      Ldiff       Comment
 ------------------------------------------------------------------------------
     1     3.66e-02   2.32e-02     
     2     1.08e-02   4.90e-03     
     3     4.07e-03   7.02e-04     
     4     2.06e-03   6.97e-04     Switched to DIIS steps.
     5     5.06e-04   3.86e-04     
     6     2.22e-04   6.81e-05     
     7     5.93e-05   1.43e-05     
     8     2.41e-05   1.04e-06     
     9     8.80e-06   2.36e-06     
    10     3.30e-06   9.54e-07     
    11     1.23e-06   3.02e-07     
    12     3.50e-07   1.38e-07     
    13     1.34e-07   2.36e-08     
    14     4.88e-08   1.35e-08     
    15     1.76e-08   6.61e-09     
    16     8.11e-09   2.16e-09     
    17     3.31e-09   1.09e-09     
    18     1.49e-09   2.19e-10     
    19     6.02e-10   8.10e-12     
    20     2.54e-10   3.40e-11     
    21     1.18e-10   2.03e-11     
    22     4.23e-11   1.23e-11     
    23     1.66e-11   3.96e-12     
    24     6.85e-12   1.27e-12     
    25     2.32e-12   7.30e-13     
    26     9.99e-13   1.71e-13     
 ------------------------------------------------------------------------------
                                   CCSD Lambda converged.

 CCSD calculation:   CPU 207.46 s  wall 35.23 s

        Solving for CVS-EOMEE-CCSD A' singlet states.

       EOMEE-CCSD-SINGLES right amplitudes will be solved using Davidson.
        Amplitudes will be solved using shifted  algorithm.
     Hard-coded thresholds: 
     LinDepThresh=1.00e-15  NormThresh=1.00e-06  ReorthogonThresh=1.00e-02

      Roots     MaxVec    MaxIter   Precond   Conv      Shift    
      20        1000      200       1         1.00e-04  1.05e+01  
 ------------------------------------------------------------------------------
      Iter ConvRoots NVecs ResNorm Current eigenvalues (eV)
 ------------------------------------------------------------------------------
      0    0      20    6.43e-03   301.3716   302.3734   303.3432   304.0957   304.3645   304.4500   304.9530   305.5162   305.6235   305.7711   305.7774   306.6632   306.7744   306.8987   307.0334   307.0618   307.8200   308.4608   309.1570   309.3005   
      1    0      40    3.70e-02   300.5363   301.0024   303.1430   303.3825   303.6278   304.1858   304.3464   304.6440   304.8451   305.0689   305.5150   306.2073   306.4386   306.6096   306.7325   306.8800   307.4791   308.0706   308.5713   309.0935   
      2    3      60    2.98e-03   300.2632   300.4977   300.9816   302.7673   303.0750*  303.3805   303.9239   304.1848   304.7959*  304.9550*  305.2773   305.8660   306.1737   306.4182   306.4778   306.8171   306.8665   307.2421   307.7375   307.9126   
      3    13     77    1.02e-04   300.2574*  300.4961*  300.8729   302.7296   303.0746*  303.3723*  303.9194*  304.1832*  304.7955*  304.9544*  305.2706*  305.8506*  306.1533   306.4052   306.4700*  306.8110*  306.8566*  307.1851   307.7177   307.7239   
      4    20     84    1.41e-06   300.2574*  300.4961*  300.8724*  302.7292*  303.0746*  303.3723*  303.9194*  304.1831*  304.7955*  304.9544*  305.2706*  305.8505*  306.1531*  306.4049*  306.4699*  306.8110*  306.8564*  307.1845*  307.7170*  307.7226*  

     Davidson procedure converged

        CVS-EOMEE-CCSD/MP2 right amplitudes will be solved using Davidson.
        Amplitudes will be solved using shifted  algorithm.
     Hard-coded thresholds: 
     LinDepThresh=1.00e-15  NormThresh=1.00e-06  ReorthogonThresh=1.00e-02

      Roots     MaxVec    MaxIter   Precond   Conv      Shift    
      20        1000      200       1         1.00e-04  1.05e+01  
 ------------------------------------------------------------------------------
      Iter ConvRoots NVecs ResNorm Current eigenvalues (eV)
 ------------------------------------------------------------------------------
      0    0      20    1.86e+00   300.2574   300.4961   300.8724   302.7292   303.0746   303.3723   303.9194   304.1831   304.7955   304.9544   305.2706   305.8505   306.1531   306.4049   306.4699   306.8110   306.8564   307.1845   307.7170   307.7226   
      1    0      40    1.11e+00   297.6881   297.9740   298.5264   300.1842   300.2054   300.5261   301.0808   301.3251   301.9986   302.1291   302.4114   302.9822   303.2777   303.5426   303.6049   303.9258   304.0596   304.3840   304.8413   304.9102   
      2    0      60    5.71e-02   288.6594   289.3608   289.9916   290.4402   291.0896   291.2166   291.6365   292.0731   292.1934   292.4868   292.7531   292.8689   293.1081   293.2074   293.6893   293.9064   294.5863   294.8187   295.2134   295.7981   
      3    0      80    1.07e-02   288.2310   288.8906   289.5563   289.9789   290.6752   290.7320   291.2062   291.6046   291.7246   291.9527   292.1966   292.4081   292.6343   292.7751   293.2683   293.3669   294.1166   294.2238   294.6719   294.9999   
      4    0      100   2.48e-03   288.1946   288.8314   289.5280   289.9118   290.6491   290.6630   291.1564   291.5213   291.6860   291.8710   292.1045   292.3660   292.5883   292.7466   293.2431   293.2901   294.0431   294.1313   294.5731   294.6603   
      5    0      120   1.57e-03   288.1864   288.8156   289.5195   289.8881   290.6389   290.6462   291.1413   291.4952   291.6688   291.8437   292.0786   292.3483   292.5659   292.7369   293.2345   293.2592   294.0042   294.1045   294.3821   294.5374   
      6    5      140   7.05e-04   288.1848*  288.8104   289.5177*  289.8783   290.6349   290.6428*  291.1339   291.4835   291.6626   291.8325   292.0695   292.3400   292.5543   292.7328*  293.2312*  293.2487   293.9783   294.0932   294.2107   294.5096   
Found complex roots...
      7    10     155   2.83e-04   288.1845*  288.8096*  289.5175*  289.8773*  290.6344*  290.6425*  291.1326*  291.4793   291.6613*  291.8286   292.0668   292.3387   292.5514   292.7325*  293.2308*  293.2465   293.9658   294.0886   294.1507   294.4855   
Found complex roots...
      8    16     165   9.64e-05   288.1845*  288.8097*  289.5175*  289.8772*  290.6343*  290.6425*  291.1323*  291.4787*  291.6613*  291.8277*  292.0659*  292.3378*  292.5506*  292.7324*  293.2306*  293.2457*  293.9622   294.0846   294.1362   294.4719   
Found complex roots...
      9    18     169   4.22e-05   288.1845*  288.8097*  289.5175*  289.8772*  290.6343*  290.6425*  291.1322*  291.4783*  291.6613*  291.8277*  292.0659*  292.3377*  292.5504*  292.7324*  293.2305*  293.2455*  293.9587*  294.0813*  294.1303   294.4637   
      10   19     171   3.13e-05   288.1845*  288.8097*  289.5175*  289.8772*  290.6343*  290.6425*  291.1322*  291.4781*  291.6613*  291.8277*  292.0659*  292.3377*  292.5504*  292.7324*  293.2305*  293.2455*  293.9587*  294.0812*  294.1296*  294.4608   
      11   20     172   2.56e-05   288.1845*  288.8097*  289.5175*  289.8772*  290.6343*  290.6425*  291.1322*  291.4782*  291.6612*  291.8277*  292.0659*  292.3377*  292.5504*  292.7324*  293.2305*  293.2455*  293.9586*  294.0813*  294.1296*  294.4601*  

     Davidson procedure converged

 EOMEE transition 1/A'
 Total energy = -166.85700940 a.u.  Excitation energy = 288.1845 eV.
 R0^2 = 0.0000  R1^2 = 0.8145  R2_CCVV^2 = 0.0012  R2_COVV^2 = 0.0921  Res^2 = 4.02e-06
 Conv-d = yes

 Amplitude    Transitions between orbitals
 -0.5416       3 (A') A                  ->    11 (A') A                  
 -0.5416       3 (A') B                  ->    11 (A') B                  
  0.2125       3 (A') A                  ->    20 (A') A                  
  0.2125       3 (A') B                  ->    20 (A') B                  
  0.1792       3 (A') A                  ->    12 (A') A                  
  0.1792       3 (A') B                  ->    12 (A') B                  
 -0.1008       3 (A') A                  ->    17 (A') A                  
 -0.1008       3 (A') B                  ->    17 (A') B                  

              Summary of significant orbitals:

               Number  Type             Irrep      Energy
               3       Occ  Alpha       3 (A')    -11.2400
               3       Occ  Beta        3 (A')    -11.2400
               13      Vir  Alpha      11 (A')      0.0456
               14      Vir  Alpha      12 (A')      0.0589
               21      Vir  Alpha      17 (A')      0.1802
               25      Vir  Alpha      20 (A')      0.2666
               13      Vir  Beta       11 (A')      0.0456
               14      Vir  Beta       12 (A')      0.0589
               21      Vir  Beta       17 (A')      0.1802
               25      Vir  Beta       20 (A')      0.2666


 EOMEE transition 2/A'
 Total energy = -166.83403562 a.u.  Excitation energy = 288.8097 eV.
 R0^2 = 0.0000  R1^2 = 0.8156  R2_CCVV^2 = 0.0012  R2_COVV^2 = 0.0916  Res^2 = 5.35e-06
 Conv-d = yes

 Amplitude    Transitions between orbitals
 -0.4546       3 (A') A                  ->    12 (A') A                  
 -0.4546       3 (A') B                  ->    12 (A') B                  
 -0.2576       3 (A') A                  ->    13 (A') A                  
 -0.2576       3 (A') B                  ->    13 (A') B                  
  0.2343       3 (A') A                  ->    21 (A') A                  
  0.2343       3 (A') B                  ->    21 (A') B                  
 -0.1646       3 (A') A                  ->    18 (A') A                  
 -0.1646       3 (A') B                  ->    18 (A') B                  
  0.1121       3 (A') A                  ->    14 (A') A                  
  0.1121       3 (A') B                  ->    14 (A') B                  
 -0.1042       3 (A') A                  ->    11 (A') A                  
 -0.1042       3 (A') B                  ->    11 (A') B                  

              Summary of significant orbitals:

               Number  Type             Irrep      Energy
               3       Occ  Alpha       3 (A')    -11.2400
               3       Occ  Beta        3 (A')    -11.2400
               13      Vir  Alpha      11 (A')      0.0456
               14      Vir  Alpha      12 (A')      0.0589
               15      Vir  Alpha      13 (A')      0.0672
               17      Vir  Alpha      14 (A')      0.1208
               22      Vir  Alpha      18 (A')      0.2053
               26      Vir  Alpha      21 (A')      0.2869
               13      Vir  Beta       11 (A')      0.0456
               14      Vir  Beta       12 (A')      0.0589
               15      Vir  Beta       13 (A')      0.0672
               17      Vir  Beta       14 (A')      0.1208
               22      Vir  Beta       18 (A')      0.2053
               26      Vir  Beta       21 (A')      0.2869


 EOMEE transition 3/A'
 Total energy = -166.80802425 a.u.  Excitation energy = 289.5175 eV.
 R0^2 = 0.0000  R1^2 = 0.8052  R2_CCVV^2 = 0.0012  R2_COVV^2 = 0.0968  Res^2 = 7.19e-06
 Conv-d = yes

 Amplitude    Transitions between orbitals
  0.4985       3 (A') A                  ->    13 (A') A                  
  0.4985       3 (A') B                  ->    13 (A') B                  
 -0.2428       3 (A') A                  ->    12 (A') A                  
 -0.2428       3 (A') B                  ->    12 (A') B                  
  0.1478       3 (A') A                  ->    18 (A') A                  
  0.1478       3 (A') B                  ->    18 (A') B                  
  0.1180       3 (A') A                  ->    15 (A') A                  
  0.1180       3 (A') B                  ->    15 (A') B                  
 -0.1157       3 (A') A                  ->    11 (A') A                  
 -0.1157       3 (A') B                  ->    11 (A') B                  
 -0.1109       3 (A') A                  ->    17 (A') A                  
 -0.1109       3 (A') B                  ->    17 (A') B                  
 -0.1020       3 (A') A                  ->    19 (A') A                  
 -0.1020       3 (A') B                  ->    19 (A') B                  

              Summary of significant orbitals:

               Number  Type             Irrep      Energy
               3       Occ  Alpha       3 (A')    -11.2400
               3       Occ  Beta        3 (A')    -11.2400
               13      Vir  Alpha      11 (A')      0.0456
               14      Vir  Alpha      12 (A')      0.0589
               15      Vir  Alpha      13 (A')      0.0672
               19      Vir  Alpha      15 (A')      0.1393
               21      Vir  Alpha      17 (A')      0.1802
               22      Vir  Alpha      18 (A')      0.2053
               24      Vir  Alpha      19 (A')      0.2159
               13      Vir  Beta       11 (A')      0.0456
               14      Vir  Beta       12 (A')      0.0589
               15      Vir  Beta       13 (A')      0.0672
               19      Vir  Beta       15 (A')      0.1393
               21      Vir  Beta       17 (A')      0.1802
               22      Vir  Beta       18 (A')      0.2053
               24      Vir  Beta       19 (A')      0.2159


 EOMEE transition 4/A'
 Total energy = -166.79480563 a.u.  Excitation energy = 289.8772 eV.
 R0^2 = 0.0000  R1^2 = 0.8032  R2_CCVV^2 = 0.0012  R2_COVV^2 = 0.0978  Res^2 = 1.13e-05
 Conv-d = yes

 Amplitude    Transitions between orbitals
 -0.4696       3 (A') A                  ->    14 (A') A                  
 -0.4696       3 (A') B                  ->    14 (A') B                  
 -0.1974       3 (A') A                  ->    21 (A') A                  
 -0.1974       3 (A') B                  ->    21 (A') B                  
  0.1916       3 (A') A                  ->    22 (A') A                  
  0.1916       3 (A') B                  ->    22 (A') B                  
 -0.1598       3 (A') A                  ->    12 (A') A                  
 -0.1598       3 (A') B                  ->    12 (A') B                  
  0.1421       3 (A') A                  ->    16 (A') A                  
  0.1421       3 (A') B                  ->    16 (A') B                  
  0.1288       3 (A') A                  ->    15 (A') A                  
  0.1288       3 (A') B                  ->    15 (A') B                  
  0.1235       3 (A') A                  ->    23 (A') A                  
  0.1235       3 (A') B                  ->    23 (A') B                  

              Summary of significant orbitals:

               Number  Type             Irrep      Energy
               3       Occ  Alpha       3 (A')    -11.2400
               3       Occ  Beta        3 (A')    -11.2400
               14      Vir  Alpha      12 (A')      0.0589
               17      Vir  Alpha      14 (A')      0.1208
               19      Vir  Alpha      15 (A')      0.1393
               20      Vir  Alpha      16 (A')      0.1755
               26      Vir  Alpha      21 (A')      0.2869
               27      Vir  Alpha      22 (A')      0.3253
               29      Vir  Alpha      23 (A')      0.3781
               14      Vir  Beta       12 (A')      0.0589
               17      Vir  Beta       14 (A')      0.1208
               19      Vir  Beta       15 (A')      0.1393
               20      Vir  Beta       16 (A')      0.1755
               26      Vir  Beta       21 (A')      0.2869
               27      Vir  Beta       22 (A')      0.3253
               29      Vir  Beta       23 (A')      0.3781


 EOMEE transition 5/A'
 Total energy = -166.76698182 a.u.  Excitation energy = 290.6343 eV.
 R0^2 = 0.0000  R1^2 = 0.8149  R2_CCVV^2 = 0.0012  R2_COVV^2 = 0.0920  Res^2 = 7.44e-06
 Conv-d = yes

 Amplitude    Transitions between orbitals
  0.4197       2 (A') A                  ->    11 (A') A                  
  0.4197       2 (A') B                  ->    11 (A') B                  
  0.2807       3 (A') A                  ->    15 (A') A                  
  0.2807       3 (A') B                  ->    15 (A') B                  
  0.1611       2 (A') A                  ->    12 (A') A                  
  0.1611       2 (A') B                  ->    12 (A') B                  
  0.1481       2 (A') A                  ->    17 (A') A                  
  0.1481       2 (A') B                  ->    17 (A') B                  
 -0.1410       2 (A') A                  ->    21 (A') A                  
 -0.1410       2 (A') B                  ->    21 (A') B                  
 -0.1409       2 (A') A                  ->    20 (A') A                  
 -0.1409       2 (A') B                  ->    20 (A') B                  
 -0.1106       2 (A') A                  ->    14 (A') A                  
 -0.1106       2 (A') B                  ->    14 (A') B                  

              Summary of significant orbitals:

               Number  Type             Irrep      Energy
               2       Occ  Alpha       2 (A')    -11.3324
               3       Occ  Alpha       3 (A')    -11.2400
               2       Occ  Beta        2 (A')    -11.3324
               3       Occ  Beta        3 (A')    -11.2400
               13      Vir  Alpha      11 (A')      0.0456
               14      Vir  Alpha      12 (A')      0.0589
               17      Vir  Alpha      14 (A')      0.1208
               19      Vir  Alpha      15 (A')      0.1393
               21      Vir  Alpha      17 (A')      0.1802
               25      Vir  Alpha      20 (A')      0.2666
               26      Vir  Alpha      21 (A')      0.2869
               13      Vir  Beta       11 (A')      0.0456
               14      Vir  Beta       12 (A')      0.0589
               17      Vir  Beta       14 (A')      0.1208
               19      Vir  Beta       15 (A')      0.1393
               21      Vir  Beta       17 (A')      0.1802
               25      Vir  Beta       20 (A')      0.2666
               26      Vir  Beta       21 (A')      0.2869


 EOMEE transition 6/A'
 Total energy = -166.76668125 a.u.  Excitation energy = 290.6425 eV.
 R0^2 = 0.0000  R1^2 = 0.8087  R2_CCVV^2 = 0.0012  R2_COVV^2 = 0.0951  Res^2 = 2.12e-05
 Conv-d = yes

 Amplitude    Transitions between orbitals
 -0.4971       3 (A') A                  ->    15 (A') A                  
 -0.4971       3 (A') B                  ->    15 (A') B                  
  0.2324       2 (A') A                  ->    11 (A') A                  
  0.2324       2 (A') B                  ->    11 (A') B                  
 -0.1031       3 (A') A                  ->    11 (A') A                  
 -0.1031       3 (A') B                  ->    11 (A') B                  

              Summary of significant orbitals:

               Number  Type             Irrep      Energy
               2       Occ  Alpha       2 (A')    -11.3324
               3       Occ  Alpha       3 (A')    -11.2400
               2       Occ  Beta        2 (A')    -11.3324
               3       Occ  Beta        3 (A')    -11.2400
               13      Vir  Alpha      11 (A')      0.0456
               19      Vir  Alpha      15 (A')      0.1393
               13      Vir  Beta       11 (A')      0.0456
               19      Vir  Beta       15 (A')      0.1393


 EOMEE transition 7/A'
 Total energy = -166.74868537 a.u.  Excitation energy = 291.1322 eV.
 R0^2 = 0.0000  R1^2 = 0.8110  R2_CCVV^2 = 0.0012  R2_COVV^2 = 0.0939  Res^2 = 1.49e-05
 Conv-d = yes

 Amplitude    Transitions between orbitals
  0.4801       3 (A') A                  ->    16 (A') A                  
  0.4801       3 (A') B                  ->    16 (A') B                  
  0.3039       3 (A') A                  ->    20 (A') A                  
  0.3039       3 (A') B                  ->    20 (A') B                  
  0.1586       3 (A') A                  ->    17 (A') A                  
  0.1586       3 (A') B                  ->    17 (A') B                  
  0.1175       3 (A') A                  ->    13 (A') A                  
  0.1175       3 (A') B                  ->    13 (A') B                  
 -0.1035       3 (A') A                  ->    22 (A') A                  
 -0.1035       3 (A') B                  ->    22 (A') B                  

              Summary of significant orbitals:

               Number  Type             Irrep      Energy
               3       Occ  Alpha       3 (A')    -11.2400
               3       Occ  Beta        3 (A')    -11.2400
               15      Vir  Alpha      13 (A')      0.0672
               20      Vir  Alpha      16 (A')      0.1755
               21      Vir  Alpha      17 (A')      0.1802
               25      Vir  Alpha      20 (A')      0.2666
               27      Vir  Alpha      22 (A')      0.3253
               15      Vir  Beta       13 (A')      0.0672
               20      Vir  Beta       16 (A')      0.1755
               21      Vir  Beta       17 (A')      0.1802
               25      Vir  Beta       20 (A')      0.2666
               27      Vir  Beta       22 (A')      0.3253


 EOMEE transition 8/A'
 Total energy = -166.73597093 a.u.  Excitation energy = 291.4781 eV.
 R0^2 = 0.0000  R1^2 = 0.8284  R2_CCVV^2 = 0.0013  R2_COVV^2 = 0.0851  Res^2 = 5.61e-06
 Conv-d = yes

 Amplitude    Transitions between orbitals
 -0.4045       2 (A') A                  ->    14 (A') A                  
 -0.4045       2 (A') B                  ->    14 (A') B                  
  0.2363       2 (A') A                  ->    22 (A') A                  
  0.2363       2 (A') B                  ->    22 (A') B                  
  0.2270       2 (A') A                  ->    23 (A') A                  
  0.2270       2 (A') B                  ->    23 (A') B                  
 -0.2218       2 (A') A                  ->    11 (A') A                  
 -0.2218       2 (A') B                  ->    11 (A') B                  
 -0.1534       2 (A') A                  ->    21 (A') A                  
 -0.1534       2 (A') B                  ->    21 (A') B                  
 -0.1314       2 (A') A                  ->    13 (A') A                  
 -0.1314       2 (A') B                  ->    13 (A') B                  
 -0.1113       2 (A') A                  ->    26 (A') A                  
 -0.1113       2 (A') B                  ->    26 (A') B                  

              Summary of significant orbitals:

               Number  Type             Irrep      Energy
               2       Occ  Alpha       2 (A')    -11.3324
               2       Occ  Beta        2 (A')    -11.3324
               13      Vir  Alpha      11 (A')      0.0456
               15      Vir  Alpha      13 (A')      0.0672
               17      Vir  Alpha      14 (A')      0.1208
               26      Vir  Alpha      21 (A')      0.2869
               27      Vir  Alpha      22 (A')      0.3253
               29      Vir  Alpha      23 (A')      0.3781
               32      Vir  Alpha      26 (A')      0.5012
               13      Vir  Beta       11 (A')      0.0456
               15      Vir  Beta       13 (A')      0.0672
               17      Vir  Beta       14 (A')      0.1208
               26      Vir  Beta       21 (A')      0.2869
               27      Vir  Beta       22 (A')      0.3253
               29      Vir  Beta       23 (A')      0.3781
               32      Vir  Beta       26 (A')      0.5012


 EOMEE transition 9/A'
 Total energy = -166.72924366 a.u.  Excitation energy = 291.6612 eV.
 R0^2 = 0.0000  R1^2 = 0.7954  R2_CCVV^2 = 0.0011  R2_COVV^2 = 0.1017  Res^2 = 7.31e-05
 Conv-d = yes

 Amplitude    Transitions between orbitals
  0.5183       2 (A') A                  ->    12 (A') A                  
  0.5183       2 (A') B                  ->    12 (A') B                  
 -0.2296       2 (A') A                  ->    11 (A') A                  
 -0.2296       2 (A') B                  ->    11 (A') B                  
 -0.1448       2 (A') A                  ->    16 (A') A                  
 -0.1448       2 (A') B                  ->    16 (A') B                  
 -0.1308       2 (A') A                  ->    21 (A') A                  
 -0.1308       2 (A') B                  ->    21 (A') B                  
  0.1130       2 (A') A                  ->    19 (A') A                  
  0.1130       2 (A') B                  ->    19 (A') B                  

              Summary of significant orbitals:

               Number  Type             Irrep      Energy
               2       Occ  Alpha       2 (A')    -11.3324
               2       Occ  Beta        2 (A')    -11.3324
               13      Vir  Alpha      11 (A')      0.0456
               14      Vir  Alpha      12 (A')      0.0589
               20      Vir  Alpha      16 (A')      0.1755
               24      Vir  Alpha      19 (A')      0.2159
               26      Vir  Alpha      21 (A')      0.2869
               13      Vir  Beta       11 (A')      0.0456
               14      Vir  Beta       12 (A')      0.0589
               20      Vir  Beta       16 (A')      0.1755
               24      Vir  Beta       19 (A')      0.2159
               26      Vir  Beta       21 (A')      0.2869


 EOMEE transition 10/A'
 Total energy = -166.72312585 a.u.  Excitation energy = 291.8277 eV.
 R0^2 = 0.0000  R1^2 = 0.8126  R2_CCVV^2 = 0.0012  R2_COVV^2 = 0.0931  Res^2 = 3.28e-05
 Conv-d = yes

 Amplitude    Transitions between orbitals
 -0.2888       3 (A') A                  ->    20 (A') A                  
 -0.2888       3 (A') B                  ->    20 (A') B                  
  0.2879       3 (A') A                  ->    17 (A') A                  
  0.2879       3 (A') B                  ->    17 (A') B                  
  0.2401       3 (A') A                  ->    18 (A') A                  
  0.2401       3 (A') B                  ->    18 (A') B                  
 -0.2171       3 (A') A                  ->    11 (A') A                  
 -0.2171       3 (A') B                  ->    11 (A') B                  
  0.1846       3 (A') A                  ->    14 (A') A                  
  0.1846       3 (A') B                  ->    14 (A') B                  
  0.1558       3 (A') A                  ->    16 (A') A                  
  0.1558       3 (A') B                  ->    16 (A') B                  
 -0.1469       3 (A') A                  ->    21 (A') A                  
 -0.1469       3 (A') B                  ->    21 (A') B                  
 -0.1434       3 (A') A                  ->    13 (A') A                  
 -0.1434       3 (A') B                  ->    13 (A') B                  
  0.1077       3 (A') A                  ->    22 (A') A                  
  0.1077       3 (A') B                  ->    22 (A') B                  

              Summary of significant orbitals:

               Number  Type             Irrep      Energy
               3       Occ  Alpha       3 (A')    -11.2400
               3       Occ  Beta        3 (A')    -11.2400
               13      Vir  Alpha      11 (A')      0.0456
               15      Vir  Alpha      13 (A')      0.0672
               17      Vir  Alpha      14 (A')      0.1208
               20      Vir  Alpha      16 (A')      0.1755
               21      Vir  Alpha      17 (A')      0.1802
               22      Vir  Alpha      18 (A')      0.2053
               25      Vir  Alpha      20 (A')      0.2666
               26      Vir  Alpha      21 (A')      0.2869
               27      Vir  Alpha      22 (A')      0.3253
               13      Vir  Beta       11 (A')      0.0456
               15      Vir  Beta       13 (A')      0.0672
               17      Vir  Beta       14 (A')      0.1208
               20      Vir  Beta       16 (A')      0.1755
               21      Vir  Beta       17 (A')      0.1802
               22      Vir  Beta       18 (A')      0.2053
               25      Vir  Beta       20 (A')      0.2666
               26      Vir  Beta       21 (A')      0.2869
               27      Vir  Beta       22 (A')      0.3253


 EOMEE transition 11/A'
 Total energy = -166.71437060 a.u.  Excitation energy = 292.0659 eV.
 R0^2 = 0.0000  R1^2 = 0.8175  R2_CCVV^2 = 0.0012  R2_COVV^2 = 0.0906  Res^2 = 3.60e-05
 Conv-d = yes

 Amplitude    Transitions between orbitals
 -0.3442       3 (A') A                  ->    21 (A') A                  
 -0.3442       3 (A') B                  ->    21 (A') B                  
  0.2785       3 (A') A                  ->    20 (A') A                  
  0.2785       3 (A') B                  ->    20 (A') B                  
 -0.2026       3 (A') A                  ->    12 (A') A                  
 -0.2026       3 (A') B                  ->    12 (A') B                  
  0.1892       3 (A') A                  ->    19 (A') A                  
  0.1892       3 (A') B                  ->    19 (A') B                  
  0.1885       3 (A') A                  ->    14 (A') A                  
  0.1885       3 (A') B                  ->    14 (A') B                  
  0.1800       3 (A') A                  ->    18 (A') A                  
  0.1800       3 (A') B                  ->    18 (A') B                  
 -0.1315       3 (A') A                  ->    15 (A') A                  
 -0.1315       3 (A') B                  ->    15 (A') B                  
 -0.1129       3 (A') A                  ->    13 (A') A                  
 -0.1129       3 (A') B                  ->    13 (A') B                  

              Summary of significant orbitals:

               Number  Type             Irrep      Energy
               3       Occ  Alpha       3 (A')    -11.2400
               3       Occ  Beta        3 (A')    -11.2400
               14      Vir  Alpha      12 (A')      0.0589
               15      Vir  Alpha      13 (A')      0.0672
               17      Vir  Alpha      14 (A')      0.1208
               19      Vir  Alpha      15 (A')      0.1393
               22      Vir  Alpha      18 (A')      0.2053
               24      Vir  Alpha      19 (A')      0.2159
               25      Vir  Alpha      20 (A')      0.2666
               26      Vir  Alpha      21 (A')      0.2869
               14      Vir  Beta       12 (A')      0.0589
               15      Vir  Beta       13 (A')      0.0672
               17      Vir  Beta       14 (A')      0.1208
               19      Vir  Beta       15 (A')      0.1393
               22      Vir  Beta       18 (A')      0.2053
               24      Vir  Beta       19 (A')      0.2159
               25      Vir  Beta       20 (A')      0.2666
               26      Vir  Beta       21 (A')      0.2869


 EOMEE transition 12/A'
 Total energy = -166.70438400 a.u.  Excitation energy = 292.3377 eV.
 R0^2 = 0.0000  R1^2 = 0.7989  R2_CCVV^2 = 0.0012  R2_COVV^2 = 0.1000  Res^2 = 1.88e-05
 Conv-d = yes

 Amplitude    Transitions between orbitals
 -0.5629       2 (A') A                  ->    13 (A') A                  
 -0.5629       2 (A') B                  ->    13 (A') B                  
 -0.1454       2 (A') A                  ->    18 (A') A                  
 -0.1454       2 (A') B                  ->    18 (A') B                  
 -0.1359       2 (A') A                  ->    22 (A') A                  
 -0.1359       2 (A') B                  ->    22 (A') B                  
  0.1138       2 (A') A                  ->    21 (A') A                  
  0.1138       2 (A') B                  ->    21 (A') B                  

              Summary of significant orbitals:

               Number  Type             Irrep      Energy
               2       Occ  Alpha       2 (A')    -11.3324
               2       Occ  Beta        2 (A')    -11.3324
               15      Vir  Alpha      13 (A')      0.0672
               22      Vir  Alpha      18 (A')      0.2053
               26      Vir  Alpha      21 (A')      0.2869
               27      Vir  Alpha      22 (A')      0.3253
               15      Vir  Beta       13 (A')      0.0672
               22      Vir  Beta       18 (A')      0.2053
               26      Vir  Beta       21 (A')      0.2869
               27      Vir  Beta       22 (A')      0.3253


 EOMEE transition 13/A'
 Total energy = -166.69656771 a.u.  Excitation energy = 292.5504 eV.
 R0^2 = 0.0000  R1^2 = 0.8030  R2_CCVV^2 = 0.0012  R2_COVV^2 = 0.0979  Res^2 = 1.34e-05
 Conv-d = yes

 Amplitude    Transitions between orbitals
  0.4418       3 (A') A                  ->    17 (A') A                  
  0.4418       3 (A') B                  ->    17 (A') B                  
 -0.2126       3 (A') A                  ->    16 (A') A                  
 -0.2126       3 (A') B                  ->    16 (A') B                  
 -0.2059       3 (A') A                  ->    18 (A') A                  
 -0.2059       3 (A') B                  ->    18 (A') B                  
  0.1653       3 (A') A                  ->    19 (A') A                  
  0.1653       3 (A') B                  ->    19 (A') B                  
 -0.1374       3 (A') A                  ->    12 (A') A                  
 -0.1374       3 (A') B                  ->    12 (A') B                  
 -0.1326       3 (A') A                  ->    22 (A') A                  
 -0.1326       3 (A') B                  ->    22 (A') B                  
  0.1235       3 (A') A                  ->    13 (A') A                  
  0.1235       3 (A') B                  ->    13 (A') B                  
  0.1035       3 (A') A                  ->    25 (A') A                  
  0.1035       3 (A') B                  ->    25 (A') B                  

              Summary of significant orbitals:

               Number  Type             Irrep      Energy
               3       Occ  Alpha       3 (A')    -11.2400
               3       Occ  Beta        3 (A')    -11.2400
               14      Vir  Alpha      12 (A')      0.0589
               15      Vir  Alpha      13 (A')      0.0672
               20      Vir  Alpha      16 (A')      0.1755
               21      Vir  Alpha      17 (A')      0.1802
               22      Vir  Alpha      18 (A')      0.2053
               24      Vir  Alpha      19 (A')      0.2159
               27      Vir  Alpha      22 (A')      0.3253
               31      Vir  Alpha      25 (A')      0.4748
               14      Vir  Beta       12 (A')      0.0589
               15      Vir  Beta       13 (A')      0.0672
               20      Vir  Beta       16 (A')      0.1755
               21      Vir  Beta       17 (A')      0.1802
               22      Vir  Beta       18 (A')      0.2053
               24      Vir  Beta       19 (A')      0.2159
               27      Vir  Beta       22 (A')      0.3253
               31      Vir  Beta       25 (A')      0.4748


 EOMEE transition 14/A'
 Total energy = -166.68987872 a.u.  Excitation energy = 292.7324 eV.
 R0^2 = 0.0000  R1^2 = 0.8032  R2_CCVV^2 = 0.0012  R2_COVV^2 = 0.0978  Res^2 = 3.34e-05
 Conv-d = yes

 Amplitude    Transitions between orbitals
 -0.4197       3 (A') A                  ->    18 (A') A                  
 -0.4197       3 (A') B                  ->    18 (A') B                  
  0.2233       3 (A') A                  ->    14 (A') A                  
  0.2233       3 (A') B                  ->    14 (A') B                  
 -0.1865       3 (A') A                  ->    20 (A') A                  
 -0.1865       3 (A') B                  ->    20 (A') B                  
 -0.1828       3 (A') A                  ->    21 (A') A                  
 -0.1828       3 (A') B                  ->    21 (A') B                  
  0.1354       3 (A') A                  ->    16 (A') A                  
  0.1354       3 (A') B                  ->    16 (A') B                  
  0.1325       3 (A') A                  ->    19 (A') A                  
  0.1325       3 (A') B                  ->    19 (A') B                  
 -0.1240       3 (A') A                  ->    17 (A') A                  
 -0.1240       3 (A') B                  ->    17 (A') B                  
  0.1154       3 (A') A                  ->    13 (A') A                  
  0.1154       3 (A') B                  ->    13 (A') B                  
  0.1097       3 (A') A                  ->    22 (A') A                  
  0.1097       3 (A') B                  ->    22 (A') B                  

              Summary of significant orbitals:

               Number  Type             Irrep      Energy
               3       Occ  Alpha       3 (A')    -11.2400
               3       Occ  Beta        3 (A')    -11.2400
               15      Vir  Alpha      13 (A')      0.0672
               17      Vir  Alpha      14 (A')      0.1208
               20      Vir  Alpha      16 (A')      0.1755
               21      Vir  Alpha      17 (A')      0.1802
               22      Vir  Alpha      18 (A')      0.2053
               24      Vir  Alpha      19 (A')      0.2159
               25      Vir  Alpha      20 (A')      0.2666
               26      Vir  Alpha      21 (A')      0.2869
               27      Vir  Alpha      22 (A')      0.3253
               15      Vir  Beta       13 (A')      0.0672
               17      Vir  Beta       14 (A')      0.1208
               20      Vir  Beta       16 (A')      0.1755
               21      Vir  Beta       17 (A')      0.1802
               22      Vir  Beta       18 (A')      0.2053
               24      Vir  Beta       19 (A')      0.2159
               25      Vir  Beta       20 (A')      0.2666
               26      Vir  Beta       21 (A')      0.2869
               27      Vir  Beta       22 (A')      0.3253


 EOMEE transition 15/A'
 Total energy = -166.67157320 a.u.  Excitation energy = 293.2305 eV.
 R0^2 = 0.0000  R1^2 = 0.8043  R2_CCVV^2 = 0.0012  R2_COVV^2 = 0.0973  Res^2 = 3.26e-05
 Conv-d = yes

 Amplitude    Transitions between orbitals
 -0.5251       3 (A') A                  ->    19 (A') A                  
 -0.5251       3 (A') B                  ->    19 (A') B                  
 -0.2433       3 (A') A                  ->    21 (A') A                  
 -0.2433       3 (A') B                  ->    21 (A') B                  
 -0.1433       3 (A') A                  ->    18 (A') A                  
 -0.1433       3 (A') B                  ->    18 (A') B                  
 -0.1256       3 (A') A                  ->    16 (A') A                  
 -0.1256       3 (A') B                  ->    16 (A') B                  

              Summary of significant orbitals:

               Number  Type             Irrep      Energy
               3       Occ  Alpha       3 (A')    -11.2400
               3       Occ  Beta        3 (A')    -11.2400
               20      Vir  Alpha      16 (A')      0.1755
               22      Vir  Alpha      18 (A')      0.2053
               24      Vir  Alpha      19 (A')      0.2159
               26      Vir  Alpha      21 (A')      0.2869
               20      Vir  Beta       16 (A')      0.1755
               22      Vir  Beta       18 (A')      0.2053
               24      Vir  Beta       19 (A')      0.2159
               26      Vir  Beta       21 (A')      0.2869


 EOMEE transition 16/A'
 Total energy = -166.67102050 a.u.  Excitation energy = 293.2455 eV.
 R0^2 = 0.0000  R1^2 = 0.7992  R2_CCVV^2 = 0.0011  R2_COVV^2 = 0.0998  Res^2 = 2.70e-05
 Conv-d = yes

 Amplitude    Transitions between orbitals
 -0.5089       2 (A') A                  ->    15 (A') A                  
 -0.5089       2 (A') B                  ->    15 (A') B                  
  0.2678       2 (A') A                  ->    16 (A') A                  
  0.2678       2 (A') B                  ->    16 (A') B                  
  0.1289       2 (A') A                  ->    12 (A') A                  
  0.1289       2 (A') B                  ->    12 (A') B                  

              Summary of significant orbitals:

               Number  Type             Irrep      Energy
               2       Occ  Alpha       2 (A')    -11.3324
               2       Occ  Beta        2 (A')    -11.3324
               14      Vir  Alpha      12 (A')      0.0589
               19      Vir  Alpha      15 (A')      0.1393
               20      Vir  Alpha      16 (A')      0.1755
               14      Vir  Beta       12 (A')      0.0589
               19      Vir  Beta       15 (A')      0.1393
               20      Vir  Beta       16 (A')      0.1755


 EOMEE transition 17/A'
 Total energy = -166.64481595 a.u.  Excitation energy = 293.9586 eV.
 R0^2 = 0.0000  R1^2 = 0.8058  R2_CCVV^2 = 0.0012  R2_COVV^2 = 0.0965  Res^2 = 2.57e-05
 Conv-d = yes

 Amplitude    Transitions between orbitals
 -0.2994       2 (A') A                  ->    15 (A') A                  
 -0.2994       2 (A') B                  ->    15 (A') B                  
 -0.2880       2 (A') A                  ->    16 (A') A                  
 -0.2880       2 (A') B                  ->    16 (A') B                  
 -0.2840       2 (A') A                  ->    20 (A') A                  
 -0.2840       2 (A') B                  ->    20 (A') B                  
 -0.2062       2 (A') A                  ->    21 (A') A                  
 -0.2062       2 (A') B                  ->    21 (A') B                  
 -0.1515       2 (A') A                  ->    12 (A') A                  
 -0.1515       2 (A') B                  ->    12 (A') B                  
  0.1506       2 (A') A                  ->    14 (A') A                  
  0.1506       2 (A') B                  ->    14 (A') B                  
  0.1096       2 (A') A                  ->    19 (A') A                  
  0.1096       2 (A') B                  ->    19 (A') B                  

              Summary of significant orbitals:

               Number  Type             Irrep      Energy
               2       Occ  Alpha       2 (A')    -11.3324
               2       Occ  Beta        2 (A')    -11.3324
               14      Vir  Alpha      12 (A')      0.0589
               17      Vir  Alpha      14 (A')      0.1208
               19      Vir  Alpha      15 (A')      0.1393
               20      Vir  Alpha      16 (A')      0.1755
               24      Vir  Alpha      19 (A')      0.2159
               25      Vir  Alpha      20 (A')      0.2666
               26      Vir  Alpha      21 (A')      0.2869
               14      Vir  Beta       12 (A')      0.0589
               17      Vir  Beta       14 (A')      0.1208
               19      Vir  Beta       15 (A')      0.1393
               20      Vir  Beta       16 (A')      0.1755
               24      Vir  Beta       19 (A')      0.2159
               25      Vir  Beta       20 (A')      0.2666
               26      Vir  Beta       21 (A')      0.2869


 EOMEE transition 18/A'
 Total energy = -166.64030884 a.u.  Excitation energy = 294.0812 eV.
 R0^2 = 0.0000  R1^2 = 0.8038  R2_CCVV^2 = 0.0012  R2_COVV^2 = 0.0975  Res^2 = 4.17e-05
 Conv-d = yes

 Amplitude    Transitions between orbitals
 -0.3457       2 (A') A                  ->    17 (A') A                  
 -0.3457       2 (A') B                  ->    17 (A') B                  
 -0.3263       2 (A') A                  ->    16 (A') A                  
 -0.3263       2 (A') B                  ->    16 (A') B                  
 -0.2253       2 (A') A                  ->    14 (A') A                  
 -0.2253       2 (A') B                  ->    14 (A') B                  
  0.1841       2 (A') A                  ->    11 (A') A                  
  0.1841       2 (A') B                  ->    11 (A') B                  
  0.1668       2 (A') A                  ->    21 (A') A                  
  0.1668       2 (A') B                  ->    21 (A') B                  
 -0.1396       2 (A') A                  ->    15 (A') A                  
 -0.1396       2 (A') B                  ->    15 (A') B                  
  0.1105       2 (A') A                  ->    12 (A') A                  
  0.1105       2 (A') B                  ->    12 (A') B                  

              Summary of significant orbitals:

               Number  Type             Irrep      Energy
               2       Occ  Alpha       2 (A')    -11.3324
               2       Occ  Beta        2 (A')    -11.3324
               13      Vir  Alpha      11 (A')      0.0456
               14      Vir  Alpha      12 (A')      0.0589
               17      Vir  Alpha      14 (A')      0.1208
               19      Vir  Alpha      15 (A')      0.1393
               20      Vir  Alpha      16 (A')      0.1755
               21      Vir  Alpha      17 (A')      0.1802
               26      Vir  Alpha      21 (A')      0.2869
               13      Vir  Beta       11 (A')      0.0456
               14      Vir  Beta       12 (A')      0.0589
               17      Vir  Beta       14 (A')      0.1208
               19      Vir  Beta       15 (A')      0.1393
               20      Vir  Beta       16 (A')      0.1755
               21      Vir  Beta       17 (A')      0.1802
               26      Vir  Beta       21 (A')      0.2869


 EOMEE transition 19/A'
 Total energy = -166.63853157 a.u.  Excitation energy = 294.1296 eV.
 R0^2 = 0.0000  R1^2 = 0.7966  R2_CCVV^2 = 0.0012  R2_COVV^2 = 0.1011  Res^2 = 4.41e-05
 Conv-d = yes

 Amplitude    Transitions between orbitals
  0.4119       3 (A') A                  ->    22 (A') A                  
  0.4119       3 (A') B                  ->    22 (A') B                  
  0.2570       3 (A') A                  ->    23 (A') A                  
  0.2570       3 (A') B                  ->    23 (A') B                  
  0.2104       3 (A') A                  ->    21 (A') A                  
  0.2104       3 (A') B                  ->    21 (A') B                  
  0.1772       3 (A') A                  ->    20 (A') A                  
  0.1772       3 (A') B                  ->    20 (A') B                  
  0.1506       3 (A') A                  ->    17 (A') A                  
  0.1506       3 (A') B                  ->    17 (A') B                  
 -0.1305       3 (A') A                  ->    26 (A') A                  
 -0.1305       3 (A') B                  ->    26 (A') B                  
  0.1192       3 (A') A                  ->    29 (A') A                  
  0.1192       3 (A') B                  ->    29 (A') B                  
 -0.1123       3 (A') A                  ->    16 (A') A                  
 -0.1123       3 (A') B                  ->    16 (A') B                  
  0.1023       3 (A') A                  ->    14 (A') A                  
  0.1023       3 (A') B                  ->    14 (A') B                  

              Summary of significant orbitals:

               Number  Type             Irrep      Energy
               3       Occ  Alpha       3 (A')    -11.2400
               3       Occ  Beta        3 (A')    -11.2400
               17      Vir  Alpha      14 (A')      0.1208
               20      Vir  Alpha      16 (A')      0.1755
               21      Vir  Alpha      17 (A')      0.1802
               25      Vir  Alpha      20 (A')      0.2666
               26      Vir  Alpha      21 (A')      0.2869
               27      Vir  Alpha      22 (A')      0.3253
               29      Vir  Alpha      23 (A')      0.3781
               32      Vir  Alpha      26 (A')      0.5012
               35      Vir  Alpha      29 (A')      0.6469
               17      Vir  Beta       14 (A')      0.1208
               20      Vir  Beta       16 (A')      0.1755
               21      Vir  Beta       17 (A')      0.1802
               25      Vir  Beta       20 (A')      0.2666
               26      Vir  Beta       21 (A')      0.2869
               27      Vir  Beta       22 (A')      0.3253
               29      Vir  Beta       23 (A')      0.3781
               32      Vir  Beta       26 (A')      0.5012
               35      Vir  Beta       29 (A')      0.6469


 EOMEE transition 20/A'
 Total energy = -166.62638821 a.u.  Excitation energy = 294.4600 eV.
 R0^2 = 0.0000  R1^2 = 0.8123  R2_CCVV^2 = 0.0012  R2_COVV^2 = 0.0932  Res^2 = 5.67e-05
 Conv-d = yes

 Amplitude    Transitions between orbitals
  0.3438       2 (A') A                  ->    14 (A') A                  
  0.3438       2 (A') B                  ->    14 (A') B                  
 -0.3336       2 (A') A                  ->    17 (A') A                  
 -0.3336       2 (A') B                  ->    17 (A') B                  
  0.1945       2 (A') A                  ->    22 (A') A                  
  0.1945       2 (A') B                  ->    22 (A') B                  
  0.1930       2 (A') A                  ->    23 (A') A                  
  0.1930       2 (A') B                  ->    23 (A') B                  
  0.1655       2 (A') A                  ->    16 (A') A                  
  0.1655       2 (A') B                  ->    16 (A') B                  
 -0.1233       2 (A') A                  ->    26 (A') A                  
 -0.1233       2 (A') B                  ->    26 (A') B                  
  0.1057       2 (A') A                  ->    12 (A') A                  
  0.1057       2 (A') B                  ->    12 (A') B                  
  0.1025       2 (A') A                  ->    11 (A') A                  
  0.1025       2 (A') B                  ->    11 (A') B                  
  0.1001       2 (A') A                  ->    20 (A') A                  
  0.1001       2 (A') B                  ->    20 (A') B                  

              Summary of significant orbitals:

               Number  Type             Irrep      Energy
               2       Occ  Alpha       2 (A')    -11.3324
               2       Occ  Beta        2 (A')    -11.3324
               13      Vir  Alpha      11 (A')      0.0456
               14      Vir  Alpha      12 (A')      0.0589
               17      Vir  Alpha      14 (A')      0.1208
               20      Vir  Alpha      16 (A')      0.1755
               21      Vir  Alpha      17 (A')      0.1802
               25      Vir  Alpha      20 (A')      0.2666
               27      Vir  Alpha      22 (A')      0.3253
               29      Vir  Alpha      23 (A')      0.3781
               32      Vir  Alpha      26 (A')      0.5012
               13      Vir  Beta       11 (A')      0.0456
               14      Vir  Beta       12 (A')      0.0589
               17      Vir  Beta       14 (A')      0.1208
               20      Vir  Beta       16 (A')      0.1755
               21      Vir  Beta       17 (A')      0.1802
               25      Vir  Beta       20 (A')      0.2666
               27      Vir  Beta       22 (A')      0.3253
               29      Vir  Beta       23 (A')      0.3781
               32      Vir  Beta       26 (A')      0.5012


      CVS-EOM-CCSD/MP2 left amplitudes will be solved using Davidson.
        Amplitudes will be solved using MOM  algorithm.
     Hard-coded thresholds: 
     LinDepThresh=1.00e-15  NormThresh=1.00e-06  ReorthogonThresh=1.00e-02

      Roots     MaxVec    MaxIter   Precond   Conv      Shift    
      20        1000      200       1         1.00e-04  1.05e+01  
 ------------------------------------------------------------------------------
      Iter ConvRoots NVecs ResNorm Current eigenvalues (eV)
 ------------------------------------------------------------------------------
      0    0      20    2.48e-02   288.1845   288.8097   289.5175   289.8772   290.6343   290.6425   291.1322   291.4782   291.6612   291.8277   292.0659   292.3377   292.5504   292.7324   293.2305   293.2455   293.9586   294.0813   294.1296   294.4601   
      1    0      40    1.80e-02   288.1846   288.8096   289.5174   289.8770   290.6342   290.6423   291.1320   291.4781   291.6603   291.8272   292.0654   292.3374   292.5501   292.7320   293.2302   293.2451   293.9585   294.0811   294.1290   294.4594   
      2    0      60    7.68e-04   288.1847   288.8096   289.5177   289.8769   290.6342   290.6427   291.1319   291.4780   291.6602   291.8274   292.0655   292.3372   292.5502   292.7325   293.2307   293.2450   293.9588   294.0816   294.1295   294.4598   
      3    13     80    1.00e-04   288.1847*  288.8096*  289.5177*  289.8769*  290.6341*  290.6426*  291.1318*  291.4780   291.6598   291.8272*  292.0653*  292.3370   292.5501*  292.7325*  293.2306*  293.2448*  293.9587   294.0814   294.1293   294.4596   
      4    20     87    5.52e-05   288.1847*  288.8096*  289.5177*  289.8769*  290.6341*  290.6427*  291.1318*  291.4780*  291.6598*  291.8272*  292.0653*  292.3370*  292.5501*  292.7325*  293.2306*  293.2448*  293.9587*  294.0814*  294.1294*  294.4596*  

     Davidson procedure converged

        Solving for CVS-EOMEE-CCSD A" singlet states.

       EOMEE-CCSD-SINGLES right amplitudes will be solved using Davidson.
        Amplitudes will be solved using shifted  algorithm.
     Hard-coded thresholds: 
     LinDepThresh=1.00e-15  NormThresh=1.00e-06  ReorthogonThresh=1.00e-02

      Roots     MaxVec    MaxIter   Precond   Conv      Shift    
      13        1000      200       1         1.00e-04  1.05e+01  
 ------------------------------------------------------------------------------
      Iter ConvRoots NVecs ResNorm Current eigenvalues (eV)
 ------------------------------------------------------------------------------
      0    0      13    1.92e-02   297.1328   298.4417   302.9614   305.2175   305.7205   307.7864   310.8575   312.1235   312.8210   315.2036   318.0997   320.9934   325.9249   
Rerun orthogonalization...
      1    3      26    6.27e-04   296.3710   297.6358   302.8993*  305.1865*  305.6825   307.7466*  310.8116   312.0841   312.2064   314.6095   318.0166   320.8791   324.7464   
      2    13     36    5.42e-07   296.3673*  297.6320*  302.8986*  305.1864*  305.6807*  307.7460*  310.8105*  312.0799*  312.1978*  314.5939*  318.0139*  320.8719*  324.6974*  

     Davidson procedure converged

        CVS-EOMEE-CCSD/MP2 right amplitudes will be solved using Davidson.
        Amplitudes will be solved using shifted  algorithm.
     Hard-coded thresholds: 
     LinDepThresh=1.00e-15  NormThresh=1.00e-06  ReorthogonThresh=1.00e-02

      Roots     MaxVec    MaxIter   Precond   Conv      Shift    
      13        1000      200       1         1.00e-04  1.05e+01  
 ------------------------------------------------------------------------------
      Iter ConvRoots NVecs ResNorm Current eigenvalues (eV)
 ------------------------------------------------------------------------------
      0    0      13    1.85e+00   296.3673   297.6320   302.8986   305.1864   305.6807   307.7460   310.8105   312.0799   312.1978   314.5939   318.0139   320.8719   324.6974   
      1    0      26    1.06e+00   293.8736   295.2829   300.0698   302.2810   302.8466   304.8624   307.8254   309.1606   309.6220   312.0490   314.8959   317.7872   322.2934   
      2    0      39    5.92e-02   286.4419   288.6167   290.2355   291.9558   292.9108   294.5788   297.1404   299.0741   301.6444   304.0026   304.0805   306.8036   317.9912   
      3    0      52    1.68e-02   285.9718   288.1313   289.8675   291.5438   292.5075   294.1358   296.7272   298.7000   301.2656   303.5224   303.6647   306.2351   311.6917   
      4    0      65    2.59e-02   285.9197   288.0553   289.8545   291.5286   292.4838   294.1090   296.7081   298.6795   301.2248   303.4858   303.5781   306.1617   308.5142   
Found complex roots...
      5    6      78    2.25e-02   285.9091   288.0384   289.8491*  291.5233*  292.4749*  294.0999*  296.7015*  298.6714*  301.1869   303.2805   303.4737   304.3130   304.8496   
Found complex roots...
      6    8      85    4.15e-03   285.9074*  288.0354*  289.8490*  291.5232*  292.4748*  294.0996*  296.7014*  298.6714*  301.1711   302.7483   303.3781   303.4698   303.9809   
      7    9      90    9.97e-04   285.9075*  288.0354*  289.8491*  291.5232*  292.4748*  294.0996*  296.7014*  298.6714*  301.1672*  302.6005   303.1793   303.4695   303.9025   
      8    10     94    2.25e-04   285.9074*  288.0353*  289.8490*  291.5232*  292.4748*  294.0997*  296.7014*  298.6714*  301.1660*  302.5593   303.1303   303.4682*  303.8884   
      9    10     97    9.60e-05   285.9074*  288.0353*  289.8490*  291.5232*  292.4748*  294.0997*  296.7014*  298.6714*  301.1656*  302.5504   303.1172   303.4685*  303.8842   
      10   12     100   3.36e-05   285.9074*  288.0353*  289.8490*  291.5232*  292.4748*  294.0997*  296.7014*  298.6713*  301.1657*  302.5486*  303.1131   303.4687*  303.8830*  
      11   13     101   2.73e-05   285.9074*  288.0353*  289.8490*  291.5232*  292.4748*  294.0997*  296.7014*  298.6713*  301.1657*  302.5486*  303.1124*  303.4686*  303.8830*  

     Davidson procedure converged

 EOMEE transition 1/A"
 Total energy = -166.94069142 a.u.  Excitation energy = 285.9074 eV.
 R0^2 = 0.0000  R1^2 = 0.8249  R2_CCVV^2 = 0.0013  R2_COVV^2 = 0.0869  Res^2 = 3.70e-06
 Conv-d = yes

 Amplitude    Transitions between orbitals
  0.4381       3 (A') A                  ->    3 (A") A                   
  0.4381       3 (A') B                  ->    3 (A") B                   
  0.4379       3 (A') A                  ->    5 (A") A                   
  0.4379       3 (A') B                  ->    5 (A") B                   
  0.1154       3 (A') A                  ->    8 (A") A                   
  0.1154       3 (A') B                  ->    8 (A") B                   
  0.1127       3 (A') A                  ->    4 (A") A                   
  0.1127       3 (A') B                  ->    4 (A") B                   

              Summary of significant orbitals:

               Number  Type             Irrep      Energy
               3       Occ  Alpha       3 (A')    -11.2400
               3       Occ  Beta        3 (A')    -11.2400
               16      Vir  Alpha       3 (A")      0.1085
               18      Vir  Alpha       4 (A")      0.1220
               23      Vir  Alpha       5 (A")      0.2142
               38      Vir  Alpha       8 (A")      0.7837
               16      Vir  Beta        3 (A")      0.1085
               18      Vir  Beta        4 (A")      0.1220
               23      Vir  Beta        5 (A")      0.2142
               38      Vir  Beta        8 (A")      0.7837


 EOMEE transition 2/A"
 Total energy = -166.86249324 a.u.  Excitation energy = 288.0353 eV.
 R0^2 = 0.0000  R1^2 = 0.8291  R2_CCVV^2 = 0.0013  R2_COVV^2 = 0.0848  Res^2 = 4.49e-06
 Conv-d = yes

 Amplitude    Transitions between orbitals
  0.4554       2 (A') A                  ->    3 (A") A                   
  0.4554       2 (A') B                  ->    3 (A") B                   
  0.4325       2 (A') A                  ->    5 (A") A                   
  0.4325       2 (A') B                  ->    5 (A") B                   
  0.1130       2 (A') A                  ->    8 (A") A                   
  0.1130       2 (A') B                  ->    8 (A") B                   

              Summary of significant orbitals:

               Number  Type             Irrep      Energy
               2       Occ  Alpha       2 (A')    -11.3324
               2       Occ  Beta        2 (A')    -11.3324
               16      Vir  Alpha       3 (A")      0.1085
               23      Vir  Alpha       5 (A")      0.2142
               38      Vir  Alpha       8 (A")      0.7837
               16      Vir  Beta        3 (A")      0.1085
               23      Vir  Beta        5 (A")      0.2142
               38      Vir  Beta        8 (A")      0.7837


 EOMEE transition 3/A"
[...]
 State A: ccsd: 0/A'
 State B: cvs_eomee_ccsd/rhfref/singlets: 4/A'
 Transition dipole moment (a.u.):
   A->B: 0.020171 (X -0.005361, Y 0.019445, Z 0.000000)
   B->A: 0.020039 (X -0.004845, Y 0.019444, Z 0.000000)
 Oscillator strength (a.u.): 0.002870
 Norm of one-particle transition density matrix:
   A->B: 0.895767;   B->A: 0.861986
   ||gamma^AB||*||gamma^BA||: 0.772139

 ------------------------------------------------------------------------------
 State A: ccsd: 0/A'
 State B: cvs_eomee_ccsd/rhfref/singlets: 5/A'
 Transition dipole moment (a.u.):
   A->B: 0.050601 (X -0.016692, Y -0.047769, Z 0.000000)
   B->A: 0.050110 (X -0.016780, Y -0.047217, Z 0.000000)
 Oscillator strength (a.u.): 0.018054
 Norm of one-particle transition density matrix:
   A->B: 0.903966;   B->A: 0.871758
   ||gamma^AB||*||gamma^BA||: 0.788039

 ------------------------------------------------------------------------------
 State A: ccsd: 0/A'
 State B: cvs_eomee_ccsd/rhfref/singlets: 6/A'
 Transition dipole moment (a.u.):
   A->B: 0.020715 (X -0.011858, Y -0.016986, Z 0.000000)
   B->A: 0.021100 (X -0.011750, Y -0.017526, Z 0.000000)
 Oscillator strength (a.u.): 0.003112
 Norm of one-particle transition density matrix:
   A->B: 0.901686;   B->A: 0.866011
   ||gamma^AB||*||gamma^BA||: 0.780869

 ------------------------------------------------------------------------------
 State A: ccsd: 0/A'
 State B: cvs_eomee_ccsd/rhfref/singlets: 7/A'
 Transition dipole moment (a.u.):
   A->B: 0.026345 (X -0.026290, Y -0.001705, Z 0.000000)
   B->A: 0.025542 (X -0.025494, Y -0.001563, Z 0.000000)
 Oscillator strength (a.u.): 0.004800
 Norm of one-particle transition density matrix:
   A->B: 0.901863;   B->A: 0.867837
   ||gamma^AB||*||gamma^BA||: 0.782671

 ------------------------------------------------------------------------------
 State A: ccsd: 0/A'
 State B: cvs_eomee_ccsd/rhfref/singlets: 8/A'
 Transition dipole moment (a.u.):
   A->B: 0.056246 (X -0.053714, Y -0.016683, Z 0.000000)
   B->A: 0.054691 (X -0.052393, Y -0.015686, Z 0.000000)
 Oscillator strength (a.u.): 0.021966
 Norm of one-particle transition density matrix:
   A->B: 0.907524;   B->A: 0.882748
   ||gamma^AB||*||gamma^BA||: 0.801115

 ------------------------------------------------------------------------------
 State A: ccsd: 0/A'
 State B: cvs_eomee_ccsd/rhfref/singlets: 9/A'
 Transition dipole moment (a.u.):
   A->B: 0.014947 (X -0.000410, Y -0.014941, Z 0.000000)
   B->A: 0.014191 (X 0.000964, Y -0.014158, Z 0.000000)
 Oscillator strength (a.u.): 0.001509
 Norm of one-particle transition density matrix:
   A->B: 0.894632;   B->A: 0.856240
   ||gamma^AB||*||gamma^BA||: 0.766020

 ------------------------------------------------------------------------------
 State A: ccsd: 0/A'
 State B: cvs_eomee_ccsd/rhfref/singlets: 10/A'
 Transition dipole moment (a.u.):
   A->B: 0.035380 (X 0.028469, Y 0.021007, Z 0.000000)
   B->A: 0.034384 (X 0.027802, Y 0.020230, Z 0.000000)
 Oscillator strength (a.u.): 0.008697
 Norm of one-particle transition density matrix:
   A->B: 0.903107;   B->A: 0.868283
   ||gamma^AB||*||gamma^BA||: 0.784153

 ------------------------------------------------------------------------------
 State A: ccsd: 0/A'
 State B: cvs_eomee_ccsd/rhfref/singlets: 11/A'
 Transition dipole moment (a.u.):
   A->B: 0.038132 (X -0.014307, Y 0.035346, Z 0.000000)
   B->A: 0.037054 (X -0.014240, Y 0.034209, Z 0.000000)
 Oscillator strength (a.u.): 0.010110
 Norm of one-particle transition density matrix:
   A->B: 0.905289;   B->A: 0.873083
   ||gamma^AB||*||gamma^BA||: 0.790392

 ------------------------------------------------------------------------------
 State A: ccsd: 0/A'
 State B: cvs_eomee_ccsd/rhfref/singlets: 12/A'
 Transition dipole moment (a.u.):
   A->B: 0.019485 (X 0.016817, Y 0.009841, Z 0.000000)
   B->A: 0.018826 (X 0.016293, Y 0.009431, Z 0.000000)
 Oscillator strength (a.u.): 0.002627
 Norm of one-particle transition density matrix:
   A->B: 0.896314;   B->A: 0.857954
   ||gamma^AB||*||gamma^BA||: 0.768996

 ------------------------------------------------------------------------------
 State A: ccsd: 0/A'
 State B: cvs_eomee_ccsd/rhfref/singlets: 13/A'
 Transition dipole moment (a.u.):
   A->B: 0.016026 (X -0.004175, Y -0.015473, Z 0.000000)
   B->A: 0.015077 (X -0.004092, Y -0.014511, Z 0.000000)
 Oscillator strength (a.u.): 0.001732
 Norm of one-particle transition density matrix:
   A->B: 0.898543;   B->A: 0.860568
   ||gamma^AB||*||gamma^BA||: 0.773258

 ------------------------------------------------------------------------------
 State A: ccsd: 0/A'
 State B: cvs_eomee_ccsd/rhfref/singlets: 14/A'
 Transition dipole moment (a.u.):
   A->B: 0.011397 (X -0.002440, Y -0.011132, Z 0.000000)
   B->A: 0.010268 (X -0.002018, Y -0.010068, Z 0.000000)
 Oscillator strength (a.u.): 0.000839
 Norm of one-particle transition density matrix:
   A->B: 0.898239;   B->A: 0.861296
   ||gamma^AB||*||gamma^BA||: 0.773649

 ------------------------------------------------------------------------------
 State A: ccsd: 0/A'
 State B: cvs_eomee_ccsd/rhfref/singlets: 15/A'
 Transition dipole moment (a.u.):
   A->B: 0.010144 (X 0.008228, Y 0.005934, Z 0.000000)
   B->A: 0.009862 (X 0.007971, Y 0.005808, Z 0.000000)
 Oscillator strength (a.u.): 0.000719
 Norm of one-particle transition density matrix:
   A->B: 0.900376;   B->A: 0.861632
   ||gamma^AB||*||gamma^BA||: 0.775793

 ------------------------------------------------------------------------------
 State A: ccsd: 0/A'
 State B: cvs_eomee_ccsd/rhfref/singlets: 16/A'
 Transition dipole moment (a.u.):
   A->B: 0.026686 (X -0.011587, Y 0.024039, Z 0.000000)
   B->A: 0.026111 (X -0.011367, Y 0.023506, Z 0.000000)
 Oscillator strength (a.u.): 0.005006
 Norm of one-particle transition density matrix:
   A->B: 0.897355;   B->A: 0.858775
   ||gamma^AB||*||gamma^BA||: 0.770626

 ------------------------------------------------------------------------------
 State A: ccsd: 0/A'
 State B: cvs_eomee_ccsd/rhfref/singlets: 17/A'
 Transition dipole moment (a.u.):
   A->B: 0.041060 (X -0.022777, Y -0.034164, Z 0.000000)
   B->A: 0.039691 (X -0.022059, Y -0.032997, Z 0.000000)
 Oscillator strength (a.u.): 0.011737
 Norm of one-particle transition density matrix:
   A->B: 0.899417;   B->A: 0.863813
   ||gamma^AB||*||gamma^BA||: 0.776929

 ------------------------------------------------------------------------------
 State A: ccsd: 0/A'
 State B: cvs_eomee_ccsd/rhfref/singlets: 18/A'
 Transition dipole moment (a.u.):
   A->B: 0.033309 (X 0.010019, Y 0.031766, Z 0.000000)
   B->A: 0.031999 (X 0.009220, Y 0.030642, Z 0.000000)
 Oscillator strength (a.u.): 0.007679
 Norm of one-particle transition density matrix:
   A->B: 0.899824;   B->A: 0.862340
   ||gamma^AB||*||gamma^BA||: 0.775955

 ------------------------------------------------------------------------------
 State A: ccsd: 0/A'
 State B: cvs_eomee_ccsd/rhfref/singlets: 19/A'
 Transition dipole moment (a.u.):
   A->B: 0.022607 (X -0.022268, Y 0.003896, Z 0.000000)
   B->A: 0.022000 (X -0.021655, Y 0.003880, Z 0.000000)
 Oscillator strength (a.u.): 0.003584
 Norm of one-particle transition density matrix:
   A->B: 0.891367;   B->A: 0.856030
   ||gamma^AB||*||gamma^BA||: 0.763036

 ------------------------------------------------------------------------------
 State A: ccsd: 0/A'
 State B: cvs_eomee_ccsd/rhfref/singlets: 20/A'
 Transition dipole moment (a.u.):
   A->B: 0.031275 (X -0.031129, Y -0.003014, Z 0.000000)
   B->A: 0.030387 (X -0.030241, Y -0.002979, Z 0.000000)
 Oscillator strength (a.u.): 0.006856
 Norm of one-particle transition density matrix:
   A->B: 0.902956;   B->A: 0.869321
   ||gamma^AB||*||gamma^BA||: 0.784959

 ------------------------------------------------------------------------------
 State A: ccsd: 0/A'
 State B: cvs_eomee_ccsd/rhfref/singlets: 1/A"
 Transition dipole moment (a.u.):
   A->B: 0.080089 (X 0.000000, Y 0.000000, Z -0.080089)
   B->A: 0.081831 (X 0.000000, Y 0.000000, Z -0.081831)
 Oscillator strength (a.u.): 0.045906
 Norm of one-particle transition density matrix:
   A->B: 0.884129;   B->A: 0.887300
   ||gamma^AB||*||gamma^BA||: 0.784487

 ------------------------------------------------------------------------------
 State A: ccsd: 0/A'
 State B: cvs_eomee_ccsd/rhfref/singlets: 2/A"
 Transition dipole moment (a.u.):
   A->B: 0.090672 (X 0.000000, Y 0.000000, Z -0.090672)
   B->A: 0.092119 (X 0.000000, Y 0.000000, Z -0.092119)
 Oscillator strength (a.u.): 0.058942
 Norm of one-particle transition density matrix:
   A->B: 0.886902;   B->A: 0.890611
   ||gamma^AB||*||gamma^BA||: 0.789885

 ------------------------------------------------------------------------------
 State A: ccsd: 0/A'
 State B: cvs_eomee_ccsd/rhfref/singlets: 3/A"
 Transition dipole moment (a.u.):
   A->B: 0.033855 (X 0.000000, Y 0.000000, Z -0.033855)
   B->A: 0.033997 (X 0.000000, Y 0.000000, Z -0.033997)
 Oscillator strength (a.u.): 0.008173
 Norm of one-particle transition density matrix:
   A->B: 0.902735;   B->A: 0.867622
   ||gamma^AB||*||gamma^BA||: 0.783233

 ------------------------------------------------------------------------------
 State A: ccsd: 0/A'
 State B: cvs_eomee_ccsd/rhfref/singlets: 4/A"
 Transition dipole moment (a.u.):
   A->B: 0.027793 (X 0.000000, Y 0.000000, Z 0.027793)
   B->A: 0.026759 (X 0.000000, Y 0.000000, Z 0.026759)
 Oscillator strength (a.u.): 0.005312
 Norm of one-particle transition density matrix:
   A->B: 0.900265;   B->A: 0.861769
   ||gamma^AB||*||gamma^BA||: 0.775820

 ------------------------------------------------------------------------------
 State A: ccsd: 0/A'
 State B: cvs_eomee_ccsd/rhfref/singlets: 5/A"
 Transition dipole moment (a.u.):
   A->B: 0.021182 (X 0.000000, Y 0.000000, Z -0.021182)
   B->A: 0.021459 (X 0.000000, Y 0.000000, Z -0.021459)
 Oscillator strength (a.u.): 0.003257
 Norm of one-particle transition density matrix:
   A->B: 0.897498;   B->A: 0.860702
   ||gamma^AB||*||gamma^BA||: 0.772479

 ------------------------------------------------------------------------------
 State A: ccsd: 0/A'
 State B: cvs_eomee_ccsd/rhfref/singlets: 6/A"
 Transition dipole moment (a.u.):
   A->B: 0.024676 (X 0.000000, Y 0.000000, Z 0.024676)
   B->A: 0.023678 (X 0.000000, Y 0.000000, Z 0.023678)
 Oscillator strength (a.u.): 0.004210
 Norm of one-particle transition density matrix:
   A->B: 0.895962;   B->A: 0.856145
   ||gamma^AB||*||gamma^BA||: 0.767073

 ------------------------------------------------------------------------------
 State A: ccsd: 0/A'
 State B: cvs_eomee_ccsd/rhfref/singlets: 7/A"
 Transition dipole moment (a.u.):
   A->B: 0.007339 (X 0.000000, Y 0.000000, Z -0.007339)
   B->A: 0.007196 (X 0.000000, Y 0.000000, Z -0.007196)
 Oscillator strength (a.u.): 0.000384
 Norm of one-particle transition density matrix:
   A->B: 0.894547;   B->A: 0.854640
   ||gamma^AB||*||gamma^BA||: 0.764516

 ------------------------------------------------------------------------------
 State A: ccsd: 0/A'
 State B: cvs_eomee_ccsd/rhfref/singlets: 8/A"
 Transition dipole moment (a.u.):
   A->B: 0.003381 (X 0.000000, Y 0.000000, Z -0.003381)
   B->A: 0.003519 (X 0.000000, Y 0.000000, Z -0.003519)
 Oscillator strength (a.u.): 0.000087
 Norm of one-particle transition density matrix:
   A->B: 0.898759;   B->A: 0.862684
   ||gamma^AB||*||gamma^BA||: 0.775345

 ------------------------------------------------------------------------------
 State A: ccsd: 0/A'
 State B: cvs_eomee_ccsd/rhfref/singlets: 9/A"
 Transition dipole moment (a.u.):
   A->B: 0.080135 (X 0.000000, Y 0.000000, Z -0.080135)
   B->A: 0.076768 (X 0.000000, Y 0.000000, Z -0.076768)
 Oscillator strength (a.u.): 0.045391
 Norm of one-particle transition density matrix:
   A->B: 0.903566;   B->A: 0.864658
   ||gamma^AB||*||gamma^BA||: 0.781275

 ------------------------------------------------------------------------------
 State A: ccsd: 0/A'
 State B: cvs_eomee_ccsd/rhfref/singlets: 10/A"
 Transition dipole moment (a.u.):
   A->B: 0.053050 (X 0.000000, Y 0.000000, Z 0.053050)
   B->A: 0.042273 (X 0.000000, Y 0.000000, Z 0.042273)
 Oscillator strength (a.u.): 0.016623
 Norm of one-particle transition density matrix:
   A->B: 0.476310;   B->A: 0.393092
   ||gamma^AB||*||gamma^BA||: 0.187234

 ------------------------------------------------------------------------------
 State A: ccsd: 0/A'
 State B: cvs_eomee_ccsd/rhfref/singlets: 11/A"
 Transition dipole moment (a.u.):
   A->B: 0.008982 (X 0.000000, Y 0.000000, Z -0.008982)
   B->A: 0.012471 (X 0.000000, Y 0.000000, Z -0.012471)
 Oscillator strength (a.u.): 0.000832
 Norm of one-particle transition density matrix:
   A->B: 0.327528;   B->A: 0.330792
   ||gamma^AB||*||gamma^BA||: 0.108344

 ------------------------------------------------------------------------------
 State A: ccsd: 0/A'
 State B: cvs_eomee_ccsd/rhfref/singlets: 12/A"
 Transition dipole moment (a.u.):
   A->B: 0.042445 (X 0.000000, Y 0.000000, Z -0.042445)
   B->A: 0.042420 (X 0.000000, Y 0.000000, Z -0.042420)
 Oscillator strength (a.u.): 0.013387
 Norm of one-particle transition density matrix:
   A->B: 0.869014;   B->A: 0.869056
   ||gamma^AB||*||gamma^BA||: 0.755222

 ------------------------------------------------------------------------------
 State A: ccsd: 0/A'
 State B: cvs_eomee_ccsd/rhfref/singlets: 13/A"
 Transition dipole moment (a.u.):
   A->B: 0.066106 (X 0.000000, Y 0.000000, Z -0.066106)
   B->A: 0.061114 (X 0.000000, Y 0.000000, Z -0.061114)
 Oscillator strength (a.u.): 0.030078
 Norm of one-particle transition density matrix:
   A->B: 0.858788;   B->A: 0.795498
   ||gamma^AB||*||gamma^BA||: 0.683164


 All requested transition properties have been computed

 Transition Properties:   CPU 58.09 s  wall 14.11 s

 Total ccman2 time:   CPU 3737.70 s  wall 1048.68 s

 
 --------------------------------------------------------------
             Orbital Energies (a.u.) and Symmetries
 --------------------------------------------------------------
 
 Alpha MOs, Restricted
 -- Occupied --                  
-26.310 -11.332 -11.240  -1.629  -1.055  -0.840  -0.740  -0.691
  1 A'    2 A'    3 A'    4 A'    5 A'    6 A'    7 A'    1 A"                 
 -0.686  -0.591  -0.562  -0.386
  8 A'    9 A'   10 A'    2 A"                                                 
 -- Virtual --                   
  0.046   0.059   0.067   0.109   0.121   0.122   0.139   0.175
 11 A'   12 A'   13 A'    3 A"   14 A'    4 A"   15 A'   16 A'                 
  0.180   0.205   0.214   0.216   0.267   0.287   0.325   0.376
 17 A'   18 A'    5 A"   19 A'   20 A'   21 A'   22 A'    6 A"                 
  0.378   0.455   0.475   0.501   0.547   0.636   0.647   0.700
 23 A'   24 A'   25 A'   26 A'   27 A'   28 A'   29 A'   30 A'                 
  0.702   0.784   0.839   0.902   0.916   0.946   1.010   1.083
  7 A"    8 A"   31 A'   32 A'   33 A'   34 A'   35 A'   36 A'                 
  1.250   1.311   1.457   1.569   1.644   1.660   1.670   1.733
  9 A"   10 A"   11 A"   37 A'   38 A'   39 A'   12 A"   40 A'                 
  1.807   1.842   1.904   1.947   2.030   2.142   2.210   2.310
 41 A'   42 A'   13 A"   43 A'   14 A"   44 A'   45 A'   15 A"                 
  2.342   2.401   2.432   2.554   2.740   2.863   2.916   2.981
 46 A'   16 A"   47 A'   48 A'   49 A'   50 A'   51 A'   52 A'                 
  3.044   3.064   3.250   3.363   3.580   3.873   4.142   4.225
 53 A'   17 A"   18 A"   54 A'   55 A'   56 A'   57 A'   19 A"                 
  4.248   4.424   4.443   4.590   5.310   6.925   7.004   7.324
 58 A'   59 A'   20 A"   60 A'   61 A'   21 A"   62 A'   63 A'                 
 24.828  25.409  68.750
 64 A'   65 A'   66 A'                                                         
 
 Beta MOs, Restricted
 -- Occupied --                  
-26.310 -11.332 -11.240  -1.629  -1.055  -0.840  -0.740  -0.691
  1 A'    2 A'    3 A'    4 A'    5 A'    6 A'    7 A'    1 A"                 
 -0.686  -0.591  -0.562  -0.386
  8 A'    9 A'   10 A'    2 A"                                                 
 -- Virtual --                   
  0.046   0.059   0.067   0.109   0.121   0.122   0.139   0.175
 11 A'   12 A'   13 A'    3 A"   14 A'    4 A"   15 A'   16 A'                 
  0.180   0.205   0.214   0.216   0.267   0.287   0.325   0.376
 17 A'   18 A'    5 A"   19 A'   20 A'   21 A'   22 A'    6 A"                 
  0.378   0.455   0.475   0.501   0.547   0.636   0.647   0.700
 23 A'   24 A'   25 A'   26 A'   27 A'   28 A'   29 A'   30 A'                 
  0.702   0.784   0.839   0.902   0.916   0.946   1.010   1.083
  7 A"    8 A"   31 A'   32 A'   33 A'   34 A'   35 A'   36 A'                 
  1.250   1.311   1.457   1.569   1.644   1.660   1.670   1.733
  9 A"   10 A"   11 A"   37 A'   38 A'   39 A'   12 A"   40 A'                 
  1.807   1.842   1.904   1.947   2.030   2.142   2.210   2.310
 41 A'   42 A'   13 A"   43 A'   14 A"   44 A'   45 A'   15 A"                 
  2.342   2.401   2.432   2.554   2.740   2.863   2.916   2.981
 46 A'   16 A"   47 A'   48 A'   49 A'   50 A'   51 A'   52 A'                 
  3.044   3.064   3.250   3.363   3.580   3.873   4.142   4.225
 53 A'   17 A"   18 A"   54 A'   55 A'   56 A'   57 A'   19 A"                 
  4.248   4.424   4.443   4.590   5.310   6.925   7.004   7.324
 58 A'   59 A'   20 A"   60 A'   61 A'   21 A"   62 A'   63 A'                 
 24.828  25.409  68.750
 64 A'   65 A'   66 A'                                                         
 --------------------------------------------------------------
 
          Ground-State Mulliken Net Atomic Charges

     Atom                 Charge (a.u.)
  ----------------------------------------
      1 F                    -0.161411
      2 C                    -0.250461
      3 C                    -0.020824
      4 H                     0.169571
      5 H                     0.148351
      6 H                     0.114774
  ----------------------------------------
  Sum of atomic charges =    -0.000000

 -----------------------------------------------------------------
                    Cartesian Multipole Moments
 -----------------------------------------------------------------
    Charge (ESU x 10^10)
                -0.0000
    Dipole Moment (Debye)
         X      -1.4919      Y      -0.9315      Z       0.0000
       Tot       1.7588
    Quadrupole Moments (Debye-Ang)
        XX     -18.0169     XY      -0.9545     YY     -15.3190
        XZ       0.0000     YZ      -0.0000     ZZ     -19.4634
    Octopole Moments (Debye-Ang^2)
       XXX       3.3630    XXY      -0.3982    XYY       2.1562
       YYY       0.4379    XXZ      -0.0000    XYZ       0.0000
       YYZ       0.0000    XZZ       4.9913    YZZ       0.6898
       ZZZ       0.0000
    Hexadecapole Moments (Debye-Ang^3)
      XXXX    -118.9090   XXXY       3.8287   XXYY     -26.0404
      XYYY      -0.5470   YYYY     -34.4769   XXXZ       0.0000
      XXYZ       0.0000   XYYZ      -0.0000   YYYZ      -0.0000
      XXZZ     -26.3130   XYZZ       0.5238   YYZZ     -10.9109
      XZZZ       0.0000   YZZZ      -0.0000   ZZZZ     -21.3270
 -----------------------------------------------------------------
Archival summary:
1\1\n-62-29-18\SP\ProcedureUnspecified\BasisUnspecified\123\malop\MonAug1319:17:402018MonAug1319:17:402018\0\\#,ProcedureUnspecified,BasisUnspecified,\\0,1\C\H,1,1.08083\C,1,1.32523,2,125.835\H,3,1.07898,1,118.942,2,-0,0\H,3,1.08006,1,121.377,2,-180,0\F,1,1.34281,2,112.267,3,180,0\\HF=-176.936663\\@

 Total job time:  1077.21s(wall), 3798.75s(cpu) 
 Mon Aug 13 19:17:40 2018

        *************************************************************
        *                                                           *
        *  Thank you very much for using Q-Chem.  Have a nice day.  *
        *                                                           *
        *************************************************************


