n-62-29-11 10.66.29
Q-Chem Developer Version! Running on 10.66.29.*
                  Welcome to Q-Chem
     A Quantum Leap Into The Future Of Chemistry


 Q-Chem 5.1, Q-Chem, Inc., Pleasanton, CA (2018)

 Yihan Shao,  Zhengting Gan,  E. Epifanovsky,  A. T. B. Gilbert,  M. Wormit,  
 J. Kussmann,  A. W. Lange,  A. Behn,  Jia Deng,  Xintian Feng,  D. Ghosh,  
 M. Goldey,  P. R. Horn,  L. D. Jacobson,  I. Kaliman,  T. Kus,  A. Landau,  
 Jie Liu,  E. I. Proynov,  R. M. Richard,  R. P. Steele,  E. J. Sundstrom,  
 H. L. Woodcock III,  P. M. Zimmerman,  D. Zuev,  B. Albrecht,  E. Alguire,  
 S. A. Baeppler,  D. Barton,  Z. Benda,  Y. A. Bernard,  E. J. Berquist,  
 K. B. Bravaya,  H. Burton,  D. Casanova,  Chun-Min Chang,  Yunqing Chen,  
 A. Chien,  K. D. Closser,  M. P. Coons,  S. Coriani,  S. Dasgupta,  
 A. L. Dempwolff,  M. Diedenhofen,  Hainam Do,  R. G. Edgar,  Po-Tung Fang,  
 S. Faraji,  S. Fatehi,  Qingguo Feng,  K. D. Fenk,  J. Fosso-Tande,  
 Qinghui Ge,  A. Ghysels,  G. Gidofalvi,  J. Gomes,  J. Gonthier,  A. Gunina,  
 M. W. D. Hanson-Heine,  P. H. P. Harbach,  A. W. Hauser,  J. E. Herr,  
 E. G. Hohenstein,  Z. C. Holden,  Kerwin Hui,  T.-C. Jagau,  Hyunjun Ji,  
 B. Kaduk,  K. Khistyaev,  Jaehoon Kim,  P. Klunzinger,  K. Koh,  
 D. Kosenkov,  L. Koulias,  T. Kowalczyk,  C. M. Krauter,  A. Kunitsa,  
 Ka Un Lao,  A. Laurent,  K. V. Lawler,  Joonho Lee,  D. Lefrancois,  
 S. Lehtola,  D. S. Levine,  Yi-Pei Li,  You-Sheng Lin,  Fenglai Liu,  
 E. Livshits,  A. Luenser,  P. Manohar,  E. Mansoor,  S. F. Manzer,  
 Shan-Ping Mao,  Yuezhi Mao,  N. Mardirossian,  A. V. Marenich,  
 T. Markovich,  L. A. Martinez-Martinez,  S. A. Maurer,  N. J. Mayhall,  
 S. C. McKenzie,  J.-M. Mewes,  A. F. Morrison,  J. W. Mullinax,  K. Nanda,  
 T. S. Nguyen-Beck,  R. Olivares-Amaya,  J. A. Parkhill,  T. M. Perrine,  
 F. Plasser,  P. Pokhilko,  S. Prager,  A. Prociuk,  E. Ramos,  D. R. Rehn,  
 F. Rob,  M. Schneider,  N. Sergueev,  S. M. Sharada,  S. Sharma,  
 D. W. Small,  T. Stauch,  T. Stein,  Yu-Chuan Su,  A. J. W. Thom,  
 A. Tkatchenko,  T. Tsuchimochi,  N. M. Tubman,  L. Vogt,  M. L. Vidal,  
 O. Vydrov,  M. A. Watson,  J. Wenzel,  M. de Wergifosse,  T. A. Wesolowski,  
 A. White,  J. Witte,  A. Yamada,  Jun Yang,  K. Yao,  S. Yeganeh,  
 S. R. Yost,  Zhi-Qiang You,  A. Zech,  Igor Ying Zhang,  Xing Zhang,  
 Yan Zhao,  Ying Zhu,  B. R. Brooks,  G. K. L. Chan,  C. J. Cramer,  
 M. S. Gordon,  W. J. Hehre,  A. Klamt,  M. W. Schmidt,  C. D. Sherrill,  
 D. G. Truhlar,  A. Aspuru-Guzik,  R. Baer,  A. T. Bell,  N. A. Besley,  
 Jeng-Da Chai,  R. A. DiStasio Jr.,  A. Dreuw,  B. D. Dunietz,  
 T. R. Furlani,  Chao-Ping Hsu,  Yousung Jung,  Jing Kong,  D. S. Lambrecht,  
 WanZhen Liang,  C. Ochsenfeld,  V. A. Rassolov,  L. V. Slipchenko,  
 J. E. Subotnik,  T. Van Voorhis,  J. M. Herbert,  A. I. Krylov,  
 P. M. W. Gill,  M. Head-Gordon

 Contributors to earlier versions of Q-Chem not listed above: 
 R. D. Adamson,  B. Austin,  J. Baker,  G. J. O. Beran,  K. Brandhorst,  
 S. T. Brown,  E. F. C. Byrd,  A. K. Chakraborty,  C.-L. Cheng,  
 Siu Hung Chien,  D. M. Chipman,  D. L. Crittenden,  H. Dachsel,  
 R. J. Doerksen,  A. D. Dutoi,  L. Fusti-Molnar,  W. A. Goddard III,  
 A. Golubeva-Zadorozhnaya,  S. R. Gwaltney,  G. Hawkins,  A. Heyden,  
 S. Hirata,  G. Kedziora,  F. J. Keil,  C. Kelley,  Jihan Kim,  R. A. King,  
 R. Z. Khaliullin,  P. P. Korambath,  W. Kurlancheek,  A. M. Lee,  M. S. Lee,  
 S. V. Levchenko,  Ching Yeh Lin,  D. Liotard,  R. C. Lochan,  I. Lotan,  
 P. E. Maslen,  N. Nair,  D. P. O'Neill,  D. Neuhauser,  E. Neuscamman,  
 C. M. Oana,  R. Olson,  B. Peters,  R. Peverati,  P. A. Pieniazek,  
 Y. M. Rhee,  J. Ritchie,  M. A. Rohrdanz,  E. Rosta,  N. J. Russ,  
 H. F. Schaefer III,  N. E. Schultz,  N. Shenvi,  A. C. Simmonett,  A. Sodt,  
 D. Stuck,  K. S. Thanthiriwatte,  V. Vanovschi,  Tao Wang,  A. Warshel,  
 C. F. Williams,  Q. Wu,  X. Xu,  W. Zhang

 Please cite Q-Chem as follows:
 Y. Shao et al., Mol. Phys. 113, 184-215 (2015)
 DOI: 10.1080/00268976.2014.952696

 Q-Chem 5.1.0 for Intel X86 EM64T Linux

 Parts of Q-Chem use Armadillo 8.300.2 (Tropical Shenanigans).
 http://arma.sourceforge.net/

 Q-Chem begins on Fri May 25 16:38:49 2018  

Host: 
0

     Scratch files written to /work1/malop/qc_6079191.hnode2//

Checking the input file for inconsistencies... 	...done.

--------------------------------------------------------------
User input:
--------------------------------------------------------------
$comment 
NEXAFS VINYLFLUORIDE / aug-cc-pvtz
$end

$molecule
0 1
C       1.1826448394     0.0548061476     0.0000000000
F      -1.1854318948     0.1635668874     0.0000000000
C       0.0616065814    -0.3344575735     0.0000000000
H       0.0709590846    -1.4152471088     0.0000000000
H       1.0359692299     1.5267000199     0.0000000000
H       2.1092745806    -0.0006549534     0.0000000000
$end

$rem
!    input_bohr = true
    jobtype = sp
    method = eom-ccsd
    cvs_ee_singlets    [5,5]
    basis = aug-cc-pvtz
    n_frozen_core = fc 
    cc_trans_prop = true
    eom_preconv_singles = true
    eom_davidson_convergence = 3
    eom_davidson_threshold = 00103
$end

--------------------------------------------------------------
 ----------------------------------------------------------------
             Standard Nuclear Orientation (Angstroms)
    I     Atom           X                Y                Z
 ----------------------------------------------------------------
    1      C       1.1821106307     0.0587620256    -0.0000000000
    2      F      -1.1859658446     0.1675284028    -0.0000000000
    3      C       0.0610714460    -0.3304990268     0.0000000000
    4      H       0.0704213763    -1.4112885843     0.0000000000
    5      H       1.0354385251     1.5306562471    -0.0000000000
    6      H       2.1087402398     0.0032987187    -0.0000000000
 ----------------------------------------------------------------
 Molecular Point Group                 Cs    NOp =  2
 Largest Abelian Subgroup              Cs    NOp =  2
 Nuclear Repulsion Energy =    68.9560576729 hartrees
 There are       12 alpha and       12 beta electrons
 Requested basis set is aug-cc-pVTZ
 There are 69 shells and 207 basis functions
 Total memory of 2000MB is distributed as follows: 
   QALLOC including MEM_STATIC uses 192MB
   MEM_STATIC is set to 192MB
   CCMAN JOB total memory use is  1808MB
 Warning: actual memory use might exceed 2000MB

 Total QAlloc Memory Limit    192 MB
 Mega-Array Size       188 MB
 MEM_STATIC part       192 MB

                       Distance Matrix (Angstroms)
             C (  1)   F (  2)   C (  3)   H (  4)   H (  5)
   F (  2)  2.370573
   C (  3)  1.186698  1.342808
   H (  4)  1.843069  2.017715  1.080830
   H (  5)  1.479184  2.606291  2.100783  3.096175
   H (  6)  0.928288  3.298797  2.074697  2.481089  1.866761
 
 A cutoff of  1.0D-14 yielded   2412 shell pairs
 There are     21840 function pairs (     29448 Cartesian)
 Smallest overlap matrix eigenvalue = 1.19E-05

 Scale SEOQF with 1.000000e-01/1.000000e-01/1.000000e-01

 Standard Electronic Orientation quadrupole field applied
 Nucleus-field energy     =     0.0000000013 hartrees
 Guess from superposition of atomic densities
 Warning:  Energy on first SCF cycle will be non-variational
 SAD guess density has 24.000000 electrons

 -----------------------------------------------------------------------
  General SCF calculation program by
  Eric Jon Sundstrom, Paul Horn, Yuezhi Mao, Dmitri Zuev, Alec White,
  David Stuck, Shaama M.S., Shane Yost, Joonho Lee, David Small,
  Daniel Levine, Susi Lehtola, Hugh Burton, Evgeny Epifanovsky
 -----------------------------------------------------------------------
 Hartree-Fock
 A restricted SCF calculation will be
 performed using DIIS
 SCF converges when DIIS error is below 1.0e-08
 ---------------------------------------
  Cycle       Energy         DIIS error
 ---------------------------------------
    1    -177.6821309299      3.06e-02  
    2    -176.7761909314      2.81e-03  
    3    -176.8146575152      1.21e-03  
    4    -176.8201994337      3.63e-04  
    5    -176.8210723032      8.33e-05  
    6    -176.8211370317      3.01e-05  
    7    -176.8211442801      8.78e-06  
    8    -176.8211452776      2.07e-06  
    9    -176.8211453322      5.14e-07  
   10    -176.8211453351      1.55e-07  
   11    -176.8211453353      3.43e-08  
   12    -176.8211453353      9.50e-09  Convergence criterion met
 ---------------------------------------
 SCF time:   CPU 73.43s  wall 74.00s 
 SCF   energy in the final basis set =     -176.8211453353


 ------------------------------------------------------------------------------

   CCMAN2: suite of methods based on coupled cluster
           and equation of motion theories.

   Components:
   * libvmm-1.3-trunk
     by Evgeny Epifanovsky, Ilya Kaliman.
   * libtensor-2.5-trunk
     by Evgeny Epifanovsky, Michael Wormit, Dmitry Zuev, Sam Manzer, 
        Ilya Kaliman.
   * libcc-2.5-trunk
     by Evgeny Epifanovsky, Arik Landau, Tomasz Kus, Kirill Khistyaev, 
        Dmitry Zuev, Prashant Manohar, Xintian Feng, Anna Krylov, 
        Matthew Goldey, Alec White, Thomas Jagau, Kaushik Nanda, 
        Anastasia Gunina, Alexander Kunitsa, Joonho Lee.

   CCMAN original authors:
   Anna I. Krylov, C. David Sherrill, Steven R. Gwaltney,
   Edward F. C. Byrd (2000)
   Sergey V. Levchenko, Lyudmila V. Slipchenko, Tao Wang,
   Ana-Maria C. Cristian (2003)
   Piotr A. Pieniazek, C. Melania Oana, Evgeny Epifanovsky (2007)
   Prashant Manohar (2009)

 ------------------------------------------------------------------------------


 Calculation will run on 1 core with 1808MB of RAM.

 
 Alpha MOs, Restricted
 -- Occupied --                  
-26.326 -11.322 -11.248  -1.637  -1.110  -0.846  -0.762  -0.742
  1 A'    2 A'    3 A'    4 A'    5 A'    6 A'    7 A'    8 A'                 
 -0.703  -0.606  -0.440  -0.426
  1 A"    9 A'    2 A"   10 A'                                                 
 -- Virtual --                   
  0.028   0.038   0.053   0.082   0.085   0.099   0.102   0.126
 11 A'   12 A'   13 A'   14 A'    3 A"    4 A"   15 A'   16 A'                 
  0.134   0.137   0.160   0.188   0.199   0.234   0.234   0.254
 17 A'   18 A'   19 A'    5 A"   20 A'   21 A'    6 A"   22 A'                 
  0.276   0.285   0.287   0.300   0.308   0.324   0.342   0.361
  7 A"   23 A'   24 A'   25 A'    8 A"   26 A'   27 A'    9 A"                 
  0.368   0.376   0.378   0.393   0.407   0.427   0.442   0.449
 28 A'   29 A'   30 A'   10 A"   31 A'   11 A"   32 A'   12 A"                 
  0.456   0.484   0.513   0.519   0.527   0.573   0.608   0.627
 33 A'   34 A'   35 A'   13 A"   36 A'   37 A'   38 A'   39 A'                 
  0.634   0.732   0.744   0.748   0.751   0.801   0.836   0.864
 14 A"   40 A'   41 A'   42 A'   15 A"   43 A'   44 A'   45 A'                 
  0.866   0.871   0.887   0.922   0.946   0.951   0.958   0.975
 16 A"   17 A"   46 A'   18 A"   47 A'   48 A'   19 A"   49 A'                 
  0.992   1.001   1.026   1.051   1.074   1.084   1.088   1.102
 20 A"   50 A'   51 A'   21 A"   52 A'   22 A"   23 A"   53 A'                 
  1.118   1.131   1.137   1.157   1.167   1.206   1.237   1.249
 54 A'   55 A'   24 A"   56 A'   25 A"   57 A'   58 A'   59 A'                 
  1.291   1.296   1.308   1.345   1.431   1.453   1.469   1.524
 60 A'   26 A"   61 A'   27 A"   62 A'   28 A"   63 A'   64 A'                 
  1.524   1.547   1.580   1.588   1.611   1.635   1.672   1.709
 29 A"   65 A'   30 A"   66 A'   31 A"   67 A'   68 A'   69 A'                 
  1.721   1.767   1.789   1.831   1.853   1.858   1.895   1.901
 32 A"   70 A'   33 A"   71 A'   34 A"   72 A'   73 A'   74 A'                 
  1.969   1.980   2.028   2.042   2.075   2.167   2.229   2.289
 75 A'   35 A"   36 A"   76 A'   77 A'   78 A'   37 A"   79 A'                 
  2.441   2.511   2.766   2.768   2.877   2.940   2.951   3.001
 80 A'   81 A'   82 A'   38 A"   83 A'   39 A"   84 A'   85 A'                 
  3.003   3.056   3.073   3.130   3.160   3.213   3.217   3.287
 40 A"   86 A'   41 A"   87 A'   88 A'   42 A"   89 A'   90 A'                 
  3.289   3.360   3.416   3.419   3.444   3.452   3.482   3.554
 43 A"   44 A"   45 A"   91 A'   92 A'   46 A"   93 A'   94 A'                 
  3.558   3.574   3.609   3.629   3.665   3.689   3.748   3.760
 47 A"   95 A'   96 A'   48 A"   97 A'   49 A"   50 A"   98 A'                 
  3.765   3.849   3.884   3.937   3.993   4.035   4.069   4.140
 99 A'  100 A'  101 A'   51 A"  102 A'   52 A"  103 A'  104 A'                 
  4.158   4.179   4.240   4.299   4.315   4.390   4.454   4.458
 53 A"  105 A'  106 A'  107 A'   54 A"   55 A"   56 A"  108 A'                 
  4.552   4.625   4.629   4.708   4.721   4.776   4.815   4.859
109 A'  110 A'   57 A"  111 A'   58 A"   59 A"  112 A'  113 A'                 
  5.008   5.052   5.147   5.197   5.227   5.262   5.348   5.465
114 A'   60 A"  115 A'  116 A'   61 A"  117 A'  118 A'   62 A"                 
  5.522   5.693   5.786   5.789   5.886   6.274   6.329   6.378
119 A'  120 A'  121 A'   63 A"  122 A'  123 A'   64 A"  124 A'                 
  6.472   6.641   7.517   7.700   8.911   8.938   9.144   9.196
125 A'  126 A'  127 A'  128 A'   65 A"  129 A'   66 A"  130 A'                 
  9.363   9.390   9.402   9.447   9.502   9.657   9.884   9.956
 67 A"  131 A'   68 A"  132 A'  133 A'   69 A"  134 A'  135 A'                 
 15.561  17.967  20.772
136 A'  137 A'  138 A'                                                         
 
 Beta MOs, Restricted
 -- Occupied --                  
-26.326 -11.322 -11.248  -1.637  -1.110  -0.846  -0.762  -0.742
  1 A'    2 A'    3 A'    4 A'    5 A'    6 A'    7 A'    8 A'                 
 -0.703  -0.606  -0.440  -0.426
  1 A"    9 A'    2 A"   10 A'                                                 
 -- Virtual --                   
  0.028   0.038   0.053   0.082   0.085   0.099   0.102   0.126
 11 A'   12 A'   13 A'   14 A'    3 A"    4 A"   15 A'   16 A'                 
  0.134   0.137   0.160   0.188   0.199   0.234   0.234   0.254
 17 A'   18 A'   19 A'    5 A"   20 A'   21 A'    6 A"   22 A'                 
  0.276   0.285   0.287   0.300   0.308   0.324   0.342   0.361
  7 A"   23 A'   24 A'   25 A'    8 A"   26 A'   27 A'    9 A"                 
  0.368   0.376   0.378   0.393   0.407   0.427   0.442   0.449
 28 A'   29 A'   30 A'   10 A"   31 A'   11 A"   32 A'   12 A"                 
  0.456   0.484   0.513   0.519   0.527   0.573   0.608   0.627
 33 A'   34 A'   35 A'   13 A"   36 A'   37 A'   38 A'   39 A'                 
  0.634   0.732   0.744   0.748   0.751   0.801   0.836   0.864
 14 A"   40 A'   41 A'   42 A'   15 A"   43 A'   44 A'   45 A'                 
  0.866   0.871   0.887   0.922   0.946   0.951   0.958   0.975
 16 A"   17 A"   46 A'   18 A"   47 A'   48 A'   19 A"   49 A'                 
  0.992   1.001   1.026   1.051   1.074   1.084   1.088   1.102
 20 A"   50 A'   51 A'   21 A"   52 A'   22 A"   23 A"   53 A'                 
  1.118   1.131   1.137   1.157   1.167   1.206   1.237   1.249
 54 A'   55 A'   24 A"   56 A'   25 A"   57 A'   58 A'   59 A'                 
  1.291   1.296   1.308   1.345   1.431   1.453   1.469   1.524
 60 A'   26 A"   61 A'   27 A"   62 A'   28 A"   63 A'   64 A'                 
  1.524   1.547   1.580   1.588   1.611   1.635   1.672   1.709
 29 A"   65 A'   30 A"   66 A'   31 A"   67 A'   68 A'   69 A'                 
  1.721   1.767   1.789   1.831   1.853   1.858   1.895   1.901
 32 A"   70 A'   33 A"   71 A'   34 A"   72 A'   73 A'   74 A'                 
  1.969   1.980   2.028   2.042   2.075   2.167   2.229   2.289
 75 A'   35 A"   36 A"   76 A'   77 A'   78 A'   37 A"   79 A'                 
  2.441   2.511   2.766   2.768   2.877   2.940   2.951   3.001
 80 A'   81 A'   82 A'   38 A"   83 A'   39 A"   84 A'   85 A'                 
  3.003   3.056   3.073   3.130   3.160   3.213   3.217   3.287
 40 A"   86 A'   41 A"   87 A'   88 A'   42 A"   89 A'   90 A'                 
  3.289   3.360   3.416   3.419   3.444   3.452   3.482   3.554
 43 A"   44 A"   45 A"   91 A'   92 A'   46 A"   93 A'   94 A'                 
  3.558   3.574   3.609   3.629   3.665   3.689   3.748   3.760
 47 A"   95 A'   96 A'   48 A"   97 A'   49 A"   50 A"   98 A'                 
  3.765   3.849   3.884   3.937   3.993   4.035   4.069   4.140
 99 A'  100 A'  101 A'   51 A"  102 A'   52 A"  103 A'  104 A'                 
  4.158   4.179   4.240   4.299   4.315   4.390   4.454   4.458
 53 A"  105 A'  106 A'  107 A'   54 A"   55 A"   56 A"  108 A'                 
  4.552   4.625   4.629   4.708   4.721   4.776   4.815   4.859
109 A'  110 A'   57 A"  111 A'   58 A"   59 A"  112 A'  113 A'                 
  5.008   5.052   5.147   5.197   5.227   5.262   5.348   5.465
114 A'   60 A"  115 A'  116 A'   61 A"  117 A'  118 A'   62 A"                 
  5.522   5.693   5.786   5.789   5.886   6.274   6.329   6.378
119 A'  120 A'  121 A'   63 A"  122 A'  123 A'   64 A"  124 A'                 
  6.472   6.641   7.517   7.700   8.911   8.938   9.144   9.196
125 A'  126 A'  127 A'  128 A'   65 A"  129 A'   66 A"  130 A'                 
  9.363   9.390   9.402   9.447   9.502   9.657   9.884   9.956
 67 A"  131 A'   68 A"  132 A'  133 A'   69 A"  134 A'  135 A'                 
 15.561  17.967  20.772
136 A'  137 A'  138 A'                                                         

 Occupation and symmetry of molecular orbitals

 Point group: Cs (2 irreducible representations).

                           A'   A"    All 
 ------------------------------------------
 All molecular orbitals:
  - Alpha                  138  69    207 
  - Beta                   138  69    207 
 ------------------------------------------
 Alpha orbitals:
  - Frozen occupied        3    0     3   
  - Active occupied        7    2     9   
  - Active virtual         128  67    195 
  - Frozen virtual         0    0     0   
 ------------------------------------------
 Beta orbitals:
  - Frozen occupied        3    0     3   
  - Active occupied        7    2     9   
  - Active virtual         128  67    195 
  - Frozen virtual         0    0     0   
 ------------------------------------------

 Import integrals:   CPU 0.00 s  wall 0.00 s

 Import integrals:   CPU 106.64 s  wall 135.44 s

 MP2 amplitudes:   CPU 1.31 s  wall 2.10 s

           CCSD T amplitudes will be solved using DIIS.

           Start     Size      MaxIter   EConv     TConv     
           3         7         100       1.00e-06  1.00e-04  
 ------------------------------------------------------------------------------
           Energy (a.u.)   Ediff      Tdiff       Comment
 ------------------------------------------------------------------------------
          -177.41136430                           
     1    -177.41290136   1.54e-03   6.57e-01     Step took 01.13.
     2    -177.42811451   1.52e-02   7.90e-02     
     3    -177.42840956   2.95e-04   3.11e-02     
     4    -177.43003560   1.63e-03   1.16e-02     Switched to DIIS steps.
     5    -177.43064748   6.12e-04   9.68e-03     
     6    -177.43066535   1.79e-05   1.49e-03     
     7    -177.43066536   9.69e-09   6.97e-04     
     8    -177.43066549   1.29e-07   1.50e-04     
     9    -177.43066610   6.07e-07   6.57e-05     
 ------------------------------------------------------------------------------
          -177.43066610                           CCSD T converged.

 SCF energy                 = -176.82114534
 MP2 energy                 = -177.41136430
 CCSD correlation energy     =   -0.60952076
 CCSD total energy           = -177.43066610

 CCSD  T1^2 = 0.0067  T2^2 = 0.1822  Leading amplitudes:

 Amplitude    Orbitals with energies
 -0.0158       1 (A") A                  ->    6 (A") A                   
              -0.7035                          0.2339                     
 -0.0158       1 (A") B                  ->    6 (A") B                   
              -0.7035                          0.2339                     
  0.0145       10 (A') A                 ->    19 (A') A                  
              -0.4255                          0.1599                     
  0.0145       10 (A') B                 ->    19 (A') B                  
              -0.4255                          0.1599                     

 Amplitude    Orbitals with energies
 -0.0526       2 (A") A      2 (A") B    ->    5 (A") A      5 (A") B     
              -0.4402       -0.4402            0.1882        0.1882       
  0.0526       2 (A") A      2 (A") B    ->    5 (A") B      5 (A") A     
              -0.4402       -0.4402            0.1882        0.1882       
  0.0526       2 (A") B      2 (A") A    ->    5 (A") A      5 (A") B     
              -0.4402       -0.4402            0.1882        0.1882       
 -0.0526       2 (A") B      2 (A") A    ->    5 (A") B      5 (A") A     
              -0.4402       -0.4402            0.1882        0.1882       

 Computing CCSD intermediates for later calculations
 Finished.

           CCSD Lambda amplitudes will be solved using DIIS.
           Start     Size      MaxIter   EConv     LConv     
           3         7         100       1.00e-06  1.00e-04  
 ------------------------------------------------------------------------------
            Enorm      Ldiff       Comment
 ------------------------------------------------------------------------------
     1     4.20e-02   2.79e-02     
     2     1.20e-02   4.78e-03     
     3     4.76e-03   7.94e-04     
     4     2.34e-03   7.73e-04     Switched to DIIS steps.
     5     5.66e-04   4.47e-04     
     6     2.49e-04   7.93e-05     
     7     6.65e-05   1.96e-05     
     8     2.69e-05   3.44e-07     
     9     8.67e-06   1.71e-06     
    10     3.31e-06   5.82e-07     
    11     1.37e-06   1.46e-07     
    12     4.34e-07   1.01e-07     
 ------------------------------------------------------------------------------
                                   CCSD Lambda converged.

 CCSD calculation:   CPU 1020.76 s  wall 1934.90 s

        Solving for CVS-EOMEE-CCSD A' singlet states.

       EOMEE-CCSD-SINGLES right amplitudes will be solved using Davidson.
      Amplitudes will be solved using standard  algorithm
      Roots     MaxVec    MaxIter   Precond   Conv      Thresh    Shift    
      5         60        60        1         1.00e-03  1.00e-103 0.00e+00  
 ------------------------------------------------------------------------------
      Iter ConvRoots NVecs ResNorm Current eigenvalues (eV)
 ------------------------------------------------------------------------------
      0    0      5     4.38e-03   302.4202   303.1788   303.6908   304.3953   304.9781   
      1    0      10    7.80e-02   299.9820   302.1571   303.2739   303.8042   304.4288   
      2    0      15    3.35e-03   296.1466   301.1845   302.7302   302.8445   303.2954   
      3    2      20    4.09e-03   296.0875*  301.1219   301.8839   302.6005   303.2423*  
      4    2      23    7.49e-03   296.0874*  301.0988   301.1774   302.5611*  303.2354   
      5    3      26    8.01e-03   296.0873*  300.4251   301.1091*  302.5562*  302.7697   
      6    3      28    1.57e-03   296.0873*  300.1097   301.1087*  302.4526   302.5636*  
      7    5      30    1.58e-04   296.0872*  300.0737*  301.1086*  302.3972*  302.5617*  

     Davidson procedure converged

        CVS-EOMEE-CCSD/MP2 right amplitudes will be solved using Davidson.
      Amplitudes will be solved using standard  algorithm
      Roots     MaxVec    MaxIter   Precond   Conv      Thresh    Shift    
      5         60        60        1         1.00e-03  1.00e-103 0.00e+00  
 ------------------------------------------------------------------------------
      Iter ConvRoots NVecs ResNorm Current eigenvalues (eV)
 ------------------------------------------------------------------------------
      0    0      5     1.76e+00   296.0872   300.0737   301.1086   302.3972   302.5617   
      1    0      10    1.05e+00   293.0258   296.6711   297.5904   298.8436   299.0014   
      2    0      15    5.69e-02   286.6573   288.8451   289.7036   290.4134   291.4859   
      3    0      20    2.33e-02   285.9065   288.4087   289.2324   289.7112   290.8532   
      4    0      25    6.14e-03   285.6992   288.3331   289.1477   289.4087   290.6467   
      5    0      30    4.97e-03   285.6535   288.2907   289.0972   289.2401   290.5217   
      6    1      35    2.09e-03   285.6346*  288.2618   289.0608   289.1639   290.4312   
      7    2      39    1.53e-03   285.6320*  288.2448*  289.0366   289.1259   290.3706   
      8    4      42    9.35e-04   285.6317*  288.2443*  289.0302*  289.1119*  290.3426   
      9    4      43    9.85e-04   285.6316*  288.2440*  289.0301*  289.1068*  290.3034   
      10   4      44    8.22e-04   285.6316*  288.2434*  289.0299*  289.1033*  290.2713   
      11   4      45    1.01e-03   285.6315*  288.2426*  289.0298*  289.1016*  290.2467   
      12   4      46    1.68e-03   285.6313*  288.2407*  289.0294*  289.1004*  290.1896   
      13   4      47    3.13e-03   285.6311*  288.2383*  289.0289*  289.1000*  290.0581   
      14   4      48    3.46e-03   285.6309*  288.2343*  289.0281*  289.0999*  289.8079   
      15   4      49    3.17e-03   285.6309*  288.2322*  289.0279*  289.0995*  289.6226   
      16   4      50    2.01e-03   285.6308*  288.2305*  289.0275*  289.0989*  289.4474   
      17   4      51    1.03e-03   285.6309*  288.2301*  289.0274*  289.0985*  289.3749   
      18   4      52    8.36e-04   285.6309*  288.2300*  289.0274*  289.0983*  289.3335   
      19   4      53    6.26e-04   285.6309*  288.2299*  289.0274*  289.0984*  289.3095   
      20   5      54    5.48e-04   285.6309*  288.2299*  289.0272*  289.0984*  289.2908*  

     Davidson procedure converged

 EOMEE transition 1/A'
 Total energy = -166.93392524 a.u.  Excitation energy = 285.6308 eV.
 R0^2 = 0.0000  R1^2 = 0.8192  R2_CCVV^2 = 0.0017  R2_COVV^2 = 0.0896  Res^2 = 4.43e-04
 Conv-d = yes

 Amplitude    Transitions between orbitals
 -0.3954       3 (A') A                  ->    19 (A') A                  
 -0.3954       3 (A') B                  ->    19 (A') B                  
  0.2017       3 (A') A                  ->    18 (A') A                  
  0.2017       3 (A') B                  ->    18 (A') B                  
  0.1815       3 (A') A                  ->    14 (A') A                  
  0.1815       3 (A') B                  ->    14 (A') B                  
  0.1771       3 (A') A                  ->    17 (A') A                  
  0.1771       3 (A') B                  ->    17 (A') B                  
 -0.1543       3 (A') A                  ->    13 (A') A                  
 -0.1543       3 (A') B                  ->    13 (A') B                  
  0.1488       3 (A') A                  ->    27 (A') A                  
  0.1488       3 (A') B                  ->    27 (A') B                  
 -0.1453       3 (A') A                  ->    16 (A') A                  
 -0.1453       3 (A') B                  ->    16 (A') B                  
 -0.1440       3 (A') A                  ->    12 (A') A                  
 -0.1440       3 (A') B                  ->    12 (A') B                  
 -0.1041       3 (A') A                  ->    20 (A') A                  
 -0.1041       3 (A') B                  ->    20 (A') B                  

              Summary of significant orbitals:

               Number  Type             Irrep      Energy
               3       Occ  Alpha       3 (A')    -11.2483
               3       Occ  Beta        3 (A')    -11.2483
               14      Vir  Alpha      12 (A')      0.0384
               15      Vir  Alpha      13 (A')      0.0527
               16      Vir  Alpha      14 (A')      0.0825
               20      Vir  Alpha      16 (A')      0.1259
               21      Vir  Alpha      17 (A')      0.1341
               22      Vir  Alpha      18 (A')      0.1367
               23      Vir  Alpha      19 (A')      0.1599
               25      Vir  Alpha      20 (A')      0.1987
               35      Vir  Alpha      27 (A')      0.3422
               14      Vir  Beta       12 (A')      0.0384
               15      Vir  Beta       13 (A')      0.0527
               16      Vir  Beta       14 (A')      0.0825
               20      Vir  Beta       16 (A')      0.1259
               21      Vir  Beta       17 (A')      0.1341
               22      Vir  Beta       18 (A')      0.1367
               23      Vir  Beta       19 (A')      0.1599
               25      Vir  Beta       20 (A')      0.1987
               35      Vir  Beta       27 (A')      0.3422


 EOMEE transition 2/A'
 Total energy = -166.83841150 a.u.  Excitation energy = 288.2299 eV.
 R0^2 = 0.0000  R1^2 = 0.8122  R2_CCVV^2 = 0.0015  R2_COVV^2 = 0.0931  Res^2 = 3.93e-04
 Conv-d = yes

 Amplitude    Transitions between orbitals
 -0.5210       3 (A') A                  ->    11 (A') A                  
 -0.5210       3 (A') B                  ->    11 (A') B                  
  0.1947       3 (A') A                  ->    17 (A') A                  
  0.1947       3 (A') B                  ->    17 (A') B                  
 -0.1836       3 (A') A                  ->    18 (A') A                  
 -0.1836       3 (A') B                  ->    18 (A') B                  
 -0.1332       3 (A') A                  ->    19 (A') A                  
 -0.1332       3 (A') B                  ->    19 (A') B                  
  0.1295       3 (A') A                  ->    16 (A') A                  
  0.1295       3 (A') B                  ->    16 (A') B                  

              Summary of significant orbitals:

               Number  Type             Irrep      Energy
               3       Occ  Alpha       3 (A')    -11.2483
               3       Occ  Beta        3 (A')    -11.2483
               13      Vir  Alpha      11 (A')      0.0283
               20      Vir  Alpha      16 (A')      0.1259
               21      Vir  Alpha      17 (A')      0.1341
               22      Vir  Alpha      18 (A')      0.1367
               23      Vir  Alpha      19 (A')      0.1599
               13      Vir  Beta       11 (A')      0.0283
               20      Vir  Beta       16 (A')      0.1259
               21      Vir  Beta       17 (A')      0.1341
               22      Vir  Beta       18 (A')      0.1367
               23      Vir  Beta       19 (A')      0.1599


 EOMEE transition 3/A'
 Total energy = -166.80911151 a.u.  Excitation energy = 289.0272 eV.
 R0^2 = 0.0000  R1^2 = 0.8092  R2_CCVV^2 = 0.0015  R2_COVV^2 = 0.0947  Res^2 = 4.64e-04
 Conv-d = yes

 Amplitude    Transitions between orbitals
 -0.4315       3 (A') A                  ->    12 (A') A                  
 -0.4315       3 (A') B                  ->    12 (A') B                  
  0.2406       3 (A') A                  ->    15 (A') A                  
  0.2406       3 (A') B                  ->    15 (A') B                  
 -0.2270       3 (A') A                  ->    16 (A') A                  
 -0.2270       3 (A') B                  ->    16 (A') B                  
  0.1706       3 (A') A                  ->    13 (A') A                  
  0.1706       3 (A') B                  ->    13 (A') B                  
  0.1288       3 (A') A                  ->    20 (A') A                  
  0.1288       3 (A') B                  ->    20 (A') B                  
  0.1222       3 (A') A                  ->    24 (A') A                  
  0.1222       3 (A') B                  ->    24 (A') B                  
  0.1106       3 (A') A                  ->    19 (A') A                  
  0.1106       3 (A') B                  ->    19 (A') B                  

              Summary of significant orbitals:

               Number  Type             Irrep      Energy
               3       Occ  Alpha       3 (A')    -11.2483
               3       Occ  Beta        3 (A')    -11.2483
               14      Vir  Alpha      12 (A')      0.0384
               15      Vir  Alpha      13 (A')      0.0527
               19      Vir  Alpha      15 (A')      0.1024
               20      Vir  Alpha      16 (A')      0.1259
               23      Vir  Alpha      19 (A')      0.1599
               25      Vir  Alpha      20 (A')      0.1987
               31      Vir  Alpha      24 (A')      0.2871
               14      Vir  Beta       12 (A')      0.0384
               15      Vir  Beta       13 (A')      0.0527
               19      Vir  Beta       15 (A')      0.1024
               20      Vir  Beta       16 (A')      0.1259
               23      Vir  Beta       19 (A')      0.1599
               25      Vir  Beta       20 (A')      0.1987
               31      Vir  Beta       24 (A')      0.2871


 EOMEE transition 4/A'
 Total energy = -166.80649539 a.u.  Excitation energy = 289.0984 eV.
 R0^2 = 0.0000  R1^2 = 0.8328  R2_CCVV^2 = 0.0017  R2_COVV^2 = 0.0828  Res^2 = 4.88e-04
 Conv-d = yes

 Amplitude    Transitions between orbitals
 -0.4002       2 (A') A                  ->    19 (A') A                  
 -0.4002       2 (A') B                  ->    19 (A') B                  
  0.2380       2 (A') A                  ->    14 (A') A                  
  0.2380       2 (A') B                  ->    14 (A') B                  
  0.2069       2 (A') A                  ->    17 (A') A                  
  0.2069       2 (A') B                  ->    17 (A') B                  
 -0.1784       2 (A') A                  ->    12 (A') A                  
 -0.1784       2 (A') B                  ->    12 (A') B                  
  0.1727       2 (A') A                  ->    27 (A') A                  
  0.1727       2 (A') B                  ->    27 (A') B                  
 -0.1403       2 (A') A                  ->    23 (A') A                  
 -0.1403       2 (A') B                  ->    23 (A') B                  
 -0.1029       2 (A') A                  ->    16 (A') A                  
 -0.1029       2 (A') B                  ->    16 (A') B                  

              Summary of significant orbitals:

               Number  Type             Irrep      Energy
               2       Occ  Alpha       2 (A')    -11.3215
               2       Occ  Beta        2 (A')    -11.3215
               14      Vir  Alpha      12 (A')      0.0384
               16      Vir  Alpha      14 (A')      0.0825
               20      Vir  Alpha      16 (A')      0.1259
               21      Vir  Alpha      17 (A')      0.1341
               23      Vir  Alpha      19 (A')      0.1599
               30      Vir  Alpha      23 (A')      0.2848
               35      Vir  Alpha      27 (A')      0.3422
               14      Vir  Beta       12 (A')      0.0384
               16      Vir  Beta       14 (A')      0.0825
               20      Vir  Beta       16 (A')      0.1259
               21      Vir  Beta       17 (A')      0.1341
               23      Vir  Beta       19 (A')      0.1599
               30      Vir  Beta       23 (A')      0.2848
               35      Vir  Beta       27 (A')      0.3422


 EOMEE transition 5/A'
 Total energy = -166.79942636 a.u.  Excitation energy = 289.2907 eV.
 R0^2 = 0.0000  R1^2 = 0.8022  R2_CCVV^2 = 0.0015  R2_COVV^2 = 0.0981  Res^2 = 9.50e-04
 Conv-d = yes

 Amplitude    Transitions between orbitals
 -0.4268       3 (A') A                  ->    13 (A') A                  
 -0.4268       3 (A') B                  ->    13 (A') B                  
 -0.2718       3 (A') A                  ->    14 (A') A                  
 -0.2718       3 (A') B                  ->    14 (A') B                  
  0.2082       3 (A') A                  ->    19 (A') A                  
  0.2082       3 (A') B                  ->    19 (A') B                  
  0.1719       3 (A') A                  ->    17 (A') A                  
  0.1719       3 (A') B                  ->    17 (A') B                  
 -0.1516       3 (A') A                  ->    12 (A') A                  
 -0.1516       3 (A') B                  ->    12 (A') B                  

              Summary of significant orbitals:

               Number  Type             Irrep      Energy
               3       Occ  Alpha       3 (A')    -11.2483
               3       Occ  Beta        3 (A')    -11.2483
               14      Vir  Alpha      12 (A')      0.0384
               15      Vir  Alpha      13 (A')      0.0527
               16      Vir  Alpha      14 (A')      0.0825
               21      Vir  Alpha      17 (A')      0.1341
               23      Vir  Alpha      19 (A')      0.1599
               14      Vir  Beta       12 (A')      0.0384
               15      Vir  Beta       13 (A')      0.0527
               16      Vir  Beta       14 (A')      0.0825
               21      Vir  Beta       17 (A')      0.1341
               23      Vir  Beta       19 (A')      0.1599


      CVS-EOM-CCSD/MP2 left amplitudes will be solved using Davidson.
      Amplitudes will be solved using MOM  algorithm
      Roots     MaxVec    MaxIter   Precond   Conv      Thresh    Shift    
      5         60        60        1         1.00e-03  1.00e-103 0.00e+00  
 ------------------------------------------------------------------------------
      Iter ConvRoots NVecs ResNorm Current eigenvalues (eV)
 ------------------------------------------------------------------------------
      0    0      5     2.19e-02   285.6309   288.2299   289.0272   289.0984   289.2908   
      1    0      10    2.59e-02   285.6255   288.2268   289.0216   289.0934   289.2824   
      2    3      15    1.17e-03   285.6265*  288.2282*  289.0215*  289.0939   289.2875   
      3    4      17    1.80e-03   285.6266*  288.2282*  289.0215*  289.0919*  289.2827   
      4    4      18    8.88e-04   285.6266*  288.2282*  289.0215*  289.0919*  289.2872   
      5    5      19    6.30e-04   285.6266*  288.2282*  289.0215*  289.0919*  289.2850*  

     Davidson procedure converged

        Solving for CVS-EOMEE-CCSD A" singlet states.

       EOMEE-CCSD-SINGLES right amplitudes will be solved using Davidson.
      Amplitudes will be solved using standard  algorithm
      Roots     MaxVec    MaxIter   Precond   Conv      Thresh    Shift    
      5         60        60        1         1.00e-03  1.00e-103 0.00e+00  
 ------------------------------------------------------------------------------
      Iter ConvRoots NVecs ResNorm Current eigenvalues (eV)
 ------------------------------------------------------------------------------
      0    0      5     1.29e-02   301.1592   303.3367   305.1203   305.2939   305.9200   
      1    0      10    6.55e-02   299.0152   302.1008   302.8866   304.8569   305.3147   
      2    4      15    6.54e-04   297.3054*  298.2424   302.6165*  304.7283*  305.0882*  
      3    5      16    3.53e-04   297.3054*  298.1923*  302.6165*  304.7283*  305.0881*  

     Davidson procedure converged

        CVS-EOMEE-CCSD/MP2 right amplitudes will be solved using Davidson.
      Amplitudes will be solved using standard  algorithm
      Roots     MaxVec    MaxIter   Precond   Conv      Thresh    Shift    
      5         60        60        1         1.00e-03  1.00e-103 0.00e+00  
 ------------------------------------------------------------------------------
      Iter ConvRoots NVecs ResNorm Current eigenvalues (eV)
 ------------------------------------------------------------------------------
      0    0      5     1.77e+00   297.3054   298.1923   302.6165   304.7283   305.0881   
      1    0      10    1.11e+00   293.9740   295.0266   298.9609   300.9950   301.3391   
      2    0      15    5.18e-02   287.1788   289.0360   289.8388   291.4094   292.1726   
      3    0      20    1.10e-02   286.6432   288.4237   289.3923   290.9849   291.7873   
      4    0      25    2.13e-03   286.5400   288.2799   289.3289   290.9429   291.7484   
      5    4      30    8.82e-04   286.5206*  288.2488   289.3054*  290.9237*  291.7311*  
      6    5      31    6.20e-04   286.5206*  288.2396*  289.3054*  290.9237*  291.7285*  

     Davidson procedure converged

 EOMEE transition 1/A"
 Total energy = -166.90122815 a.u.  Excitation energy = 286.5206 eV.
 R0^2 = 0.0000  R1^2 = 0.8368  R2_CCVV^2 = 0.0017  R2_COVV^2 = 0.0807  Res^2 = 7.91e-04
 Conv-d = yes

 Amplitude    Transitions between orbitals
 -0.4853       3 (A') A                  ->    5 (A") A                   
 -0.4853       3 (A') B                  ->    5 (A") B                   
  0.2635       3 (A') A                  ->    4 (A") A                   
  0.2635       3 (A') B                  ->    4 (A") B                   
 -0.2232       3 (A') A                  ->    6 (A") A                   
 -0.2232       3 (A') B                  ->    6 (A") B                   
  0.1342       3 (A') A                  ->    10 (A") A                  
  0.1342       3 (A') B                  ->    10 (A") B                  
  0.1245       3 (A') A                  ->    9 (A") A                   
  0.1245       3 (A') B                  ->    9 (A") B                   

              Summary of significant orbitals:

               Number  Type             Irrep      Energy
               3       Occ  Alpha       3 (A')    -11.2483
               3       Occ  Beta        3 (A')    -11.2483
               18      Vir  Alpha       4 (A")      0.0993
               24      Vir  Alpha       5 (A")      0.1882
               27      Vir  Alpha       6 (A")      0.2339
               36      Vir  Alpha       9 (A")      0.3607
               40      Vir  Alpha      10 (A")      0.3932
               18      Vir  Beta        4 (A")      0.0993
               24      Vir  Beta        5 (A")      0.1882
               27      Vir  Beta        6 (A")      0.2339
               36      Vir  Beta        9 (A")      0.3607
               40      Vir  Beta       10 (A")      0.3932


 EOMEE transition 2/A"
 Total energy = -166.83805502 a.u.  Excitation energy = 288.2396 eV.
 R0^2 = 0.0000  R1^2 = 0.8461  R2_CCVV^2 = 0.0018  R2_COVV^2 = 0.0760  Res^2 = 2.11e-04
 Conv-d = yes

 Amplitude    Transitions between orbitals
 -0.4804       2 (A') A                  ->    5 (A") A                   
 -0.4804       2 (A') B                  ->    5 (A") B                   
 -0.2298       2 (A') A                  ->    6 (A") A                   
 -0.2298       2 (A') B                  ->    6 (A") B                   
  0.2286       2 (A') A                  ->    4 (A") A                   
  0.2286       2 (A') B                  ->    4 (A") B                   
 -0.1592       2 (A') A                  ->    3 (A") A                   
 -0.1592       2 (A') B                  ->    3 (A") B                   
  0.1420       2 (A') A                  ->    9 (A") A                   
  0.1420       2 (A') B                  ->    9 (A") B                   
  0.1135       2 (A') A                  ->    10 (A") A                  
  0.1135       2 (A') B                  ->    10 (A") B                  
 -0.1016       2 (A') A                  ->    11 (A") A                  
 -0.1016       2 (A') B                  ->    11 (A") B                  

              Summary of significant orbitals:

               Number  Type             Irrep      Energy
               2       Occ  Alpha       2 (A')    -11.3215
               2       Occ  Beta        2 (A')    -11.3215
               17      Vir  Alpha       3 (A")      0.0848
               18      Vir  Alpha       4 (A")      0.0993
               24      Vir  Alpha       5 (A")      0.1882
               27      Vir  Alpha       6 (A")      0.2339
               36      Vir  Alpha       9 (A")      0.3607
               40      Vir  Alpha      10 (A")      0.3932
               42      Vir  Alpha      11 (A")      0.4268
               17      Vir  Beta        3 (A")      0.0848
               18      Vir  Beta        4 (A")      0.0993
               24      Vir  Beta        5 (A")      0.1882
               27      Vir  Beta        6 (A")      0.2339
               36      Vir  Beta        9 (A")      0.3607
               40      Vir  Beta       10 (A")      0.3932
               42      Vir  Beta       11 (A")      0.4268


 EOMEE transition 3/A"
 Total energy = -166.79888772 a.u.  Excitation energy = 289.3054 eV.
 R0^2 = 0.0000  R1^2 = 0.8103  R2_CCVV^2 = 0.0016  R2_COVV^2 = 0.0941  Res^2 = 8.18e-04
 Conv-d = yes

 Amplitude    Transitions between orbitals
  0.6059       3 (A') A                  ->    3 (A") A                   
  0.6059       3 (A') B                  ->    3 (A") B                   
  0.1006       3 (A') A                  ->    8 (A") A                   
  0.1006       3 (A') B                  ->    8 (A") B                   

              Summary of significant orbitals:

               Number  Type             Irrep      Energy
               3       Occ  Alpha       3 (A')    -11.2483
               3       Occ  Beta        3 (A')    -11.2483
               17      Vir  Alpha       3 (A")      0.0848
               33      Vir  Alpha       8 (A")      0.3075
               17      Vir  Beta        3 (A")      0.0848
               33      Vir  Beta        8 (A")      0.3075


 EOMEE transition 4/A"
 Total energy = -166.73941496 a.u.  Excitation energy = 290.9237 eV.
 R0^2 = 0.0000  R1^2 = 0.8051  R2_CCVV^2 = 0.0015  R2_COVV^2 = 0.0967  Res^2 = 7.81e-04
 Conv-d = yes

 Amplitude    Transitions between orbitals
  0.5702       3 (A') A                  ->    4 (A") A                   
  0.5702       3 (A') B                  ->    4 (A") B                   
  0.2123       3 (A') A                  ->    5 (A") A                   
  0.2123       3 (A') B                  ->    5 (A") B                   
 -0.1079       3 (A') A                  ->    9 (A") A                   
 -0.1079       3 (A') B                  ->    9 (A") B                   

              Summary of significant orbitals:

               Number  Type             Irrep      Energy
               3       Occ  Alpha       3 (A')    -11.2483
               3       Occ  Beta        3 (A')    -11.2483
               18      Vir  Alpha       4 (A")      0.0993
               24      Vir  Alpha       5 (A")      0.1882
               36      Vir  Alpha       9 (A")      0.3607
               18      Vir  Beta        4 (A")      0.0993
               24      Vir  Beta        5 (A")      0.1882
               36      Vir  Beta        9 (A")      0.3607


 EOMEE transition 5/A"
 Total energy = -166.70984014 a.u.  Excitation energy = 291.7285 eV.
 R0^2 = 0.0000  R1^2 = 0.8126  R2_CCVV^2 = 0.0016  R2_COVV^2 = 0.0929  Res^2 = 5.01e-04
 Conv-d = yes

 Amplitude    Transitions between orbitals
  0.5492       2 (A') A                  ->    3 (A") A                   
  0.5492       2 (A') B                  ->    3 (A") B                   
  0.2718       2 (A') A                  ->    4 (A") A                   
  0.2718       2 (A') B                  ->    4 (A") B                   
 -0.1069       2 (A') A                  ->    7 (A") A                   
 -0.1069       2 (A') B                  ->    7 (A") B                   

              Summary of significant orbitals:

               Number  Type             Irrep      Energy
               2       Occ  Alpha       2 (A')    -11.3215
               2       Occ  Beta        2 (A')    -11.3215
               17      Vir  Alpha       3 (A")      0.0848
               18      Vir  Alpha       4 (A")      0.0993
               29      Vir  Alpha       7 (A")      0.2760
               17      Vir  Beta        3 (A")      0.0848
               18      Vir  Beta        4 (A")      0.0993
               29      Vir  Beta        7 (A")      0.2760


      CVS-EOM-CCSD/MP2 left amplitudes will be solved using Davidson.
      Amplitudes will be solved using MOM  algorithm
      Roots     MaxVec    MaxIter   Precond   Conv      Thresh    Shift    
      5         60        60        1         1.00e-03  1.00e-103 0.00e+00  
 ------------------------------------------------------------------------------
      Iter ConvRoots NVecs ResNorm Current eigenvalues (eV)
 ------------------------------------------------------------------------------
      0    0      5     2.10e-02   286.5206   288.2396   289.3054   290.9237   291.7285   
      1    0      10    2.01e-02   286.5134   288.2373   289.2950   290.9141   291.7201   
      2    4      15    8.42e-04   286.5157*  288.2377*  289.2986*  290.9172   291.7219*  
      3    5      16    6.64e-04   286.5156*  288.2377*  289.2980*  290.9151*  291.7219*  

     Davidson procedure converged

 CVS-EOMEE-CCSD calculation:   CPU 6373.93 s  wall 11452.82 s


 Start computing the transition properties

 ------------------------------------------------------------------------------
 State A: ccsd: 0/A'
 State B: cvs_eomee_ccsd/rhfref/singlets: 1/A'
 Transition dipole moment (a.u.):
   A->B: 0.083213 (X 0.000163, Y 0.083213, Z 0.000000)
   B->A: 0.083068 (X 0.000678, Y 0.083065, Z 0.000000)
 Oscillator strength (a.u.): 0.048370
 Norm of one-particle transition density matrix:
   A->B: 0.888575;   B->A: 0.885984
   ||gamma^AB||*||gamma^BA||: 0.787263

 ------------------------------------------------------------------------------
 State A: ccsd: 0/A'
 State B: cvs_eomee_ccsd/rhfref/singlets: 2/A'
 Transition dipole moment (a.u.):
   A->B: 0.016914 (X -0.016117, Y 0.005130, Z 0.000000)
   B->A: 0.016546 (X -0.015764, Y 0.005028, Z 0.000000)
 Oscillator strength (a.u.): 0.001976
 Norm of one-particle transition density matrix:
   A->B: 0.904485;   B->A: 0.869914
   ||gamma^AB||*||gamma^BA||: 0.786824

 ------------------------------------------------------------------------------
 State A: ccsd: 0/A'
 State B: cvs_eomee_ccsd/rhfref/singlets: 3/A'
 Transition dipole moment (a.u.):
   A->B: 0.024964 (X 0.021595, Y -0.012524, Z 0.000000)
   B->A: 0.024871 (X 0.021557, Y -0.012404, Z 0.000000)
 Oscillator strength (a.u.): 0.004397
 Norm of one-particle transition density matrix:
   A->B: 0.903294;   B->A: 0.866955
   ||gamma^AB||*||gamma^BA||: 0.783116

 ------------------------------------------------------------------------------
 State A: ccsd: 0/A'
 State B: cvs_eomee_ccsd/rhfref/singlets: 4/A'
 Transition dipole moment (a.u.):
   A->B: 0.056610 (X 0.036858, Y -0.042966, Z 0.000000)
   B->A: 0.055974 (X 0.036608, Y -0.042342, Z 0.000000)
 Oscillator strength (a.u.): 0.022443
 Norm of one-particle transition density matrix:
   A->B: 0.897366;   B->A: 0.887576
   ||gamma^AB||*||gamma^BA||: 0.796481

 ------------------------------------------------------------------------------
 State A: ccsd: 0/A'
 State B: cvs_eomee_ccsd/rhfref/singlets: 5/A'
 Transition dipole moment (a.u.):
   A->B: 0.014634 (X -0.013428, Y 0.005818, Z 0.000000)
   B->A: 0.014243 (X -0.013111, Y 0.005565, Z 0.000000)
 Oscillator strength (a.u.): 0.001477
 Norm of one-particle transition density matrix:
   A->B: 0.899117;   B->A: 0.861590
   ||gamma^AB||*||gamma^BA||: 0.774670

 ------------------------------------------------------------------------------
 State A: ccsd: 0/A'
 State B: cvs_eomee_ccsd/rhfref/singlets: 1/A"
 Transition dipole moment (a.u.):
   A->B: 0.078696 (X 0.000000, Y 0.000000, Z 0.078696)
   B->A: 0.080287 (X 0.000000, Y 0.000000, Z 0.080287)
 Oscillator strength (a.u.): 0.044352
 Norm of one-particle transition density matrix:
   A->B: 0.899214;   B->A: 0.895139
   ||gamma^AB||*||gamma^BA||: 0.804921

 ------------------------------------------------------------------------------
 State A: ccsd: 0/A'
 State B: cvs_eomee_ccsd/rhfref/singlets: 2/A"
 Transition dipole moment (a.u.):
   A->B: 0.089458 (X 0.000000, Y 0.000000, Z 0.089458)
   B->A: 0.090727 (X 0.000000, Y 0.000000, Z 0.090727)
 Oscillator strength (a.u.): 0.057315
 Norm of one-particle transition density matrix:
   A->B: 0.903417;   B->A: 0.903332
   ||gamma^AB||*||gamma^BA||: 0.816085

 ------------------------------------------------------------------------------
 State A: ccsd: 0/A'
 State B: cvs_eomee_ccsd/rhfref/singlets: 3/A"
 Transition dipole moment (a.u.):
   A->B: 0.035868 (X 0.000000, Y 0.000000, Z 0.035868)
   B->A: 0.036052 (X 0.000000, Y 0.000000, Z 0.036052)
 Oscillator strength (a.u.): 0.009165
 Norm of one-particle transition density matrix:
   A->B: 0.904273;   B->A: 0.869027
   ||gamma^AB||*||gamma^BA||: 0.785838

 ------------------------------------------------------------------------------
 State A: ccsd: 0/A'
 State B: cvs_eomee_ccsd/rhfref/singlets: 4/A"
 Transition dipole moment (a.u.):
   A->B: 0.025168 (X 0.000000, Y 0.000000, Z -0.025168)
   B->A: 0.024526 (X 0.000000, Y 0.000000, Z -0.024526)
 Oscillator strength (a.u.): 0.004400
 Norm of one-particle transition density matrix:
   A->B: 0.902135;   B->A: 0.863657
   ||gamma^AB||*||gamma^BA||: 0.779135

 ------------------------------------------------------------------------------
 State A: ccsd: 0/A'
 State B: cvs_eomee_ccsd/rhfref/singlets: 5/A"
 Transition dipole moment (a.u.):
   A->B: 0.017214 (X 0.000000, Y 0.000000, Z -0.017214)
   B->A: 0.017078 (X 0.000000, Y 0.000000, Z -0.017078)
 Oscillator strength (a.u.): 0.002101
 Norm of one-particle transition density matrix:
   A->B: 0.904998;   B->A: 0.871959
   ||gamma^AB||*||gamma^BA||: 0.789121


 All requested transition properties have been computed

 Transition Properties:   CPU 37.53 s  wall 84.24 s

 Total ccman2 time:   CPU 7548.09 s  wall 13619.20 s

 
 --------------------------------------------------------------
             Orbital Energies (a.u.) and Symmetries
 --------------------------------------------------------------
 
 Alpha MOs, Restricted
 -- Occupied --                  
-26.326 -11.322 -11.248  -1.637  -1.110  -0.846  -0.762  -0.742
  1 A'    2 A'    3 A'    4 A'    5 A'    6 A'    7 A'    8 A'                 
 -0.703  -0.606  -0.440  -0.426
  1 A"    9 A'    2 A"   10 A'                                                 
 -- Virtual --                   
  0.028   0.038   0.053   0.082   0.085   0.099   0.102   0.126
 11 A'   12 A'   13 A'   14 A'    3 A"    4 A"   15 A'   16 A'                 
  0.134   0.137   0.160   0.188   0.199   0.234   0.234   0.254
 17 A'   18 A'   19 A'    5 A"   20 A'   21 A'    6 A"   22 A'                 
  0.276   0.285   0.287   0.300   0.308   0.324   0.342   0.361
  7 A"   23 A'   24 A'   25 A'    8 A"   26 A'   27 A'    9 A"                 
  0.368   0.376   0.378   0.393   0.407   0.427   0.442   0.449
 28 A'   29 A'   30 A'   10 A"   31 A'   11 A"   32 A'   12 A"                 
  0.456   0.484   0.513   0.519   0.527   0.573   0.608   0.627
 33 A'   34 A'   35 A'   13 A"   36 A'   37 A'   38 A'   39 A'                 
  0.634   0.732   0.744   0.748   0.751   0.801   0.836   0.864
 14 A"   40 A'   41 A'   42 A'   15 A"   43 A'   44 A'   45 A'                 
  0.866   0.871   0.887   0.922   0.946   0.951   0.958   0.975
 16 A"   17 A"   46 A'   18 A"   47 A'   48 A'   19 A"   49 A'                 
  0.992   1.001   1.026   1.051   1.074   1.084   1.088   1.102
 20 A"   50 A'   51 A'   21 A"   52 A'   22 A"   23 A"   53 A'                 
  1.118   1.131   1.137   1.157   1.167   1.206   1.237   1.249
 54 A'   55 A'   24 A"   56 A'   25 A"   57 A'   58 A'   59 A'                 
  1.291   1.296   1.308   1.345   1.431   1.453   1.469   1.524
 60 A'   26 A"   61 A'   27 A"   62 A'   28 A"   63 A'   64 A'                 
  1.524   1.547   1.580   1.588   1.611   1.635   1.672   1.709
 29 A"   65 A'   30 A"   66 A'   31 A"   67 A'   68 A'   69 A'                 
  1.721   1.767   1.789   1.831   1.853   1.858   1.895   1.901
 32 A"   70 A'   33 A"   71 A'   34 A"   72 A'   73 A'   74 A'                 
  1.969   1.980   2.028   2.042   2.075   2.167   2.229   2.289
 75 A'   35 A"   36 A"   76 A'   77 A'   78 A'   37 A"   79 A'                 
  2.441   2.511   2.766   2.768   2.877   2.940   2.951   3.001
 80 A'   81 A'   82 A'   38 A"   83 A'   39 A"   84 A'   85 A'                 
  3.003   3.056   3.073   3.130   3.160   3.213   3.217   3.287
 40 A"   86 A'   41 A"   87 A'   88 A'   42 A"   89 A'   90 A'                 
  3.289   3.360   3.416   3.419   3.444   3.452   3.482   3.554
 43 A"   44 A"   45 A"   91 A'   92 A'   46 A"   93 A'   94 A'                 
  3.558   3.574   3.609   3.629   3.665   3.689   3.748   3.760
 47 A"   95 A'   96 A'   48 A"   97 A'   49 A"   50 A"   98 A'                 
  3.765   3.849   3.884   3.937   3.993   4.035   4.069   4.140
 99 A'  100 A'  101 A'   51 A"  102 A'   52 A"  103 A'  104 A'                 
  4.158   4.179   4.240   4.299   4.315   4.390   4.454   4.458
 53 A"  105 A'  106 A'  107 A'   54 A"   55 A"   56 A"  108 A'                 
  4.552   4.625   4.629   4.708   4.721   4.776   4.815   4.859
109 A'  110 A'   57 A"  111 A'   58 A"   59 A"  112 A'  113 A'                 
  5.008   5.052   5.147   5.197   5.227   5.262   5.348   5.465
114 A'   60 A"  115 A'  116 A'   61 A"  117 A'  118 A'   62 A"                 
  5.522   5.693   5.786   5.789   5.886   6.274   6.329   6.378
119 A'  120 A'  121 A'   63 A"  122 A'  123 A'   64 A"  124 A'                 
  6.472   6.641   7.517   7.700   8.911   8.938   9.144   9.196
125 A'  126 A'  127 A'  128 A'   65 A"  129 A'   66 A"  130 A'                 
  9.363   9.390   9.402   9.447   9.502   9.657   9.884   9.956
 67 A"  131 A'   68 A"  132 A'  133 A'   69 A"  134 A'  135 A'                 
 15.561  17.967  20.772
136 A'  137 A'  138 A'                                                         
 
 Beta MOs, Restricted
 -- Occupied --                  
-26.326 -11.322 -11.248  -1.637  -1.110  -0.846  -0.762  -0.742
  1 A'    2 A'    3 A'    4 A'    5 A'    6 A'    7 A'    8 A'                 
 -0.703  -0.606  -0.440  -0.426
  1 A"    9 A'    2 A"   10 A'                                                 
 -- Virtual --                   
  0.028   0.038   0.053   0.082   0.085   0.099   0.102   0.126
 11 A'   12 A'   13 A'   14 A'    3 A"    4 A"   15 A'   16 A'                 
  0.134   0.137   0.160   0.188   0.199   0.234   0.234   0.254
 17 A'   18 A'   19 A'    5 A"   20 A'   21 A'    6 A"   22 A'                 
  0.276   0.285   0.287   0.300   0.308   0.324   0.342   0.361
  7 A"   23 A'   24 A'   25 A'    8 A"   26 A'   27 A'    9 A"                 
  0.368   0.376   0.378   0.393   0.407   0.427   0.442   0.449
 28 A'   29 A'   30 A'   10 A"   31 A'   11 A"   32 A'   12 A"                 
  0.456   0.484   0.513   0.519   0.527   0.573   0.608   0.627
 33 A'   34 A'   35 A'   13 A"   36 A'   37 A'   38 A'   39 A'                 
  0.634   0.732   0.744   0.748   0.751   0.801   0.836   0.864
 14 A"   40 A'   41 A'   42 A'   15 A"   43 A'   44 A'   45 A'                 
  0.866   0.871   0.887   0.922   0.946   0.951   0.958   0.975
 16 A"   17 A"   46 A'   18 A"   47 A'   48 A'   19 A"   49 A'                 
  0.992   1.001   1.026   1.051   1.074   1.084   1.088   1.102
 20 A"   50 A'   51 A'   21 A"   52 A'   22 A"   23 A"   53 A'                 
  1.118   1.131   1.137   1.157   1.167   1.206   1.237   1.249
 54 A'   55 A'   24 A"   56 A'   25 A"   57 A'   58 A'   59 A'                 
  1.291   1.296   1.308   1.345   1.431   1.453   1.469   1.524
 60 A'   26 A"   61 A'   27 A"   62 A'   28 A"   63 A'   64 A'                 
  1.524   1.547   1.580   1.588   1.611   1.635   1.672   1.709
 29 A"   65 A'   30 A"   66 A'   31 A"   67 A'   68 A'   69 A'                 
  1.721   1.767   1.789   1.831   1.853   1.858   1.895   1.901
 32 A"   70 A'   33 A"   71 A'   34 A"   72 A'   73 A'   74 A'                 
  1.969   1.980   2.028   2.042   2.075   2.167   2.229   2.289
 75 A'   35 A"   36 A"   76 A'   77 A'   78 A'   37 A"   79 A'                 
  2.441   2.511   2.766   2.768   2.877   2.940   2.951   3.001
 80 A'   81 A'   82 A'   38 A"   83 A'   39 A"   84 A'   85 A'                 
  3.003   3.056   3.073   3.130   3.160   3.213   3.217   3.287
 40 A"   86 A'   41 A"   87 A'   88 A'   42 A"   89 A'   90 A'                 
  3.289   3.360   3.416   3.419   3.444   3.452   3.482   3.554
 43 A"   44 A"   45 A"   91 A'   92 A'   46 A"   93 A'   94 A'                 
  3.558   3.574   3.609   3.629   3.665   3.689   3.748   3.760
 47 A"   95 A'   96 A'   48 A"   97 A'   49 A"   50 A"   98 A'                 
  3.765   3.849   3.884   3.937   3.993   4.035   4.069   4.140
 99 A'  100 A'  101 A'   51 A"  102 A'   52 A"  103 A'  104 A'                 
  4.158   4.179   4.240   4.299   4.315   4.390   4.454   4.458
 53 A"  105 A'  106 A'  107 A'   54 A"   55 A"   56 A"  108 A'                 
  4.552   4.625   4.629   4.708   4.721   4.776   4.815   4.859
109 A'  110 A'   57 A"  111 A'   58 A"   59 A"  112 A'  113 A'                 
  5.008   5.052   5.147   5.197   5.227   5.262   5.348   5.465
114 A'   60 A"  115 A'  116 A'   61 A"  117 A'  118 A'   62 A"                 
  5.522   5.693   5.786   5.789   5.886   6.274   6.329   6.378
119 A'  120 A'  121 A'   63 A"  122 A'  123 A'   64 A"  124 A'                 
  6.472   6.641   7.517   7.700   8.911   8.938   9.144   9.196
125 A'  126 A'  127 A'  128 A'   65 A"  129 A'   66 A"  130 A'                 
  9.363   9.390   9.402   9.447   9.502   9.657   9.884   9.956
 67 A"  131 A'   68 A"  132 A'  133 A'   69 A"  134 A'  135 A'                 
 15.561  17.967  20.772
136 A'  137 A'  138 A'                                                         
 --------------------------------------------------------------
 
          Ground-State Mulliken Net Atomic Charges

     Atom                 Charge (a.u.)
  ----------------------------------------
      1 C                    -0.642232
      2 F                    -0.345998
      3 C                    -0.128789
      4 H                     0.486302
      5 H                     0.066973
      6 H                     0.563744
  ----------------------------------------
  Sum of atomic charges =     0.000000

 -----------------------------------------------------------------
                    Cartesian Multipole Moments
 -----------------------------------------------------------------
    Charge (ESU x 10^10)
                 0.0000
    Dipole Moment (Debye)
         X       1.6295      Y      -1.0576      Z       0.0000
       Tot       1.9427
    Quadrupole Moments (Debye-Ang)
        XX     -16.9939     XY      -0.1882     YY     -17.4581
        XZ       0.0000     YZ      -0.0000     ZZ     -18.9118
    Octopole Moments (Debye-Ang^2)
       XXX      -1.6899    XXY      -1.0472    XYY      -3.8621
       YYY      -2.1177    XXZ       0.0000    XYZ      -0.0000
       YYZ       0.0000    XZZ      -4.6639    YZZ      -0.3375
       ZZZ       0.0000
    Hexadecapole Moments (Debye-Ang^3)
      XXXX    -109.2598   XXXY      -4.4257   XXYY     -30.3227
      XYYY      -4.4584   YYYY     -43.8183   XXXZ      -0.0000
      XXYZ       0.0000   XYYZ       0.0000   YYYZ       0.0000
      XXZZ     -25.1456   XYZZ      -1.3417   YYZZ     -11.7907
      XZZZ       0.0000   YZZZ      -0.0000   ZZZZ     -19.2432
 -----------------------------------------------------------------
Archival summary:
1\1\n-62-29-11\SP\ProcedureUnspecified\BasisUnspecified\123\malop\FriMay2520:27:042018FriMay2520:27:042018\0\\#,ProcedureUnspecified,BasisUnspecified,\\0,1\C\H,1,1.08083\C,1,1.1867,2,108.653\H,3,0.928288,1,157.426,2,0,0\F,1,1.34281,2,112.266,3,-180,0\H,3,1.47918,1,103.458,2,-180,0\\HF=-176.821145\\@

 Total job time:  13695.05s(wall), 7622.32s(cpu) 
 Fri May 25 20:27:04 2018

        *************************************************************
        *                                                           *
        *  Thank you very much for using Q-Chem.  Have a nice day.  *
        *                                                           *
        *************************************************************


