n-62-29-19 10.66.29
Q-Chem Developer Version! Running on 10.66.29.*
                  Welcome to Q-Chem
     A Quantum Leap Into The Future Of Chemistry


 Q-Chem 5.1, Q-Chem, Inc., Pleasanton, CA (2018)

 Yihan Shao,  Zhengting Gan,  E. Epifanovsky,  A. T. B. Gilbert,  M. Wormit,  
 J. Kussmann,  A. W. Lange,  A. Behn,  Jia Deng,  Xintian Feng,  D. Ghosh,  
 M. Goldey,  P. R. Horn,  L. D. Jacobson,  I. Kaliman,  T. Kus,  A. Landau,  
 Jie Liu,  E. I. Proynov,  R. M. Richard,  R. P. Steele,  E. J. Sundstrom,  
 H. L. Woodcock III,  P. M. Zimmerman,  D. Zuev,  B. Albrecht,  E. Alguire,  
 S. A. Baeppler,  D. Barton,  Z. Benda,  Y. A. Bernard,  E. J. Berquist,  
 K. B. Bravaya,  H. Burton,  D. Casanova,  Chun-Min Chang,  Yunqing Chen,  
 A. Chien,  K. D. Closser,  M. P. Coons,  S. Coriani,  S. Dasgupta,  
 A. L. Dempwolff,  M. Diedenhofen,  Hainam Do,  R. G. Edgar,  Po-Tung Fang,  
 S. Faraji,  S. Fatehi,  Qingguo Feng,  K. D. Fenk,  J. Fosso-Tande,  
 Qinghui Ge,  A. Ghysels,  G. Gidofalvi,  J. Gomes,  J. Gonthier,  A. Gunina,  
 M. W. D. Hanson-Heine,  P. H. P. Harbach,  A. W. Hauser,  J. E. Herr,  
 E. G. Hohenstein,  Z. C. Holden,  Kerwin Hui,  T.-C. Jagau,  Hyunjun Ji,  
 B. Kaduk,  K. Khistyaev,  Jaehoon Kim,  P. Klunzinger,  K. Koh,  
 D. Kosenkov,  L. Koulias,  T. Kowalczyk,  C. M. Krauter,  A. Kunitsa,  
 Ka Un Lao,  A. Laurent,  K. V. Lawler,  Joonho Lee,  D. Lefrancois,  
 S. Lehtola,  D. S. Levine,  Yi-Pei Li,  You-Sheng Lin,  Fenglai Liu,  
 E. Livshits,  A. Luenser,  P. Manohar,  E. Mansoor,  S. F. Manzer,  
 Shan-Ping Mao,  Yuezhi Mao,  N. Mardirossian,  A. V. Marenich,  
 T. Markovich,  L. A. Martinez-Martinez,  S. A. Maurer,  N. J. Mayhall,  
 S. C. McKenzie,  J.-M. Mewes,  A. F. Morrison,  J. W. Mullinax,  K. Nanda,  
 T. S. Nguyen-Beck,  R. Olivares-Amaya,  J. A. Parkhill,  T. M. Perrine,  
 F. Plasser,  P. Pokhilko,  S. Prager,  A. Prociuk,  E. Ramos,  D. R. Rehn,  
 F. Rob,  M. Schneider,  N. Sergueev,  S. M. Sharada,  S. Sharma,  
 D. W. Small,  T. Stauch,  T. Stein,  Yu-Chuan Su,  A. J. W. Thom,  
 A. Tkatchenko,  T. Tsuchimochi,  N. M. Tubman,  L. Vogt,  M. L. Vidal,  
 O. Vydrov,  M. A. Watson,  J. Wenzel,  M. de Wergifosse,  T. A. Wesolowski,  
 A. White,  J. Witte,  A. Yamada,  Jun Yang,  K. Yao,  S. Yeganeh,  
 S. R. Yost,  Zhi-Qiang You,  A. Zech,  Igor Ying Zhang,  Xing Zhang,  
 Yan Zhao,  Ying Zhu,  B. R. Brooks,  G. K. L. Chan,  C. J. Cramer,  
 M. S. Gordon,  W. J. Hehre,  A. Klamt,  M. W. Schmidt,  C. D. Sherrill,  
 D. G. Truhlar,  A. Aspuru-Guzik,  R. Baer,  A. T. Bell,  N. A. Besley,  
 Jeng-Da Chai,  R. A. DiStasio Jr.,  A. Dreuw,  B. D. Dunietz,  
 T. R. Furlani,  Chao-Ping Hsu,  Yousung Jung,  Jing Kong,  D. S. Lambrecht,  
 WanZhen Liang,  C. Ochsenfeld,  V. A. Rassolov,  L. V. Slipchenko,  
 J. E. Subotnik,  T. Van Voorhis,  J. M. Herbert,  A. I. Krylov,  
 P. M. W. Gill,  M. Head-Gordon

 Contributors to earlier versions of Q-Chem not listed above: 
 R. D. Adamson,  B. Austin,  J. Baker,  G. J. O. Beran,  K. Brandhorst,  
 S. T. Brown,  E. F. C. Byrd,  A. K. Chakraborty,  C.-L. Cheng,  
 Siu Hung Chien,  D. M. Chipman,  D. L. Crittenden,  H. Dachsel,  
 R. J. Doerksen,  A. D. Dutoi,  L. Fusti-Molnar,  W. A. Goddard III,  
 A. Golubeva-Zadorozhnaya,  S. R. Gwaltney,  G. Hawkins,  A. Heyden,  
 S. Hirata,  G. Kedziora,  F. J. Keil,  C. Kelley,  Jihan Kim,  R. A. King,  
 R. Z. Khaliullin,  P. P. Korambath,  W. Kurlancheek,  A. M. Lee,  M. S. Lee,  
 S. V. Levchenko,  Ching Yeh Lin,  D. Liotard,  R. C. Lochan,  I. Lotan,  
 P. E. Maslen,  N. Nair,  D. P. O'Neill,  D. Neuhauser,  E. Neuscamman,  
 C. M. Oana,  R. Olson,  B. Peters,  R. Peverati,  P. A. Pieniazek,  
 Y. M. Rhee,  J. Ritchie,  M. A. Rohrdanz,  E. Rosta,  N. J. Russ,  
 H. F. Schaefer III,  N. E. Schultz,  N. Shenvi,  A. C. Simmonett,  A. Sodt,  
 D. Stuck,  K. S. Thanthiriwatte,  V. Vanovschi,  Tao Wang,  A. Warshel,  
 C. F. Williams,  Q. Wu,  X. Xu,  W. Zhang

 Please cite Q-Chem as follows:
 Y. Shao et al., Mol. Phys. 113, 184-215 (2015)
 DOI: 10.1080/00268976.2014.952696

 Q-Chem 5.1.0 for Intel X86 EM64T Linux

 Parts of Q-Chem use Armadillo 8.300.2 (Tropical Shenanigans).
 http://arma.sourceforge.net/

 Q-Chem begins on Mon Aug 13 18:42:06 2018  

Host: 
0

     Scratch files written to /work1/malop/qc_7112779.hnode2//

Checking the input file for inconsistencies... 	...done.

--------------------------------------------------------------
User input:
--------------------------------------------------------------
$comment 
NEXAFS VINYLFLUORIDE / 6-311++G**+Rydberg
Optimized geometry with CFour
$end

$molecule
0 1
C
Gh   1 nc2
F    2 fn3         1 fnc3
C    3 cf4         2 cfn4          1 dih4
H    4 hc5         1 hcc5          2 dih5
H    1 hc6         4 hcc6          3 dih6
H    1 hc7         4 hcc7          3 dih7

nc2         1.196145
fn3         1.174610
fnc3        159.355
cf4         1.342808
cfn4         18.424
dih4        180.000
hc5         1.080830
hcc5        125.835
dih5        180.000
hc6         1.080059
hcc6        121.377
dih6          0.000
hc7         1.078980
hcc7        118.942
dih7        180.000
$end

$rem
!    input_bohr = true
    jobtype = sp
    method = eom-ccsd
    cvs_ee_singlets    [20,13]
    basis = gen
    n_frozen_core = fc 
    cc_trans_prop = true
   EOM_DAVIDSON_MAXVECTORS = 1000
   eom_preconv_singles = true
   eom_shift = 10470
   eom_davidson_convergence = 4   !as we discussed, this is good for core
   use_libqints = 1   !use new int library (will be def in trunk)
   thresh = 14   !this already should be default, but just in case
   scf_convergence = 13   !v. tight scf convergence, to reduce noise
   cc_convergence = 12   !tight CC, for the same reason
   basis_lin_dep_thresh = 8  !default is 6, use smaller, just in case
   cc_memory = 100000
   EOM_DAVIDSON_MAX_ITER 200
$end

$basis
C    0
S    6    1.000000
   4.56324000E+03    1.96665000E-03
   6.82024000E+02    1.52306000E-02
   1.54973000E+02    7.61269000E-02
   4.44553000E+01    2.60801000E-01
   1.30290000E+01    6.16462000E-01
   1.82773000E+00    2.21006000E-01
SP   3    1.000000
   2.09642000E+01    1.14660000E-01   4.02487000E-02
   4.80331000E+00    9.19999000E-01   2.37594000E-01
   1.45933000E+00   -3.03068000E-03   8.15854000E-01
SP   1    1.000000
   4.83456000E-01    1.00000000E+00   1.00000000E+00
SP   1    1.000000
   1.45585000E-01    1.00000000E+00   1.00000000E+00
SP   1    1.000000
   4.38000000E-02    1.00000000E+00   1.00000000E+00
D    1    1.000000
   6.26000000E-01    1.00000000E+00
****
Gh   0
S   1   1.00
        0.0112533427        1.0000000000
S   1   1.00
        0.0058583805        1.0000000000
S   1   1.00
        0.0033459739        1.0000000000
S   1   1.00
        0.0020484225        1.0000000000
S   1   1.00
        0.0013236424        1.0000000000
P   1   1.00
        0.0192542060        1.0000000000
P   1   1.00
        0.0099882106        1.0000000000
P   1   1.00
        0.0056893607        1.0000000000
P   1   1.00
        0.0034756797        1.0000000000
P   1   1.00
        0.0022420590        1.0000000000
D   1   1.00
        0.0274456919        1.0000000000
D   1   1.00
        0.0142043987        1.0000000000
D   1   1.00
        0.0080765930        1.0000000000
D   1   1.00
        0.0049271863        1.0000000000
D   1   1.00
        0.0031748110        1.0000000000
****
F    0
S    6    1.000000
   1.14271000E+04    1.80093000E-03
   1.72235000E+03    1.37419000E-02
   3.95746000E+02    6.81334000E-02
   1.15139000E+02    2.33325000E-01
   3.36026000E+01    5.89086000E-01
   4.91901000E+00    2.99505000E-01
SP   3    1.000000
   5.54441000E+01    1.14536000E-01   3.54609000E-02
   1.26323000E+01    9.20512000E-01   2.37451000E-01
   3.71756000E+00   -3.37804000E-03   8.20458000E-01
SP   1    1.000000
   1.16545000E+00    1.00000000E+00   1.00000000E+00
SP   1    1.000000
   3.21892000E-01    1.00000000E+00   1.00000000E+00
SP   1    1.000000
   1.07600000E-01    1.00000000E+00   1.00000000E+00
D    1    1.000000
   1.75000000E+00    1.00000000E+00
****
C    0
S    6    1.000000
   4.56324000E+03    1.96665000E-03
   6.82024000E+02    1.52306000E-02
   1.54973000E+02    7.61269000E-02
   4.44553000E+01    2.60801000E-01
   1.30290000E+01    6.16462000E-01
   1.82773000E+00    2.21006000E-01
SP   3    1.000000
   2.09642000E+01    1.14660000E-01   4.02487000E-02
   4.80331000E+00    9.19999000E-01   2.37594000E-01
   1.45933000E+00   -3.03068000E-03   8.15854000E-01
SP   1    1.000000
   4.83456000E-01    1.00000000E+00   1.00000000E+00
SP   1    1.000000
   1.45585000E-01    1.00000000E+00   1.00000000E+00
SP   1    1.000000
   4.38000000E-02    1.00000000E+00   1.00000000E+00
D    1    1.000000
   6.26000000E-01    1.00000000E+00
****
H    0
S    3    1.000000
   3.38650000E+01    2.54938000E-02
   5.09479000E+00    1.90373000E-01
   1.15879000E+00    8.52161000E-01
S    1    1.000000
   3.25840000E-01    1.00000000E+00
S    1    1.000000
   1.02741000E-01    1.00000000E+00
S    1    1.000000
   3.60000000E-02    1.00000000E+00
P    1    1.000000
   7.50000000E-01    1.00000000E+00
****
H    0
S    3    1.000000
   3.38650000E+01    2.54938000E-02
   5.09479000E+00    1.90373000E-01
   1.15879000E+00    8.52161000E-01
S    1    1.000000
   3.25840000E-01    1.00000000E+00
S    1    1.000000
   1.02741000E-01    1.00000000E+00
S    1    1.000000
   3.60000000E-02    1.00000000E+00
P    1    1.000000
   7.50000000E-01    1.00000000E+00
****
$end
--------------------------------------------------------------
 ----------------------------------------------------------------
             Standard Nuclear Orientation (Angstroms)
    I     Atom           X                Y                Z
 ----------------------------------------------------------------
    1      C       1.1793501531     0.1997297036     0.0000000000
    2      GH     -0.0000008629    -0.0000052260     0.0000000000
    3      F      -1.1529022759     0.2247768549    -0.0000000000
    4      C       0.0163188924    -0.4355678917     0.0000000000
    5      H      -0.1189529826    -1.5078994676    -0.0000000000
    6      H       1.2308255218     1.2785613540    -0.0000000000
    7      H       2.0902345342    -0.3786192262     0.0000000000
 ----------------------------------------------------------------
 Molecular Point Group                 Cs    NOp =  2
 Largest Abelian Subgroup              Cs    NOp =  2
 Nuclear Repulsion Energy =    67.5482146678 hartrees
 There are       12 alpha and       12 beta electrons

 Q-Chem warning in module forms1/BasisType.C, line 1685:

 Setting pure/cartesian flag to 2111 for general basis


 Requested basis set is non-standard
 There are 48 shells and 132 basis functions
MEM_TOTAL is adjusted to CC_MEMORY + MEM_STATIC!
 Total memory of 100192MB is distributed as follows: 
   QALLOC including MEM_STATIC uses 192MB
   MEM_STATIC is set to 192MB
   CCMAN JOB total memory use is  100000MB
 Warning: actual memory use might exceed 100192MB

 Total QAlloc Memory Limit    192 MB
 Mega-Array Size       188 MB
 MEM_STATIC part       192 MB

                       Distance Matrix (Angstroms)
             C (  1)   GH(  2)   F (  3)   C (  4)   H (  5)   H (  6)
   GH(  2)  1.196145
   F (  3)  2.332387  1.174610
   C (  4)  1.325234  0.435868  1.342808
   H (  5)  2.145131  1.512579  2.017726  1.080830
   H (  6)  1.080059  1.774730  2.606266  2.100777  3.096170
   H (  7)  1.078980  2.124249  3.298791  2.074697  2.481085  1.866770

 
 A cutoff of  1.0D-14 yielded   1174 shell pairs
 There are      8949 function pairs (     10081 Cartesian)
 
 -------------------------------------------------------
 OpenMP Integral Computing Module                       
 Release: version 1.0, May 2013, Q-Chem Inc. Pittsburgh 
 -------------------------------------------------------
 Integral Job Info:
 Integral job number is                      11
 Integral operator is                         1
 short-range coefficients                     0
 long-range coefficients              100000000
 Omega coefficients                           0
 if combine SR and LR in K                    0
 Integral screening is                        0
 Integral computing path is                   2
 max size of driver memory is            800000
 size of driver memory is                593474
 size of scratch memory is              2361544
 max col of scratch BK array               1296
 max len of scratch array in speh3          155
 max len of scratch index in speh4           18
 max int batch size is                      520
 min int batch size is                       52
 fixed nKL is                                52
 max L of basis functions is                  2
 order of int derivative is                   0
 number of shells is                         48
 number of basis is                         140
 number of cartesian basis is               140
 number of contracted shell pairs          1174
 number of primitive shell pairs           2621
 maxK2 (contraction) of shell pair           36
 max number of K2 of shell pair               1
 max number of CS2 of shell pair            127
 max number of PS2 of shell pair            264
 mem total for path MDJ                  524862
 -------------------------------------------------------
 Smallest overlap matrix eigenvalue = 4.92E-05

 Scale SEOQF with 1.000000e-02/1.000000e-02/1.000000e-02

 Standard Electronic Orientation quadrupole field applied
 Nucleus-field energy     =     0.0000000001 hartrees
 Guess MOs from core Hamiltonian diagonalization

 -----------------------------------------------------------------------
  General SCF calculation program by
  Eric Jon Sundstrom, Paul Horn, Yuezhi Mao, Dmitri Zuev, Alec White,
  David Stuck, Shaama M.S., Shane Yost, Joonho Lee, David Small,
  Daniel Levine, Susi Lehtola, Hugh Burton, Evgeny Epifanovsky
 -----------------------------------------------------------------------
 Hartree-Fock
 A restricted SCF calculation will be
 performed using DIIS
 SCF converges when DIIS error is below 1.0e-13
 ---------------------------------------
  Cycle       Energy         DIIS error
 ---------------------------------------
    1    -141.8762264088      1.72e-01  
    2    -134.6947093817      6.31e-02  
    3    -154.4282865833      9.70e-02  
    4    -161.0733311653      7.48e-02  
    5    -168.4340690195      5.94e-02  
    6    -171.0025084841      4.89e-02  
    7    -173.9713689260      3.51e-02  
    8    -175.9995999870      1.98e-02  
    9    -176.7763686186      7.57e-03  
   10    -176.9195996022      1.81e-03  
   11    -176.9342118110      6.70e-04  
   12    -176.9364326953      4.12e-04  
   13    -176.9368554418      2.06e-04  
   14    -176.9369963051      3.81e-05  
   15    -176.9370008631      5.67e-06  
   16    -176.9370009739      8.57e-07  
   17    -176.9370009779      1.95e-07  
   18    -176.9370009781      4.57e-08  
   19    -176.9370009782      9.26e-09  
   20    -176.9370009782      1.87e-09  
   21    -176.9370009782      3.44e-10  
   22    -176.9370009782      6.66e-11  
   23    -176.9370009782      1.57e-11  
   24    -176.9370009782      2.90e-12  
   25    -176.9370009782      5.50e-13  
   26    -176.9370009782      1.33e-13  
   27    -176.9370009782      5.53e-14  Convergence criterion met
 ---------------------------------------
 SCF time:   CPU 73.12s  wall 8.00s 
 SCF   energy in the final basis set =     -176.9370009782


 ------------------------------------------------------------------------------

   CCMAN2: suite of methods based on coupled cluster
           and equation of motion theories.

   Components:
   * libvmm-1.3-trunk
     by Evgeny Epifanovsky, Ilya Kaliman.
   * libtensor-2.5-trunk
     by Evgeny Epifanovsky, Michael Wormit, Dmitry Zuev, Sam Manzer, 
        Ilya Kaliman.
   * libcc-2.5-trunk
     by Evgeny Epifanovsky, Arik Landau, Tomasz Kus, Kirill Khistyaev, 
        Dmitry Zuev, Prashant Manohar, Xintian Feng, Anna Krylov, 
        Matthew Goldey, Alec White, Thomas Jagau, Kaushik Nanda, 
        Anastasia Gunina, Alexander Kunitsa, Joonho Lee.

   CCMAN original authors:
   Anna I. Krylov, C. David Sherrill, Steven R. Gwaltney,
   Edward F. C. Byrd (2000)
   Sergey V. Levchenko, Lyudmila V. Slipchenko, Tao Wang,
   Ana-Maria C. Cristian (2003)
   Piotr A. Pieniazek, C. Melania Oana, Evgeny Epifanovsky (2007)
   Prashant Manohar (2009)

 ------------------------------------------------------------------------------


 Calculation will run on 10 cores with 100000MB of RAM.

 
 Alpha MOs, Restricted
 -- Occupied --                  
-26.310 -11.332 -11.240  -1.628  -1.055  -0.840  -0.740  -0.690
  1 A'    2 A'    3 A'    4 A'    5 A'    6 A'    7 A'    1 A"                 
 -0.686  -0.591  -0.562  -0.386
  8 A'    9 A'   10 A'    2 A"                                                 
 -- Virtual --                   
  0.001   0.003   0.004   0.004   0.005   0.008   0.008   0.008
 11 A'   12 A'   13 A'    3 A"   14 A'   15 A'   16 A'    4 A"                 
  0.008   0.008   0.011   0.011   0.012   0.014   0.021   0.021
 17 A'    5 A"   18 A'   19 A'    6 A"   20 A'   21 A'   22 A'                 
  0.021   0.021   0.021   0.025   0.026   0.027   0.030   0.044
  7 A"   23 A'    8 A"   24 A'   25 A'    9 A"   26 A'   27 A'                 
  0.044   0.044   0.045   0.045   0.051   0.055   0.055   0.063
 28 A'   10 A"   29 A'   11 A"   30 A'   12 A"   31 A'   32 A'                 
  0.083   0.084   0.085   0.087   0.089   0.102   0.109   0.112
 13 A"   33 A'   34 A'   35 A'   14 A"   36 A'   37 A'   15 A"                 
  0.126   0.136   0.136   0.145   0.160   0.166   0.172   0.175
 38 A'   16 A"   39 A'   40 A'   41 A'   42 A'   43 A'   17 A"                 
  0.177   0.179   0.220   0.246   0.256   0.261   0.269   0.284
 18 A"   44 A'   45 A'   46 A'   19 A"   47 A'   20 A"   48 A'                 
  0.295   0.333   0.351   0.395   0.453   0.483   0.491   0.511
 49 A'   50 A'   51 A'   52 A'   53 A'   21 A"   54 A'   55 A'                 
  0.540   0.614   0.683   0.706   0.771   0.816   0.837   0.883
 56 A'   57 A'   58 A'   59 A'   60 A'   22 A"   23 A"   61 A'                 
  0.938   0.949   0.994   1.037   1.098   1.257   1.312   1.481
 62 A'   63 A'   64 A'   65 A'   66 A'   24 A"   25 A"   26 A"                 
  1.602   1.661   1.695   1.724   1.749   1.840   1.860   1.913
 67 A'   68 A'   69 A'   27 A"   70 A'   71 A'   72 A'   28 A"                 
  1.960   2.032   2.172   2.286   2.316   2.369   2.402   2.460
 73 A'   29 A"   74 A'   75 A'   30 A"   76 A'   31 A"   77 A'                 
  2.587   2.797   2.877   2.935   3.041   3.061   3.137   3.286
 78 A'   79 A'   80 A'   81 A'   82 A'   83 A'   32 A"   33 A"                 
  3.383   3.598   3.895   4.148   4.225   4.251   4.436   4.444
 84 A'   85 A'   86 A'   87 A'   34 A"   88 A'   89 A'   35 A"                 
  4.591   5.330   6.981   7.029   7.342  24.846  25.411  68.776
 90 A'   91 A'   36 A"   92 A'   93 A'   94 A'   95 A'   96 A'                 
 
 Beta MOs, Restricted
 -- Occupied --                  
-26.310 -11.332 -11.240  -1.628  -1.055  -0.840  -0.740  -0.690
  1 A'    2 A'    3 A'    4 A'    5 A'    6 A'    7 A'    1 A"                 
 -0.686  -0.591  -0.562  -0.386
  8 A'    9 A'   10 A'    2 A"                                                 
 -- Virtual --                   
  0.001   0.003   0.004   0.004   0.005   0.008   0.008   0.008
 11 A'   12 A'   13 A'    3 A"   14 A'   15 A'   16 A'    4 A"                 
  0.008   0.008   0.011   0.011   0.012   0.014   0.021   0.021
 17 A'    5 A"   18 A'   19 A'    6 A"   20 A'   21 A'   22 A'                 
  0.021   0.021   0.021   0.025   0.026   0.027   0.030   0.044
  7 A"   23 A'    8 A"   24 A'   25 A'    9 A"   26 A'   27 A'                 
  0.044   0.044   0.045   0.045   0.051   0.055   0.055   0.063
 28 A'   10 A"   29 A'   11 A"   30 A'   12 A"   31 A'   32 A'                 
  0.083   0.084   0.085   0.087   0.089   0.102   0.109   0.112
 13 A"   33 A'   34 A'   35 A'   14 A"   36 A'   37 A'   15 A"                 
  0.126   0.136   0.136   0.145   0.160   0.166   0.172   0.175
 38 A'   16 A"   39 A'   40 A'   41 A'   42 A'   43 A'   17 A"                 
  0.177   0.179   0.220   0.246   0.256   0.261   0.269   0.284
 18 A"   44 A'   45 A'   46 A'   19 A"   47 A'   20 A"   48 A'                 
  0.295   0.333   0.351   0.395   0.453   0.483   0.491   0.511
 49 A'   50 A'   51 A'   52 A'   53 A'   21 A"   54 A'   55 A'                 
  0.540   0.614   0.683   0.706   0.771   0.816   0.837   0.883
 56 A'   57 A'   58 A'   59 A'   60 A'   22 A"   23 A"   61 A'                 
  0.938   0.949   0.994   1.037   1.098   1.257   1.312   1.481
 62 A'   63 A'   64 A'   65 A'   66 A'   24 A"   25 A"   26 A"                 
  1.602   1.661   1.695   1.724   1.749   1.840   1.860   1.913
 67 A'   68 A'   69 A'   27 A"   70 A'   71 A'   72 A'   28 A"                 
  1.960   2.032   2.172   2.286   2.316   2.369   2.402   2.460
 73 A'   29 A"   74 A'   75 A'   30 A"   76 A'   31 A"   77 A'                 
  2.587   2.797   2.877   2.935   3.041   3.061   3.137   3.286
 78 A'   79 A'   80 A'   81 A'   82 A'   83 A'   32 A"   33 A"                 
  3.383   3.598   3.895   4.148   4.225   4.251   4.436   4.444
 84 A'   85 A'   86 A'   87 A'   34 A"   88 A'   89 A'   35 A"                 
  4.591   5.330   6.981   7.029   7.342  24.846  25.411  68.776
 90 A'   91 A'   36 A"   92 A'   93 A'   94 A'   95 A'   96 A'                 

 Occupation and symmetry of molecular orbitals

 Point group: Cs (2 irreducible representations).

                           A'   A"    All 
 ------------------------------------------
 All molecular orbitals:
  - Alpha                  96   36    132 
  - Beta                   96   36    132 
 ------------------------------------------
 Alpha orbitals:
  - Frozen occupied        3    0     3   
  - Active occupied        7    2     9   
  - Active virtual         86   34    120 
  - Frozen virtual         0    0     0   
 ------------------------------------------
 Beta orbitals:
  - Frozen occupied        3    0     3   
  - Active occupied        7    2     9   
  - Active virtual         86   34    120 
  - Frozen virtual         0    0     0   
 ------------------------------------------

 Import integrals:   CPU 0.00 s  wall 0.00 s

 Import integrals:   CPU 49.45 s  wall 6.48 s

 MP2 amplitudes:   CPU 0.52 s  wall 0.36 s

           CCSD T amplitudes will be solved using DIIS.

           Start     Size      MaxIter   EConv     TConv     
           3         7         100       1.00e-12  1.00e-11  
 ------------------------------------------------------------------------------
           Energy (a.u.)   Ediff      Tdiff       Comment
 ------------------------------------------------------------------------------
          -177.42617045                           
     1    -177.43208300   5.91e-03   6.17e-01     
     2    -177.44563135   1.35e-02   7.48e-02     
     3    -177.44637663   7.45e-04   2.95e-02     
     4    -177.44787452   1.50e-03   1.07e-02     Switched to DIIS steps.
     5    -177.44846011   5.86e-04   9.18e-03     
     6    -177.44847626   1.62e-05   1.55e-03     
     7    -177.44847124   5.02e-06   6.63e-04     
     8    -177.44847037   8.68e-07   1.08e-04     
     9    -177.44847049   1.18e-07   4.41e-05     
    10    -177.44847050   1.15e-08   1.10e-05     
    11    -177.44847051   1.11e-08   3.68e-06     
    12    -177.44847052   3.58e-09   1.70e-06     
    13    -177.44847052   2.70e-09   5.55e-07     
    14    -177.44847051   9.32e-10   1.80e-07     
    15    -177.44847051   8.05e-11   6.44e-08     
    16    -177.44847051   4.05e-10   3.02e-08     
    17    -177.44847051   9.59e-11   1.14e-08     
    18    -177.44847051   2.48e-11   5.62e-09     
    19    -177.44847051   2.05e-11   1.76e-09     
    20    -177.44847051   1.57e-12   7.14e-10     
    21    -177.44847051   5.84e-13   2.93e-10     
    22    -177.44847051   7.91e-13   1.24e-10     
    23    -177.44847051   2.09e-13   4.34e-11     
    24    -177.44847051   3.95e-13   1.90e-11     
    25    -177.44847051   9.47e-14   8.85e-12     
 ------------------------------------------------------------------------------
          -177.44847051                           CCSD T converged.

 SCF energy                 = -176.93700098
 MP2 energy                 = -177.42617045
 CCSD correlation energy     =   -0.51146954
 CCSD total energy           = -177.44847051

 CCSD  T1^2 = 0.0059  T2^2 = 0.1647  Leading amplitudes:

 Amplitude    Orbitals with energies
 -0.0190       1 (A") A                  ->    16 (A") A                  
              -0.6904                          0.1356                     
 -0.0190       1 (A") B                  ->    16 (A") B                  
              -0.6904                          0.1356                     
 -0.0186       2 (A") A                  ->    22 (A") A                  
              -0.3860                          0.8157                     
 -0.0186       2 (A") B                  ->    22 (A") B                  
              -0.3860                          0.8157                     

 Amplitude    Orbitals with energies
 -0.0658       2 (A") A      2 (A") B    ->    16 (A") A     16 (A") B    
              -0.3860       -0.3860            0.1356        0.1356       
  0.0658       2 (A") A      2 (A") B    ->    16 (A") B     16 (A") A    
              -0.3860       -0.3860            0.1356        0.1356       
  0.0658       2 (A") B      2 (A") A    ->    16 (A") A     16 (A") B    
              -0.3860       -0.3860            0.1356        0.1356       
 -0.0658       2 (A") B      2 (A") A    ->    16 (A") B     16 (A") A    
              -0.3860       -0.3860            0.1356        0.1356       

 Computing CCSD intermediates for later calculations
 Finished.

           CCSD Lambda amplitudes will be solved using DIIS.
           Start     Size      MaxIter   EConv     LConv     
           3         7         100       1.00e-12  1.00e-11  
 ------------------------------------------------------------------------------
            Enorm      Ldiff       Comment
 ------------------------------------------------------------------------------
     1     3.67e-02   2.33e-02     
     2     1.09e-02   4.90e-03     
     3     4.09e-03   7.02e-04     
     4     2.06e-03   6.98e-04     Switched to DIIS steps.
     5     5.07e-04   3.86e-04     
     6     2.22e-04   6.85e-05     
     7     5.99e-05   1.43e-05     
     8     2.49e-05   1.01e-06     
     9     8.98e-06   2.34e-06     
    10     3.35e-06   9.66e-07     
    11     1.29e-06   2.94e-07     
    12     3.72e-07   1.42e-07     
    13     1.41e-07   2.52e-08     
    14     5.26e-08   1.37e-08     
    15     1.89e-08   6.98e-09     
    16     9.07e-09   2.26e-09     
    17     3.72e-09   1.17e-09     
    18     1.66e-09   2.93e-10     
    19     6.95e-10   3.04e-11     
    20     3.00e-10   2.72e-11     
    21     1.35e-10   2.02e-11     
    22     5.47e-11   1.23e-11     
    23     2.00e-11   5.84e-12     
    24     8.05e-12   1.05e-12     
    25     3.26e-12   7.21e-13     
    26     1.21e-12   1.68e-13     
    27     4.61e-13   4.82e-14     
 ------------------------------------------------------------------------------
                                   CCSD Lambda converged.

 CCSD calculation:   CPU 666.17 s  wall 94.10 s

        Solving for CVS-EOMEE-CCSD A' singlet states.

       EOMEE-CCSD-SINGLES right amplitudes will be solved using Davidson.
        Amplitudes will be solved using shifted  algorithm.
     Hard-coded thresholds: 
     LinDepThresh=1.00e-15  NormThresh=1.00e-06  ReorthogonThresh=1.00e-02

      Roots     MaxVec    MaxIter   Precond   Conv      Shift    
      20        1000      200       1         1.00e-04  1.05e+01  
 ------------------------------------------------------------------------------
      Iter ConvRoots NVecs ResNorm Current eigenvalues (eV)
 ------------------------------------------------------------------------------
      0    0      20    4.36e-04   302.9558   303.3117   303.7861   304.1838   304.2191   304.2934   304.3606   304.4122   304.5917   304.7227   304.7356   304.7686   304.7990   304.8175   304.9811   305.0752   305.1881   305.2015   305.2081   305.2675   
Rerun orthogonalization...
      1    0      40    7.00e-03   301.2242   302.0687   303.1620   303.6592   303.8027   303.9508   303.9817   304.0943   304.3274   304.4701   304.5316   304.5817   304.5990   304.6482   304.7693   304.8409   304.8801   304.9109   304.9362   304.9958   
Rerun orthogonalization...
      2    0      60    7.57e-04   300.3101   300.5714   302.9108   303.0848   303.4506   303.7667   303.8874   304.0359   304.2186   304.2674   304.3752   304.4871   304.5489   304.6111   304.7004   304.7285   304.7747   304.8378   304.8815   304.9561   
Rerun orthogonalization...
      3    11     80    9.19e-05   300.2592   300.4974*  302.9012*  303.0144   303.4060   303.7528*  303.8821*  304.0324*  304.2120*  304.2360   304.3462   304.4780   304.5453*  304.6079*  304.6949*  304.7073   304.7572   304.8299   304.8774*  304.9522*  
      4    10     89    5.51e-03   300.2587*  300.4963*  302.3935   302.9016*  303.0128*  303.4052   303.7533*  303.8820*  304.0321   304.2119   304.2353*  304.3453   304.4784*  304.5452*  304.6073   304.6943   304.7068   304.7554   304.8300   304.8773*  
Rerun orthogonalization...
      5    18     99    2.67e-04   300.2585*  300.4952*  300.9047   302.7506   302.9014*  303.0142*  303.4061*  303.7532*  303.8820*  304.0325*  304.2124*  304.2354*  304.3466*  304.4784*  304.5452*  304.6080*  304.6955*  304.7069*  304.7577*  304.8301*  
      6    18     101   1.69e-05   300.2585*  300.4951*  300.8736   302.7299   302.9014*  303.0141*  303.4061*  303.7532*  303.8820*  304.0325*  304.2124*  304.2354*  304.3466*  304.4784*  304.5452*  304.6080*  304.6955*  304.7069*  304.7577*  304.8301*  
      7    20     103   1.07e-06   300.2585*  300.4951*  300.8724*  302.7290*  302.9014*  303.0141*  303.4061*  303.7532*  303.8820*  304.0325*  304.2124*  304.2354*  304.3466*  304.4784*  304.5452*  304.6080*  304.6955*  304.7069*  304.7577*  304.8301*  

     Davidson procedure converged

        CVS-EOMEE-CCSD/MP2 right amplitudes will be solved using Davidson.
        Amplitudes will be solved using shifted  algorithm.
     Hard-coded thresholds: 
     LinDepThresh=1.00e-15  NormThresh=1.00e-06  ReorthogonThresh=1.00e-02

      Roots     MaxVec    MaxIter   Precond   Conv      Shift    
      20        1000      200       1         1.00e-04  1.05e+01  
 ------------------------------------------------------------------------------
      Iter ConvRoots NVecs ResNorm Current eigenvalues (eV)
 ------------------------------------------------------------------------------
      0    0      20    1.86e+00   300.2585   300.4951   300.8724   302.7290   302.9014   303.0141   303.4061   303.7532   303.8820   304.0325   304.2124   304.2354   304.3466   304.4784   304.5452   304.6080   304.6955   304.7069   304.7577   304.8301   
      1    0      40    1.11e+00   297.6894   297.9762   298.5309   300.0262   300.1744   300.2121   300.5373   300.8825   301.0063   301.1518   301.3326   301.3691   301.4672   301.6049   301.6704   301.7317   301.8164   301.8356   301.8786   301.9574   
      2    0      60    5.83e-02   288.7037   289.4106   289.8351   290.3485   290.5766   290.6896   290.7921   290.9893   291.0780   291.2451   291.3469   291.3832   291.4469   291.5588   291.5692   291.7174   291.7721   291.8893   291.9093   292.7023   
      3    0      80    9.31e-03   288.2422   288.9121   289.3892   289.8472   290.1278   290.2344   290.3457   290.5131   290.6165   290.7560   290.8752   290.9086   290.9765   291.0757   291.0959   291.1573   291.2108   291.2524   291.3412   292.0158   
      4    0      100   2.03e-03   288.1829   288.8285   289.3584   289.7649   290.0941   290.1985   290.3258   290.4780   290.5955   290.7150   290.8454   290.8814   290.9099   290.9571   291.0443   291.0745   291.1582   291.2241   291.2682   291.7679   
      5    0      120   1.61e-03   288.1599   288.7916   289.3467   289.7251   290.0783   290.1835   290.3185   290.4619   290.5883   290.6974   290.7843   290.8306   290.8720   290.9508   291.0303   291.0682   291.1402   291.2091   291.2436   291.6354   
Found complex roots...
      6    1      140   6.69e-04   288.1513   288.7750   289.3421   289.7027   290.0690   290.1759   290.3146   290.4514   290.5852   290.6875   290.7095   290.8202   290.8682   290.9474   291.0198   291.0651*  291.1299   291.1940   291.2332   291.5587   
      7    5      159   4.94e-04   288.1476*  288.7670   289.3399*  289.6928   290.0630   290.1720   290.3125   290.4449   290.5836*  290.6656   290.6824   290.8121   290.8662*  290.9450   291.0124   291.0634*  291.1245   291.1819   291.2281   291.5096   
      8    11     174   2.01e-04   288.1470*  288.7655*  289.3392*  289.6900   290.0616*  290.1705*  290.3112*  290.4422   290.5827*  290.6491   290.6803   290.8096   290.8654*  290.9435*  291.0090   291.0624*  291.1219   291.1776   291.2269*  291.4883   
      9    14     183   1.99e-04   288.1469*  288.7647*  289.3388*  289.6868   290.0603*  290.1695*  290.3105*  290.4400*  290.5820*  290.6323   290.6782*  290.8075*  290.8650*  290.9425*  291.0056   291.0615*  291.1190   291.1739   291.2262*  291.4673   
Found complex roots...
      10   15     189   1.14e-04   288.1469*  288.7644*  289.3387*  289.6851*  290.0598*  290.1694*  290.3105*  290.4387*  290.5817*  290.6196   290.6765*  290.8057*  290.8649*  290.9424*  291.0033   291.0609*  291.1166   291.1701   291.2255*  291.4510   
      11   17     194   8.70e-05   288.1469*  288.7644*  289.3388*  289.6851*  290.0596*  290.1693*  290.3105*  290.4385*  290.5816*  290.6166   290.6761*  290.8050*  290.8648*  290.9423*  291.0021*  291.0607*  291.1155*  291.1676   291.2251*  291.4448   
      12   18     197   6.25e-05   288.1469*  288.7644*  289.3388*  289.6851*  290.0594*  290.1693*  290.3105*  290.4385*  290.5816*  290.6144   290.6761*  290.8045*  290.8647*  290.9423*  291.0021*  291.0606*  291.1155*  291.1660*  291.2249*  291.4422   
Found complex roots...
      13   18     199   6.49e-05   288.1469*  288.7644*  289.3388*  289.6851*  290.0594*  290.1693*  290.3105*  290.4385*  290.5816*  290.6102   290.6761*  290.8045*  290.8647*  290.9423*  291.0021*  291.0606*  291.1155*  291.1660*  291.2249*  291.4361   
      14   18     201   5.01e-05   288.1469*  288.7644*  289.3388*  289.6851*  290.0594*  290.1693*  290.3105*  290.4385*  290.5816*  290.6081   290.6761*  290.8045*  290.8647*  290.9423*  291.0021*  291.0606*  291.1155*  291.1660*  291.2249*  291.4313   
      15   19     203   4.28e-05   288.1469*  288.7644*  289.3388*  289.6851*  290.0594*  290.1693*  290.3105*  290.4385*  290.5816*  290.6072*  290.6761*  290.8045*  290.8647*  290.9423*  291.0021*  291.0606*  291.1155*  291.1660*  291.2249*  291.4290   
      16   20     204   3.97e-05   288.1469*  288.7644*  289.3388*  289.6851*  290.0594*  290.1693*  290.3105*  290.4385*  290.5816*  290.6072*  290.6761*  290.8045*  290.8647*  290.9423*  291.0021*  291.0606*  291.1155*  291.1660*  291.2249*  291.4283*  

     Davidson procedure converged

 EOMEE transition 1/A'
 Total energy = -166.85926686 a.u.  Excitation energy = 288.1469 eV.
 R0^2 = 0.0000  R1^2 = 0.8138  R2_CCVV^2 = 0.0012  R2_COVV^2 = 0.0925  Res^2 = 7.37e-06
 Conv-d = yes

 Amplitude    Transitions between orbitals
  0.2739       3 (A') A                  ->    32 (A') A                  
  0.2739       3 (A') B                  ->    32 (A') B                  
  0.2202       3 (A') A                  ->    39 (A') A                  
  0.2202       3 (A') B                  ->    39 (A') B                  
 -0.2163       3 (A') A                  ->    26 (A') A                  
 -0.2163       3 (A') B                  ->    26 (A') B                  
  0.1969       3 (A') A                  ->    25 (A') A                  
  0.1969       3 (A') B                  ->    25 (A') B                  
  0.1849       3 (A') A                  ->    20 (A') A                  
  0.1849       3 (A') B                  ->    20 (A') B                  
 -0.1760       3 (A') A                  ->    31 (A') A                  
 -0.1760       3 (A') B                  ->    31 (A') B                  
 -0.1514       3 (A') A                  ->    14 (A') A                  
 -0.1514       3 (A') B                  ->    14 (A') B                  
 -0.1347       3 (A') A                  ->    19 (A') A                  
 -0.1347       3 (A') B                  ->    19 (A') B                  
 -0.1293       3 (A') A                  ->    38 (A') A                  
 -0.1293       3 (A') B                  ->    38 (A') B                  
  0.1238       3 (A') A                  ->    50 (A') A                  
  0.1238       3 (A') B                  ->    50 (A') B                  

              Summary of significant orbitals:

               Number  Type             Irrep      Energy
               3       Occ  Alpha       3 (A')    -11.2400
               3       Occ  Beta        3 (A')    -11.2400
               17      Vir  Alpha      14 (A')      0.0052
               24      Vir  Alpha      19 (A')      0.0114
               26      Vir  Alpha      20 (A')      0.0137
               33      Vir  Alpha      25 (A')      0.0263
               35      Vir  Alpha      26 (A')      0.0297
               43      Vir  Alpha      31 (A')      0.0547
               44      Vir  Alpha      32 (A')      0.0626
               53      Vir  Alpha      38 (A')      0.1257
               55      Vir  Alpha      39 (A')      0.1359
               70      Vir  Alpha      50 (A')      0.3333
               17      Vir  Beta       14 (A')      0.0052
               24      Vir  Beta       19 (A')      0.0114
               26      Vir  Beta       20 (A')      0.0137
               33      Vir  Beta       25 (A')      0.0263
               35      Vir  Beta       26 (A')      0.0297
               43      Vir  Beta       31 (A')      0.0547
               44      Vir  Beta       32 (A')      0.0626
               53      Vir  Beta       38 (A')      0.1257
               55      Vir  Beta       39 (A')      0.1359
               70      Vir  Beta       50 (A')      0.3333


 EOMEE transition 2/A'
 Total energy = -166.83657373 a.u.  Excitation energy = 288.7644 eV.
 R0^2 = 0.0000  R1^2 = 0.8144  R2_CCVV^2 = 0.0012  R2_COVV^2 = 0.0922  Res^2 = 1.08e-05
 Conv-d = yes

 Amplitude    Transitions between orbitals
 -0.3062       3 (A') A                  ->    30 (A') A                  
 -0.3062       3 (A') B                  ->    30 (A') B                  
  0.2727       3 (A') A                  ->    36 (A') A                  
  0.2727       3 (A') B                  ->    36 (A') B                  
  0.2488       3 (A') A                  ->    24 (A') A                  
  0.2488       3 (A') B                  ->    24 (A') B                  
 -0.1590       3 (A') A                  ->    18 (A') A                  
 -0.1590       3 (A') B                  ->    18 (A') B                  
 -0.1383       3 (A') A                  ->    46 (A') A                  
 -0.1383       3 (A') B                  ->    46 (A') B                  
 -0.1328       3 (A') A                  ->    41 (A') A                  
 -0.1328       3 (A') B                  ->    41 (A') B                  
  0.1246       3 (A') A                  ->    51 (A') A                  
  0.1246       3 (A') B                  ->    51 (A') B                  
 -0.1128       3 (A') A                  ->    38 (A') A                  
 -0.1128       3 (A') B                  ->    38 (A') B                  
  0.1093       3 (A') A                  ->    48 (A') A                  
  0.1093       3 (A') B                  ->    48 (A') B                  
  0.1022       3 (A') A                  ->    33 (A') A                  
  0.1022       3 (A') B                  ->    33 (A') B                  
  0.1000       3 (A') A                  ->    40 (A') A                  
  0.1000       3 (A') B                  ->    40 (A') B                  

              Summary of significant orbitals:

               Number  Type             Irrep      Energy
               3       Occ  Alpha       3 (A')    -11.2400
               3       Occ  Beta        3 (A')    -11.2400
               23      Vir  Alpha      18 (A')      0.0111
               32      Vir  Alpha      24 (A')      0.0254
               41      Vir  Alpha      30 (A')      0.0513
               46      Vir  Alpha      33 (A')      0.0841
               50      Vir  Alpha      36 (A')      0.1023
               53      Vir  Alpha      38 (A')      0.1257
               56      Vir  Alpha      40 (A')      0.1450
               57      Vir  Alpha      41 (A')      0.1604
               64      Vir  Alpha      46 (A')      0.2456
               68      Vir  Alpha      48 (A')      0.2844
               71      Vir  Alpha      51 (A')      0.3513
               23      Vir  Beta       18 (A')      0.0111
               32      Vir  Beta       24 (A')      0.0254
               41      Vir  Beta       30 (A')      0.0513
               46      Vir  Beta       33 (A')      0.0841
               50      Vir  Beta       36 (A')      0.1023
               53      Vir  Beta       38 (A')      0.1257
               56      Vir  Beta       40 (A')      0.1450
               57      Vir  Beta       41 (A')      0.1604
               64      Vir  Beta       46 (A')      0.2456
               68      Vir  Beta       48 (A')      0.2844
               71      Vir  Beta       51 (A')      0.3513


 EOMEE transition 3/A'
 Total energy = -166.81546639 a.u.  Excitation energy = 289.3388 eV.
 R0^2 = 0.0000  R1^2 = 0.8043  R2_CCVV^2 = 0.0012  R2_COVV^2 = 0.0973  Res^2 = 1.06e-05
 Conv-d = yes

 Amplitude    Transitions between orbitals
 -0.2501       3 (A') A                  ->    31 (A') A                  
 -0.2501       3 (A') B                  ->    31 (A') B                  
  0.2199       3 (A') A                  ->    26 (A') A                  
  0.2199       3 (A') B                  ->    26 (A') B                  
  0.1982       3 (A') A                  ->    25 (A') A                  
  0.1982       3 (A') B                  ->    25 (A') B                  
 -0.1934       3 (A') A                  ->    32 (A') A                  
 -0.1934       3 (A') B                  ->    32 (A') B                  
 -0.1724       3 (A') A                  ->    37 (A') A                  
 -0.1724       3 (A') B                  ->    37 (A') B                  
 -0.1582       3 (A') A                  ->    20 (A') A                  
 -0.1582       3 (A') B                  ->    20 (A') B                  
 -0.1396       3 (A') A                  ->    19 (A') A                  
 -0.1396       3 (A') B                  ->    19 (A') B                  
 -0.1384       3 (A') A                  ->    38 (A') A                  
 -0.1384       3 (A') B                  ->    38 (A') B                  
 -0.1259       3 (A') A                  ->    35 (A') A                  
 -0.1259       3 (A') B                  ->    35 (A') B                  
 -0.1075       3 (A') A                  ->    29 (A') A                  
 -0.1075       3 (A') B                  ->    29 (A') B                  
 -0.1062       3 (A') A                  ->    39 (A') A                  
 -0.1062       3 (A') B                  ->    39 (A') B                  

              Summary of significant orbitals:

               Number  Type             Irrep      Energy
               3       Occ  Alpha       3 (A')    -11.2400
               3       Occ  Beta        3 (A')    -11.2400
               24      Vir  Alpha      19 (A')      0.0114
               26      Vir  Alpha      20 (A')      0.0137
               33      Vir  Alpha      25 (A')      0.0263
               35      Vir  Alpha      26 (A')      0.0297
               39      Vir  Alpha      29 (A')      0.0449
               43      Vir  Alpha      31 (A')      0.0547
               44      Vir  Alpha      32 (A')      0.0626
               48      Vir  Alpha      35 (A')      0.0874
               51      Vir  Alpha      37 (A')      0.1093
               53      Vir  Alpha      38 (A')      0.1257
               55      Vir  Alpha      39 (A')      0.1359
               24      Vir  Beta       19 (A')      0.0114
               26      Vir  Beta       20 (A')      0.0137
               33      Vir  Beta       25 (A')      0.0263
               35      Vir  Beta       26 (A')      0.0297
               39      Vir  Beta       29 (A')      0.0449
               43      Vir  Beta       31 (A')      0.0547
               44      Vir  Beta       32 (A')      0.0626
               48      Vir  Beta       35 (A')      0.0874
               51      Vir  Beta       37 (A')      0.1093
               53      Vir  Beta       38 (A')      0.1257
               55      Vir  Beta       39 (A')      0.1359


 EOMEE transition 4/A'
 Total energy = -166.80273862 a.u.  Excitation energy = 289.6851 eV.
 R0^2 = 0.0000  R1^2 = 0.8062  R2_CCVV^2 = 0.0012  R2_COVV^2 = 0.0963  Res^2 = 2.26e-05
 Conv-d = yes

 Amplitude    Transitions between orbitals
 -0.2484       3 (A') A                  ->    34 (A') A                  
 -0.2484       3 (A') B                  ->    34 (A') B                  
 -0.2169       3 (A') A                  ->    45 (A') A                  
 -0.2169       3 (A') B                  ->    45 (A') B                  
  0.2058       3 (A') A                  ->    42 (A') A                  
  0.2058       3 (A') B                  ->    42 (A') B                  
 -0.1832       3 (A') A                  ->    28 (A') A                  
 -0.1832       3 (A') B                  ->    28 (A') B                  
  0.1494       3 (A') A                  ->    37 (A') A                  
  0.1494       3 (A') B                  ->    37 (A') B                  
  0.1401       3 (A') A                  ->    51 (A') A                  
  0.1401       3 (A') B                  ->    51 (A') B                  
  0.1397       3 (A') A                  ->    22 (A') A                  
  0.1397       3 (A') B                  ->    22 (A') B                  
 -0.1307       3 (A') A                  ->    24 (A') A                  
 -0.1307       3 (A') B                  ->    24 (A') B                  
 -0.1216       3 (A') A                  ->    27 (A') A                  
 -0.1216       3 (A') B                  ->    27 (A') B                  
  0.1189       3 (A') A                  ->    33 (A') A                  
  0.1189       3 (A') B                  ->    33 (A') B                  
  0.1138       3 (A') A                  ->    18 (A') A                  
  0.1138       3 (A') B                  ->    18 (A') B                  
  0.1126       3 (A') A                  ->    52 (A') A                  
  0.1126       3 (A') B                  ->    52 (A') B                  
 -0.1093       3 (A') A                  ->    41 (A') A                  
 -0.1093       3 (A') B                  ->    41 (A') B                  
 -0.1056       3 (A') A                  ->    38 (A') A                  
 -0.1056       3 (A') B                  ->    38 (A') B                  

              Summary of significant orbitals:

               Number  Type             Irrep      Energy
               3       Occ  Alpha       3 (A')    -11.2400
               3       Occ  Beta        3 (A')    -11.2400
               23      Vir  Alpha      18 (A')      0.0111
               28      Vir  Alpha      22 (A')      0.0210
               32      Vir  Alpha      24 (A')      0.0254
               36      Vir  Alpha      27 (A')      0.0436
               37      Vir  Alpha      28 (A')      0.0442
               46      Vir  Alpha      33 (A')      0.0841
               47      Vir  Alpha      34 (A')      0.0851
               51      Vir  Alpha      37 (A')      0.1093
               53      Vir  Alpha      38 (A')      0.1257
               57      Vir  Alpha      41 (A')      0.1604
               58      Vir  Alpha      42 (A')      0.1655
               63      Vir  Alpha      45 (A')      0.2198
               71      Vir  Alpha      51 (A')      0.3513
               72      Vir  Alpha      52 (A')      0.3947
               23      Vir  Beta       18 (A')      0.0111
               28      Vir  Beta       22 (A')      0.0210
               32      Vir  Beta       24 (A')      0.0254
               36      Vir  Beta       27 (A')      0.0436
               37      Vir  Beta       28 (A')      0.0442
               46      Vir  Beta       33 (A')      0.0841
               47      Vir  Beta       34 (A')      0.0851
               51      Vir  Beta       37 (A')      0.1093
               53      Vir  Beta       38 (A')      0.1257
               57      Vir  Beta       41 (A')      0.1604
               58      Vir  Beta       42 (A')      0.1655
               63      Vir  Beta       45 (A')      0.2198
               71      Vir  Beta       51 (A')      0.3513
               72      Vir  Beta       52 (A')      0.3947


 EOMEE transition 5/A'
 Total energy = -166.78898242 a.u.  Excitation energy = 290.0594 eV.
 R0^2 = 0.0000  R1^2 = 0.8069  R2_CCVV^2 = 0.0012  R2_COVV^2 = 0.0960  Res^2 = 1.76e-05
 Conv-d = yes

 Amplitude    Transitions between orbitals
  0.2307       3 (A') A                  ->    14 (A') A                  
  0.2307       3 (A') B                  ->    14 (A') B                  
 -0.1852       3 (A') A                  ->    11 (A') A                  
 -0.1852       3 (A') B                  ->    11 (A') B                  
  0.1574       3 (A') A                  ->    19 (A') A                  
  0.1574       3 (A') B                  ->    19 (A') B                  
  0.1474       3 (A') A                  ->    39 (A') A                  
  0.1474       3 (A') B                  ->    39 (A') B                  
 -0.1447       3 (A') A                  ->    38 (A') A                  
 -0.1447       3 (A') B                  ->    38 (A') B                  
 -0.1359       3 (A') A                  ->    20 (A') A                  
 -0.1359       3 (A') B                  ->    20 (A') B                  
  0.1331       3 (A') A                  ->    33 (A') A                  
  0.1331       3 (A') B                  ->    33 (A') B                  
 -0.1312       3 (A') A                  ->    27 (A') A                  
 -0.1312       3 (A') B                  ->    27 (A') B                  
  0.1259       3 (A') A                  ->    32 (A') A                  
  0.1259       3 (A') B                  ->    32 (A') B                  
  0.1162       3 (A') A                  ->    28 (A') A                  
  0.1162       3 (A') B                  ->    28 (A') B                  
  0.1161       3 (A') A                  ->    13 (A') A                  
  0.1161       3 (A') B                  ->    13 (A') B                  
  0.1115       3 (A') A                  ->    34 (A') A                  
  0.1115       3 (A') B                  ->    34 (A') B                  
 -0.1107       3 (A') A                  ->    35 (A') A                  
 -0.1107       3 (A') B                  ->    35 (A') B                  
 -0.1090       3 (A') A                  ->    40 (A') A                  
 -0.1090       3 (A') B                  ->    40 (A') B                  
  0.1082       3 (A') A                  ->    50 (A') A                  
  0.1082       3 (A') B                  ->    50 (A') B                  

              Summary of significant orbitals:

               Number  Type             Irrep      Energy
               3       Occ  Alpha       3 (A')    -11.2400
               3       Occ  Beta        3 (A')    -11.2400
               13      Vir  Alpha      11 (A')      0.0011
               15      Vir  Alpha      13 (A')      0.0036
               17      Vir  Alpha      14 (A')      0.0052
               24      Vir  Alpha      19 (A')      0.0114
               26      Vir  Alpha      20 (A')      0.0137
               36      Vir  Alpha      27 (A')      0.0436
               37      Vir  Alpha      28 (A')      0.0442
               44      Vir  Alpha      32 (A')      0.0626
               46      Vir  Alpha      33 (A')      0.0841
               47      Vir  Alpha      34 (A')      0.0851
               48      Vir  Alpha      35 (A')      0.0874
               53      Vir  Alpha      38 (A')      0.1257
               55      Vir  Alpha      39 (A')      0.1359
               56      Vir  Alpha      40 (A')      0.1450
               70      Vir  Alpha      50 (A')      0.3333
               13      Vir  Beta       11 (A')      0.0011
               15      Vir  Beta       13 (A')      0.0036
               17      Vir  Beta       14 (A')      0.0052
               24      Vir  Beta       19 (A')      0.0114
               26      Vir  Beta       20 (A')      0.0137
               36      Vir  Beta       27 (A')      0.0436
               37      Vir  Beta       28 (A')      0.0442
               44      Vir  Beta       32 (A')      0.0626
               46      Vir  Beta       33 (A')      0.0841
               47      Vir  Beta       34 (A')      0.0851
               48      Vir  Beta       35 (A')      0.0874
               53      Vir  Beta       38 (A')      0.1257
               55      Vir  Beta       39 (A')      0.1359
               56      Vir  Beta       40 (A')      0.1450
               70      Vir  Beta       50 (A')      0.3333


 EOMEE transition 6/A'
 Total energy = -166.78494573 a.u.  Excitation energy = 290.1693 eV.
 R0^2 = 0.0000  R1^2 = 0.8041  R2_CCVV^2 = 0.0012  R2_COVV^2 = 0.0974  Res^2 = 2.67e-05
 Conv-d = yes

 Amplitude    Transitions between orbitals
 -0.2332       3 (A') A                  ->    29 (A') A                  
 -0.2332       3 (A') B                  ->    29 (A') B                  
 -0.2179       3 (A') A                  ->    35 (A') A                  
 -0.2179       3 (A') B                  ->    35 (A') B                  
  0.1971       3 (A') A                  ->    27 (A') A                  
  0.1971       3 (A') B                  ->    27 (A') B                  
 -0.1953       3 (A') A                  ->    33 (A') A                  
 -0.1953       3 (A') B                  ->    33 (A') B                  
 -0.1917       3 (A') A                  ->    21 (A') A                  
 -0.1917       3 (A') B                  ->    21 (A') B                  
  0.1806       3 (A') A                  ->    23 (A') A                  
  0.1806       3 (A') B                  ->    23 (A') B                  
  0.1637       3 (A') A                  ->    41 (A') A                  
  0.1637       3 (A') B                  ->    41 (A') B                  
 -0.1408       3 (A') A                  ->    28 (A') A                  
 -0.1408       3 (A') B                  ->    28 (A') B                  
 -0.1060       3 (A') A                  ->    25 (A') A                  
 -0.1060       3 (A') B                  ->    25 (A') B                  
  0.1012       3 (A') A                  ->    43 (A') A                  
  0.1012       3 (A') B                  ->    43 (A') B                  

              Summary of significant orbitals:

               Number  Type             Irrep      Energy
               3       Occ  Alpha       3 (A')    -11.2400
               3       Occ  Beta        3 (A')    -11.2400
               27      Vir  Alpha      21 (A')      0.0209
               30      Vir  Alpha      23 (A')      0.0213
               33      Vir  Alpha      25 (A')      0.0263
               36      Vir  Alpha      27 (A')      0.0436
               37      Vir  Alpha      28 (A')      0.0442
               39      Vir  Alpha      29 (A')      0.0449
               46      Vir  Alpha      33 (A')      0.0841
               48      Vir  Alpha      35 (A')      0.0874
               57      Vir  Alpha      41 (A')      0.1604
               59      Vir  Alpha      43 (A')      0.1720
               27      Vir  Beta       21 (A')      0.0209
               30      Vir  Beta       23 (A')      0.0213
               33      Vir  Beta       25 (A')      0.0263
               36      Vir  Beta       27 (A')      0.0436
               37      Vir  Beta       28 (A')      0.0442
               39      Vir  Beta       29 (A')      0.0449
               46      Vir  Beta       33 (A')      0.0841
               48      Vir  Beta       35 (A')      0.0874
               57      Vir  Beta       41 (A')      0.1604
               59      Vir  Beta       43 (A')      0.1720


 EOMEE transition 7/A'
 Total energy = -166.77975673 a.u.  Excitation energy = 290.3105 eV.
 R0^2 = 0.0000  R1^2 = 0.8041  R2_CCVV^2 = 0.0012  R2_COVV^2 = 0.0974  Res^2 = 1.99e-05
 Conv-d = yes

 Amplitude    Transitions between orbitals
 -0.2421       3 (A') A                  ->    14 (A') A                  
 -0.2421       3 (A') B                  ->    14 (A') B                  
  0.2065       3 (A') A                  ->    11 (A') A                  
  0.2065       3 (A') B                  ->    11 (A') B                  
 -0.1652       3 (A') A                  ->    29 (A') A                  
 -0.1652       3 (A') B                  ->    29 (A') B                  
  0.1408       3 (A') A                  ->    23 (A') A                  
  0.1408       3 (A') B                  ->    23 (A') B                  
  0.1391       3 (A') A                  ->    21 (A') A                  
  0.1391       3 (A') B                  ->    21 (A') B                  
 -0.1379       3 (A') A                  ->    27 (A') A                  
 -0.1379       3 (A') B                  ->    27 (A') B                  
 -0.1371       3 (A') A                  ->    32 (A') A                  
 -0.1371       3 (A') B                  ->    32 (A') B                  
  0.1349       3 (A') A                  ->    31 (A') A                  
  0.1349       3 (A') B                  ->    31 (A') B                  
  0.1291       3 (A') A                  ->    20 (A') A                  
  0.1291       3 (A') B                  ->    20 (A') B                  
 -0.1222       3 (A') A                  ->    39 (A') A                  
 -0.1222       3 (A') B                  ->    39 (A') B                  
  0.1176       3 (A') A                  ->    28 (A') A                  
  0.1176       3 (A') B                  ->    28 (A') B                  
  0.1146       3 (A') A                  ->    37 (A') A                  
  0.1146       3 (A') B                  ->    37 (A') B                  
  0.1138       3 (A') A                  ->    34 (A') A                  
  0.1138       3 (A') B                  ->    34 (A') B                  
 -0.1133       3 (A') A                  ->    24 (A') A                  
 -0.1133       3 (A') B                  ->    24 (A') B                  
 -0.1079       3 (A') A                  ->    22 (A') A                  
 -0.1079       3 (A') B                  ->    22 (A') B                  
 -0.1075       3 (A') A                  ->    35 (A') A                  
 -0.1075       3 (A') B                  ->    35 (A') B                  

              Summary of significant orbitals:

               Number  Type             Irrep      Energy
               3       Occ  Alpha       3 (A')    -11.2400
               3       Occ  Beta        3 (A')    -11.2400
               13      Vir  Alpha      11 (A')      0.0011
               17      Vir  Alpha      14 (A')      0.0052
               26      Vir  Alpha      20 (A')      0.0137
               27      Vir  Alpha      21 (A')      0.0209
               28      Vir  Alpha      22 (A')      0.0210
               30      Vir  Alpha      23 (A')      0.0213
               32      Vir  Alpha      24 (A')      0.0254
               36      Vir  Alpha      27 (A')      0.0436
               37      Vir  Alpha      28 (A')      0.0442
               39      Vir  Alpha      29 (A')      0.0449
               43      Vir  Alpha      31 (A')      0.0547
               44      Vir  Alpha      32 (A')      0.0626
               47      Vir  Alpha      34 (A')      0.0851
               48      Vir  Alpha      35 (A')      0.0874
               51      Vir  Alpha      37 (A')      0.1093
               55      Vir  Alpha      39 (A')      0.1359
               13      Vir  Beta       11 (A')      0.0011
               17      Vir  Beta       14 (A')      0.0052
               26      Vir  Beta       20 (A')      0.0137
               27      Vir  Beta       21 (A')      0.0209
               28      Vir  Beta       22 (A')      0.0210
               30      Vir  Beta       23 (A')      0.0213
               32      Vir  Beta       24 (A')      0.0254
               36      Vir  Beta       27 (A')      0.0436
               37      Vir  Beta       28 (A')      0.0442
               39      Vir  Beta       29 (A')      0.0449
               43      Vir  Beta       31 (A')      0.0547
               44      Vir  Beta       32 (A')      0.0626
               47      Vir  Beta       34 (A')      0.0851
               48      Vir  Beta       35 (A')      0.0874
               51      Vir  Beta       37 (A')      0.1093
               55      Vir  Beta       39 (A')      0.1359


 EOMEE transition 8/A'
 Total energy = -166.77505339 a.u.  Excitation energy = 290.4385 eV.
 R0^2 = 0.0000  R1^2 = 0.8047  R2_CCVV^2 = 0.0012  R2_COVV^2 = 0.0971  Res^2 = 2.70e-05
 Conv-d = yes

 Amplitude    Transitions between orbitals
  0.3540       3 (A') A                  ->    18 (A') A                  
  0.3540       3 (A') B                  ->    18 (A') B                  
  0.2844       3 (A') A                  ->    12 (A') A                  
  0.2844       3 (A') B                  ->    12 (A') B                  
  0.1796       3 (A') A                  ->    36 (A') A                  
  0.1796       3 (A') B                  ->    36 (A') B                  
 -0.1476       3 (A') A                  ->    24 (A') A                  
 -0.1476       3 (A') B                  ->    24 (A') B                  
 -0.1382       3 (A') A                  ->    21 (A') A                  
 -0.1382       3 (A') B                  ->    21 (A') B                  
  0.1145       3 (A') A                  ->    28 (A') A                  
  0.1145       3 (A') B                  ->    28 (A') B                  
  0.1058       3 (A') A                  ->    27 (A') A                  
  0.1058       3 (A') B                  ->    27 (A') B                  
  0.1037       3 (A') A                  ->    34 (A') A                  
  0.1037       3 (A') B                  ->    34 (A') B                  
 -0.1017       3 (A') A                  ->    19 (A') A                  
 -0.1017       3 (A') B                  ->    19 (A') B                  

              Summary of significant orbitals:

               Number  Type             Irrep      Energy
               3       Occ  Alpha       3 (A')    -11.2400
               3       Occ  Beta        3 (A')    -11.2400
               14      Vir  Alpha      12 (A')      0.0035
               23      Vir  Alpha      18 (A')      0.0111
               24      Vir  Alpha      19 (A')      0.0114
               27      Vir  Alpha      21 (A')      0.0209
               32      Vir  Alpha      24 (A')      0.0254
               36      Vir  Alpha      27 (A')      0.0436
               37      Vir  Alpha      28 (A')      0.0442
               47      Vir  Alpha      34 (A')      0.0851
               50      Vir  Alpha      36 (A')      0.1023
               14      Vir  Beta       12 (A')      0.0035
               23      Vir  Beta       18 (A')      0.0111
               24      Vir  Beta       19 (A')      0.0114
               27      Vir  Beta       21 (A')      0.0209
               32      Vir  Beta       24 (A')      0.0254
               36      Vir  Beta       27 (A')      0.0436
               37      Vir  Beta       28 (A')      0.0442
               47      Vir  Beta       34 (A')      0.0851
               50      Vir  Beta       36 (A')      0.1023


 EOMEE transition 9/A'
 Total energy = -166.76979407 a.u.  Excitation energy = 290.5816 eV.
 R0^2 = 0.0000  R1^2 = 0.8034  R2_CCVV^2 = 0.0012  R2_COVV^2 = 0.0977  Res^2 = 1.29e-05
 Conv-d = yes

 Amplitude    Transitions between orbitals
  0.3016       3 (A') A                  ->    19 (A') A                  
  0.3016       3 (A') B                  ->    19 (A') B                  
  0.2771       3 (A') A                  ->    13 (A') A                  
  0.2771       3 (A') B                  ->    13 (A') B                  
  0.2066       3 (A') A                  ->    20 (A') A                  
  0.2066       3 (A') B                  ->    20 (A') B                  
 -0.1701       3 (A') A                  ->    14 (A') A                  
 -0.1701       3 (A') B                  ->    14 (A') B                  
 -0.1551       3 (A') A                  ->    37 (A') A                  
 -0.1551       3 (A') B                  ->    37 (A') B                  
 -0.1454       3 (A') A                  ->    23 (A') A                  
 -0.1454       3 (A') B                  ->    23 (A') B                  
  0.1303       3 (A') A                  ->    17 (A') A                  
  0.1303       3 (A') B                  ->    17 (A') B                  
 -0.1221       3 (A') A                  ->    31 (A') A                  
 -0.1221       3 (A') B                  ->    31 (A') B                  
 -0.1103       3 (A') A                  ->    32 (A') A                  
 -0.1103       3 (A') B                  ->    32 (A') B                  

              Summary of significant orbitals:

               Number  Type             Irrep      Energy
               3       Occ  Alpha       3 (A')    -11.2400
               3       Occ  Beta        3 (A')    -11.2400
               15      Vir  Alpha      13 (A')      0.0036
               17      Vir  Alpha      14 (A')      0.0052
               21      Vir  Alpha      17 (A')      0.0079
               24      Vir  Alpha      19 (A')      0.0114
               26      Vir  Alpha      20 (A')      0.0137
               30      Vir  Alpha      23 (A')      0.0213
               43      Vir  Alpha      31 (A')      0.0547
               44      Vir  Alpha      32 (A')      0.0626
               51      Vir  Alpha      37 (A')      0.1093
               15      Vir  Beta       13 (A')      0.0036
               17      Vir  Beta       14 (A')      0.0052
               21      Vir  Beta       17 (A')      0.0079
               24      Vir  Beta       19 (A')      0.0114
               26      Vir  Beta       20 (A')      0.0137
               30      Vir  Beta       23 (A')      0.0213
               43      Vir  Beta       31 (A')      0.0547
               44      Vir  Beta       32 (A')      0.0626
               51      Vir  Beta       37 (A')      0.1093


 EOMEE transition 10/A'
 Total energy = -166.76885152 a.u.  Excitation energy = 290.6072 eV.
 R0^2 = 0.0000  R1^2 = 0.8166  R2_CCVV^2 = 0.0012  R2_COVV^2 = 0.0911  Res^2 = 8.41e-05
 Conv-d = yes

 Amplitude    Transitions between orbitals
 -0.2561       2 (A') A                  ->    32 (A') A                  
 -0.2561       2 (A') B                  ->    32 (A') B                  
 -0.2040       2 (A') A                  ->    39 (A') A                  
 -0.2040       2 (A') B                  ->    39 (A') B                  
  0.2027       2 (A') A                  ->    26 (A') A                  
  0.2027       2 (A') B                  ->    26 (A') B                  
  0.1781       2 (A') A                  ->    30 (A') A                  
  0.1781       2 (A') B                  ->    30 (A') B                  
 -0.1682       2 (A') A                  ->    50 (A') A                  
 -0.1682       2 (A') B                  ->    50 (A') B                  
 -0.1670       2 (A') A                  ->    24 (A') A                  
 -0.1670       2 (A') B                  ->    24 (A') B                  
 -0.1653       2 (A') A                  ->    20 (A') A                  
 -0.1653       2 (A') B                  ->    20 (A') B                  
 -0.1631       2 (A') A                  ->    36 (A') A                  
 -0.1631       2 (A') B                  ->    36 (A') B                  
  0.1285       2 (A') A                  ->    46 (A') A                  
  0.1285       2 (A') B                  ->    46 (A') B                  
  0.1269       2 (A') A                  ->    14 (A') A                  
  0.1269       2 (A') B                  ->    14 (A') B                  
  0.1105       2 (A') A                  ->    18 (A') A                  
  0.1105       2 (A') B                  ->    18 (A') B                  

              Summary of significant orbitals:

               Number  Type             Irrep      Energy
               2       Occ  Alpha       2 (A')    -11.3324
               2       Occ  Beta        2 (A')    -11.3324
               17      Vir  Alpha      14 (A')      0.0052
               23      Vir  Alpha      18 (A')      0.0111
               26      Vir  Alpha      20 (A')      0.0137
               32      Vir  Alpha      24 (A')      0.0254
               35      Vir  Alpha      26 (A')      0.0297
               41      Vir  Alpha      30 (A')      0.0513
               44      Vir  Alpha      32 (A')      0.0626
               50      Vir  Alpha      36 (A')      0.1023
               55      Vir  Alpha      39 (A')      0.1359
               64      Vir  Alpha      46 (A')      0.2456
               70      Vir  Alpha      50 (A')      0.3333
               17      Vir  Beta       14 (A')      0.0052
               23      Vir  Beta       18 (A')      0.0111
               26      Vir  Beta       20 (A')      0.0137
               32      Vir  Beta       24 (A')      0.0254
               35      Vir  Beta       26 (A')      0.0297
               41      Vir  Beta       30 (A')      0.0513
               44      Vir  Beta       32 (A')      0.0626
               50      Vir  Beta       36 (A')      0.1023
               55      Vir  Beta       39 (A')      0.1359
               64      Vir  Beta       46 (A')      0.2456
               70      Vir  Beta       50 (A')      0.3333


 EOMEE transition 11/A'
 Total energy = -166.76632029 a.u.  Excitation energy = 290.6761 eV.
 R0^2 = 0.0000  R1^2 = 0.8041  R2_CCVV^2 = 0.0012  R2_COVV^2 = 0.0974  Res^2 = 4.52e-05
 Conv-d = yes

 Amplitude    Transitions between orbitals
 -0.3262       3 (A') A                  ->    22 (A') A                  
 -0.3262       3 (A') B                  ->    22 (A') B                  
  0.2930       3 (A') A                  ->    16 (A') A                  
  0.2930       3 (A') B                  ->    16 (A') B                  
 -0.1650       3 (A') A                  ->    21 (A') A                  
 -0.1650       3 (A') B                  ->    21 (A') B                  
 -0.1587       3 (A') A                  ->    12 (A') A                  
 -0.1587       3 (A') B                  ->    12 (A') B                  
  0.1464       3 (A') A                  ->    15 (A') A                  
  0.1464       3 (A') B                  ->    15 (A') B                  
  0.1266       3 (A') A                  ->    30 (A') A                  
  0.1266       3 (A') B                  ->    30 (A') B                  
  0.1106       3 (A') A                  ->    42 (A') A                  
  0.1106       3 (A') B                  ->    42 (A') B                  
 -0.1090       3 (A') A                  ->    45 (A') A                  
 -0.1090       3 (A') B                  ->    45 (A') B                  
  0.1084       3 (A') A                  ->    28 (A') A                  
  0.1084       3 (A') B                  ->    28 (A') B                  
 -0.1067       3 (A') A                  ->    18 (A') A                  
 -0.1067       3 (A') B                  ->    18 (A') B                  
  0.1020       3 (A') A                  ->    27 (A') A                  
  0.1020       3 (A') B                  ->    27 (A') B                  

              Summary of significant orbitals:

               Number  Type             Irrep      Energy
               3       Occ  Alpha       3 (A')    -11.2400
               3       Occ  Beta        3 (A')    -11.2400
               14      Vir  Alpha      12 (A')      0.0035
               18      Vir  Alpha      15 (A')      0.0077
               19      Vir  Alpha      16 (A')      0.0078
               23      Vir  Alpha      18 (A')      0.0111
               27      Vir  Alpha      21 (A')      0.0209
               28      Vir  Alpha      22 (A')      0.0210
               36      Vir  Alpha      27 (A')      0.0436
               37      Vir  Alpha      28 (A')      0.0442
               41      Vir  Alpha      30 (A')      0.0513
               58      Vir  Alpha      42 (A')      0.1655
               63      Vir  Alpha      45 (A')      0.2198
               14      Vir  Beta       12 (A')      0.0035
               18      Vir  Beta       15 (A')      0.0077
               19      Vir  Beta       16 (A')      0.0078
               23      Vir  Beta       18 (A')      0.0111
               27      Vir  Beta       21 (A')      0.0209
               28      Vir  Beta       22 (A')      0.0210
               36      Vir  Beta       27 (A')      0.0436
               37      Vir  Beta       28 (A')      0.0442
               41      Vir  Beta       30 (A')      0.0513
               58      Vir  Beta       42 (A')      0.1655
               63      Vir  Beta       45 (A')      0.2198


 EOMEE transition 12/A'
 Total energy = -166.76160104 a.u.  Excitation energy = 290.8045 eV.
 R0^2 = 0.0000  R1^2 = 0.8052  R2_CCVV^2 = 0.0012  R2_COVV^2 = 0.0968  Res^2 = 2.83e-05
 Conv-d = yes

 Amplitude    Transitions between orbitals
 -0.2629       3 (A') A                  ->    11 (A') A                  
 -0.2629       3 (A') B                  ->    11 (A') B                  
 -0.2508       3 (A') A                  ->    17 (A') A                  
 -0.2508       3 (A') B                  ->    17 (A') B                  
  0.2308       3 (A') A                  ->    23 (A') A                  
  0.2308       3 (A') B                  ->    23 (A') B                  
  0.1735       3 (A') A                  ->    20 (A') A                  
  0.1735       3 (A') B                  ->    20 (A') B                  
  0.1412       3 (A') A                  ->    13 (A') A                  
  0.1412       3 (A') B                  ->    13 (A') B                  
 -0.1349       3 (A') A                  ->    26 (A') A                  
 -0.1349       3 (A') B                  ->    26 (A') B                  
  0.1255       3 (A') A                  ->    21 (A') A                  
  0.1255       3 (A') B                  ->    21 (A') B                  
  0.1227       3 (A') A                  ->    38 (A') A                  
  0.1227       3 (A') B                  ->    38 (A') B                  
  0.1050       3 (A') A                  ->    16 (A') A                  
  0.1050       3 (A') B                  ->    16 (A') B                  
  0.1039       3 (A') A                  ->    25 (A') A                  
  0.1039       3 (A') B                  ->    25 (A') B                  

              Summary of significant orbitals:

               Number  Type             Irrep      Energy
               3       Occ  Alpha       3 (A')    -11.2400
               3       Occ  Beta        3 (A')    -11.2400
               13      Vir  Alpha      11 (A')      0.0011
               15      Vir  Alpha      13 (A')      0.0036
               19      Vir  Alpha      16 (A')      0.0078
               21      Vir  Alpha      17 (A')      0.0079
               26      Vir  Alpha      20 (A')      0.0137
               27      Vir  Alpha      21 (A')      0.0209
               30      Vir  Alpha      23 (A')      0.0213
               33      Vir  Alpha      25 (A')      0.0263
               35      Vir  Alpha      26 (A')      0.0297
               53      Vir  Alpha      38 (A')      0.1257
               13      Vir  Beta       11 (A')      0.0011
               15      Vir  Beta       13 (A')      0.0036
               19      Vir  Beta       16 (A')      0.0078
               21      Vir  Beta       17 (A')      0.0079
               26      Vir  Beta       20 (A')      0.0137
               27      Vir  Beta       21 (A')      0.0209
               30      Vir  Beta       23 (A')      0.0213
               33      Vir  Beta       25 (A')      0.0263
               35      Vir  Beta       26 (A')      0.0297
               53      Vir  Beta       38 (A')      0.1257


 EOMEE transition 13/A'
 Total energy = -166.75938779 a.u.  Excitation energy = 290.8647 eV.
 R0^2 = 0.0000  R1^2 = 0.8035  R2_CCVV^2 = 0.0012  R2_COVV^2 = 0.0977  Res^2 = 2.97e-05
 Conv-d = yes

 Amplitude    Transitions between orbitals
 -0.3314       3 (A') A                  ->    15 (A') A                  
 -0.3314       3 (A') B                  ->    15 (A') B                  
  0.2473       3 (A') A                  ->    17 (A') A                  
  0.2473       3 (A') B                  ->    17 (A') B                  
 -0.1864       3 (A') A                  ->    23 (A') A                  
 -0.1864       3 (A') B                  ->    23 (A') B                  
  0.1855       3 (A') A                  ->    21 (A') A                  
  0.1855       3 (A') B                  ->    21 (A') B                  
 -0.1589       3 (A') A                  ->    33 (A') A                  
 -0.1589       3 (A') B                  ->    33 (A') B                  
  0.1434       3 (A') A                  ->    16 (A') A                  
  0.1434       3 (A') B                  ->    16 (A') B                  
  0.1343       3 (A') A                  ->    41 (A') A                  
  0.1343       3 (A') B                  ->    41 (A') B                  
 -0.1159       3 (A') A                  ->    11 (A') A                  
 -0.1159       3 (A') B                  ->    11 (A') B                  
 -0.1072       3 (A') A                  ->    35 (A') A                  
 -0.1072       3 (A') B                  ->    35 (A') B                  

              Summary of significant orbitals:

               Number  Type             Irrep      Energy
               3       Occ  Alpha       3 (A')    -11.2400
               3       Occ  Beta        3 (A')    -11.2400
               13      Vir  Alpha      11 (A')      0.0011
               18      Vir  Alpha      15 (A')      0.0077
               19      Vir  Alpha      16 (A')      0.0078
               21      Vir  Alpha      17 (A')      0.0079
               27      Vir  Alpha      21 (A')      0.0209
               30      Vir  Alpha      23 (A')      0.0213
               46      Vir  Alpha      33 (A')      0.0841
[...]
   B->A: 0.006068 (X -0.003577, Y -0.004902, Z 0.000000)
 Oscillator strength (a.u.): 0.000268
 Norm of one-particle transition density matrix:
   A->B: 0.900676;   B->A: 0.860997
   ||gamma^AB||*||gamma^BA||: 0.775480

 ------------------------------------------------------------------------------
 State A: ccsd: 0/A'
 State B: cvs_eomee_ccsd/rhfref/singlets: 8/A'
 Transition dipole moment (a.u.):
   A->B: 0.013341 (X 0.002876, Y -0.013027, Z 0.000000)
   B->A: 0.012883 (X 0.002741, Y -0.012589, Z 0.000000)
 Oscillator strength (a.u.): 0.001223
 Norm of one-particle transition density matrix:
   A->B: 0.900689;   B->A: 0.861656
   ||gamma^AB||*||gamma^BA||: 0.776084

 ------------------------------------------------------------------------------
 State A: ccsd: 0/A'
 State B: cvs_eomee_ccsd/rhfref/singlets: 9/A'
 Transition dipole moment (a.u.):
   A->B: 0.013321 (X 0.010138, Y -0.008641, Z 0.000000)
   B->A: 0.013210 (X 0.009957, Y -0.008682, Z 0.000000)
 Oscillator strength (a.u.): 0.001253
 Norm of one-particle transition density matrix:
   A->B: 0.900141;   B->A: 0.860864
   ||gamma^AB||*||gamma^BA||: 0.774899

 ------------------------------------------------------------------------------
 State A: ccsd: 0/A'
 State B: cvs_eomee_ccsd/rhfref/singlets: 10/A'
 Transition dipole moment (a.u.):
   A->B: 0.052388 (X 0.019871, Y -0.048474, Z 0.000000)
   B->A: 0.051643 (X 0.019574, Y -0.047790, Z 0.000000)
 Oscillator strength (a.u.): 0.019262
 Norm of one-particle transition density matrix:
   A->B: 0.904600;   B->A: 0.873251
   ||gamma^AB||*||gamma^BA||: 0.789943

 ------------------------------------------------------------------------------
 State A: ccsd: 0/A'
 State B: cvs_eomee_ccsd/rhfref/singlets: 11/A'
 Transition dipole moment (a.u.):
   A->B: 0.012462 (X 0.000489, Y -0.012453, Z 0.000000)
   B->A: 0.012173 (X 0.000695, Y -0.012153, Z 0.000000)
 Oscillator strength (a.u.): 0.001080
 Norm of one-particle transition density matrix:
   A->B: 0.900039;   B->A: 0.861391
   ||gamma^AB||*||gamma^BA||: 0.775285

 ------------------------------------------------------------------------------
 State A: ccsd: 0/A'
 State B: cvs_eomee_ccsd/rhfref/singlets: 12/A'
 Transition dipole moment (a.u.):
   A->B: 0.011553 (X -0.011406, Y 0.001832, Z 0.000000)
   B->A: 0.011334 (X -0.011199, Y 0.001740, Z 0.000000)
 Oscillator strength (a.u.): 0.000933
 Norm of one-particle transition density matrix:
   A->B: 0.900905;   B->A: 0.862139
   ||gamma^AB||*||gamma^BA||: 0.776705

 ------------------------------------------------------------------------------
 State A: ccsd: 0/A'
 State B: cvs_eomee_ccsd/rhfref/singlets: 13/A'
 Transition dipole moment (a.u.):
   A->B: 0.006543 (X 0.005498, Y 0.003547, Z 0.000000)
   B->A: 0.006428 (X 0.005431, Y 0.003437, Z 0.000000)
 Oscillator strength (a.u.): 0.000300
 Norm of one-particle transition density matrix:
   A->B: 0.900290;   B->A: 0.860445
   ||gamma^AB||*||gamma^BA||: 0.774650

 ------------------------------------------------------------------------------
 State A: ccsd: 0/A'
 State B: cvs_eomee_ccsd/rhfref/singlets: 14/A'
 Transition dipole moment (a.u.):
   A->B: 0.004382 (X 0.003518, Y 0.002613, Z 0.000000)
   B->A: 0.004264 (X 0.003438, Y 0.002523, Z 0.000000)
 Oscillator strength (a.u.): 0.000133
 Norm of one-particle transition density matrix:
   A->B: 0.900628;   B->A: 0.860681
   ||gamma^AB||*||gamma^BA||: 0.775153

 ------------------------------------------------------------------------------
 State A: ccsd: 0/A'
 State B: cvs_eomee_ccsd/rhfref/singlets: 15/A'
 Transition dipole moment (a.u.):
   A->B: 0.010291 (X 0.002412, Y -0.010004, Z 0.000000)
   B->A: 0.009918 (X 0.002340, Y -0.009638, Z 0.000000)
 Oscillator strength (a.u.): 0.000728
 Norm of one-particle transition density matrix:
   A->B: 0.900569;   B->A: 0.861081
   ||gamma^AB||*||gamma^BA||: 0.775463

 ------------------------------------------------------------------------------
 State A: ccsd: 0/A'
 State B: cvs_eomee_ccsd/rhfref/singlets: 16/A'
 Transition dipole moment (a.u.):
   A->B: 0.006541 (X -0.005778, Y 0.003066, Z 0.000000)
   B->A: 0.006333 (X -0.005610, Y 0.002937, Z 0.000000)
 Oscillator strength (a.u.): 0.000295
 Norm of one-particle transition density matrix:
   A->B: 0.900286;   B->A: 0.860527
   ||gamma^AB||*||gamma^BA||: 0.774720

 ------------------------------------------------------------------------------
 State A: ccsd: 0/A'
 State B: cvs_eomee_ccsd/rhfref/singlets: 17/A'
 Transition dipole moment (a.u.):
   A->B: 0.008597 (X -0.000943, Y 0.008545, Z 0.000000)
   B->A: 0.008375 (X -0.001082, Y 0.008305, Z 0.000000)
 Oscillator strength (a.u.): 0.000513
 Norm of one-particle transition density matrix:
   A->B: 0.900364;   B->A: 0.860993
   ||gamma^AB||*||gamma^BA||: 0.775206

 ------------------------------------------------------------------------------
 State A: ccsd: 0/A'
 State B: cvs_eomee_ccsd/rhfref/singlets: 18/A'
 Transition dipole moment (a.u.):
   A->B: 0.009996 (X 0.009991, Y -0.000292, Z 0.000000)
   B->A: 0.009718 (X 0.009713, Y -0.000302, Z 0.000000)
 Oscillator strength (a.u.): 0.000693
 Norm of one-particle transition density matrix:
   A->B: 0.900753;   B->A: 0.861548
   ||gamma^AB||*||gamma^BA||: 0.776041

 ------------------------------------------------------------------------------
 State A: ccsd: 0/A'
 State B: cvs_eomee_ccsd/rhfref/singlets: 19/A'
 Transition dipole moment (a.u.):
   A->B: 0.005344 (X -0.004829, Y -0.002288, Z 0.000000)
   B->A: 0.005193 (X -0.004703, Y -0.002204, Z 0.000000)
 Oscillator strength (a.u.): 0.000198
 Norm of one-particle transition density matrix:
   A->B: 0.900469;   B->A: 0.860571
   ||gamma^AB||*||gamma^BA||: 0.774918

 ------------------------------------------------------------------------------
 State A: ccsd: 0/A'
 State B: cvs_eomee_ccsd/rhfref/singlets: 20/A'
 Transition dipole moment (a.u.):
   A->B: 0.052119 (X 0.050327, Y -0.013550, Z 0.000000)
   B->A: 0.051094 (X 0.049352, Y -0.013225, Z 0.000000)
 Oscillator strength (a.u.): 0.019013
 Norm of one-particle transition density matrix:
   A->B: 0.906649;   B->A: 0.879941
   ||gamma^AB||*||gamma^BA||: 0.797798

 ------------------------------------------------------------------------------
 State A: ccsd: 0/A'
 State B: cvs_eomee_ccsd/rhfref/singlets: 1/A"
 Transition dipole moment (a.u.):
   A->B: 0.080006 (X 0.000000, Y 0.000000, Z -0.080006)
   B->A: 0.081769 (X 0.000000, Y 0.000000, Z -0.081769)
 Oscillator strength (a.u.): 0.045823
 Norm of one-particle transition density matrix:
   A->B: 0.884250;   B->A: 0.887421
   ||gamma^AB||*||gamma^BA||: 0.784701

 ------------------------------------------------------------------------------
 State A: ccsd: 0/A'
 State B: cvs_eomee_ccsd/rhfref/singlets: 2/A"
 Transition dipole moment (a.u.):
   A->B: 0.090701 (X 0.000000, Y 0.000000, Z -0.090701)
   B->A: 0.092007 (X 0.000000, Y 0.000000, Z -0.092007)
 Oscillator strength (a.u.): 0.058889
 Norm of one-particle transition density matrix:
   A->B: 0.886872;   B->A: 0.890735
   ||gamma^AB||*||gamma^BA||: 0.789968

 ------------------------------------------------------------------------------
 State A: ccsd: 0/A'
 State B: cvs_eomee_ccsd/rhfref/singlets: 3/A"
 Transition dipole moment (a.u.):
   A->B: 0.023862 (X 0.000000, Y 0.000000, Z 0.023862)
   B->A: 0.024293 (X 0.000000, Y 0.000000, Z 0.024293)
 Oscillator strength (a.u.): 0.004109
 Norm of one-particle transition density matrix:
   A->B: 0.901631;   B->A: 0.864252
   ||gamma^AB||*||gamma^BA||: 0.779236

 ------------------------------------------------------------------------------
 State A: ccsd: 0/A'
 State B: cvs_eomee_ccsd/rhfref/singlets: 4/A"
 Transition dipole moment (a.u.):
   A->B: 0.009908 (X 0.000000, Y 0.000000, Z -0.009908)
   B->A: 0.009688 (X 0.000000, Y 0.000000, Z -0.009688)
 Oscillator strength (a.u.): 0.000683
 Norm of one-particle transition density matrix:
   A->B: 0.900402;   B->A: 0.860483
   ||gamma^AB||*||gamma^BA||: 0.774781

 ------------------------------------------------------------------------------
 State A: ccsd: 0/A'
 State B: cvs_eomee_ccsd/rhfref/singlets: 5/A"
 Transition dipole moment (a.u.):
   A->B: 0.006948 (X 0.000000, Y 0.000000, Z 0.006948)
   B->A: 0.006803 (X 0.000000, Y 0.000000, Z 0.006803)
 Oscillator strength (a.u.): 0.000336
 Norm of one-particle transition density matrix:
   A->B: 0.900225;   B->A: 0.860073
   ||gamma^AB||*||gamma^BA||: 0.774259

 ------------------------------------------------------------------------------
 State A: ccsd: 0/A'
 State B: cvs_eomee_ccsd/rhfref/singlets: 6/A"
 Transition dipole moment (a.u.):
   A->B: 0.013319 (X 0.000000, Y 0.000000, Z -0.013319)
   B->A: 0.013484 (X 0.000000, Y 0.000000, Z -0.013484)
 Oscillator strength (a.u.): 0.001279
 Norm of one-particle transition density matrix:
   A->B: 0.900898;   B->A: 0.861580
   ||gamma^AB||*||gamma^BA||: 0.776196

 ------------------------------------------------------------------------------
 State A: ccsd: 0/A'
 State B: cvs_eomee_ccsd/rhfref/singlets: 7/A"
 Transition dipole moment (a.u.):
   A->B: 0.006283 (X 0.000000, Y 0.000000, Z 0.006283)
   B->A: 0.006117 (X 0.000000, Y 0.000000, Z 0.006117)
 Oscillator strength (a.u.): 0.000274
 Norm of one-particle transition density matrix:
   A->B: 0.900519;   B->A: 0.860393
   ||gamma^AB||*||gamma^BA||: 0.774800

 ------------------------------------------------------------------------------
 State A: ccsd: 0/A'
 State B: cvs_eomee_ccsd/rhfref/singlets: 8/A"
 Transition dipole moment (a.u.):
   A->B: 0.005309 (X 0.000000, Y 0.000000, Z -0.005309)
   B->A: 0.005186 (X 0.000000, Y 0.000000, Z -0.005186)
 Oscillator strength (a.u.): 0.000196
 Norm of one-particle transition density matrix:
   A->B: 0.900425;   B->A: 0.860250
   ||gamma^AB||*||gamma^BA||: 0.774591

 ------------------------------------------------------------------------------
 State A: ccsd: 0/A'
 State B: cvs_eomee_ccsd/rhfref/singlets: 9/A"
 Transition dipole moment (a.u.):
   A->B: 0.009002 (X 0.000000, Y 0.000000, Z 0.009002)
   B->A: 0.009098 (X 0.000000, Y 0.000000, Z 0.009098)
 Oscillator strength (a.u.): 0.000584
 Norm of one-particle transition density matrix:
   A->B: 0.900664;   B->A: 0.860893
   ||gamma^AB||*||gamma^BA||: 0.775376

 ------------------------------------------------------------------------------
 State A: ccsd: 0/A'
 State B: cvs_eomee_ccsd/rhfref/singlets: 10/A"
 Transition dipole moment (a.u.):
   A->B: 0.004865 (X 0.000000, Y 0.000000, Z 0.004865)
   B->A: 0.004736 (X 0.000000, Y 0.000000, Z 0.004736)
 Oscillator strength (a.u.): 0.000164
 Norm of one-particle transition density matrix:
   A->B: 0.900553;   B->A: 0.860384
   ||gamma^AB||*||gamma^BA||: 0.774822

 ------------------------------------------------------------------------------
 State A: ccsd: 0/A'
 State B: cvs_eomee_ccsd/rhfref/singlets: 11/A"
 Transition dipole moment (a.u.):
   A->B: 0.009742 (X 0.000000, Y 0.000000, Z -0.009742)
   B->A: 0.009677 (X 0.000000, Y 0.000000, Z -0.009677)
 Oscillator strength (a.u.): 0.000673
 Norm of one-particle transition density matrix:
   A->B: 0.900576;   B->A: 0.860824
   ||gamma^AB||*||gamma^BA||: 0.775238

 ------------------------------------------------------------------------------
 State A: ccsd: 0/A'
 State B: cvs_eomee_ccsd/rhfref/singlets: 12/A"
 Transition dipole moment (a.u.):
   A->B: 0.006568 (X 0.000000, Y 0.000000, Z 0.006568)
   B->A: 0.006933 (X 0.000000, Y 0.000000, Z 0.006933)
 Oscillator strength (a.u.): 0.000325
 Norm of one-particle transition density matrix:
   A->B: 0.900419;   B->A: 0.860823
   ||gamma^AB||*||gamma^BA||: 0.775102

 ------------------------------------------------------------------------------
 State A: ccsd: 0/A'
 State B: cvs_eomee_ccsd/rhfref/singlets: 13/A"
 Transition dipole moment (a.u.):
   A->B: 0.019573 (X 0.000000, Y 0.000000, Z 0.019573)
   B->A: 0.019245 (X 0.000000, Y 0.000000, Z 0.019245)
 Oscillator strength (a.u.): 0.002694
 Norm of one-particle transition density matrix:
   A->B: 0.901401;   B->A: 0.862175
   ||gamma^AB||*||gamma^BA||: 0.777165


 All requested transition properties have been computed

 Transition Properties:   CPU 122.52 s  wall 26.05 s

 Total ccman2 time:   CPU 11784.53 s  wall 2257.39 s

 
 --------------------------------------------------------------
             Orbital Energies (a.u.) and Symmetries
 --------------------------------------------------------------
 
 Alpha MOs, Restricted
 -- Occupied --                  
-26.310 -11.332 -11.240  -1.628  -1.055  -0.840  -0.740  -0.690
  1 A'    2 A'    3 A'    4 A'    5 A'    6 A'    7 A'    1 A"                 
 -0.686  -0.591  -0.562  -0.386
  8 A'    9 A'   10 A'    2 A"                                                 
 -- Virtual --                   
  0.001   0.003   0.004   0.004   0.005   0.008   0.008   0.008
 11 A'   12 A'   13 A'    3 A"   14 A'   15 A'   16 A'    4 A"                 
  0.008   0.008   0.011   0.011   0.012   0.014   0.021   0.021
 17 A'    5 A"   18 A'   19 A'    6 A"   20 A'   21 A'   22 A'                 
  0.021   0.021   0.021   0.025   0.026   0.027   0.030   0.044
  7 A"   23 A'    8 A"   24 A'   25 A'    9 A"   26 A'   27 A'                 
  0.044   0.044   0.045   0.045   0.051   0.055   0.055   0.063
 28 A'   10 A"   29 A'   11 A"   30 A'   12 A"   31 A'   32 A'                 
  0.083   0.084   0.085   0.087   0.089   0.102   0.109   0.112
 13 A"   33 A'   34 A'   35 A'   14 A"   36 A'   37 A'   15 A"                 
  0.126   0.136   0.136   0.145   0.160   0.166   0.172   0.175
 38 A'   16 A"   39 A'   40 A'   41 A'   42 A'   43 A'   17 A"                 
  0.177   0.179   0.220   0.246   0.256   0.261   0.269   0.284
 18 A"   44 A'   45 A'   46 A'   19 A"   47 A'   20 A"   48 A'                 
  0.295   0.333   0.351   0.395   0.453   0.483   0.491   0.511
 49 A'   50 A'   51 A'   52 A'   53 A'   21 A"   54 A'   55 A'                 
  0.540   0.614   0.683   0.706   0.771   0.816   0.837   0.883
 56 A'   57 A'   58 A'   59 A'   60 A'   22 A"   23 A"   61 A'                 
  0.938   0.949   0.994   1.037   1.098   1.257   1.312   1.481
 62 A'   63 A'   64 A'   65 A'   66 A'   24 A"   25 A"   26 A"                 
  1.602   1.661   1.695   1.724   1.749   1.840   1.860   1.913
 67 A'   68 A'   69 A'   27 A"   70 A'   71 A'   72 A'   28 A"                 
  1.960   2.032   2.172   2.286   2.316   2.369   2.402   2.460
 73 A'   29 A"   74 A'   75 A'   30 A"   76 A'   31 A"   77 A'                 
  2.587   2.797   2.877   2.935   3.041   3.061   3.137   3.286
 78 A'   79 A'   80 A'   81 A'   82 A'   83 A'   32 A"   33 A"                 
  3.383   3.598   3.895   4.148   4.225   4.251   4.436   4.444
 84 A'   85 A'   86 A'   87 A'   34 A"   88 A'   89 A'   35 A"                 
  4.591   5.330   6.981   7.029   7.342  24.846  25.411  68.776
 90 A'   91 A'   36 A"   92 A'   93 A'   94 A'   95 A'   96 A'                 
 
 Beta MOs, Restricted
 -- Occupied --                  
-26.310 -11.332 -11.240  -1.628  -1.055  -0.840  -0.740  -0.690
  1 A'    2 A'    3 A'    4 A'    5 A'    6 A'    7 A'    1 A"                 
 -0.686  -0.591  -0.562  -0.386
  8 A'    9 A'   10 A'    2 A"                                                 
 -- Virtual --                   
  0.001   0.003   0.004   0.004   0.005   0.008   0.008   0.008
 11 A'   12 A'   13 A'    3 A"   14 A'   15 A'   16 A'    4 A"                 
  0.008   0.008   0.011   0.011   0.012   0.014   0.021   0.021
 17 A'    5 A"   18 A'   19 A'    6 A"   20 A'   21 A'   22 A'                 
  0.021   0.021   0.021   0.025   0.026   0.027   0.030   0.044
  7 A"   23 A'    8 A"   24 A'   25 A'    9 A"   26 A'   27 A'                 
  0.044   0.044   0.045   0.045   0.051   0.055   0.055   0.063
 28 A'   10 A"   29 A'   11 A"   30 A'   12 A"   31 A'   32 A'                 
  0.083   0.084   0.085   0.087   0.089   0.102   0.109   0.112
 13 A"   33 A'   34 A'   35 A'   14 A"   36 A'   37 A'   15 A"                 
  0.126   0.136   0.136   0.145   0.160   0.166   0.172   0.175
 38 A'   16 A"   39 A'   40 A'   41 A'   42 A'   43 A'   17 A"                 
  0.177   0.179   0.220   0.246   0.256   0.261   0.269   0.284
 18 A"   44 A'   45 A'   46 A'   19 A"   47 A'   20 A"   48 A'                 
  0.295   0.333   0.351   0.395   0.453   0.483   0.491   0.511
 49 A'   50 A'   51 A'   52 A'   53 A'   21 A"   54 A'   55 A'                 
  0.540   0.614   0.683   0.706   0.771   0.816   0.837   0.883
 56 A'   57 A'   58 A'   59 A'   60 A'   22 A"   23 A"   61 A'                 
  0.938   0.949   0.994   1.037   1.098   1.257   1.312   1.481
 62 A'   63 A'   64 A'   65 A'   66 A'   24 A"   25 A"   26 A"                 
  1.602   1.661   1.695   1.724   1.749   1.840   1.860   1.913
 67 A'   68 A'   69 A'   27 A"   70 A'   71 A'   72 A'   28 A"                 
  1.960   2.032   2.172   2.286   2.316   2.369   2.402   2.460
 73 A'   29 A"   74 A'   75 A'   30 A"   76 A'   31 A"   77 A'                 
  2.587   2.797   2.877   2.935   3.041   3.061   3.137   3.286
 78 A'   79 A'   80 A'   81 A'   82 A'   83 A'   32 A"   33 A"                 
  3.383   3.598   3.895   4.148   4.225   4.251   4.436   4.444
 84 A'   85 A'   86 A'   87 A'   34 A"   88 A'   89 A'   35 A"                 
  4.591   5.330   6.981   7.029   7.342  24.846  25.411  68.776
 90 A'   91 A'   36 A"   92 A'   93 A'   94 A'   95 A'   96 A'                 
 --------------------------------------------------------------
 
          Ground-State Mulliken Net Atomic Charges

     Atom                 Charge (a.u.)
  ----------------------------------------
      1 C                    -0.245028
      2 GH                    0.027262
      3 F                    -0.123103
      4 C                    -0.019896
      5 H                     0.148834
      6 H                     0.111171
      7 H                     0.100761
  ----------------------------------------
  Sum of atomic charges =    -0.000000

 -----------------------------------------------------------------
                    Cartesian Multipole Moments
 -----------------------------------------------------------------
    Charge (ESU x 10^10)
                -0.0000
    Dipole Moment (Debye)
         X       1.4873      Y      -0.9279      Z      -0.0000
       Tot       1.7530
    Quadrupole Moments (Debye-Ang)
        XX     -18.0200     XY       0.9639     YY     -15.3308
        XZ      -0.0000     YZ      -0.0000     ZZ     -19.4790
    Octopole Moments (Debye-Ang^2)
       XXX      -3.3932    XXY      -0.3848    XYY      -2.1723
       YYY       0.4720    XXZ      -0.0000    XYZ      -0.0000
       YYZ      -0.0000    XZZ      -5.0030    YZZ       0.7012
       ZZZ       0.0000
    Hexadecapole Moments (Debye-Ang^3)
      XXXX    -121.0948   XXXY      -3.6510   XXYY     -26.6324
      XYYY       0.7415   YYYY     -36.0508   XXXZ       0.0000
      XXYZ       0.0000   XYYZ       0.0000   YYYZ       0.0000
      XXZZ     -27.2041   XYZZ      -0.3800   YYZZ     -11.5549
      XZZZ       0.0000   YZZZ       0.0000   ZZZZ     -23.8792
 -----------------------------------------------------------------
Archival summary:
1\1\n-62-29-19\SP\ProcedureUnspecified\BasisUnspecified\123h1\malop\MonAug1319:20:162018MonAug1319:20:162018\0\\#,ProcedureUnspecified,BasisUnspecified,\\0,1\C\Gh,1,0.435868\H,1,1.08083,2,170.664\F,2,1.17461,1,103.178,3,0,0\C,2,1.19615,1,97.4666,3,-180,0\H,5,1.07898,2,137.975,1,-0,0\H,5,1.08006,2,102.344,1,180,0\\HF=-176.937001\\@

 Total job time:  2290.11s(wall), 11887.85s(cpu) 
 Mon Aug 13 19:20:16 2018

        *************************************************************
        *                                                           *
        *  Thank you very much for using Q-Chem.  Have a nice day.  *
        *                                                           *
        *************************************************************


