n-62-29-14 10.66.29
Q-Chem Developer Version! Running on 10.66.29.*
                  Welcome to Q-Chem
     A Quantum Leap Into The Future Of Chemistry


 Q-Chem 5.1, Q-Chem, Inc., Pleasanton, CA (2018)

 Yihan Shao,  Zhengting Gan,  E. Epifanovsky,  A. T. B. Gilbert,  M. Wormit,  
 J. Kussmann,  A. W. Lange,  A. Behn,  Jia Deng,  Xintian Feng,  D. Ghosh,  
 M. Goldey,  P. R. Horn,  L. D. Jacobson,  I. Kaliman,  T. Kus,  A. Landau,  
 Jie Liu,  E. I. Proynov,  R. M. Richard,  R. P. Steele,  E. J. Sundstrom,  
 H. L. Woodcock III,  P. M. Zimmerman,  D. Zuev,  B. Albrecht,  E. Alguire,  
 S. A. Baeppler,  D. Barton,  Z. Benda,  Y. A. Bernard,  E. J. Berquist,  
 K. B. Bravaya,  H. Burton,  D. Casanova,  Chun-Min Chang,  Yunqing Chen,  
 A. Chien,  K. D. Closser,  M. P. Coons,  S. Coriani,  S. Dasgupta,  
 A. L. Dempwolff,  M. Diedenhofen,  Hainam Do,  R. G. Edgar,  Po-Tung Fang,  
 S. Faraji,  S. Fatehi,  Qingguo Feng,  K. D. Fenk,  J. Fosso-Tande,  
 Qinghui Ge,  A. Ghysels,  G. Gidofalvi,  J. Gomes,  J. Gonthier,  A. Gunina,  
 M. W. D. Hanson-Heine,  P. H. P. Harbach,  A. W. Hauser,  J. E. Herr,  
 E. G. Hohenstein,  Z. C. Holden,  Kerwin Hui,  T.-C. Jagau,  Hyunjun Ji,  
 B. Kaduk,  K. Khistyaev,  Jaehoon Kim,  P. Klunzinger,  K. Koh,  
 D. Kosenkov,  L. Koulias,  T. Kowalczyk,  C. M. Krauter,  A. Kunitsa,  
 Ka Un Lao,  A. Laurent,  K. V. Lawler,  Joonho Lee,  D. Lefrancois,  
 S. Lehtola,  D. S. Levine,  Yi-Pei Li,  You-Sheng Lin,  Fenglai Liu,  
 E. Livshits,  A. Luenser,  P. Manohar,  E. Mansoor,  S. F. Manzer,  
 Shan-Ping Mao,  Yuezhi Mao,  N. Mardirossian,  A. V. Marenich,  
 T. Markovich,  L. A. Martinez-Martinez,  S. A. Maurer,  N. J. Mayhall,  
 S. C. McKenzie,  J.-M. Mewes,  A. F. Morrison,  J. W. Mullinax,  K. Nanda,  
 T. S. Nguyen-Beck,  R. Olivares-Amaya,  J. A. Parkhill,  T. M. Perrine,  
 F. Plasser,  P. Pokhilko,  S. Prager,  A. Prociuk,  E. Ramos,  D. R. Rehn,  
 F. Rob,  M. Schneider,  N. Sergueev,  S. M. Sharada,  S. Sharma,  
 D. W. Small,  T. Stauch,  T. Stein,  Yu-Chuan Su,  A. J. W. Thom,  
 A. Tkatchenko,  T. Tsuchimochi,  N. M. Tubman,  L. Vogt,  M. L. Vidal,  
 O. Vydrov,  M. A. Watson,  J. Wenzel,  M. de Wergifosse,  T. A. Wesolowski,  
 A. White,  J. Witte,  A. Yamada,  Jun Yang,  K. Yao,  S. Yeganeh,  
 S. R. Yost,  Zhi-Qiang You,  A. Zech,  Igor Ying Zhang,  Xing Zhang,  
 Yan Zhao,  Ying Zhu,  B. R. Brooks,  G. K. L. Chan,  C. J. Cramer,  
 M. S. Gordon,  W. J. Hehre,  A. Klamt,  M. W. Schmidt,  C. D. Sherrill,  
 D. G. Truhlar,  A. Aspuru-Guzik,  R. Baer,  A. T. Bell,  N. A. Besley,  
 Jeng-Da Chai,  R. A. DiStasio Jr.,  A. Dreuw,  B. D. Dunietz,  
 T. R. Furlani,  Chao-Ping Hsu,  Yousung Jung,  Jing Kong,  D. S. Lambrecht,  
 WanZhen Liang,  C. Ochsenfeld,  V. A. Rassolov,  L. V. Slipchenko,  
 J. E. Subotnik,  T. Van Voorhis,  J. M. Herbert,  A. I. Krylov,  
 P. M. W. Gill,  M. Head-Gordon

 Contributors to earlier versions of Q-Chem not listed above: 
 R. D. Adamson,  B. Austin,  J. Baker,  G. J. O. Beran,  K. Brandhorst,  
 S. T. Brown,  E. F. C. Byrd,  A. K. Chakraborty,  C.-L. Cheng,  
 Siu Hung Chien,  D. M. Chipman,  D. L. Crittenden,  H. Dachsel,  
 R. J. Doerksen,  A. D. Dutoi,  L. Fusti-Molnar,  W. A. Goddard III,  
 A. Golubeva-Zadorozhnaya,  S. R. Gwaltney,  G. Hawkins,  A. Heyden,  
 S. Hirata,  G. Kedziora,  F. J. Keil,  C. Kelley,  Jihan Kim,  R. A. King,  
 R. Z. Khaliullin,  P. P. Korambath,  W. Kurlancheek,  A. M. Lee,  M. S. Lee,  
 S. V. Levchenko,  Ching Yeh Lin,  D. Liotard,  R. C. Lochan,  I. Lotan,  
 P. E. Maslen,  N. Nair,  D. P. O'Neill,  D. Neuhauser,  E. Neuscamman,  
 C. M. Oana,  R. Olson,  B. Peters,  R. Peverati,  P. A. Pieniazek,  
 Y. M. Rhee,  J. Ritchie,  M. A. Rohrdanz,  E. Rosta,  N. J. Russ,  
 H. F. Schaefer III,  N. E. Schultz,  N. Shenvi,  A. C. Simmonett,  A. Sodt,  
 D. Stuck,  K. S. Thanthiriwatte,  V. Vanovschi,  Tao Wang,  A. Warshel,  
 C. F. Williams,  Q. Wu,  X. Xu,  W. Zhang

 Please cite Q-Chem as follows:
 Y. Shao et al., Mol. Phys. 113, 184-215 (2015)
 DOI: 10.1080/00268976.2014.952696

 Q-Chem 5.1.0 for Intel X86 EM64T Linux

 Parts of Q-Chem use Armadillo 8.300.2 (Tropical Shenanigans).
 http://arma.sourceforge.net/

 Q-Chem begins on Mon Aug 13 19:02:58 2018  

Host: 
0

     Scratch files written to /work1/malop/qc_7112787.hnode2//

Checking the input file for inconsistencies... 	...done.

--------------------------------------------------------------
User input:
--------------------------------------------------------------
$comment 
NEXAFS VINYLFLUORIDE / aug-cc-pVTZ
Optimized geometry with CFour
$end

$molecule
0 1
F      -1.1529023119     0.2247766372     0.0000000000
C1      1.1793501171     0.1997294858     0.0000000000
C2      0.0163188564    -0.4355681094     0.0000000000
H      -0.1189530186    -1.5078996853     0.0000000000
H       1.2308254859     1.2785611362     0.0000000000
H       2.0902344982    -0.3786194440     0.0000000000
$end

$rem
!    input_bohr = true
    jobtype = sp
    method = eom-ccsd
    cvs_ee_singlets    [20,13]
    basis = aug-cc-pVTZ
    n_frozen_core = fc 
    cc_trans_prop = true
   EOM_DAVIDSON_MAXVECTORS = 1000
   eom_preconv_singles = true
   eom_shift = 10470
   eom_davidson_convergence = 4   !as we discussed, this is good for core
   use_libqints = 1   !use new int library (will be def in trunk)
   thresh = 14   !this already should be default, but just in case
!   scf_convergence = 13   !v. tight scf convergence, to reduce noise
!   cc_convergence = 12   !tight CC, for the same reason
   basis_lin_dep_thresh = 8  !default is 6, use smaller, just in case
   cc_memory = 100000
   EOM_DAVIDSON_MAX_ITER 200
$end
--------------------------------------------------------------
 ----------------------------------------------------------------
             Standard Nuclear Orientation (Angstroms)
    I     Atom           X                Y                Z
 ----------------------------------------------------------------
    1      F       1.1529023119     0.2247766372    -0.0000000000
    2      C      -1.1793501171     0.1997294858    -0.0000000000
    3      C      -0.0163188564    -0.4355681094     0.0000000000
    4      H       0.1189530185    -1.5078996853     0.0000000000
    5      H      -1.2308254859     1.2785611362    -0.0000000000
    6      H      -2.0902344982    -0.3786194440     0.0000000000
 ----------------------------------------------------------------
 Molecular Point Group                 Cs    NOp =  2
 Largest Abelian Subgroup              Cs    NOp =  2
 Nuclear Repulsion Energy =    67.5482146698 hartrees
 There are       12 alpha and       12 beta electrons
 Requested basis set is aug-cc-pVTZ
 There are 69 shells and 207 basis functions
MEM_TOTAL is adjusted to CC_MEMORY + MEM_STATIC!
 Total memory of 100192MB is distributed as follows: 
   QALLOC including MEM_STATIC uses 192MB
   MEM_STATIC is set to 192MB
   CCMAN JOB total memory use is  100000MB
 Warning: actual memory use might exceed 100192MB

 Total QAlloc Memory Limit    192 MB
 Mega-Array Size       188 MB
 MEM_STATIC part       192 MB

                       Distance Matrix (Angstroms)
             F (  1)   C (  2)   C (  3)   H (  4)   H (  5)
   C (  2)  2.332387
   C (  3)  1.342808  1.325234
   H (  4)  2.017726  2.145131  1.080830
   H (  5)  2.606266  1.080059  2.100777  3.096170
   H (  6)  3.298791  1.078980  2.074697  2.481085  1.866770
 
 A cutoff of  1.0D-14 yielded   2412 shell pairs
 There are     21840 function pairs (     29448 Cartesian)
 
 -------------------------------------------------------
 OpenMP Integral Computing Module                       
 Release: version 1.0, May 2013, Q-Chem Inc. Pittsburgh 
 -------------------------------------------------------
 Integral Job Info:
 Integral job number is                      11
 Integral operator is                         1
 short-range coefficients                     0
 long-range coefficients              100000000
 Omega coefficients                           0
 if combine SR and LR in K                    0
 Integral screening is                        0
 Integral computing path is                   2
 max size of driver memory is            800000
 size of driver memory is                776718
 size of scratch memory is              6691272
 max col of scratch BK array              10000
 max len of scratch array in speh3          662
 max len of scratch index in speh4           32
 max int batch size is                      520
 min int batch size is                       52
 fixed nKL is                                52
 max L of basis functions is                  3
 order of int derivative is                   0
 number of shells is                         69
 number of basis is                         240
 number of cartesian basis is               240
 number of contracted shell pairs          2412
 number of primitive shell pairs           6814
 maxK2 (contraction) of shell pair           64
 max number of K2 of shell pair               1
 max number of CS2 of shell pair            328
 max number of PS2 of shell pair            856
 mem total for path MDJ                  606216
 -------------------------------------------------------
 Smallest overlap matrix eigenvalue = 1.62E-05

 Scale SEOQF with 1.000000e-01/1.000000e-01/1.000000e-01

 Standard Electronic Orientation quadrupole field applied
 Nucleus-field energy     =     0.0000000014 hartrees
 Guess from superposition of atomic densities
 Warning:  Energy on first SCF cycle will be non-variational
 SAD guess density has 24.000000 electrons

 -----------------------------------------------------------------------
  General SCF calculation program by
  Eric Jon Sundstrom, Paul Horn, Yuezhi Mao, Dmitri Zuev, Alec White,
  David Stuck, Shaama M.S., Shane Yost, Joonho Lee, David Small,
  Daniel Levine, Susi Lehtola, Hugh Burton, Evgeny Epifanovsky
 -----------------------------------------------------------------------
 Hartree-Fock
 A restricted SCF calculation will be
 performed using DIIS
 SCF converges when DIIS error is below 1.0e-08
 ---------------------------------------
  Cycle       Energy         DIIS error
 ---------------------------------------
    1    -177.5089400803      2.74e-02  
    2    -176.9084698894      2.96e-03  
    3    -176.9468466572      1.53e-03  
    4    -176.9554760164      3.26e-04  
    5    -176.9562561563      6.71e-05  
    6    -176.9563013496      2.96e-05  
    7    -176.9563087842      9.92e-06  
    8    -176.9563105362      3.37e-06  
    9    -176.9563107025      6.20e-07  
   10    -176.9563107076      2.02e-07  
   11    -176.9563107082      6.34e-08  
   12    -176.9563107082      1.35e-08  
   13    -176.9563107082      2.05e-09  Convergence criterion met
 ---------------------------------------
 SCF time:   CPU 180.08s  wall 19.00s 
 SCF   energy in the final basis set =     -176.9563107082


 ------------------------------------------------------------------------------

   CCMAN2: suite of methods based on coupled cluster
           and equation of motion theories.

   Components:
   * libvmm-1.3-trunk
     by Evgeny Epifanovsky, Ilya Kaliman.
   * libtensor-2.5-trunk
     by Evgeny Epifanovsky, Michael Wormit, Dmitry Zuev, Sam Manzer, 
        Ilya Kaliman.
   * libcc-2.5-trunk
     by Evgeny Epifanovsky, Arik Landau, Tomasz Kus, Kirill Khistyaev, 
        Dmitry Zuev, Prashant Manohar, Xintian Feng, Anna Krylov, 
        Matthew Goldey, Alec White, Thomas Jagau, Kaushik Nanda, 
        Anastasia Gunina, Alexander Kunitsa, Joonho Lee.

   CCMAN original authors:
   Anna I. Krylov, C. David Sherrill, Steven R. Gwaltney,
   Edward F. C. Byrd (2000)
   Sergey V. Levchenko, Lyudmila V. Slipchenko, Tao Wang,
   Ana-Maria C. Cristian (2003)
   Piotr A. Pieniazek, C. Melania Oana, Evgeny Epifanovsky (2007)
   Prashant Manohar (2009)

 ------------------------------------------------------------------------------


 Calculation will run on 10 cores with 100000MB of RAM.

 
 Alpha MOs, Restricted
 -- Occupied --                  
-26.311 -11.329 -11.237  -1.627  -1.052  -0.838  -0.739  -0.691
  1 A'    2 A'    3 A'    4 A'    5 A'    6 A'    7 A'    1 A"                 
 -0.684  -0.589  -0.560  -0.385
  8 A'    9 A'   10 A'    2 A"                                                 
 -- Virtual --                   
  0.030   0.039   0.046   0.090   0.090   0.095   0.103   0.128
 11 A'   12 A'   13 A'    3 A"   14 A'    4 A"   15 A'   16 A'                 
  0.139   0.154   0.170   0.182   0.193   0.230   0.233   0.251
 17 A'   18 A'    5 A"   19 A'   20 A'    6 A"   21 A'   22 A'                 
  0.267   0.276   0.293   0.299   0.300   0.333   0.360   0.371
 23 A'    7 A"   24 A'    8 A"   25 A'   26 A'   27 A'    9 A"                 
  0.379   0.385   0.396   0.398   0.410   0.428   0.441   0.448
 28 A'   29 A'   10 A"   30 A'   31 A'   32 A'   11 A"   12 A"                 
  0.463   0.484   0.492   0.518   0.569   0.580   0.610   0.619
 33 A'   34 A'   35 A'   36 A'   13 A"   37 A'   14 A"   38 A'                 
  0.638   0.719   0.733   0.758   0.807   0.836   0.850   0.858
 39 A'   40 A'   15 A"   41 A'   42 A'   43 A'   16 A"   44 A'                 
  0.893   0.896   0.902   0.916   0.930   0.943   0.952   0.955
 45 A'   46 A'   17 A"   47 A'   48 A'   18 A"   49 A'   19 A"                 
  0.979   0.986   0.996   1.027   1.055   1.057   1.076   1.086
 20 A"   50 A'   51 A'   52 A'   53 A'   21 A"   22 A"   54 A'                 
  1.095   1.118   1.119   1.132   1.145   1.179   1.227   1.270
 23 A"   55 A'   24 A"   56 A'   25 A"   57 A'   58 A'   59 A'                 
  1.295   1.314   1.322   1.374   1.435   1.437   1.464   1.508
 60 A'   26 A"   61 A'   27 A"   28 A"   62 A'   63 A'   64 A'                 
  1.547   1.560   1.596   1.600   1.627   1.686   1.726   1.733
 29 A"   65 A'   66 A'   30 A"   31 A"   67 A'   68 A'   69 A'                 
  1.742   1.760   1.790   1.838   1.855   1.903   1.914   1.972
 32 A"   70 A'   33 A"   71 A'   72 A'   73 A'   34 A"   74 A'                 
  2.015   2.020   2.049   2.084   2.121   2.242   2.280   2.282
 35 A"   75 A'   76 A'   36 A"   77 A'   78 A'   37 A"   79 A'                 
  2.413   2.441   2.654   2.766   2.776   2.939   2.980   2.986
 80 A'   81 A'   82 A'   83 A'   38 A"   39 A"   40 A"   84 A'                 
  3.057   3.061   3.077   3.097   3.161   3.197   3.213   3.244
 41 A"   85 A'   86 A'   87 A'   88 A'   42 A"   89 A'   90 A'                 
  3.273   3.315   3.359   3.377   3.426   3.435   3.516   3.528
 43 A"   91 A'   44 A"   45 A"   92 A'   46 A"   47 A"   93 A'                 
  3.546   3.571   3.616   3.657   3.660   3.711   3.748   3.749
 94 A'   48 A"   95 A'   49 A"   96 A'   97 A'   50 A"   98 A'                 
  3.767   3.808   3.825   3.915   3.990   4.066   4.067   4.146
 51 A"   99 A'  100 A'  101 A'  102 A'   52 A"  103 A'  104 A'                 
  4.187   4.234   4.252   4.316   4.344   4.404   4.460   4.516
105 A'  106 A'   53 A"   54 A"  107 A'  108 A'   55 A"  109 A'                 
  4.581   4.639   4.690   4.787   4.787   4.873   4.909   4.961
 56 A"  110 A'   57 A"  111 A'  112 A'   58 A"  113 A'   59 A"                 
  4.992   5.012   5.121   5.123   5.242   5.296   5.344   5.380
 60 A"  114 A'  115 A'   61 A"  116 A'  117 A'   62 A"  118 A'                 
  5.478   5.494   5.636   5.641   5.703   5.852   6.116   6.292
119 A'   63 A"  120 A'   64 A"  121 A'  122 A'  123 A'  124 A'                 
  6.565   6.693   6.893   7.311   8.914   8.941   9.170   9.201
125 A'  126 A'  127 A'  128 A'   65 A"  129 A'   66 A"  130 A'                 
  9.323   9.372   9.403   9.485   9.495   9.634   9.871   9.890
 67 A"  131 A'   68 A"  132 A'  133 A'   69 A"  134 A'  135 A'                 
 14.746  17.068  17.328
136 A'  137 A'  138 A'                                                         
 
 Beta MOs, Restricted
 -- Occupied --                  
-26.311 -11.329 -11.237  -1.627  -1.052  -0.838  -0.739  -0.691
  1 A'    2 A'    3 A'    4 A'    5 A'    6 A'    7 A'    1 A"                 
 -0.684  -0.589  -0.560  -0.385
  8 A'    9 A'   10 A'    2 A"                                                 
 -- Virtual --                   
  0.030   0.039   0.046   0.090   0.090   0.095   0.103   0.128
 11 A'   12 A'   13 A'    3 A"   14 A'    4 A"   15 A'   16 A'                 
  0.139   0.154   0.170   0.182   0.193   0.230   0.233   0.251
 17 A'   18 A'    5 A"   19 A'   20 A'    6 A"   21 A'   22 A'                 
  0.267   0.276   0.293   0.299   0.300   0.333   0.360   0.371
 23 A'    7 A"   24 A'    8 A"   25 A'   26 A'   27 A'    9 A"                 
  0.379   0.385   0.396   0.398   0.410   0.428   0.441   0.448
 28 A'   29 A'   10 A"   30 A'   31 A'   32 A'   11 A"   12 A"                 
  0.463   0.484   0.492   0.518   0.569   0.580   0.610   0.619
 33 A'   34 A'   35 A'   36 A'   13 A"   37 A'   14 A"   38 A'                 
  0.638   0.719   0.733   0.758   0.807   0.836   0.850   0.858
 39 A'   40 A'   15 A"   41 A'   42 A'   43 A'   16 A"   44 A'                 
  0.893   0.896   0.902   0.916   0.930   0.943   0.952   0.955
 45 A'   46 A'   17 A"   47 A'   48 A'   18 A"   49 A'   19 A"                 
  0.979   0.986   0.996   1.027   1.055   1.057   1.076   1.086
 20 A"   50 A'   51 A'   52 A'   53 A'   21 A"   22 A"   54 A'                 
  1.095   1.118   1.119   1.132   1.145   1.179   1.227   1.270
 23 A"   55 A'   24 A"   56 A'   25 A"   57 A'   58 A'   59 A'                 
  1.295   1.314   1.322   1.374   1.435   1.437   1.464   1.508
 60 A'   26 A"   61 A'   27 A"   28 A"   62 A'   63 A'   64 A'                 
  1.547   1.560   1.596   1.600   1.627   1.686   1.726   1.733
 29 A"   65 A'   66 A'   30 A"   31 A"   67 A'   68 A'   69 A'                 
  1.742   1.760   1.790   1.838   1.855   1.903   1.914   1.972
 32 A"   70 A'   33 A"   71 A'   72 A'   73 A'   34 A"   74 A'                 
  2.015   2.020   2.049   2.084   2.121   2.242   2.280   2.282
 35 A"   75 A'   76 A'   36 A"   77 A'   78 A'   37 A"   79 A'                 
  2.413   2.441   2.654   2.766   2.776   2.939   2.980   2.986
 80 A'   81 A'   82 A'   83 A'   38 A"   39 A"   40 A"   84 A'                 
  3.057   3.061   3.077   3.097   3.161   3.197   3.213   3.244
 41 A"   85 A'   86 A'   87 A'   88 A'   42 A"   89 A'   90 A'                 
  3.273   3.315   3.359   3.377   3.426   3.435   3.516   3.528
 43 A"   91 A'   44 A"   45 A"   92 A'   46 A"   47 A"   93 A'                 
  3.546   3.571   3.616   3.657   3.660   3.711   3.748   3.749
 94 A'   48 A"   95 A'   49 A"   96 A'   97 A'   50 A"   98 A'                 
  3.767   3.808   3.825   3.915   3.990   4.066   4.067   4.146
 51 A"   99 A'  100 A'  101 A'  102 A'   52 A"  103 A'  104 A'                 
  4.187   4.234   4.252   4.316   4.344   4.404   4.460   4.516
105 A'  106 A'   53 A"   54 A"  107 A'  108 A'   55 A"  109 A'                 
  4.581   4.639   4.690   4.787   4.787   4.873   4.909   4.961
 56 A"  110 A'   57 A"  111 A'  112 A'   58 A"  113 A'   59 A"                 
  4.992   5.012   5.121   5.123   5.242   5.296   5.344   5.380
 60 A"  114 A'  115 A'   61 A"  116 A'  117 A'   62 A"  118 A'                 
  5.478   5.494   5.636   5.641   5.703   5.852   6.116   6.292
119 A'   63 A"  120 A'   64 A"  121 A'  122 A'  123 A'  124 A'                 
  6.565   6.693   6.893   7.311   8.914   8.941   9.170   9.201
125 A'  126 A'  127 A'  128 A'   65 A"  129 A'   66 A"  130 A'                 
  9.323   9.372   9.403   9.485   9.495   9.634   9.871   9.890
 67 A"  131 A'   68 A"  132 A'  133 A'   69 A"  134 A'  135 A'                 
 14.746  17.068  17.328
136 A'  137 A'  138 A'                                                         

 Occupation and symmetry of molecular orbitals

 Point group: Cs (2 irreducible representations).

                           A'   A"    All 
 ------------------------------------------
 All molecular orbitals:
  - Alpha                  138  69    207 
  - Beta                   138  69    207 
 ------------------------------------------
 Alpha orbitals:
  - Frozen occupied        3    0     3   
  - Active occupied        7    2     9   
  - Active virtual         128  67    195 
  - Frozen virtual         0    0     0   
 ------------------------------------------
 Beta orbitals:
  - Frozen occupied        3    0     3   
  - Active occupied        7    2     9   
  - Active virtual         128  67    195 
  - Frozen virtual         0    0     0   
 ------------------------------------------

 Import integrals:   CPU 0.00 s  wall 0.00 s

 Import integrals:   CPU 339.07 s  wall 39.09 s

 MP2 amplitudes:   CPU 1.07 s  wall 0.74 s

           CCSD T amplitudes will be solved using DIIS.

           Start     Size      MaxIter   EConv     TConv     
           3         7         100       1.00e-06  1.00e-04  
 ------------------------------------------------------------------------------
           Energy (a.u.)   Ediff      Tdiff       Comment
 ------------------------------------------------------------------------------
          -177.54312772                           
     1    -177.54429171   1.16e-03   6.58e-01     
     2    -177.55896260   1.47e-02   7.59e-02     
     3    -177.55901664   5.40e-05   2.98e-02     
     4    -177.56044475   1.43e-03   1.08e-02     Switched to DIIS steps.
     5    -177.56096637   5.22e-04   8.62e-03     
     6    -177.56098250   1.61e-05   1.55e-03     
     7    -177.56097817   4.33e-06   6.62e-04     
     8    -177.56097729   8.87e-07   1.17e-04     
     9    -177.56097743   1.49e-07   4.45e-05     
 ------------------------------------------------------------------------------
          -177.56097743                           CCSD T converged.

 SCF energy                 = -176.95631071
 MP2 energy                 = -177.54312772
 CCSD correlation energy     =   -0.60466673
 CCSD total energy           = -177.56097743

 CCSD  T1^2 = 0.0056  T2^2 = 0.1758  Leading amplitudes:

 Amplitude    Orbitals with energies
 -0.0164       1 (A") A                  ->    5 (A") A                   
              -0.6906                          0.1704                     
 -0.0164       1 (A") B                  ->    5 (A") B                   
              -0.6906                          0.1704                     
 -0.0147       2 (A") A                  ->    13 (A") A                  
              -0.3848                          0.5695                     
 -0.0147       2 (A") B                  ->    13 (A") B                  
              -0.3848                          0.5695                     

 Amplitude    Orbitals with energies
 -0.0783       2 (A") A      2 (A") B    ->    5 (A") A      5 (A") B     
              -0.3848       -0.3848            0.1704        0.1704       
  0.0783       2 (A") A      2 (A") B    ->    5 (A") B      5 (A") A     
              -0.3848       -0.3848            0.1704        0.1704       
  0.0783       2 (A") B      2 (A") A    ->    5 (A") A      5 (A") B     
              -0.3848       -0.3848            0.1704        0.1704       
 -0.0783       2 (A") B      2 (A") A    ->    5 (A") B      5 (A") A     
              -0.3848       -0.3848            0.1704        0.1704       

 Computing CCSD intermediates for later calculations
 Finished.

           CCSD Lambda amplitudes will be solved using DIIS.
           Start     Size      MaxIter   EConv     LConv     
           3         7         100       1.00e-06  1.00e-04  
 ------------------------------------------------------------------------------
            Enorm      Ldiff       Comment
 ------------------------------------------------------------------------------
     1     3.95e-02   2.65e-02     
     2     1.13e-02   4.49e-03     
     3     4.39e-03   6.20e-04     
     4     2.12e-03   6.84e-04     Switched to DIIS steps.
     5     5.29e-04   3.59e-04     
     6     2.38e-04   6.82e-05     
     7     6.88e-05   1.60e-05     
     8     2.99e-05   1.95e-07     
     9     1.06e-05   2.26e-06     
    10     4.17e-06   8.37e-07     
    11     1.65e-06   2.29e-07     
    12     4.78e-07   1.41e-07     
 ------------------------------------------------------------------------------
                                   CCSD Lambda converged.

 CCSD calculation:   CPU 995.63 s  wall 124.69 s

        Solving for CVS-EOMEE-CCSD A' singlet states.

       EOMEE-CCSD-SINGLES right amplitudes will be solved using Davidson.
        Amplitudes will be solved using shifted  algorithm.
     Hard-coded thresholds: 
     LinDepThresh=1.00e-15  NormThresh=1.00e-06  ReorthogonThresh=1.00e-02

      Roots     MaxVec    MaxIter   Precond   Conv      Shift    
      20        1000      200       1         1.00e-04  1.05e+01  
 ------------------------------------------------------------------------------
      Iter ConvRoots NVecs ResNorm Current eigenvalues (eV)
 ------------------------------------------------------------------------------
      0    0      20    4.40e-03   301.6294   302.5340   303.1468   304.0849   304.1663   304.2933   304.7742   304.8493   305.1456   305.4083   305.6599   305.7076   306.4401   306.6359   306.8334   307.0427   307.2744   307.7503   307.8100   308.3119   
      1    0      40    3.16e-02   300.8713   301.5183   302.9499   303.3607   303.4917   303.8642   304.0970   304.4759   304.6301   304.8246   305.3220   305.4946   305.9702   305.9863   306.5286   306.7316   306.7787   307.4982   307.5145   308.0771   
      2    0      60    1.65e-03   300.1843   300.4088   301.1745   302.7593   302.8247   303.0362   303.4640   303.8530   304.2173   304.4222   305.0268   305.2897   305.5953   305.6278   306.0374   306.3555   306.6303   306.8964   306.9410   307.1808   
      3    13     80    2.08e-04   300.1796*  300.3977*  300.8751   302.6542   302.8230*  303.0225*  303.4594*  303.8511*  304.2130*  304.4191*  304.9893*  305.2782*  305.5520*  305.6163*  305.9876   306.3498*  306.5996   306.6976   306.8106   307.1204   
      4    20     87    9.14e-06   300.1796*  300.3975*  300.8699*  302.6518*  302.8230*  303.0221*  303.4593*  303.8511*  304.2128*  304.4190*  304.9882*  305.2775*  305.5509*  305.6158*  305.9856*  306.3497*  306.5920*  306.6851*  306.8057*  307.1180*  

     Davidson procedure converged

        CVS-EOMEE-CCSD/MP2 right amplitudes will be solved using Davidson.
        Amplitudes will be solved using shifted  algorithm.
     Hard-coded thresholds: 
     LinDepThresh=1.00e-15  NormThresh=1.00e-06  ReorthogonThresh=1.00e-02

      Roots     MaxVec    MaxIter   Precond   Conv      Shift    
      20        1000      200       1         1.00e-04  1.05e+01  
 ------------------------------------------------------------------------------
      Iter ConvRoots NVecs ResNorm Current eigenvalues (eV)
 ------------------------------------------------------------------------------
      0    0      20    1.74e+00   300.1796   300.3975   300.8699   302.6518   302.8230   303.0221   303.4593   303.8511   304.2128   304.4190   304.9882   305.2775   305.5509   305.6158   305.9856   306.3497   306.5920   306.6851   306.8057   307.1180   
      1    0      40    1.11e+00   296.7138   297.0078   297.5481   298.9856   299.1845   299.2196   299.6651   300.0313   300.4515   300.6228   301.1665   301.3925   301.7105   301.7240   302.2303   302.5683   302.7787   302.8673   303.0189   303.2468   
      2    0      60    4.89e-02   288.2544   288.9280   289.4542   289.9260   290.3879   290.8060   291.0312   291.1847   291.4149   291.5735   291.7242   291.8682   292.1271   292.3685   293.1802   293.2134   293.6669   293.7821   294.0086   294.1354   
      3    0      80    8.61e-03   287.8597   288.4981   289.0724   289.4927   290.0269   290.3558   290.5405   290.8036   290.9581   291.1421   291.3085   291.4298   291.7301   291.9522   292.7352   292.8226   293.1319   293.3422   293.4887   293.6678   
      4    0      100   2.04e-03   287.8156   288.4340   289.0461   289.4160   290.0089   290.2734   290.4439   290.7741   290.8879   291.0520   291.2692   291.3853   291.6923   291.9024   292.6699   292.7890   293.0267   293.2142   293.4227   293.5780   
      5    0      120   1.22e-03   287.8023   288.4122   289.0370   289.3857   290.0024   290.2440   290.4086   290.7629   290.8591   291.0152   291.2494   291.3661   291.6746   291.8773   292.6378   292.7705   292.9819   293.1198   293.4006   293.5288   
Found complex roots...
      6    3      140   5.26e-04   287.7982*  288.4045   289.0346*  289.3712   290.0005*  290.2338   290.3913   290.7576   290.8427   291.0014   291.2402   291.3568   291.6625   291.8652   292.6189   292.7566   292.9557   293.0707   293.3824   293.4992   
      7    7      157   3.56e-04   287.7972*  288.4026*  289.0340*  289.3687*  290.0001*  290.2311*  290.3855   290.7563*  290.8368   290.9955   291.2353   291.3534   291.6584   291.8600   292.6070   292.7518   292.9438   293.0463   293.3604   293.4724   
      8    15     170   1.83e-04   287.7972*  288.4025*  289.0340*  289.3682*  290.0001*  290.2309*  290.3851*  290.7563*  290.8360*  290.9942*  291.2346*  291.3527*  291.6578*  291.8582*  292.6017   292.7497*  292.9394   293.0362   293.3467   293.4472   
      9    15     175   1.92e-04   287.7972*  288.4025*  289.0340*  289.3677*  290.0001*  290.2308*  290.3849*  290.7562*  290.8356*  290.9938*  291.2346*  291.3524*  291.6575*  291.8577*  292.5945   292.7488*  292.9359   293.0284   293.3323   293.4076   
      10   16     180   1.24e-04   287.7972*  288.4025*  289.0340*  289.3677*  290.0001*  290.2308*  290.3849*  290.7562*  290.8356*  290.9935*  291.2346*  291.3523*  291.6573*  291.8574*  292.5905   292.7485*  292.9337*  293.0248   293.3261   293.3665   
      11   19     184   7.50e-05   287.7972*  288.4025*  289.0340*  289.3677*  290.0001*  290.2308*  290.3849*  290.7562*  290.8356*  290.9936*  291.2345*  291.3523*  291.6571*  291.8572*  292.5900*  292.7484*  292.9337*  293.0243*  293.3244*  293.3459   
      12   18     185   5.42e-05   287.7972*  288.4025*  289.0340*  289.3677*  290.0001*  290.2308*  290.3849*  290.7562*  290.8356*  290.9936*  291.2344*  291.3523*  291.6571*  291.8571*  292.5894*  292.7484*  292.9334*  293.0243*  293.3236   293.3308   
Found complex roots...
      13   18     187   4.42e-05   287.7972*  288.4025*  289.0340*  289.3677*  290.0001*  290.2307*  290.3849*  290.7562*  290.8356*  290.9936*  291.2344*  291.3523*  291.6571*  291.8571*  292.5889*  292.7484*  292.9333*  293.0242*  293.3189   293.3250   
      14   19     189   2.82e-05   287.7972*  288.4025*  289.0340*  289.3677*  290.0001*  290.2307*  290.3849*  290.7562*  290.8356*  290.9936*  291.2344*  291.3523*  291.6570*  291.8571*  292.5887*  292.7484*  292.9332*  293.0241*  293.3120   293.3239*  
      15   20     190   2.00e-05   287.7972*  288.4025*  289.0340*  289.3677*  290.0001*  290.2307*  290.3849*  290.7562*  290.8356*  290.9936*  291.2344*  291.3523*  291.6570*  291.8571*  292.5886*  292.7484*  292.9332*  293.0241*  293.3103*  293.3239*  

     Davidson procedure converged

 EOMEE transition 1/A'
 Total energy = -166.98462470 a.u.  Excitation energy = 287.7972 eV.
 R0^2 = 0.0000  R1^2 = 0.8168  R2_CCVV^2 = 0.0016  R2_COVV^2 = 0.0908  Res^2 = 4.97e-06
 Conv-d = yes

 Amplitude    Transitions between orbitals
 -0.5046       3 (A') A                  ->    11 (A') A                  
 -0.5046       3 (A') B                  ->    11 (A') B                  
 -0.2990       3 (A') A                  ->    17 (A') A                  
 -0.2990       3 (A') B                  ->    17 (A') B                  
  0.1267       3 (A') A                  ->    12 (A') A                  
  0.1267       3 (A') B                  ->    12 (A') B                  
 -0.1225       3 (A') A                  ->    19 (A') A                  
 -0.1225       3 (A') B                  ->    19 (A') B                  

              Summary of significant orbitals:

               Number  Type             Irrep      Energy
               3       Occ  Alpha       3 (A')    -11.2367
               3       Occ  Beta        3 (A')    -11.2367
               13      Vir  Alpha      11 (A')      0.0302
               14      Vir  Alpha      12 (A')      0.0390
               21      Vir  Alpha      17 (A')      0.1392
               24      Vir  Alpha      19 (A')      0.1817
               13      Vir  Beta       11 (A')      0.0302
               14      Vir  Beta       12 (A')      0.0390
               21      Vir  Beta       17 (A')      0.1392
               24      Vir  Beta       19 (A')      0.1817


 EOMEE transition 2/A'
 Total energy = -166.96238186 a.u.  Excitation energy = 288.4025 eV.
 R0^2 = 0.0000  R1^2 = 0.8180  R2_CCVV^2 = 0.0016  R2_COVV^2 = 0.0902  Res^2 = 5.44e-06
 Conv-d = yes

 Amplitude    Transitions between orbitals
 -0.4065       3 (A') A                  ->    12 (A') A                  
 -0.4065       3 (A') B                  ->    12 (A') B                  
  0.2203       3 (A') A                  ->    13 (A') A                  
  0.2203       3 (A') B                  ->    13 (A') B                  
  0.1991       3 (A') A                  ->    18 (A') A                  
  0.1991       3 (A') B                  ->    18 (A') B                  
 -0.1865       3 (A') A                  ->    16 (A') A                  
 -0.1865       3 (A') B                  ->    16 (A') B                  
  0.1627       3 (A') A                  ->    19 (A') A                  
  0.1627       3 (A') B                  ->    19 (A') B                  
  0.1260       3 (A') A                  ->    14 (A') A                  
  0.1260       3 (A') B                  ->    14 (A') B                  
 -0.1103       3 (A') A                  ->    21 (A') A                  
 -0.1103       3 (A') B                  ->    21 (A') B                  
  0.1000       3 (A') A                  ->    31 (A') A                  
  0.1000       3 (A') B                  ->    31 (A') B                  

              Summary of significant orbitals:

               Number  Type             Irrep      Energy
               3       Occ  Alpha       3 (A')    -11.2367
               3       Occ  Beta        3 (A')    -11.2367
               14      Vir  Alpha      12 (A')      0.0390
               15      Vir  Alpha      13 (A')      0.0463
               17      Vir  Alpha      14 (A')      0.0899
               20      Vir  Alpha      16 (A')      0.1279
               22      Vir  Alpha      18 (A')      0.1545
               24      Vir  Alpha      19 (A')      0.1817
               27      Vir  Alpha      21 (A')      0.2327
               41      Vir  Alpha      31 (A')      0.4101
               14      Vir  Beta       12 (A')      0.0390
               15      Vir  Beta       13 (A')      0.0463
               17      Vir  Beta       14 (A')      0.0899
               20      Vir  Beta       16 (A')      0.1279
               22      Vir  Beta       18 (A')      0.1545
               24      Vir  Beta       19 (A')      0.1817
               27      Vir  Beta       21 (A')      0.2327
               41      Vir  Beta       31 (A')      0.4101


 EOMEE transition 3/A'
 Total energy = -166.93917402 a.u.  Excitation energy = 289.0340 eV.
 R0^2 = 0.0000  R1^2 = 0.8074  R2_CCVV^2 = 0.0016  R2_COVV^2 = 0.0955  Res^2 = 4.04e-06
 Conv-d = yes

 Amplitude    Transitions between orbitals
 -0.4739       3 (A') A                  ->    13 (A') A                  
 -0.4739       3 (A') B                  ->    13 (A') B                  
 -0.2363       3 (A') A                  ->    18 (A') A                  
 -0.2363       3 (A') B                  ->    18 (A') B                  
 -0.1933       3 (A') A                  ->    12 (A') A                  
 -0.1933       3 (A') B                  ->    12 (A') B                  
  0.1799       3 (A') A                  ->    14 (A') A                  
  0.1799       3 (A') B                  ->    14 (A') B                  
  0.1230       3 (A') A                  ->    19 (A') A                  
  0.1230       3 (A') B                  ->    19 (A') B                  

              Summary of significant orbitals:

               Number  Type             Irrep      Energy
               3       Occ  Alpha       3 (A')    -11.2367
               3       Occ  Beta        3 (A')    -11.2367
               14      Vir  Alpha      12 (A')      0.0390
               15      Vir  Alpha      13 (A')      0.0463
               17      Vir  Alpha      14 (A')      0.0899
               22      Vir  Alpha      18 (A')      0.1545
               24      Vir  Alpha      19 (A')      0.1817
               14      Vir  Beta       12 (A')      0.0390
               15      Vir  Beta       13 (A')      0.0463
               17      Vir  Beta       14 (A')      0.0899
               22      Vir  Beta       18 (A')      0.1545
               24      Vir  Beta       19 (A')      0.1817


 EOMEE transition 4/A'
 Total energy = -166.92690988 a.u.  Excitation energy = 289.3677 eV.
 R0^2 = 0.0000  R1^2 = 0.8082  R2_CCVV^2 = 0.0016  R2_COVV^2 = 0.0951  Res^2 = 8.34e-06
 Conv-d = yes

 Amplitude    Transitions between orbitals
 -0.2926       3 (A') A                  ->    14 (A') A                  
 -0.2926       3 (A') B                  ->    14 (A') B                  
 -0.2385       3 (A') A                  ->    15 (A') A                  
 -0.2385       3 (A') B                  ->    15 (A') B                  
 -0.2369       3 (A') A                  ->    23 (A') A                  
 -0.2369       3 (A') B                  ->    23 (A') B                  
 -0.2095       3 (A') A                  ->    12 (A') A                  
 -0.2095       3 (A') B                  ->    12 (A') B                  
 -0.2022       3 (A') A                  ->    19 (A') A                  
 -0.2022       3 (A') B                  ->    19 (A') B                  
 -0.1868       3 (A') A                  ->    16 (A') A                  
 -0.1868       3 (A') B                  ->    16 (A') B                  
 -0.1346       3 (A') A                  ->    22 (A') A                  
 -0.1346       3 (A') B                  ->    22 (A') B                  
  0.1343       3 (A') A                  ->    21 (A') A                  
  0.1343       3 (A') B                  ->    21 (A') B                  
 -0.1083       3 (A') A                  ->    31 (A') A                  
 -0.1083       3 (A') B                  ->    31 (A') B                  

              Summary of significant orbitals:

               Number  Type             Irrep      Energy
               3       Occ  Alpha       3 (A')    -11.2367
               3       Occ  Beta        3 (A')    -11.2367
               14      Vir  Alpha      12 (A')      0.0390
               17      Vir  Alpha      14 (A')      0.0899
               19      Vir  Alpha      15 (A')      0.1032
               20      Vir  Alpha      16 (A')      0.1279
               24      Vir  Alpha      19 (A')      0.1817
               27      Vir  Alpha      21 (A')      0.2327
               28      Vir  Alpha      22 (A')      0.2513
               29      Vir  Alpha      23 (A')      0.2667
               41      Vir  Alpha      31 (A')      0.4101
               14      Vir  Beta       12 (A')      0.0390
               17      Vir  Beta       14 (A')      0.0899
               19      Vir  Beta       15 (A')      0.1032
               20      Vir  Beta       16 (A')      0.1279
               24      Vir  Beta       19 (A')      0.1817
               27      Vir  Beta       21 (A')      0.2327
               28      Vir  Beta       22 (A')      0.2513
               29      Vir  Beta       23 (A')      0.2667
               41      Vir  Beta       31 (A')      0.4101


 EOMEE transition 5/A'
 Total energy = -166.90367093 a.u.  Excitation energy = 290.0001 eV.
 R0^2 = 0.0000  R1^2 = 0.8084  R2_CCVV^2 = 0.0016  R2_COVV^2 = 0.0950  Res^2 = 6.71e-06
 Conv-d = yes

 Amplitude    Transitions between orbitals
 -0.4641       3 (A') A                  ->    15 (A') A                  
 -0.4641       3 (A') B                  ->    15 (A') B                  
  0.2489       3 (A') A                  ->    14 (A') A                  
  0.2489       3 (A') B                  ->    14 (A') B                  
  0.1602       3 (A') A                  ->    11 (A') A                  
  0.1602       3 (A') B                  ->    11 (A') B                  
  0.1600       3 (A') A                  ->    24 (A') A                  
  0.1600       3 (A') B                  ->    24 (A') B                  
  0.1202       3 (A') A                  ->    12 (A') A                  
  0.1202       3 (A') B                  ->    12 (A') B                  
 -0.1124       3 (A') A                  ->    17 (A') A                  
 -0.1124       3 (A') B                  ->    17 (A') B                  
  0.1070       3 (A') A                  ->    16 (A') A                  
  0.1070       3 (A') B                  ->    16 (A') B                  

              Summary of significant orbitals:

               Number  Type             Irrep      Energy
               3       Occ  Alpha       3 (A')    -11.2367
               3       Occ  Beta        3 (A')    -11.2367
               13      Vir  Alpha      11 (A')      0.0302
               14      Vir  Alpha      12 (A')      0.0390
               17      Vir  Alpha      14 (A')      0.0899
               19      Vir  Alpha      15 (A')      0.1032
               20      Vir  Alpha      16 (A')      0.1279
               21      Vir  Alpha      17 (A')      0.1392
               31      Vir  Alpha      24 (A')      0.2928
               13      Vir  Beta       11 (A')      0.0302
               14      Vir  Beta       12 (A')      0.0390
               17      Vir  Beta       14 (A')      0.0899
               19      Vir  Beta       15 (A')      0.1032
               20      Vir  Beta       16 (A')      0.1279
               21      Vir  Beta       17 (A')      0.1392
               31      Vir  Beta       24 (A')      0.2928


 EOMEE transition 6/A'
 Total energy = -166.89519366 a.u.  Excitation energy = 290.2307 eV.
 R0^2 = 0.0000  R1^2 = 0.8218  R2_CCVV^2 = 0.0016  R2_COVV^2 = 0.0883  Res^2 = 1.62e-05
 Conv-d = yes

 Amplitude    Transitions between orbitals
 -0.4194       2 (A') A                  ->    11 (A') A                  
 -0.4194       2 (A') B                  ->    11 (A') B                  
 -0.2714       2 (A') A                  ->    17 (A') A                  
 -0.2714       2 (A') B                  ->    17 (A') B                  
 -0.1704       2 (A') A                  ->    12 (A') A                  
 -0.1704       2 (A') B                  ->    12 (A') B                  
 -0.1351       2 (A') A                  ->    16 (A') A                  
 -0.1351       2 (A') B                  ->    16 (A') B                  
  0.1307       2 (A') A                  ->    28 (A') A                  
  0.1307       2 (A') B                  ->    28 (A') B                  
 -0.1128       2 (A') A                  ->    21 (A') A                  
 -0.1128       2 (A') B                  ->    21 (A') B                  
  0.1082       2 (A') A                  ->    14 (A') A                  
  0.1082       2 (A') B                  ->    14 (A') B                  
 -0.1062       2 (A') A                  ->    29 (A') A                  
 -0.1062       2 (A') B                  ->    29 (A') B                  

              Summary of significant orbitals:

               Number  Type             Irrep      Energy
               2       Occ  Alpha       2 (A')    -11.3290
               2       Occ  Beta        2 (A')    -11.3290
               13      Vir  Alpha      11 (A')      0.0302
               14      Vir  Alpha      12 (A')      0.0390
               17      Vir  Alpha      14 (A')      0.0899
               20      Vir  Alpha      16 (A')      0.1279
               21      Vir  Alpha      17 (A')      0.1392
               27      Vir  Alpha      21 (A')      0.2327
               37      Vir  Alpha      28 (A')      0.3793
               38      Vir  Alpha      29 (A')      0.3852
               13      Vir  Beta       11 (A')      0.0302
               14      Vir  Beta       12 (A')      0.0390
               17      Vir  Beta       14 (A')      0.0899
               20      Vir  Beta       16 (A')      0.1279
               21      Vir  Beta       17 (A')      0.1392
               27      Vir  Beta       21 (A')      0.2327
               37      Vir  Beta       28 (A')      0.3793
               38      Vir  Beta       29 (A')      0.3852


 EOMEE transition 7/A'
 Total energy = -166.88952952 a.u.  Excitation energy = 290.3849 eV.
 R0^2 = 0.0000  R1^2 = 0.8160  R2_CCVV^2 = 0.0016  R2_COVV^2 = 0.0912  Res^2 = 1.76e-05
 Conv-d = yes

 Amplitude    Transitions between orbitals
  0.2841       3 (A') A                  ->    19 (A') A                  
  0.2841       3 (A') B                  ->    19 (A') B                  
  0.2331       3 (A') A                  ->    20 (A') A                  
  0.2331       3 (A') B                  ->    20 (A') B                  
 -0.2202       3 (A') A                  ->    11 (A') A                  
 -0.2202       3 (A') B                  ->    11 (A') B                  
  0.2051       3 (A') A                  ->    21 (A') A                  
  0.2051       3 (A') B                  ->    21 (A') B                  
  0.1819       3 (A') A                  ->    13 (A') A                  
  0.1819       3 (A') B                  ->    13 (A') B                  
  0.1693       3 (A') A                  ->    16 (A') A                  
  0.1693       3 (A') B                  ->    16 (A') B                  
 -0.1505       3 (A') A                  ->    15 (A') A                  
 -0.1505       3 (A') B                  ->    15 (A') B                  
  0.1353       3 (A') A                  ->    17 (A') A                  
  0.1353       3 (A') B                  ->    17 (A') B                  
 -0.1219       3 (A') A                  ->    25 (A') A                  
 -0.1219       3 (A') B                  ->    25 (A') B                  
  0.1087       3 (A') A                  ->    33 (A') A                  
  0.1087       3 (A') B                  ->    33 (A') B                  
  0.1025       3 (A') A                  ->    32 (A') A                  
  0.1025       3 (A') B                  ->    32 (A') B                  

              Summary of significant orbitals:

               Number  Type             Irrep      Energy
               3       Occ  Alpha       3 (A')    -11.2367
               3       Occ  Beta        3 (A')    -11.2367
               13      Vir  Alpha      11 (A')      0.0302
               15      Vir  Alpha      13 (A')      0.0463
               19      Vir  Alpha      15 (A')      0.1032
               20      Vir  Alpha      16 (A')      0.1279
               21      Vir  Alpha      17 (A')      0.1392
               24      Vir  Alpha      19 (A')      0.1817
               25      Vir  Alpha      20 (A')      0.1933
               27      Vir  Alpha      21 (A')      0.2327
               33      Vir  Alpha      25 (A')      0.2997
               42      Vir  Alpha      32 (A')      0.4284
               45      Vir  Alpha      33 (A')      0.4633
               13      Vir  Beta       11 (A')      0.0302
               15      Vir  Beta       13 (A')      0.0463
               19      Vir  Beta       15 (A')      0.1032
               20      Vir  Beta       16 (A')      0.1279
               21      Vir  Beta       17 (A')      0.1392
               24      Vir  Beta       19 (A')      0.1817
               25      Vir  Beta       20 (A')      0.1933
               27      Vir  Beta       21 (A')      0.2327
               33      Vir  Beta       25 (A')      0.2997
               42      Vir  Beta       32 (A')      0.4284
               45      Vir  Beta       33 (A')      0.4633


 EOMEE transition 8/A'
 Total energy = -166.87588248 a.u.  Excitation energy = 290.7562 eV.
 R0^2 = 0.0000  R1^2 = 0.8106  R2_CCVV^2 = 0.0016  R2_COVV^2 = 0.0939  Res^2 = 1.74e-05
 Conv-d = yes

 Amplitude    Transitions between orbitals
  0.3618       3 (A') A                  ->    17 (A') A                  
  0.3618       3 (A') B                  ->    17 (A') B                  
 -0.2737       3 (A') A                  ->    16 (A') A                  
 -0.2737       3 (A') B                  ->    16 (A') B                  
  0.2391       3 (A') A                  ->    12 (A') A                  
  0.2391       3 (A') B                  ->    12 (A') B                  
 -0.1972       3 (A') A                  ->    11 (A') A                  
 -0.1972       3 (A') B                  ->    11 (A') B                  
  0.1639       3 (A') A                  ->    14 (A') A                  
  0.1639       3 (A') B                  ->    14 (A') B                  
  0.1410       3 (A') A                  ->    18 (A') A                  
  0.1410       3 (A') B                  ->    18 (A') B                  
 -0.1306       3 (A') A                  ->    20 (A') A                  
 -0.1306       3 (A') B                  ->    20 (A') B                  

              Summary of significant orbitals:

               Number  Type             Irrep      Energy
               3       Occ  Alpha       3 (A')    -11.2367
               3       Occ  Beta        3 (A')    -11.2367
               13      Vir  Alpha      11 (A')      0.0302
               14      Vir  Alpha      12 (A')      0.0390
               17      Vir  Alpha      14 (A')      0.0899
               20      Vir  Alpha      16 (A')      0.1279
               21      Vir  Alpha      17 (A')      0.1392
               22      Vir  Alpha      18 (A')      0.1545
               25      Vir  Alpha      20 (A')      0.1933
               13      Vir  Beta       11 (A')      0.0302
               14      Vir  Beta       12 (A')      0.0390
               17      Vir  Beta       14 (A')      0.0899
               20      Vir  Beta       16 (A')      0.1279
               21      Vir  Beta       17 (A')      0.1392
               22      Vir  Beta       18 (A')      0.1545
               25      Vir  Beta       20 (A')      0.1933


 EOMEE transition 9/A'
 Total energy = -166.87296451 a.u.  Excitation energy = 290.8356 eV.
 R0^2 = 0.0000  R1^2 = 0.8112  R2_CCVV^2 = 0.0016  R2_COVV^2 = 0.0936  Res^2 = 1.47e-05
 Conv-d = yes

 Amplitude    Transitions between orbitals
  0.3031       3 (A') A                  ->    14 (A') A                  
  0.3031       3 (A') B                  ->    14 (A') B                  
 -0.2373       3 (A') A                  ->    19 (A') A                  
 -0.2373       3 (A') B                  ->    19 (A') B                  
 -0.2062       3 (A') A                  ->    12 (A') A                  
 -0.2062       3 (A') B                  ->    12 (A') B                  
  0.1938       3 (A') A                  ->    17 (A') A                  
  0.1938       3 (A') B                  ->    17 (A') B                  
  0.1797       3 (A') A                  ->    16 (A') A                  
  0.1797       3 (A') B                  ->    16 (A') B                  
  0.1667       3 (A') A                  ->    13 (A') A                  
  0.1667       3 (A') B                  ->    13 (A') B                  
  0.1573       3 (A') A                  ->    15 (A') A                  
  0.1573       3 (A') B                  ->    15 (A') B                  
 -0.1476       3 (A') A                  ->    22 (A') A                  
 -0.1476       3 (A') B                  ->    22 (A') B                  
 -0.1283       3 (A') A                  ->    18 (A') A                  
 -0.1283       3 (A') B                  ->    18 (A') B                  
 -0.1064       3 (A') A                  ->    31 (A') A                  
 -0.1064       3 (A') B                  ->    31 (A') B                  

              Summary of significant orbitals:

               Number  Type             Irrep      Energy
               3       Occ  Alpha       3 (A')    -11.2367
               3       Occ  Beta        3 (A')    -11.2367
               14      Vir  Alpha      12 (A')      0.0390
               15      Vir  Alpha      13 (A')      0.0463
               17      Vir  Alpha      14 (A')      0.0899
               19      Vir  Alpha      15 (A')      0.1032
               20      Vir  Alpha      16 (A')      0.1279
               21      Vir  Alpha      17 (A')      0.1392
               22      Vir  Alpha      18 (A')      0.1545
               24      Vir  Alpha      19 (A')      0.1817
               28      Vir  Alpha      22 (A')      0.2513
               41      Vir  Alpha      31 (A')      0.4101
               14      Vir  Beta       12 (A')      0.0390
               15      Vir  Beta       13 (A')      0.0463
               17      Vir  Beta       14 (A')      0.0899
               19      Vir  Beta       15 (A')      0.1032
               20      Vir  Beta       16 (A')      0.1279
               21      Vir  Beta       17 (A')      0.1392
               22      Vir  Beta       18 (A')      0.1545
               24      Vir  Beta       19 (A')      0.1817
               28      Vir  Beta       22 (A')      0.2513
               41      Vir  Beta       31 (A')      0.4101


 EOMEE transition 10/A'
 Total energy = -166.86716068 a.u.  Excitation energy = 290.9936 eV.
 R0^2 = 0.0000  R1^2 = 0.8295  R2_CCVV^2 = 0.0017  R2_COVV^2 = 0.0844  Res^2 = 1.62e-05
 Conv-d = yes

 Amplitude    Transitions between orbitals
 -0.3070       2 (A') A                  ->    23 (A') A                  
 -0.3070       2 (A') B                  ->    23 (A') B                  
 -0.2836       2 (A') A                  ->    14 (A') A                  
 -0.2836       2 (A') B                  ->    14 (A') B                  
 -0.2017       2 (A') A                  ->    11 (A') A                  
 -0.2017       2 (A') B                  ->    11 (A') B                  
 -0.1778       2 (A') A                  ->    19 (A') A                  
 -0.1778       2 (A') B                  ->    19 (A') B                  
 -0.1628       2 (A') A                  ->    16 (A') A                  
 -0.1628       2 (A') B                  ->    16 (A') B                  
  0.1437       2 (A') A                  ->    13 (A') A                  
  0.1437       2 (A') B                  ->    13 (A') B                  
 -0.1422       2 (A') A                  ->    28 (A') A                  
 -0.1422       2 (A') B                  ->    28 (A') B                  
 -0.1309       2 (A') A                  ->    31 (A') A                  
 -0.1309       2 (A') B                  ->    31 (A') B                  
 -0.1257       2 (A') A                  ->    36 (A') A                  
 -0.1257       2 (A') B                  ->    36 (A') B                  
 -0.1248       2 (A') A                  ->    15 (A') A                  
 -0.1248       2 (A') B                  ->    15 (A') B                  

              Summary of significant orbitals:

               Number  Type             Irrep      Energy
               2       Occ  Alpha       2 (A')    -11.3290
               2       Occ  Beta        2 (A')    -11.3290
               13      Vir  Alpha      11 (A')      0.0302
               15      Vir  Alpha      13 (A')      0.0463
               17      Vir  Alpha      14 (A')      0.0899
               19      Vir  Alpha      15 (A')      0.1032
               20      Vir  Alpha      16 (A')      0.1279
               24      Vir  Alpha      19 (A')      0.1817
               29      Vir  Alpha      23 (A')      0.2667
               37      Vir  Alpha      28 (A')      0.3793
               41      Vir  Alpha      31 (A')      0.4101
               48      Vir  Alpha      36 (A')      0.5179
               13      Vir  Beta       11 (A')      0.0302
               15      Vir  Beta       13 (A')      0.0463
               17      Vir  Beta       14 (A')      0.0899
               19      Vir  Beta       15 (A')      0.1032
               20      Vir  Beta       16 (A')      0.1279
               24      Vir  Beta       19 (A')      0.1817
               29      Vir  Beta       23 (A')      0.2667
               37      Vir  Beta       28 (A')      0.3793
               41      Vir  Beta       31 (A')      0.4101
               48      Vir  Beta       36 (A')      0.5179


 EOMEE transition 11/A'
 Total energy = -166.85831111 a.u.  Excitation energy = 291.2344 eV.
 R0^2 = 0.0000  R1^2 = 0.7997  R2_CCVV^2 = 0.0016  R2_COVV^2 = 0.0994  Res^2 = 4.77e-05
 Conv-d = yes

 Amplitude    Transitions between orbitals
 -0.4451       2 (A') A                  ->    12 (A') A                  
 -0.4451       2 (A') B                  ->    12 (A') B                  
  0.2739       2 (A') A                  ->    11 (A') A                  
  0.2739       2 (A') B                  ->    11 (A') B                  
 -0.2476       2 (A') A                  ->    16 (A') A                  
 -0.2476       2 (A') B                  ->    16 (A') B                  
  0.1163       2 (A') A                  ->    19 (A') A                  
  0.1163       2 (A') B                  ->    19 (A') B                  

              Summary of significant orbitals:

               Number  Type             Irrep      Energy
               2       Occ  Alpha       2 (A')    -11.3290
               2       Occ  Beta        2 (A')    -11.3290
               13      Vir  Alpha      11 (A')      0.0302
               14      Vir  Alpha      12 (A')      0.0390
               20      Vir  Alpha      16 (A')      0.1279
               24      Vir  Alpha      19 (A')      0.1817
               13      Vir  Beta       11 (A')      0.0302
               14      Vir  Beta       12 (A')      0.0390
               20      Vir  Beta       16 (A')      0.1279
               24      Vir  Beta       19 (A')      0.1817


 EOMEE transition 12/A'
 Total energy = -166.85397859 a.u.  Excitation energy = 291.3523 eV.
 R0^2 = 0.0000  R1^2 = 0.8067  R2_CCVV^2 = 0.0016  R2_COVV^2 = 0.0958  Res^2 = 1.33e-05
 Conv-d = yes

 Amplitude    Transitions between orbitals
 -0.4048       3 (A') A                  ->    18 (A') A                  
 -0.4048       3 (A') B                  ->    18 (A') B                  
 -0.2971       3 (A') A                  ->    16 (A') A                  
 -0.2971       3 (A') B                  ->    16 (A') B                  
  0.2376       3 (A') A                  ->    13 (A') A                  
  0.2376       3 (A') B                  ->    13 (A') B                  
 -0.1313       3 (A') A                  ->    17 (A') A                  
 -0.1313       3 (A') B                  ->    17 (A') B                  
  0.1223       3 (A') A                  ->    12 (A') A                  
  0.1223       3 (A') B                  ->    12 (A') B                  
  0.1008       3 (A') A                  ->    26 (A') A                  
  0.1008       3 (A') B                  ->    26 (A') B                  

              Summary of significant orbitals:

               Number  Type             Irrep      Energy
               3       Occ  Alpha       3 (A')    -11.2367
               3       Occ  Beta        3 (A')    -11.2367
               14      Vir  Alpha      12 (A')      0.0390
               15      Vir  Alpha      13 (A')      0.0463
               20      Vir  Alpha      16 (A')      0.1279
               21      Vir  Alpha      17 (A')      0.1392
               22      Vir  Alpha      18 (A')      0.1545
               34      Vir  Alpha      26 (A')      0.3328
               14      Vir  Beta       12 (A')      0.0390
               15      Vir  Beta       13 (A')      0.0463
               20      Vir  Beta       16 (A')      0.1279
               21      Vir  Beta       17 (A')      0.1392
               22      Vir  Beta       18 (A')      0.1545
               34      Vir  Beta       26 (A')      0.3328


 EOMEE transition 13/A'
 Total energy = -166.84277821 a.u.  Excitation energy = 291.6570 eV.
 R0^2 = 0.0000  R1^2 = 0.8060  R2_CCVV^2 = 0.0016  R2_COVV^2 = 0.0962  Res^2 = 2.04e-05
 Conv-d = yes

 Amplitude    Transitions between orbitals
 -0.2673       3 (A') A                  ->    21 (A') A                  
 -0.2673       3 (A') B                  ->    21 (A') B                  
 -0.2618       3 (A') A                  ->    14 (A') A                  
 -0.2618       3 (A') B                  ->    14 (A') B                  
 -0.2218       3 (A') A                  ->    18 (A') A                  
 -0.2218       3 (A') B                  ->    18 (A') B                  
  0.2094       3 (A') A                  ->    17 (A') A                  
  0.2094       3 (A') B                  ->    17 (A') B                  
  0.2046       3 (A') A                  ->    23 (A') A                  
  0.2046       3 (A') B                  ->    23 (A') B                  
 -0.1608       3 (A') A                  ->    20 (A') A                  
 -0.1608       3 (A') B                  ->    20 (A') B                  
 -0.1423       3 (A') A                  ->    15 (A') A                  
 -0.1423       3 (A') B                  ->    15 (A') B                  
  0.1264       3 (A') A                  ->    16 (A') A                  
  0.1264       3 (A') B                  ->    16 (A') B                  
 -0.1142       3 (A') A                  ->    33 (A') A                  
 -0.1142       3 (A') B                  ->    33 (A') B                  
  0.1126       3 (A') A                  ->    28 (A') A                  
  0.1126       3 (A') B                  ->    28 (A') B                  

              Summary of significant orbitals:

               Number  Type             Irrep      Energy
               3       Occ  Alpha       3 (A')    -11.2367
               3       Occ  Beta        3 (A')    -11.2367
               17      Vir  Alpha      14 (A')      0.0899
               19      Vir  Alpha      15 (A')      0.1032
               20      Vir  Alpha      16 (A')      0.1279
               21      Vir  Alpha      17 (A')      0.1392
               22      Vir  Alpha      18 (A')      0.1545
               25      Vir  Alpha      20 (A')      0.1933
               27      Vir  Alpha      21 (A')      0.2327
               29      Vir  Alpha      23 (A')      0.2667
               37      Vir  Alpha      28 (A')      0.3793
               45      Vir  Alpha      33 (A')      0.4633
               17      Vir  Beta       14 (A')      0.0899
               19      Vir  Beta       15 (A')      0.1032
               20      Vir  Beta       16 (A')      0.1279
               21      Vir  Beta       17 (A')      0.1392
               22      Vir  Beta       18 (A')      0.1545
               25      Vir  Beta       20 (A')      0.1933
               27      Vir  Beta       21 (A')      0.2327
               29      Vir  Beta       23 (A')      0.2667
               37      Vir  Beta       28 (A')      0.3793
               45      Vir  Beta       33 (A')      0.4633


 EOMEE transition 14/A'
 Total energy = -166.83542690 a.u.  Excitation energy = 291.8571 eV.
 R0^2 = 0.0000  R1^2 = 0.8037  R2_CCVV^2 = 0.0016  R2_COVV^2 = 0.0973  Res^2 = 4.86e-05
 Conv-d = yes

 Amplitude    Transitions between orbitals
  0.5289       2 (A') A                  ->    13 (A') A                  
  0.5289       2 (A') B                  ->    13 (A') B                  
  0.2156       2 (A') A                  ->    18 (A') A                  
  0.2156       2 (A') B                  ->    18 (A') B                  
  0.1251       2 (A') A                  ->    23 (A') A                  
  0.1251       2 (A') B                  ->    23 (A') B                  
  0.1081       2 (A') A                  ->    12 (A') A                  
  0.1081       2 (A') B                  ->    12 (A') B                  

              Summary of significant orbitals:

               Number  Type             Irrep      Energy
               2       Occ  Alpha       2 (A')    -11.3290
               2       Occ  Beta        2 (A')    -11.3290
               14      Vir  Alpha      12 (A')      0.0390
               15      Vir  Alpha      13 (A')      0.0463
               22      Vir  Alpha      18 (A')      0.1545
               29      Vir  Alpha      23 (A')      0.2667
               14      Vir  Beta       12 (A')      0.0390
               15      Vir  Beta       13 (A')      0.0463
               22      Vir  Beta       18 (A')      0.1545
               29      Vir  Beta       23 (A')      0.2667


 EOMEE transition 15/A'
 Total energy = -166.80854337 a.u.  Excitation energy = 292.5886 eV.
 R0^2 = 0.0000  R1^2 = 0.8022  R2_CCVV^2 = 0.0016  R2_COVV^2 = 0.0981  Res^2 = 9.26e-06
 Conv-d = yes

 Amplitude    Transitions between orbitals
 -0.4873       2 (A') A                  ->    15 (A') A                  
 -0.4873       2 (A') B                  ->    15 (A') B                  
  0.1786       2 (A') A                  ->    14 (A') A                  
  0.1786       2 (A') B                  ->    14 (A') B                  
  0.1759       2 (A') A                  ->    16 (A') A                  
  0.1759       2 (A') B                  ->    16 (A') B                  
 -0.1659       2 (A') A                  ->    12 (A') A                  
 -0.1659       2 (A') B                  ->    12 (A') B                  
  0.1557       2 (A') A                  ->    24 (A') A                  
  0.1557       2 (A') B                  ->    24 (A') B                  

              Summary of significant orbitals:

               Number  Type             Irrep      Energy
               2       Occ  Alpha       2 (A')    -11.3290
               2       Occ  Beta        2 (A')    -11.3290
               14      Vir  Alpha      12 (A')      0.0390
               17      Vir  Alpha      14 (A')      0.0899
               19      Vir  Alpha      15 (A')      0.1032
               20      Vir  Alpha      16 (A')      0.1279
               31      Vir  Alpha      24 (A')      0.2928
               14      Vir  Beta       12 (A')      0.0390
               17      Vir  Beta       14 (A')      0.0899
               19      Vir  Beta       15 (A')      0.1032
               20      Vir  Beta       16 (A')      0.1279
               31      Vir  Beta       24 (A')      0.2928


 EOMEE transition 16/A'
 Total energy = -166.80267290 a.u.  Excitation energy = 292.7484 eV.
 R0^2 = 0.0000  R1^2 = 0.8045  R2_CCVV^2 = 0.0016  R2_COVV^2 = 0.0970  Res^2 = 2.85e-05
 Conv-d = yes

 Amplitude    Transitions between orbitals
 -0.4945       3 (A') A                  ->    20 (A') A                  
 -0.4945       3 (A') B                  ->    20 (A') B                  
  0.2393       3 (A') A                  ->    19 (A') A                  
  0.2393       3 (A') B                  ->    19 (A') B                  
 -0.1895       3 (A') A                  ->    23 (A') A                  
 -0.1895       3 (A') B                  ->    23 (A') B                  
  0.1496       3 (A') A                  ->    16 (A') A                  
  0.1496       3 (A') B                  ->    16 (A') B                  
  0.1157       3 (A') A                  ->    21 (A') A                  
  0.1157       3 (A') B                  ->    21 (A') B                  

              Summary of significant orbitals:

               Number  Type             Irrep      Energy
               3       Occ  Alpha       3 (A')    -11.2367
               3       Occ  Beta        3 (A')    -11.2367
               20      Vir  Alpha      16 (A')      0.1279
               24      Vir  Alpha      19 (A')      0.1817
               25      Vir  Alpha      20 (A')      0.1933
               27      Vir  Alpha      21 (A')      0.2327
               29      Vir  Alpha      23 (A')      0.2667
               20      Vir  Beta       16 (A')      0.1279
               24      Vir  Beta       19 (A')      0.1817
               25      Vir  Beta       20 (A')      0.1933
               27      Vir  Beta       21 (A')      0.2327
               29      Vir  Beta       23 (A')      0.2667


 EOMEE transition 17/A'
 Total energy = -166.79587953 a.u.  Excitation energy = 292.9332 eV.
 R0^2 = 0.0000  R1^2 = 0.8097  R2_CCVV^2 = 0.0016  R2_COVV^2 = 0.0944  Res^2 = 1.45e-05
 Conv-d = yes

 Amplitude    Transitions between orbitals
 -0.2675       2 (A') A                  ->    12 (A') A                  
 -0.2675       2 (A') B                  ->    12 (A') B                  
 -0.2634       2 (A') A                  ->    11 (A') A                  
 -0.2634       2 (A') B                  ->    11 (A') B                  
  0.2258       2 (A') A                  ->    15 (A') A                  
  0.2258       2 (A') B                  ->    15 (A') B                  
  0.2243       2 (A') A                  ->    17 (A') A                  
  0.2243       2 (A') B                  ->    17 (A') B                  
  0.2200       2 (A') A                  ->    16 (A') A                  
  0.2200       2 (A') B                  ->    16 (A') B                  
  0.1633       2 (A') A                  ->    20 (A') A                  
  0.1633       2 (A') B                  ->    20 (A') B                  
  0.1400       2 (A') A                  ->    21 (A') A                  
  0.1400       2 (A') B                  ->    21 (A') B                  
 -0.1131       2 (A') A                  ->    25 (A') A                  
 -0.1131       2 (A') B                  ->    25 (A') B                  
  0.1118       2 (A') A                  ->    29 (A') A                  
  0.1118       2 (A') B                  ->    29 (A') B                  

              Summary of significant orbitals:

               Number  Type             Irrep      Energy
               2       Occ  Alpha       2 (A')    -11.3290
               2       Occ  Beta        2 (A')    -11.3290
               13      Vir  Alpha      11 (A')      0.0302
               14      Vir  Alpha      12 (A')      0.0390
               19      Vir  Alpha      15 (A')      0.1032
               20      Vir  Alpha      16 (A')      0.1279
               21      Vir  Alpha      17 (A')      0.1392
               25      Vir  Alpha      20 (A')      0.1933
               27      Vir  Alpha      21 (A')      0.2327
               33      Vir  Alpha      25 (A')      0.2997
               38      Vir  Alpha      29 (A')      0.3852
               13      Vir  Beta       11 (A')      0.0302
               14      Vir  Beta       12 (A')      0.0390
               19      Vir  Beta       15 (A')      0.1032
               20      Vir  Beta       16 (A')      0.1279
               21      Vir  Beta       17 (A')      0.1392
               25      Vir  Beta       20 (A')      0.1933
               27      Vir  Beta       21 (A')      0.2327
               33      Vir  Beta       25 (A')      0.2997
               38      Vir  Beta       29 (A')      0.3852


 EOMEE transition 18/A'
 Total energy = -166.79254095 a.u.  Excitation energy = 293.0241 eV.
 R0^2 = 0.0000  R1^2 = 0.8042  R2_CCVV^2 = 0.0016  R2_COVV^2 = 0.0971  Res^2 = 2.74e-05
 Conv-d = yes

 Amplitude    Transitions between orbitals
 -0.3703       3 (A') A                  ->    22 (A') A                  
 -0.3703       3 (A') B                  ->    22 (A') B                  
  0.3419       3 (A') A                  ->    23 (A') A                  
  0.3419       3 (A') B                  ->    23 (A') B                  
  0.2034       3 (A') A                  ->    21 (A') A                  
  0.2034       3 (A') B                  ->    21 (A') B                  
 -0.1504       3 (A') A                  ->    16 (A') A                  
 -0.1504       3 (A') B                  ->    16 (A') B                  
  0.1496       3 (A') A                  ->    36 (A') A                  
  0.1496       3 (A') B                  ->    36 (A') B                  

              Summary of significant orbitals:

               Number  Type             Irrep      Energy
               3       Occ  Alpha       3 (A')    -11.2367
               3       Occ  Beta        3 (A')    -11.2367
               20      Vir  Alpha      16 (A')      0.1279
               27      Vir  Alpha      21 (A')      0.2327
               28      Vir  Alpha      22 (A')      0.2513
               29      Vir  Alpha      23 (A')      0.2667
               48      Vir  Alpha      36 (A')      0.5179
               20      Vir  Beta       16 (A')      0.1279
               27      Vir  Beta       21 (A')      0.2327
               28      Vir  Beta       22 (A')      0.2513
               29      Vir  Beta       23 (A')      0.2667
               48      Vir  Beta       36 (A')      0.5179


 EOMEE transition 19/A'
 Total energy = -166.78202047 a.u.  Excitation energy = 293.3103 eV.
 R0^2 = 0.0000  R1^2 = 0.8048  R2_CCVV^2 = 0.0016  R2_COVV^2 = 0.0968  Res^2 = 6.36e-05
 Conv-d = yes

 Amplitude    Transitions between orbitals
 -0.4745       2 (A') A                  ->    14 (A') A                  
 -0.4745       2 (A') B                  ->    14 (A') B                  
  0.1718       2 (A') A                  ->    19 (A') A                  
  0.1718       2 (A') B                  ->    19 (A') B                  
  0.1440       2 (A') A                  ->    20 (A') A                  
  0.1440       2 (A') B                  ->    20 (A') B                  
  0.1368       2 (A') A                  ->    16 (A') A                  
  0.1368       2 (A') B                  ->    16 (A') B                  
 -0.1321       2 (A') A                  ->    18 (A') A                  
 -0.1321       2 (A') B                  ->    18 (A') B                  
 -0.1156       2 (A') A                  ->    17 (A') A                  
 -0.1156       2 (A') B                  ->    17 (A') B                  
 -0.1028       2 (A') A                  ->    12 (A') A                  
 -0.1028       2 (A') B                  ->    12 (A') B                  

              Summary of significant orbitals:

               Number  Type             Irrep      Energy
               2       Occ  Alpha       2 (A')    -11.3290
               2       Occ  Beta        2 (A')    -11.3290
               14      Vir  Alpha      12 (A')      0.0390
               17      Vir  Alpha      14 (A')      0.0899
               20      Vir  Alpha      16 (A')      0.1279
               21      Vir  Alpha      17 (A')      0.1392
               22      Vir  Alpha      18 (A')      0.1545
               24      Vir  Alpha      19 (A')      0.1817
               25      Vir  Alpha      20 (A')      0.1933
               14      Vir  Beta       12 (A')      0.0390
               17      Vir  Beta       14 (A')      0.0899
               20      Vir  Beta       16 (A')      0.1279
               21      Vir  Beta       17 (A')      0.1392
               22      Vir  Beta       18 (A')      0.1545
               24      Vir  Beta       19 (A')      0.1817
               25      Vir  Beta       20 (A')      0.1933


 EOMEE transition 20/A'
 Total energy = -166.78152384 a.u.  Excitation energy = 293.3239 eV.
 R0^2 = 0.0000  R1^2 = 0.8096  R2_CCVV^2 = 0.0016  R2_COVV^2 = 0.0944  Res^2 = 1.50e-05
 Conv-d = yes

 Amplitude    Transitions between orbitals
 -0.3172       3 (A') A                  ->    22 (A') A                  
 -0.3172       3 (A') B                  ->    22 (A') B                  
  0.3164       3 (A') A                  ->    24 (A') A                  
  0.3164       3 (A') B                  ->    24 (A') B                  
 -0.2664       3 (A') A                  ->    21 (A') A                  
 -0.2664       3 (A') B                  ->    21 (A') B                  
  0.1688       3 (A') A                  ->    19 (A') A                  
  0.1688       3 (A') B                  ->    19 (A') B                  
  0.1337       3 (A') A                  ->    15 (A') A                  
  0.1337       3 (A') B                  ->    15 (A') B                  
  0.1261       3 (A') A                  ->    20 (A') A                  
  0.1261       3 (A') B                  ->    20 (A') B                  

              Summary of significant orbitals:

               Number  Type             Irrep      Energy
               3       Occ  Alpha       3 (A')    -11.2367
               3       Occ  Beta        3 (A')    -11.2367
               19      Vir  Alpha      15 (A')      0.1032
               24      Vir  Alpha      19 (A')      0.1817
               25      Vir  Alpha      20 (A')      0.1933
               27      Vir  Alpha      21 (A')      0.2327
               28      Vir  Alpha      22 (A')      0.2513
               31      Vir  Alpha      24 (A')      0.2928
               19      Vir  Beta       15 (A')      0.1032
               24      Vir  Beta       19 (A')      0.1817
               25      Vir  Beta       20 (A')      0.1933
               27      Vir  Beta       21 (A')      0.2327
               28      Vir  Beta       22 (A')      0.2513
               31      Vir  Beta       24 (A')      0.2928


      CVS-EOM-CCSD/MP2 left amplitudes will be solved using Davidson.
        Amplitudes will be solved using MOM  algorithm.
     Hard-coded thresholds: 
     LinDepThresh=1.00e-15  NormThresh=1.00e-06  ReorthogonThresh=1.00e-02

      Roots     MaxVec    MaxIter   Precond   Conv      Shift    
      20        1000      200       1         1.00e-04  1.05e+01  
 ------------------------------------------------------------------------------
      Iter ConvRoots NVecs ResNorm Current eigenvalues (eV)
 ------------------------------------------------------------------------------
      0    0      20    2.45e-02   287.7972   288.4025   289.0340   289.3677   290.0001   290.2307   290.3849   290.7562   290.8356   290.9936   291.2344   291.3523   291.6570   291.8571   292.5886   292.7484   292.9332   293.0241   293.3103   293.3239   
      1    0      40    9.14e-03   287.7972   288.4025   289.0339   289.3677   290.0000   290.2306   290.3845   290.7562   290.8354   290.9934   291.2334   291.3520   291.6567   291.8564   292.5885   292.7480   292.9332   293.0237   293.3095   293.3236   
      2    0      60    4.86e-04   287.7973   288.4024   289.0340   289.3676   290.0001   290.2306   290.3844   290.7561   290.8353   290.9932   291.2331   291.3519   291.6566   291.8561   292.5885   292.7479   292.9333   293.0236   293.3099   293.3237   
      3    17     80    7.24e-05   287.7973*  288.4024*  289.0341*  289.3676*  290.0001*  290.2305   290.3843*  290.7561*  290.8351*  290.9931   291.2327*  291.3518*  291.6564*  291.8558*  292.5885*  292.7478*  292.9333*  293.0235*  293.3096   293.3236*  
      4    20     83    5.65e-05   287.7973*  288.4024*  289.0341*  289.3676*  290.0001*  290.2305*  290.3843*  290.7561*  290.8351*  290.9931*  291.2327*  291.3518*  291.6564*  291.8558*  292.5885*  292.7478*  292.9333*  293.0235*  293.3095*  293.3236*  

     Davidson procedure converged

        Solving for CVS-EOMEE-CCSD A" singlet states.

[...]
   B->A: 0.001639 (X 0.000472, Y -0.001570, Z 0.000000)
 Oscillator strength (a.u.): 0.000028
 Norm of one-particle transition density matrix:
   A->B: 0.899882;   B->A: 0.864022
   ||gamma^AB||*||gamma^BA||: 0.777517

 ------------------------------------------------------------------------------
 State A: ccsd: 0/A'
 State B: cvs_eomee_ccsd/rhfref/singlets: 14/A'
 Transition dipole moment (a.u.):
   A->B: 0.022198 (X -0.019146, Y -0.011233, Z 0.000000)
   B->A: 0.021596 (X -0.018663, Y -0.010867, Z 0.000000)
 Oscillator strength (a.u.): 0.003428
 Norm of one-particle transition density matrix:
   A->B: 0.899394;   B->A: 0.862652
   ||gamma^AB||*||gamma^BA||: 0.775863

 ------------------------------------------------------------------------------
 State A: ccsd: 0/A'
 State B: cvs_eomee_ccsd/rhfref/singlets: 15/A'
 Transition dipole moment (a.u.):
   A->B: 0.025374 (X -0.011690, Y 0.022520, Z 0.000000)
   B->A: 0.024858 (X -0.011501, Y 0.022038, Z 0.000000)
 Oscillator strength (a.u.): 0.004521
 Norm of one-particle transition density matrix:
   A->B: 0.899685;   B->A: 0.861977
   ||gamma^AB||*||gamma^BA||: 0.775508

 ------------------------------------------------------------------------------
 State A: ccsd: 0/A'
 State B: cvs_eomee_ccsd/rhfref/singlets: 16/A'
 Transition dipole moment (a.u.):
   A->B: 0.009137 (X -0.008858, Y -0.002242, Z 0.000000)
   B->A: 0.008918 (X -0.008645, Y -0.002191, Z 0.000000)
 Oscillator strength (a.u.): 0.000584
 Norm of one-particle transition density matrix:
   A->B: 0.901005;   B->A: 0.862338
   ||gamma^AB||*||gamma^BA||: 0.776971

 ------------------------------------------------------------------------------
 State A: ccsd: 0/A'
 State B: cvs_eomee_ccsd/rhfref/singlets: 17/A'
 Transition dipole moment (a.u.):
   A->B: 0.036356 (X 0.011477, Y 0.034497, Z 0.000000)
   B->A: 0.035433 (X 0.010929, Y 0.033705, Z 0.000000)
 Oscillator strength (a.u.): 0.009245
 Norm of one-particle transition density matrix:
   A->B: 0.902787;   B->A: 0.867960
   ||gamma^AB||*||gamma^BA||: 0.783583

 ------------------------------------------------------------------------------
 State A: ccsd: 0/A'
 State B: cvs_eomee_ccsd/rhfref/singlets: 18/A'
 Transition dipole moment (a.u.):
   A->B: 0.018221 (X -0.018213, Y 0.000531, Z 0.000000)
   B->A: 0.017753 (X -0.017743, Y 0.000594, Z 0.000000)
 Oscillator strength (a.u.): 0.002322
 Norm of one-particle transition density matrix:
   A->B: 0.898299;   B->A: 0.862748
   ||gamma^AB||*||gamma^BA||: 0.775006

 ------------------------------------------------------------------------------
 State A: ccsd: 0/A'
 State B: cvs_eomee_ccsd/rhfref/singlets: 19/A'
 Transition dipole moment (a.u.):
   A->B: 0.019667 (X -0.017903, Y -0.008141, Z 0.000000)
   B->A: 0.018864 (X -0.017156, Y -0.007843, Z 0.000000)
 Oscillator strength (a.u.): 0.002666
 Norm of one-particle transition density matrix:
   A->B: 0.900570;   B->A: 0.863712
   ||gamma^AB||*||gamma^BA||: 0.777833

 ------------------------------------------------------------------------------
 State A: ccsd: 0/A'
 State B: cvs_eomee_ccsd/rhfref/singlets: 20/A'
 Transition dipole moment (a.u.):
   A->B: 0.012409 (X 0.010293, Y 0.006930, Z 0.000000)
   B->A: 0.011847 (X 0.009833, Y 0.006608, Z 0.000000)
 Oscillator strength (a.u.): 0.001056
 Norm of one-particle transition density matrix:
   A->B: 0.902890;   B->A: 0.866733
   ||gamma^AB||*||gamma^BA||: 0.782565

 ------------------------------------------------------------------------------
 State A: ccsd: 0/A'
 State B: cvs_eomee_ccsd/rhfref/singlets: 1/A"
 Transition dipole moment (a.u.):
   A->B: 0.080018 (X 0.000000, Y 0.000000, Z -0.080018)
   B->A: 0.081658 (X 0.000000, Y 0.000000, Z -0.081658)
 Oscillator strength (a.u.): 0.045694
 Norm of one-particle transition density matrix:
   A->B: 0.888551;   B->A: 0.890981
   ||gamma^AB||*||gamma^BA||: 0.791682

 ------------------------------------------------------------------------------
 State A: ccsd: 0/A'
 State B: cvs_eomee_ccsd/rhfref/singlets: 2/A"
 Transition dipole moment (a.u.):
   A->B: 0.090711 (X 0.000000, Y 0.000000, Z -0.090711)
   B->A: 0.091958 (X 0.000000, Y 0.000000, Z -0.091958)
 Oscillator strength (a.u.): 0.058766
 Norm of one-particle transition density matrix:
   A->B: 0.891421;   B->A: 0.894620
   ||gamma^AB||*||gamma^BA||: 0.797482

 ------------------------------------------------------------------------------
 State A: ccsd: 0/A'
 State B: cvs_eomee_ccsd/rhfref/singlets: 3/A"
 Transition dipole moment (a.u.):
   A->B: 0.030555 (X 0.000000, Y 0.000000, Z -0.030555)
   B->A: 0.030651 (X 0.000000, Y 0.000000, Z -0.030651)
 Oscillator strength (a.u.): 0.006636
 Norm of one-particle transition density matrix:
   A->B: 0.904398;   B->A: 0.869065
   ||gamma^AB||*||gamma^BA||: 0.785981

 ------------------------------------------------------------------------------
 State A: ccsd: 0/A'
 State B: cvs_eomee_ccsd/rhfref/singlets: 4/A"
 Transition dipole moment (a.u.):
   A->B: 0.022744 (X 0.000000, Y 0.000000, Z -0.022744)
   B->A: 0.021968 (X 0.000000, Y 0.000000, Z -0.021968)
 Oscillator strength (a.u.): 0.003558
 Norm of one-particle transition density matrix:
   A->B: 0.902374;   B->A: 0.864010
   ||gamma^AB||*||gamma^BA||: 0.779661

 ------------------------------------------------------------------------------
 State A: ccsd: 0/A'
 State B: cvs_eomee_ccsd/rhfref/singlets: 5/A"
 Transition dipole moment (a.u.):
   A->B: 0.019537 (X 0.000000, Y 0.000000, Z 0.019537)
   B->A: 0.019767 (X 0.000000, Y 0.000000, Z 0.019767)
 Oscillator strength (a.u.): 0.002761
 Norm of one-particle transition density matrix:
   A->B: 0.899888;   B->A: 0.863693
   ||gamma^AB||*||gamma^BA||: 0.777227

 ------------------------------------------------------------------------------
 State A: ccsd: 0/A'
 State B: cvs_eomee_ccsd/rhfref/singlets: 6/A"
 Transition dipole moment (a.u.):
   A->B: 0.003750 (X 0.000000, Y 0.000000, Z 0.003750)
   B->A: 0.003624 (X 0.000000, Y 0.000000, Z 0.003624)
 Oscillator strength (a.u.): 0.000097
 Norm of one-particle transition density matrix:
   A->B: 0.903248;   B->A: 0.867627
   ||gamma^AB||*||gamma^BA||: 0.783682

 ------------------------------------------------------------------------------
 State A: ccsd: 0/A'
 State B: cvs_eomee_ccsd/rhfref/singlets: 7/A"
 Transition dipole moment (a.u.):
   A->B: 0.020718 (X 0.000000, Y 0.000000, Z -0.020718)
   B->A: 0.019915 (X 0.000000, Y 0.000000, Z -0.019915)
 Oscillator strength (a.u.): 0.002964
 Norm of one-particle transition density matrix:
   A->B: 0.898827;   B->A: 0.860006
   ||gamma^AB||*||gamma^BA||: 0.772997

 ------------------------------------------------------------------------------
 State A: ccsd: 0/A'
 State B: cvs_eomee_ccsd/rhfref/singlets: 8/A"
 Transition dipole moment (a.u.):
   A->B: 0.032419 (X 0.000000, Y 0.000000, Z 0.032419)
   B->A: 0.031935 (X 0.000000, Y 0.000000, Z 0.031935)
 Oscillator strength (a.u.): 0.007461
 Norm of one-particle transition density matrix:
   A->B: 0.905231;   B->A: 0.869375
   ||gamma^AB||*||gamma^BA||: 0.786985

 ------------------------------------------------------------------------------
 State A: ccsd: 0/A'
 State B: cvs_eomee_ccsd/rhfref/singlets: 9/A"
 Transition dipole moment (a.u.):
   A->B: 0.004106 (X 0.000000, Y 0.000000, Z 0.004106)
   B->A: 0.004718 (X 0.000000, Y 0.000000, Z 0.004718)
 Oscillator strength (a.u.): 0.000140
 Norm of one-particle transition density matrix:
   A->B: 0.900890;   B->A: 0.862244
   ||gamma^AB||*||gamma^BA||: 0.776787

 ------------------------------------------------------------------------------
 State A: ccsd: 0/A'
 State B: cvs_eomee_ccsd/rhfref/singlets: 10/A"
 Transition dipole moment (a.u.):
   A->B: 0.012262 (X 0.000000, Y 0.000000, Z 0.012262)
   B->A: 0.012187 (X 0.000000, Y 0.000000, Z 0.012187)
 Oscillator strength (a.u.): 0.001079
 Norm of one-particle transition density matrix:
   A->B: 0.898871;   B->A: 0.861663
   ||gamma^AB||*||gamma^BA||: 0.774524

 ------------------------------------------------------------------------------
 State A: ccsd: 0/A'
 State B: cvs_eomee_ccsd/rhfref/singlets: 11/A"
 Transition dipole moment (a.u.):
   A->B: 0.035445 (X 0.000000, Y 0.000000, Z 0.035445)
   B->A: 0.034920 (X 0.000000, Y 0.000000, Z 0.034920)
 Oscillator strength (a.u.): 0.008962
 Norm of one-particle transition density matrix:
   A->B: 0.903301;   B->A: 0.866794
   ||gamma^AB||*||gamma^BA||: 0.782975

 ------------------------------------------------------------------------------
 State A: ccsd: 0/A'
 State B: cvs_eomee_ccsd/rhfref/singlets: 12/A"
 Transition dipole moment (a.u.):
   A->B: 0.011770 (X 0.000000, Y 0.000000, Z -0.011770)
   B->A: 0.013382 (X 0.000000, Y 0.000000, Z -0.013382)
 Oscillator strength (a.u.): 0.001142
 Norm of one-particle transition density matrix:
   A->B: 0.902733;   B->A: 0.866338
   ||gamma^AB||*||gamma^BA||: 0.782072

 ------------------------------------------------------------------------------
 State A: ccsd: 0/A'
 State B: cvs_eomee_ccsd/rhfref/singlets: 13/A"
 Transition dipole moment (a.u.):
   A->B: 0.022894 (X 0.000000, Y 0.000000, Z 0.022894)
   B->A: 0.022441 (X 0.000000, Y 0.000000, Z 0.022441)
 Oscillator strength (a.u.): 0.003733
 Norm of one-particle transition density matrix:
   A->B: 0.902293;   B->A: 0.865947
   ||gamma^AB||*||gamma^BA||: 0.781338


 All requested transition properties have been computed

 Transition Properties:   CPU 280.66 s  wall 51.66 s

 Total ccman2 time:   CPU 29762.77 s  wall 4314.78 s

 
 --------------------------------------------------------------
             Orbital Energies (a.u.) and Symmetries
 --------------------------------------------------------------
 
 Alpha MOs, Restricted
 -- Occupied --                  
-26.311 -11.329 -11.237  -1.627  -1.052  -0.838  -0.739  -0.691
  1 A'    2 A'    3 A'    4 A'    5 A'    6 A'    7 A'    1 A"                 
 -0.684  -0.589  -0.560  -0.385
  8 A'    9 A'   10 A'    2 A"                                                 
 -- Virtual --                   
  0.030   0.039   0.046   0.090   0.090   0.095   0.103   0.128
 11 A'   12 A'   13 A'    3 A"   14 A'    4 A"   15 A'   16 A'                 
  0.139   0.154   0.170   0.182   0.193   0.230   0.233   0.251
 17 A'   18 A'    5 A"   19 A'   20 A'    6 A"   21 A'   22 A'                 
  0.267   0.276   0.293   0.299   0.300   0.333   0.360   0.371
 23 A'    7 A"   24 A'    8 A"   25 A'   26 A'   27 A'    9 A"                 
  0.379   0.385   0.396   0.398   0.410   0.428   0.441   0.448
 28 A'   29 A'   10 A"   30 A'   31 A'   32 A'   11 A"   12 A"                 
  0.463   0.484   0.492   0.518   0.569   0.580   0.610   0.619
 33 A'   34 A'   35 A'   36 A'   13 A"   37 A'   14 A"   38 A'                 
  0.638   0.719   0.733   0.758   0.807   0.836   0.850   0.858
 39 A'   40 A'   15 A"   41 A'   42 A'   43 A'   16 A"   44 A'                 
  0.893   0.896   0.902   0.916   0.930   0.943   0.952   0.955
 45 A'   46 A'   17 A"   47 A'   48 A'   18 A"   49 A'   19 A"                 
  0.979   0.986   0.996   1.027   1.055   1.057   1.076   1.086
 20 A"   50 A'   51 A'   52 A'   53 A'   21 A"   22 A"   54 A'                 
  1.095   1.118   1.119   1.132   1.145   1.179   1.227   1.270
 23 A"   55 A'   24 A"   56 A'   25 A"   57 A'   58 A'   59 A'                 
  1.295   1.314   1.322   1.374   1.435   1.437   1.464   1.508
 60 A'   26 A"   61 A'   27 A"   28 A"   62 A'   63 A'   64 A'                 
  1.547   1.560   1.596   1.600   1.627   1.686   1.726   1.733
 29 A"   65 A'   66 A'   30 A"   31 A"   67 A'   68 A'   69 A'                 
  1.742   1.760   1.790   1.838   1.855   1.903   1.914   1.972
 32 A"   70 A'   33 A"   71 A'   72 A'   73 A'   34 A"   74 A'                 
  2.015   2.020   2.049   2.084   2.121   2.242   2.280   2.282
 35 A"   75 A'   76 A'   36 A"   77 A'   78 A'   37 A"   79 A'                 
  2.413   2.441   2.654   2.766   2.776   2.939   2.980   2.986
 80 A'   81 A'   82 A'   83 A'   38 A"   39 A"   40 A"   84 A'                 
  3.057   3.061   3.077   3.097   3.161   3.197   3.213   3.244
 41 A"   85 A'   86 A'   87 A'   88 A'   42 A"   89 A'   90 A'                 
  3.273   3.315   3.359   3.377   3.426   3.435   3.516   3.528
 43 A"   91 A'   44 A"   45 A"   92 A'   46 A"   47 A"   93 A'                 
  3.546   3.571   3.616   3.657   3.660   3.711   3.748   3.749
 94 A'   48 A"   95 A'   49 A"   96 A'   97 A'   50 A"   98 A'                 
  3.767   3.808   3.825   3.915   3.990   4.066   4.067   4.146
 51 A"   99 A'  100 A'  101 A'  102 A'   52 A"  103 A'  104 A'                 
  4.187   4.234   4.252   4.316   4.344   4.404   4.460   4.516
105 A'  106 A'   53 A"   54 A"  107 A'  108 A'   55 A"  109 A'                 
  4.581   4.639   4.690   4.787   4.787   4.873   4.909   4.961
 56 A"  110 A'   57 A"  111 A'  112 A'   58 A"  113 A'   59 A"                 
  4.992   5.012   5.121   5.123   5.242   5.296   5.344   5.380
 60 A"  114 A'  115 A'   61 A"  116 A'  117 A'   62 A"  118 A'                 
  5.478   5.494   5.636   5.641   5.703   5.852   6.116   6.292
119 A'   63 A"  120 A'   64 A"  121 A'  122 A'  123 A'  124 A'                 
  6.565   6.693   6.893   7.311   8.914   8.941   9.170   9.201
125 A'  126 A'  127 A'  128 A'   65 A"  129 A'   66 A"  130 A'                 
  9.323   9.372   9.403   9.485   9.495   9.634   9.871   9.890
 67 A"  131 A'   68 A"  132 A'  133 A'   69 A"  134 A'  135 A'                 
 14.746  17.068  17.328
136 A'  137 A'  138 A'                                                         
 
 Beta MOs, Restricted
 -- Occupied --                  
-26.311 -11.329 -11.237  -1.627  -1.052  -0.838  -0.739  -0.691
  1 A'    2 A'    3 A'    4 A'    5 A'    6 A'    7 A'    1 A"                 
 -0.684  -0.589  -0.560  -0.385
  8 A'    9 A'   10 A'    2 A"                                                 
 -- Virtual --                   
  0.030   0.039   0.046   0.090   0.090   0.095   0.103   0.128
 11 A'   12 A'   13 A'    3 A"   14 A'    4 A"   15 A'   16 A'                 
  0.139   0.154   0.170   0.182   0.193   0.230   0.233   0.251
 17 A'   18 A'    5 A"   19 A'   20 A'    6 A"   21 A'   22 A'                 
  0.267   0.276   0.293   0.299   0.300   0.333   0.360   0.371
 23 A'    7 A"   24 A'    8 A"   25 A'   26 A'   27 A'    9 A"                 
  0.379   0.385   0.396   0.398   0.410   0.428   0.441   0.448
 28 A'   29 A'   10 A"   30 A'   31 A'   32 A'   11 A"   12 A"                 
  0.463   0.484   0.492   0.518   0.569   0.580   0.610   0.619
 33 A'   34 A'   35 A'   36 A'   13 A"   37 A'   14 A"   38 A'                 
  0.638   0.719   0.733   0.758   0.807   0.836   0.850   0.858
 39 A'   40 A'   15 A"   41 A'   42 A'   43 A'   16 A"   44 A'                 
  0.893   0.896   0.902   0.916   0.930   0.943   0.952   0.955
 45 A'   46 A'   17 A"   47 A'   48 A'   18 A"   49 A'   19 A"                 
  0.979   0.986   0.996   1.027   1.055   1.057   1.076   1.086
 20 A"   50 A'   51 A'   52 A'   53 A'   21 A"   22 A"   54 A'                 
  1.095   1.118   1.119   1.132   1.145   1.179   1.227   1.270
 23 A"   55 A'   24 A"   56 A'   25 A"   57 A'   58 A'   59 A'                 
  1.295   1.314   1.322   1.374   1.435   1.437   1.464   1.508
 60 A'   26 A"   61 A'   27 A"   28 A"   62 A'   63 A'   64 A'                 
  1.547   1.560   1.596   1.600   1.627   1.686   1.726   1.733
 29 A"   65 A'   66 A'   30 A"   31 A"   67 A'   68 A'   69 A'                 
  1.742   1.760   1.790   1.838   1.855   1.903   1.914   1.972
 32 A"   70 A'   33 A"   71 A'   72 A'   73 A'   34 A"   74 A'                 
  2.015   2.020   2.049   2.084   2.121   2.242   2.280   2.282
 35 A"   75 A'   76 A'   36 A"   77 A'   78 A'   37 A"   79 A'                 
  2.413   2.441   2.654   2.766   2.776   2.939   2.980   2.986
 80 A'   81 A'   82 A'   83 A'   38 A"   39 A"   40 A"   84 A'                 
  3.057   3.061   3.077   3.097   3.161   3.197   3.213   3.244
 41 A"   85 A'   86 A'   87 A'   88 A'   42 A"   89 A'   90 A'                 
  3.273   3.315   3.359   3.377   3.426   3.435   3.516   3.528
 43 A"   91 A'   44 A"   45 A"   92 A'   46 A"   47 A"   93 A'                 
  3.546   3.571   3.616   3.657   3.660   3.711   3.748   3.749
 94 A'   48 A"   95 A'   49 A"   96 A'   97 A'   50 A"   98 A'                 
  3.767   3.808   3.825   3.915   3.990   4.066   4.067   4.146
 51 A"   99 A'  100 A'  101 A'  102 A'   52 A"  103 A'  104 A'                 
  4.187   4.234   4.252   4.316   4.344   4.404   4.460   4.516
105 A'  106 A'   53 A"   54 A"  107 A'  108 A'   55 A"  109 A'                 
  4.581   4.639   4.690   4.787   4.787   4.873   4.909   4.961
 56 A"  110 A'   57 A"  111 A'  112 A'   58 A"  113 A'   59 A"                 
  4.992   5.012   5.121   5.123   5.242   5.296   5.344   5.380
 60 A"  114 A'  115 A'   61 A"  116 A'  117 A'   62 A"  118 A'                 
  5.478   5.494   5.636   5.641   5.703   5.852   6.116   6.292
119 A'   63 A"  120 A'   64 A"  121 A'  122 A'  123 A'  124 A'                 
  6.565   6.693   6.893   7.311   8.914   8.941   9.170   9.201
125 A'  126 A'  127 A'  128 A'   65 A"  129 A'   66 A"  130 A'                 
  9.323   9.372   9.403   9.485   9.495   9.634   9.871   9.890
 67 A"  131 A'   68 A"  132 A'  133 A'   69 A"  134 A'  135 A'                 
 14.746  17.068  17.328
136 A'  137 A'  138 A'                                                         
 --------------------------------------------------------------
 
          Ground-State Mulliken Net Atomic Charges

     Atom                 Charge (a.u.)
  ----------------------------------------
      1 F                    -0.400006
      2 C                    -1.034089
      3 C                    -0.184387
      4 H                     0.733406
      5 H                     0.466920
      6 H                     0.418156
  ----------------------------------------
  Sum of atomic charges =    -0.000000

 -----------------------------------------------------------------
                    Cartesian Multipole Moments
 -----------------------------------------------------------------
    Charge (ESU x 10^10)
                 0.0000
    Dipole Moment (Debye)
         X      -1.3467      Y      -0.8360      Z      -0.0000
       Tot       1.5851
    Quadrupole Moments (Debye-Ang)
        XX     -17.8344     XY      -0.9542     YY     -15.3428
        XZ       0.0000     YZ       0.0000     ZZ     -19.3724
    Octopole Moments (Debye-Ang^2)
       XXX       3.8660    XXY      -0.1821    XYY       2.3132
       YYY       0.5588    XXZ      -0.0000    XYZ       0.0000
       YYZ      -0.0000    XZZ       5.0470    YZZ       0.7889
       ZZZ      -0.0000
    Hexadecapole Moments (Debye-Ang^3)
      XXXX    -118.3746   XXXY       3.8680   XXYY     -26.0777
      XYYY      -0.5939   YYYY     -34.6755   XXXZ       0.0000
      XXYZ      -0.0000   XYYZ       0.0000   YYYZ       0.0000
      XXZZ     -26.1620   XYZZ       0.3717   YYZZ     -10.9451
      XZZZ       0.0000   YZZZ       0.0000   ZZZZ     -21.2159
 -----------------------------------------------------------------
Archival summary:
1\1\n-62-29-14\SP\ProcedureUnspecified\BasisUnspecified\123\malop\MonAug1320:15:362018MonAug1320:15:362018\0\\#,ProcedureUnspecified,BasisUnspecified,\\0,1\C\H,1,1.08083\C,1,1.32523,2,125.835\H,3,1.07898,1,118.942,2,-0,0\H,3,1.08006,1,121.377,2,-180,0\F,1,1.34281,2,112.267,3,180,0\\HF=-176.956311\\@

 Total job time:  4357.94s(wall), 29973.38s(cpu) 
 Mon Aug 13 20:15:36 2018

        *************************************************************
        *                                                           *
        *  Thank you very much for using Q-Chem.  Have a nice day.  *
        *                                                           *
        *************************************************************


