n-62-24-6 10.66.24
Q-Chem Developer Version! Running on 10.66.24.*
                  Welcome to Q-Chem
     A Quantum Leap Into The Future Of Chemistry


 Q-Chem 5.1, Q-Chem, Inc., Pleasanton, CA (2018)

 Yihan Shao,  Zhengting Gan,  E. Epifanovsky,  A. T. B. Gilbert,  M. Wormit,  
 J. Kussmann,  A. W. Lange,  A. Behn,  Jia Deng,  Xintian Feng,  D. Ghosh,  
 M. Goldey,  P. R. Horn,  L. D. Jacobson,  I. Kaliman,  T. Kus,  A. Landau,  
 Jie Liu,  E. I. Proynov,  R. M. Richard,  R. P. Steele,  E. J. Sundstrom,  
 H. L. Woodcock III,  P. M. Zimmerman,  D. Zuev,  B. Albrecht,  E. Alguire,  
 S. A. Baeppler,  D. Barton,  Z. Benda,  Y. A. Bernard,  E. J. Berquist,  
 K. B. Bravaya,  H. Burton,  D. Casanova,  Chun-Min Chang,  Yunqing Chen,  
 A. Chien,  K. D. Closser,  M. P. Coons,  S. Coriani,  S. Dasgupta,  
 A. L. Dempwolff,  M. Diedenhofen,  Hainam Do,  R. G. Edgar,  Po-Tung Fang,  
 S. Faraji,  S. Fatehi,  Qingguo Feng,  K. D. Fenk,  J. Fosso-Tande,  
 Qinghui Ge,  A. Ghysels,  G. Gidofalvi,  J. Gomes,  J. Gonthier,  A. Gunina,  
 M. W. D. Hanson-Heine,  P. H. P. Harbach,  A. W. Hauser,  J. E. Herr,  
 E. G. Hohenstein,  Z. C. Holden,  Kerwin Hui,  T.-C. Jagau,  Hyunjun Ji,  
 B. Kaduk,  K. Khistyaev,  Jaehoon Kim,  P. Klunzinger,  K. Koh,  
 D. Kosenkov,  L. Koulias,  T. Kowalczyk,  C. M. Krauter,  A. Kunitsa,  
 Ka Un Lao,  A. Laurent,  K. V. Lawler,  Joonho Lee,  D. Lefrancois,  
 S. Lehtola,  D. S. Levine,  Yi-Pei Li,  You-Sheng Lin,  Fenglai Liu,  
 E. Livshits,  A. Luenser,  P. Manohar,  E. Mansoor,  S. F. Manzer,  
 Shan-Ping Mao,  Yuezhi Mao,  N. Mardirossian,  A. V. Marenich,  
 T. Markovich,  L. A. Martinez-Martinez,  S. A. Maurer,  N. J. Mayhall,  
 S. C. McKenzie,  J.-M. Mewes,  A. F. Morrison,  J. W. Mullinax,  K. Nanda,  
 T. S. Nguyen-Beck,  R. Olivares-Amaya,  J. A. Parkhill,  T. M. Perrine,  
 F. Plasser,  P. Pokhilko,  S. Prager,  A. Prociuk,  E. Ramos,  D. R. Rehn,  
 F. Rob,  M. Schneider,  N. Sergueev,  S. M. Sharada,  S. Sharma,  
 D. W. Small,  T. Stauch,  T. Stein,  Yu-Chuan Su,  A. J. W. Thom,  
 A. Tkatchenko,  T. Tsuchimochi,  N. M. Tubman,  L. Vogt,  M. L. Vidal,  
 O. Vydrov,  M. A. Watson,  J. Wenzel,  M. de Wergifosse,  T. A. Wesolowski,  
 A. White,  J. Witte,  A. Yamada,  Jun Yang,  K. Yao,  S. Yeganeh,  
 S. R. Yost,  Zhi-Qiang You,  A. Zech,  Igor Ying Zhang,  Xing Zhang,  
 Yan Zhao,  Ying Zhu,  B. R. Brooks,  G. K. L. Chan,  C. J. Cramer,  
 M. S. Gordon,  W. J. Hehre,  A. Klamt,  M. W. Schmidt,  C. D. Sherrill,  
 D. G. Truhlar,  A. Aspuru-Guzik,  R. Baer,  A. T. Bell,  N. A. Besley,  
 Jeng-Da Chai,  R. A. DiStasio Jr.,  A. Dreuw,  B. D. Dunietz,  
 T. R. Furlani,  Chao-Ping Hsu,  Yousung Jung,  Jing Kong,  D. S. Lambrecht,  
 WanZhen Liang,  C. Ochsenfeld,  V. A. Rassolov,  L. V. Slipchenko,  
 J. E. Subotnik,  T. Van Voorhis,  J. M. Herbert,  A. I. Krylov,  
 P. M. W. Gill,  M. Head-Gordon

 Contributors to earlier versions of Q-Chem not listed above: 
 R. D. Adamson,  B. Austin,  J. Baker,  G. J. O. Beran,  K. Brandhorst,  
 S. T. Brown,  E. F. C. Byrd,  A. K. Chakraborty,  C.-L. Cheng,  
 Siu Hung Chien,  D. M. Chipman,  D. L. Crittenden,  H. Dachsel,  
 R. J. Doerksen,  A. D. Dutoi,  L. Fusti-Molnar,  W. A. Goddard III,  
 A. Golubeva-Zadorozhnaya,  S. R. Gwaltney,  G. Hawkins,  A. Heyden,  
 S. Hirata,  G. Kedziora,  F. J. Keil,  C. Kelley,  Jihan Kim,  R. A. King,  
 R. Z. Khaliullin,  P. P. Korambath,  W. Kurlancheek,  A. M. Lee,  M. S. Lee,  
 S. V. Levchenko,  Ching Yeh Lin,  D. Liotard,  R. C. Lochan,  I. Lotan,  
 P. E. Maslen,  N. Nair,  D. P. O'Neill,  D. Neuhauser,  E. Neuscamman,  
 C. M. Oana,  R. Olson,  B. Peters,  R. Peverati,  P. A. Pieniazek,  
 Y. M. Rhee,  J. Ritchie,  M. A. Rohrdanz,  E. Rosta,  N. J. Russ,  
 H. F. Schaefer III,  N. E. Schultz,  N. Shenvi,  A. C. Simmonett,  A. Sodt,  
 D. Stuck,  K. S. Thanthiriwatte,  V. Vanovschi,  Tao Wang,  A. Warshel,  
 C. F. Williams,  Q. Wu,  X. Xu,  W. Zhang

 Please cite Q-Chem as follows:
 Y. Shao et al., Mol. Phys. 113, 184-215 (2015)
 DOI: 10.1080/00268976.2014.952696

 Q-Chem 5.1.0 for Intel X86 EM64T Linux

 Parts of Q-Chem use Armadillo 8.300.2 (Tropical Shenanigans).
 http://arma.sourceforge.net/

 Q-Chem begins on Sun Jun 17 12:13:35 2018  

Host: 
0

     Scratch files written to /work1/malop/qc_6480988.hnode2//

Checking the input file for inconsistencies... 	...done.

--------------------------------------------------------------
User input:
--------------------------------------------------------------
$comment 
NEXAFS VINYLFLUORIDE / aug-cc-pvtz
$end

$molecule
0 1
C       1.1793501531     0.1997297036     0.0000000000
F      -1.1529022759     0.2247768549     0.0000000000
C       0.0163188924    -0.4355678917     0.0000000000
H      -0.1189529826    -1.5078994676     0.0000000000
H       1.2308255218     1.2785613540     0.0000000000
H       2.0902345342    -0.3786192262     0.0000000000
$end

$rem
!    input_bohr = true
    jobtype = sp
    method = eom-ccsd
    cvs_ee_singlets    [5,5]
    basis = aug-cc-pvtz
    print_general_basis = true
    n_frozen_core = fc 
    cc_trans_prop = true
    eom_preconv_singles = true
    eom_davidson_convergence = 4
    eom_davidson_threshold = 00104
state_analysis = true
molden_format  = true
nto_pairs      = 4
pop_mulliken   = true
$end

--------------------------------------------------------------
 ----------------------------------------------------------------
             Standard Nuclear Orientation (Angstroms)
    I     Atom           X                Y                Z
 ----------------------------------------------------------------
    1      C       1.1793501171     0.1997294858    -0.0000000000
    2      F      -1.1529023119     0.2247766372    -0.0000000000
    3      C       0.0163188564    -0.4355681094     0.0000000000
    4      H      -0.1189530186    -1.5078996853     0.0000000000
    5      H       1.2308254859     1.2785611362    -0.0000000000
    6      H       2.0902344982    -0.3786194440     0.0000000000
 ----------------------------------------------------------------
 Molecular Point Group                 Cs    NOp =  2
 Largest Abelian Subgroup              Cs    NOp =  2
 Nuclear Repulsion Energy =    67.5482146693 hartrees
 There are       12 alpha and       12 beta electrons
 Requested basis set is aug-cc-pVTZ
Basis set in general basis input format:
-----------------------------------------------------------------------
$basis
C    0
S    8    1.000000
   8.23600000E+03    5.31000000E-04 
   1.23500000E+03    4.10800000E-03 
   2.80800000E+02    2.10870000E-02 
   7.92700000E+01    8.18530000E-02 
   2.55900000E+01    2.34817000E-01 
   8.99700000E+00    4.34401000E-01 
   3.31900000E+00    3.46129000E-01 
   3.64300000E-01   -8.98300000E-03 
S    8    1.000000
   8.23600000E+03   -1.13000000E-04 
   1.23500000E+03   -8.78000000E-04 
   2.80800000E+02   -4.54000000E-03 
   7.92700000E+01   -1.81330000E-02 
   2.55900000E+01   -5.57600000E-02 
   8.99700000E+00   -1.26895000E-01 
   3.31900000E+00   -1.70352000E-01 
   3.64300000E-01    5.98684000E-01 
S    1    1.000000
   9.05900000E-01    1.00000000E+00 
S    1    1.000000
   1.28500000E-01    1.00000000E+00 
P    3    1.000000
   1.87100000E+01    1.40310000E-02 
   4.13300000E+00    8.68660000E-02 
   1.20000000E+00    2.90216000E-01 
P    1    1.000000
   3.82700000E-01    1.00000000E+00 
P    1    1.000000
   1.20900000E-01    1.00000000E+00 
D    1    1.000000
   1.09700000E+00    1.00000000E+00 
D    1    1.000000
   3.18000000E-01    1.00000000E+00 
F    1    1.000000
   7.61000000E-01    1.00000000E+00 
S    1    1.000000
   4.40200000E-02    1.00000000E+00 
P    1    1.000000
   3.56900000E-02    1.00000000E+00 
D    1    1.000000
   1.00000000E-01    1.00000000E+00 
F    1    1.000000
   2.68000000E-01    1.00000000E+00 
****
F    0
S    8    1.000000
   1.95000000E+04    5.07000000E-04 
   2.92300000E+03    3.92300000E-03 
   6.64500000E+02    2.02000000E-02 
   1.87500000E+02    7.90100000E-02 
   6.06200000E+01    2.30439000E-01 
   2.14200000E+01    4.32872000E-01 
   7.95000000E+00    3.49964000E-01 
   8.81500000E-01   -7.89200000E-03 
S    8    1.000000
   1.95000000E+04   -1.17000000E-04 
   2.92300000E+03   -9.12000000E-04 
   6.64500000E+02   -4.71700000E-03 
   1.87500000E+02   -1.90860000E-02 
   6.06200000E+01   -5.96550000E-02 
   2.14200000E+01   -1.40010000E-01 
   7.95000000E+00   -1.76782000E-01 
   8.81500000E-01    6.05043000E-01 
S    1    1.000000
   2.25700000E+00    1.00000000E+00 
S    1    1.000000
   3.04100000E-01    1.00000000E+00 
P    3    1.000000
   4.38800000E+01    1.66650000E-02 
   9.92600000E+00    1.04472000E-01 
   2.93000000E+00    3.17260000E-01 
P    1    1.000000
   9.13200000E-01    1.00000000E+00 
P    1    1.000000
   2.67200000E-01    1.00000000E+00 
D    1    1.000000
   3.10700000E+00    1.00000000E+00 
D    1    1.000000
   8.55000000E-01    1.00000000E+00 
F    1    1.000000
   1.91700000E+00    1.00000000E+00 
S    1    1.000000
   9.15800000E-02    1.00000000E+00 
P    1    1.000000
   7.36100000E-02    1.00000000E+00 
D    1    1.000000
   2.92000000E-01    1.00000000E+00 
F    1    1.000000
   7.24000000E-01    1.00000000E+00 
****
C    0
S    8    1.000000
   8.23600000E+03    5.31000000E-04 
   1.23500000E+03    4.10800000E-03 
   2.80800000E+02    2.10870000E-02 
   7.92700000E+01    8.18530000E-02 
   2.55900000E+01    2.34817000E-01 
   8.99700000E+00    4.34401000E-01 
   3.31900000E+00    3.46129000E-01 
   3.64300000E-01   -8.98300000E-03 
S    8    1.000000
   8.23600000E+03   -1.13000000E-04 
   1.23500000E+03   -8.78000000E-04 
   2.80800000E+02   -4.54000000E-03 
   7.92700000E+01   -1.81330000E-02 
   2.55900000E+01   -5.57600000E-02 
   8.99700000E+00   -1.26895000E-01 
   3.31900000E+00   -1.70352000E-01 
   3.64300000E-01    5.98684000E-01 
S    1    1.000000
   9.05900000E-01    1.00000000E+00 
S    1    1.000000
   1.28500000E-01    1.00000000E+00 
P    3    1.000000
   1.87100000E+01    1.40310000E-02 
   4.13300000E+00    8.68660000E-02 
   1.20000000E+00    2.90216000E-01 
P    1    1.000000
   3.82700000E-01    1.00000000E+00 
P    1    1.000000
   1.20900000E-01    1.00000000E+00 
D    1    1.000000
   1.09700000E+00    1.00000000E+00 
D    1    1.000000
   3.18000000E-01    1.00000000E+00 
F    1    1.000000
   7.61000000E-01    1.00000000E+00 
S    1    1.000000
   4.40200000E-02    1.00000000E+00 
P    1    1.000000
   3.56900000E-02    1.00000000E+00 
D    1    1.000000
   1.00000000E-01    1.00000000E+00 
F    1    1.000000
   2.68000000E-01    1.00000000E+00 
****
H    0
S    3    1.000000
   3.38700000E+01    6.06800000E-03 
   5.09500000E+00    4.53080000E-02 
   1.15900000E+00    2.02822000E-01 
S    1    1.000000
   3.25800000E-01    1.00000000E+00 
S    1    1.000000
   1.02700000E-01    1.00000000E+00 
P    1    1.000000
   1.40700000E+00    1.00000000E+00 
P    1    1.000000
   3.88000000E-01    1.00000000E+00 
D    1    1.000000
   1.05700000E+00    1.00000000E+00 
S    1    1.000000
   2.52600000E-02    1.00000000E+00 
P    1    1.000000
   1.02000000E-01    1.00000000E+00 
D    1    1.000000
   2.47000000E-01    1.00000000E+00 
****
H    0
S    3    1.000000
   3.38700000E+01    6.06800000E-03 
   5.09500000E+00    4.53080000E-02 
   1.15900000E+00    2.02822000E-01 
S    1    1.000000
   3.25800000E-01    1.00000000E+00 
S    1    1.000000
   1.02700000E-01    1.00000000E+00 
P    1    1.000000
   1.40700000E+00    1.00000000E+00 
P    1    1.000000
   3.88000000E-01    1.00000000E+00 
D    1    1.000000
   1.05700000E+00    1.00000000E+00 
S    1    1.000000
   2.52600000E-02    1.00000000E+00 
P    1    1.000000
   1.02000000E-01    1.00000000E+00 
D    1    1.000000
   2.47000000E-01    1.00000000E+00 
****
H    0
S    3    1.000000
   3.38700000E+01    6.06800000E-03 
   5.09500000E+00    4.53080000E-02 
   1.15900000E+00    2.02822000E-01 
S    1    1.000000
   3.25800000E-01    1.00000000E+00 
S    1    1.000000
   1.02700000E-01    1.00000000E+00 
P    1    1.000000
   1.40700000E+00    1.00000000E+00 
P    1    1.000000
   3.88000000E-01    1.00000000E+00 
D    1    1.000000
   1.05700000E+00    1.00000000E+00 
S    1    1.000000
   2.52600000E-02    1.00000000E+00 
P    1    1.000000
   1.02000000E-01    1.00000000E+00 
D    1    1.000000
   2.47000000E-01    1.00000000E+00 
****
$end
-----------------------------------------------------------------------
 There are 69 shells and 207 basis functions
 Total memory of 2000MB is distributed as follows: 
   QALLOC including MEM_STATIC uses 192MB
   MEM_STATIC is set to 192MB
   CCMAN JOB total memory use is  1808MB
 Warning: actual memory use might exceed 2000MB

 Total QAlloc Memory Limit    192 MB
 Mega-Array Size       188 MB
 MEM_STATIC part       192 MB

                       Distance Matrix (Angstroms)
             C (  1)   F (  2)   C (  3)   H (  4)   H (  5)
   F (  2)  2.332387
   C (  3)  1.325234  1.342808
   H (  4)  2.145131  2.017726  1.080830
   H (  5)  1.080059  2.606266  2.100777  3.096170
   H (  6)  1.078980  3.298791  2.074697  2.481085  1.866770
 
 A cutoff of  1.0D-14 yielded   2412 shell pairs
 There are     21840 function pairs (     29448 Cartesian)
 Smallest overlap matrix eigenvalue = 1.62E-05

 Scale SEOQF with 1.000000e-01/1.000000e-01/1.000000e-01

 Standard Electronic Orientation quadrupole field applied
 Nucleus-field energy     =     0.0000000014 hartrees
 Guess from superposition of atomic densities
 Warning:  Energy on first SCF cycle will be non-variational
 SAD guess density has 24.000000 electrons

 -----------------------------------------------------------------------
  General SCF calculation program by
  Eric Jon Sundstrom, Paul Horn, Yuezhi Mao, Dmitri Zuev, Alec White,
  David Stuck, Shaama M.S., Shane Yost, Joonho Lee, David Small,
  Daniel Levine, Susi Lehtola, Hugh Burton, Evgeny Epifanovsky
 -----------------------------------------------------------------------
 Hartree-Fock
 A restricted SCF calculation will be
 performed using DIIS
 SCF converges when DIIS error is below 1.0e-08
 ---------------------------------------
  Cycle       Energy         DIIS error
 ---------------------------------------
    1    -177.5089400815      2.74e-02  
    2    -176.9084698907      2.96e-03  
    3    -176.9468466584      1.53e-03  
    4    -176.9554760176      3.26e-04  
    5    -176.9562561576      6.71e-05  
    6    -176.9563013509      2.96e-05  
    7    -176.9563087854      9.92e-06  
    8    -176.9563105375      3.37e-06  
    9    -176.9563107037      6.20e-07  
   10    -176.9563107089      2.02e-07  
   11    -176.9563107094      6.34e-08  
   12    -176.9563107095      1.35e-08  
   13    -176.9563107095      2.05e-09  Convergence criterion met
 ---------------------------------------
 SCF time:   CPU 85.31s  wall 86.00s 
 SCF   energy in the final basis set =     -176.9563107095


 ------------------------------------------------------------------------------

   CCMAN2: suite of methods based on coupled cluster
           and equation of motion theories.

   Components:
   * libvmm-1.3-trunk
     by Evgeny Epifanovsky, Ilya Kaliman.
   * libtensor-2.5-trunk
     by Evgeny Epifanovsky, Michael Wormit, Dmitry Zuev, Sam Manzer, 
        Ilya Kaliman.
   * libcc-2.5-trunk
     by Evgeny Epifanovsky, Arik Landau, Tomasz Kus, Kirill Khistyaev, 
        Dmitry Zuev, Prashant Manohar, Xintian Feng, Anna Krylov, 
        Matthew Goldey, Alec White, Thomas Jagau, Kaushik Nanda, 
        Anastasia Gunina, Alexander Kunitsa, Joonho Lee.

   CCMAN original authors:
   Anna I. Krylov, C. David Sherrill, Steven R. Gwaltney,
   Edward F. C. Byrd (2000)
   Sergey V. Levchenko, Lyudmila V. Slipchenko, Tao Wang,
   Ana-Maria C. Cristian (2003)
   Piotr A. Pieniazek, C. Melania Oana, Evgeny Epifanovsky (2007)
   Prashant Manohar (2009)

 ------------------------------------------------------------------------------


 Calculation will run on 1 core with 1808MB of RAM.

 
 Alpha MOs, Restricted
 -- Occupied --                  
-26.311 -11.329 -11.237  -1.627  -1.052  -0.838  -0.739  -0.691
  1 A'    2 A'    3 A'    4 A'    5 A'    6 A'    7 A'    1 A"                 
 -0.684  -0.589  -0.560  -0.385
  8 A'    9 A'   10 A'    2 A"                                                 
 -- Virtual --                   
  0.030   0.039   0.046   0.090   0.090   0.095   0.103   0.128
 11 A'   12 A'   13 A'    3 A"   14 A'    4 A"   15 A'   16 A'                 
  0.139   0.154   0.170   0.182   0.193   0.230   0.233   0.251
 17 A'   18 A'    5 A"   19 A'   20 A'    6 A"   21 A'   22 A'                 
  0.267   0.276   0.293   0.299   0.300   0.333   0.360   0.371
 23 A'    7 A"   24 A'    8 A"   25 A'   26 A'   27 A'    9 A"                 
  0.379   0.385   0.396   0.398   0.410   0.428   0.441   0.448
 28 A'   29 A'   10 A"   30 A'   31 A'   32 A'   11 A"   12 A"                 
  0.463   0.484   0.492   0.518   0.569   0.580   0.610   0.619
 33 A'   34 A'   35 A'   36 A'   13 A"   37 A'   14 A"   38 A'                 
  0.638   0.719   0.733   0.758   0.807   0.836   0.850   0.858
 39 A'   40 A'   15 A"   41 A'   42 A'   43 A'   16 A"   44 A'                 
  0.893   0.896   0.902   0.916   0.930   0.943   0.952   0.955
 45 A'   46 A'   17 A"   47 A'   48 A'   18 A"   49 A'   19 A"                 
  0.979   0.986   0.996   1.027   1.055   1.057   1.076   1.086
 20 A"   50 A'   51 A'   52 A'   53 A'   21 A"   22 A"   54 A'                 
  1.095   1.118   1.119   1.132   1.145   1.179   1.227   1.270
 23 A"   55 A'   24 A"   56 A'   25 A"   57 A'   58 A'   59 A'                 
  1.295   1.314   1.322   1.374   1.435   1.437   1.464   1.508
 60 A'   26 A"   61 A'   27 A"   28 A"   62 A'   63 A'   64 A'                 
  1.547   1.560   1.596   1.600   1.627   1.686   1.726   1.733
 29 A"   65 A'   66 A'   30 A"   31 A"   67 A'   68 A'   69 A'                 
  1.742   1.760   1.790   1.838   1.855   1.903   1.914   1.972
 32 A"   70 A'   33 A"   71 A'   72 A'   73 A'   34 A"   74 A'                 
  2.015   2.020   2.049   2.084   2.121   2.242   2.280   2.282
 35 A"   75 A'   76 A'   36 A"   77 A'   78 A'   37 A"   79 A'                 
  2.413   2.441   2.654   2.766   2.776   2.939   2.980   2.986
 80 A'   81 A'   82 A'   83 A'   38 A"   39 A"   40 A"   84 A'                 
  3.057   3.061   3.077   3.097   3.161   3.197   3.213   3.244
 41 A"   85 A'   86 A'   87 A'   88 A'   42 A"   89 A'   90 A'                 
  3.273   3.315   3.359   3.377   3.426   3.435   3.516   3.528
 43 A"   91 A'   44 A"   45 A"   92 A'   46 A"   47 A"   93 A'                 
  3.546   3.571   3.616   3.657   3.660   3.711   3.748   3.749
 94 A'   48 A"   95 A'   49 A"   96 A'   97 A'   50 A"   98 A'                 
  3.767   3.808   3.825   3.915   3.990   4.066   4.067   4.146
 51 A"   99 A'  100 A'  101 A'  102 A'   52 A"  103 A'  104 A'                 
  4.187   4.234   4.252   4.316   4.344   4.404   4.460   4.516
105 A'  106 A'   53 A"   54 A"  107 A'  108 A'   55 A"  109 A'                 
  4.581   4.639   4.690   4.787   4.787   4.873   4.909   4.961
 56 A"  110 A'   57 A"  111 A'  112 A'   58 A"  113 A'   59 A"                 
  4.992   5.012   5.121   5.123   5.242   5.296   5.344   5.380
 60 A"  114 A'  115 A'   61 A"  116 A'  117 A'   62 A"  118 A'                 
  5.478   5.494   5.636   5.641   5.703   5.852   6.116   6.292
119 A'   63 A"  120 A'   64 A"  121 A'  122 A'  123 A'  124 A'                 
  6.565   6.693   6.893   7.311   8.914   8.941   9.170   9.201
125 A'  126 A'  127 A'  128 A'   65 A"  129 A'   66 A"  130 A'                 
  9.323   9.372   9.403   9.485   9.495   9.634   9.871   9.890
 67 A"  131 A'   68 A"  132 A'  133 A'   69 A"  134 A'  135 A'                 
 14.746  17.068  17.328
136 A'  137 A'  138 A'                                                         
 
 Beta MOs, Restricted
 -- Occupied --                  
-26.311 -11.329 -11.237  -1.627  -1.052  -0.838  -0.739  -0.691
  1 A'    2 A'    3 A'    4 A'    5 A'    6 A'    7 A'    1 A"                 
 -0.684  -0.589  -0.560  -0.385
  8 A'    9 A'   10 A'    2 A"                                                 
 -- Virtual --                   
  0.030   0.039   0.046   0.090   0.090   0.095   0.103   0.128
 11 A'   12 A'   13 A'    3 A"   14 A'    4 A"   15 A'   16 A'                 
  0.139   0.154   0.170   0.182   0.193   0.230   0.233   0.251
 17 A'   18 A'    5 A"   19 A'   20 A'    6 A"   21 A'   22 A'                 
  0.267   0.276   0.293   0.299   0.300   0.333   0.360   0.371
 23 A'    7 A"   24 A'    8 A"   25 A'   26 A'   27 A'    9 A"                 
  0.379   0.385   0.396   0.398   0.410   0.428   0.441   0.448
 28 A'   29 A'   10 A"   30 A'   31 A'   32 A'   11 A"   12 A"                 
  0.463   0.484   0.492   0.518   0.569   0.580   0.610   0.619
 33 A'   34 A'   35 A'   36 A'   13 A"   37 A'   14 A"   38 A'                 
  0.638   0.719   0.733   0.758   0.807   0.836   0.850   0.858
 39 A'   40 A'   15 A"   41 A'   42 A'   43 A'   16 A"   44 A'                 
  0.893   0.896   0.902   0.916   0.930   0.943   0.952   0.955
 45 A'   46 A'   17 A"   47 A'   48 A'   18 A"   49 A'   19 A"                 
  0.979   0.986   0.996   1.027   1.055   1.057   1.076   1.086
 20 A"   50 A'   51 A'   52 A'   53 A'   21 A"   22 A"   54 A'                 
  1.095   1.118   1.119   1.132   1.145   1.179   1.227   1.270
 23 A"   55 A'   24 A"   56 A'   25 A"   57 A'   58 A'   59 A'                 
  1.295   1.314   1.322   1.374   1.435   1.437   1.464   1.508
 60 A'   26 A"   61 A'   27 A"   28 A"   62 A'   63 A'   64 A'                 
  1.547   1.560   1.596   1.600   1.627   1.686   1.726   1.733
 29 A"   65 A'   66 A'   30 A"   31 A"   67 A'   68 A'   69 A'                 
  1.742   1.760   1.790   1.838   1.855   1.903   1.914   1.972
 32 A"   70 A'   33 A"   71 A'   72 A'   73 A'   34 A"   74 A'                 
  2.015   2.020   2.049   2.084   2.121   2.242   2.280   2.282
 35 A"   75 A'   76 A'   36 A"   77 A'   78 A'   37 A"   79 A'                 
  2.413   2.441   2.654   2.766   2.776   2.939   2.980   2.986
 80 A'   81 A'   82 A'   83 A'   38 A"   39 A"   40 A"   84 A'                 
  3.057   3.061   3.077   3.097   3.161   3.197   3.213   3.244
 41 A"   85 A'   86 A'   87 A'   88 A'   42 A"   89 A'   90 A'                 
  3.273   3.315   3.359   3.377   3.426   3.435   3.516   3.528
 43 A"   91 A'   44 A"   45 A"   92 A'   46 A"   47 A"   93 A'                 
  3.546   3.571   3.616   3.657   3.660   3.711   3.748   3.749
 94 A'   48 A"   95 A'   49 A"   96 A'   97 A'   50 A"   98 A'                 
  3.767   3.808   3.825   3.915   3.990   4.066   4.067   4.146
 51 A"   99 A'  100 A'  101 A'  102 A'   52 A"  103 A'  104 A'                 
  4.187   4.234   4.252   4.316   4.344   4.404   4.460   4.516
105 A'  106 A'   53 A"   54 A"  107 A'  108 A'   55 A"  109 A'                 
  4.581   4.639   4.690   4.787   4.787   4.873   4.909   4.961
 56 A"  110 A'   57 A"  111 A'  112 A'   58 A"  113 A'   59 A"                 
  4.992   5.012   5.121   5.123   5.242   5.296   5.344   5.380
 60 A"  114 A'  115 A'   61 A"  116 A'  117 A'   62 A"  118 A'                 
  5.478   5.494   5.636   5.641   5.703   5.852   6.116   6.292
119 A'   63 A"  120 A'   64 A"  121 A'  122 A'  123 A'  124 A'                 
  6.565   6.693   6.893   7.311   8.914   8.941   9.170   9.201
125 A'  126 A'  127 A'  128 A'   65 A"  129 A'   66 A"  130 A'                 
  9.323   9.372   9.403   9.485   9.495   9.634   9.871   9.890
 67 A"  131 A'   68 A"  132 A'  133 A'   69 A"  134 A'  135 A'                 
 14.746  17.068  17.328
136 A'  137 A'  138 A'                                                         

 Occupation and symmetry of molecular orbitals

 Point group: Cs (2 irreducible representations).

                           A'   A"    All 
 ------------------------------------------
 All molecular orbitals:
  - Alpha                  138  69    207 
  - Beta                   138  69    207 
 ------------------------------------------
 Alpha orbitals:
  - Frozen occupied        3    0     3   
  - Active occupied        7    2     9   
  - Active virtual         128  67    195 
  - Frozen virtual         0    0     0   
 ------------------------------------------
 Beta orbitals:
  - Frozen occupied        3    0     3   
  - Active occupied        7    2     9   
  - Active virtual         128  67    195 
  - Frozen virtual         0    0     0   
 ------------------------------------------

 Import integrals:   CPU 0.00 s  wall 0.00 s

 Import integrals:   CPU 113.55 s  wall 151.66 s

 MP2 amplitudes:   CPU 1.00 s  wall 2.21 s

           CCSD T amplitudes will be solved using DIIS.

           Start     Size      MaxIter   EConv     TConv     
           3         7         100       1.00e-06  1.00e-04  
 ------------------------------------------------------------------------------
           Energy (a.u.)   Ediff      Tdiff       Comment
 ------------------------------------------------------------------------------
          -177.54312772                           
     1    -177.54429171   1.16e-03   6.58e-01     Step took 01.21.
     2    -177.55896260   1.47e-02   7.59e-02     
     3    -177.55901664   5.40e-05   2.98e-02     
     4    -177.56044475   1.43e-03   1.08e-02     Switched to DIIS steps.
     5    -177.56096637   5.22e-04   8.62e-03     
     6    -177.56098250   1.61e-05   1.55e-03     
     7    -177.56097817   4.33e-06   6.62e-04     
     8    -177.56097729   8.87e-07   1.17e-04     
     9    -177.56097744   1.49e-07   4.45e-05     
 ------------------------------------------------------------------------------
          -177.56097744                           CCSD T converged.

 SCF energy                 = -176.95631071
 MP2 energy                 = -177.54312772
 CCSD correlation energy     =   -0.60466673
 CCSD total energy           = -177.56097744

 CCSD  T1^2 = 0.0056  T2^2 = 0.1758  Leading amplitudes:

 Amplitude    Orbitals with energies
 -0.0164       1 (A") A                  ->    5 (A") A                   
              -0.6906                          0.1704                     
 -0.0164       1 (A") B                  ->    5 (A") B                   
              -0.6906                          0.1704                     
 -0.0147       2 (A") A                  ->    13 (A") A                  
              -0.3848                          0.5695                     
 -0.0147       2 (A") B                  ->    13 (A") B                  
              -0.3848                          0.5695                     

 Amplitude    Orbitals with energies
 -0.0783       2 (A") A      2 (A") B    ->    5 (A") A      5 (A") B     
              -0.3848       -0.3848            0.1704        0.1704       
  0.0783       2 (A") A      2 (A") B    ->    5 (A") B      5 (A") A     
              -0.3848       -0.3848            0.1704        0.1704       
  0.0783       2 (A") B      2 (A") A    ->    5 (A") A      5 (A") B     
              -0.3848       -0.3848            0.1704        0.1704       
 -0.0783       2 (A") B      2 (A") A    ->    5 (A") B      5 (A") A     
              -0.3848       -0.3848            0.1704        0.1704       

 Computing CCSD intermediates for later calculations
 Finished.

           CCSD Lambda amplitudes will be solved using DIIS.
           Start     Size      MaxIter   EConv     LConv     
           3         7         100       1.00e-06  1.00e-04  
 ------------------------------------------------------------------------------
            Enorm      Ldiff       Comment
 ------------------------------------------------------------------------------
     1     3.95e-02   2.65e-02     
     2     1.13e-02   4.49e-03     
     3     4.39e-03   6.20e-04     
     4     2.12e-03   6.84e-04     Switched to DIIS steps.
     5     5.29e-04   3.59e-04     
     6     2.38e-04   6.82e-05     
     7     6.88e-05   1.60e-05     
     8     2.99e-05   1.95e-07     
     9     1.06e-05   2.26e-06     
    10     4.17e-06   8.37e-07     
    11     1.65e-06   2.29e-07     
    12     4.78e-07   1.41e-07     
 ------------------------------------------------------------------------------
                                   CCSD Lambda converged.

 CCSD calculation:   CPU 849.79 s  wall 1878.58 s

        Solving for CVS-EOMEE-CCSD A' singlet states.

       EOMEE-CCSD-SINGLES right amplitudes will be solved using Davidson.
      Amplitudes will be solved using standard  algorithm
      Roots     MaxVec    MaxIter   Precond   Conv      Thresh    Shift    
      5         60        60        1         1.00e-04  1.00e-104 0.00e+00  
 ------------------------------------------------------------------------------
      Iter ConvRoots NVecs ResNorm Current eigenvalues (eV)
 ------------------------------------------------------------------------------
      0    0      5     2.41e-03   302.3942   303.0835   303.4255   304.2547   304.5449   
      1    0      10    3.97e-02   301.6542   302.2950   303.0975   304.0194   304.0857   
      2    0      15    1.78e-03   300.3058   300.5049   302.8420   303.3620   303.6771   
      3    0      20    2.36e-03   300.1933   300.4061   302.8289   303.1874   303.5412   
      4    3      25    5.91e-04   300.1805*  300.3989*  302.8230*  303.0408   303.4664   
      5    3      27    1.24e-04   300.1798*  300.3983*  302.8222*  303.0199   303.4578   
      6    4      29    4.08e-03   300.1797*  300.3979*  301.2064   302.8229*  303.0206*  
      7    4      30    4.17e-04   300.1797*  300.3976*  300.9097   302.8228*  303.0204*  
      8    4      31    4.77e-05   300.1797*  300.3975*  300.8798   302.8228*  303.0204*  
      9    5      32    1.81e-05   300.1797*  300.3975*  300.8742*  302.8228*  303.0204*  

     Davidson procedure converged

        CVS-EOMEE-CCSD/MP2 right amplitudes will be solved using Davidson.
      Amplitudes will be solved using standard  algorithm
      Roots     MaxVec    MaxIter   Precond   Conv      Thresh    Shift    
      5         60        60        1         1.00e-04  1.00e-104 0.00e+00  
 ------------------------------------------------------------------------------
      Iter ConvRoots NVecs ResNorm Current eigenvalues (eV)
 ------------------------------------------------------------------------------
      0    0      5     1.72e+00   300.1797   300.3975   300.8742   302.8228   303.0204   
      1    0      10    1.00e+00   296.7218   297.0211   297.5640   298.9935   299.2367   
      2    0      15    5.27e-02   288.3999   289.2084   289.8813   290.5070   291.7646   
      3    0      20    2.07e-02   287.9606   288.7125   289.3209   289.9546   291.0733   
      4    0      25    5.55e-03   287.8789   288.5744   289.2127   289.7973   290.7791   
      5    0      30    5.39e-03   287.8412   288.5006   289.1645   289.6968   290.6110   
      6    0      35    2.68e-03   287.8193   288.4530   289.1262   289.6019   290.5190   
      7    0      40    2.93e-03   287.8062   288.4242   289.0870   289.5124   290.4494   
      8    0      45    1.58e-03   287.8026   288.4162   289.0665   289.4610   290.4012   
      9    0      50    1.52e-03   287.7988   288.4074   289.0453   289.4061   290.3520   
      10   2      55    2.12e-03   287.7972*  288.4032*  289.0370   289.3826   290.2769   
      11   2      58    1.08e-03   287.7973*  288.4037*  289.0355   289.3749   290.1570   
      12   3      60    7.23e-04   287.7973*  288.4037*  289.0350*  289.3728   290.1202   
      13   4      7     3.23e-04   287.7972*  288.4026*  289.0346*  289.3700*  290.0620   
      14   4      8     3.01e-04   287.7972*  288.4026*  289.0346*  289.3690*  290.0525   
      15   4      9     1.73e-04   287.7972*  288.4026*  289.0345*  289.3694*  290.0346   
      16   4      10    1.34e-04   287.7971*  288.4023*  289.0346*  289.3688*  290.0159   
      17   4      11    1.09e-04   287.7972*  288.4026*  289.0343*  289.3691*  290.0196   
      18   4      12    7.58e-05   287.7971*  288.4023*  289.0347*  289.3682*  290.0041   
      19   4      13    4.49e-05   287.7971*  288.4024*  289.0344*  289.3685*  290.0071   
      20   5      14    3.52e-05   287.7971*  288.4023*  289.0346*  289.3684*  290.0020*  

     Davidson procedure converged

 EOMEE transition 1/A'
 Total energy = -166.98462943 a.u.  Excitation energy = 287.7971 eV.
 R0^2 = 0.0000  R1^2 = 0.8167  R2_CCVV^2 = 0.0016  R2_COVV^2 = 0.0908  Res^2 = 9.33e-06
 Conv-d = yes

 Amplitude    Transitions between orbitals
  0.5041       3 (A') A                  ->    11 (A') A                  
  0.5041       3 (A') B                  ->    11 (A') B                  
  0.3000       3 (A') A                  ->    17 (A') A                  
  0.3000       3 (A') B                  ->    17 (A') B                  
 -0.1261       3 (A') A                  ->    12 (A') A                  
 -0.1261       3 (A') B                  ->    12 (A') B                  
 -0.1220       3 (A') A                  ->    19 (A') A                  
 -0.1220       3 (A') B                  ->    19 (A') B                  

              Summary of significant orbitals:

               Number  Type             Irrep      Energy
               3       Occ  Alpha       3 (A')    -11.2367
               3       Occ  Beta        3 (A')    -11.2367
               13      Vir  Alpha      11 (A')      0.0302
               14      Vir  Alpha      12 (A')      0.0390
               21      Vir  Alpha      17 (A')      0.1392
               24      Vir  Alpha      19 (A')      0.1817
               13      Vir  Beta       11 (A')      0.0302
               14      Vir  Beta       12 (A')      0.0390
               21      Vir  Beta       17 (A')      0.1392
               24      Vir  Beta       19 (A')      0.1817


 EOMEE transition 2/A'
 Total energy = -166.96238795 a.u.  Excitation energy = 288.4023 eV.
 R0^2 = 0.0000  R1^2 = 0.8180  R2_CCVV^2 = 0.0016  R2_COVV^2 = 0.0902  Res^2 = 3.14e-05
 Conv-d = yes

 Amplitude    Transitions between orbitals
  0.4056       3 (A') A                  ->    12 (A') A                  
  0.4056       3 (A') B                  ->    12 (A') B                  
  0.2196       3 (A') A                  ->    13 (A') A                  
  0.2196       3 (A') B                  ->    13 (A') B                  
  0.1996       3 (A') A                  ->    18 (A') A                  
  0.1996       3 (A') B                  ->    18 (A') B                  
 -0.1878       3 (A') A                  ->    16 (A') A                  
 -0.1878       3 (A') B                  ->    16 (A') B                  
  0.1633       3 (A') A                  ->    19 (A') A                  
  0.1633       3 (A') B                  ->    19 (A') B                  
 -0.1253       3 (A') A                  ->    14 (A') A                  
 -0.1253       3 (A') B                  ->    14 (A') B                  
 -0.1107       3 (A') A                  ->    21 (A') A                  
 -0.1107       3 (A') B                  ->    21 (A') B                  

              Summary of significant orbitals:

               Number  Type             Irrep      Energy
               3       Occ  Alpha       3 (A')    -11.2367
               3       Occ  Beta        3 (A')    -11.2367
               14      Vir  Alpha      12 (A')      0.0390
               15      Vir  Alpha      13 (A')      0.0463
               17      Vir  Alpha      14 (A')      0.0899
               20      Vir  Alpha      16 (A')      0.1279
               22      Vir  Alpha      18 (A')      0.1545
               24      Vir  Alpha      19 (A')      0.1817
               27      Vir  Alpha      21 (A')      0.2327
               14      Vir  Beta       12 (A')      0.0390
               15      Vir  Beta       13 (A')      0.0463
               17      Vir  Beta       14 (A')      0.0899
               20      Vir  Beta       16 (A')      0.1279
               22      Vir  Beta       18 (A')      0.1545
               24      Vir  Beta       19 (A')      0.1817
               27      Vir  Beta       21 (A')      0.2327


 EOMEE transition 3/A'
 Total energy = -166.93915147 a.u.  Excitation energy = 289.0346 eV.
 R0^2 = 0.0000  R1^2 = 0.8073  R2_CCVV^2 = 0.0016  R2_COVV^2 = 0.0956  Res^2 = 2.10e-05
 Conv-d = yes

 Amplitude    Transitions between orbitals
  0.4747       3 (A') A                  ->    13 (A') A                  
  0.4747       3 (A') B                  ->    13 (A') B                  
  0.2347       3 (A') A                  ->    18 (A') A                  
  0.2347       3 (A') B                  ->    18 (A') B                  
 -0.1940       3 (A') A                  ->    12 (A') A                  
 -0.1940       3 (A') B                  ->    12 (A') B                  
  0.1804       3 (A') A                  ->    14 (A') A                  
  0.1804       3 (A') B                  ->    14 (A') B                  
 -0.1241       3 (A') A                  ->    19 (A') A                  
 -0.1241       3 (A') B                  ->    19 (A') B                  

              Summary of significant orbitals:

               Number  Type             Irrep      Energy
               3       Occ  Alpha       3 (A')    -11.2367
               3       Occ  Beta        3 (A')    -11.2367
               14      Vir  Alpha      12 (A')      0.0390
               15      Vir  Alpha      13 (A')      0.0463
               17      Vir  Alpha      14 (A')      0.0899
               22      Vir  Alpha      18 (A')      0.1545
               24      Vir  Alpha      19 (A')      0.1817
               14      Vir  Beta       12 (A')      0.0390
               15      Vir  Beta       13 (A')      0.0463
               17      Vir  Beta       14 (A')      0.0899
               22      Vir  Beta       18 (A')      0.1545
               24      Vir  Beta       19 (A')      0.1817


 EOMEE transition 4/A'
 Total energy = -166.92688299 a.u.  Excitation energy = 289.3684 eV.
 R0^2 = 0.0000  R1^2 = 0.8081  R2_CCVV^2 = 0.0016  R2_COVV^2 = 0.0952  Res^2 = 3.17e-05
 Conv-d = yes

 Amplitude    Transitions between orbitals
 -0.2904       3 (A') A                  ->    14 (A') A                  
 -0.2904       3 (A') B                  ->    14 (A') B                  
  0.2386       3 (A') A                  ->    23 (A') A                  
  0.2386       3 (A') B                  ->    23 (A') B                  
  0.2365       3 (A') A                  ->    15 (A') A                  
  0.2365       3 (A') B                  ->    15 (A') B                  
 -0.2096       3 (A') A                  ->    12 (A') A                  
 -0.2096       3 (A') B                  ->    12 (A') B                  
  0.2058       3 (A') A                  ->    19 (A') A                  
  0.2058       3 (A') B                  ->    19 (A') B                  
  0.1876       3 (A') A                  ->    16 (A') A                  
  0.1876       3 (A') B                  ->    16 (A') B                  
 -0.1328       3 (A') A                  ->    21 (A') A                  
 -0.1328       3 (A') B                  ->    21 (A') B                  
  0.1320       3 (A') A                  ->    22 (A') A                  
  0.1320       3 (A') B                  ->    22 (A') B                  
  0.1087       3 (A') A                  ->    31 (A') A                  
  0.1087       3 (A') B                  ->    31 (A') B                  

              Summary of significant orbitals:

               Number  Type             Irrep      Energy
               3       Occ  Alpha       3 (A')    -11.2367
               3       Occ  Beta        3 (A')    -11.2367
               14      Vir  Alpha      12 (A')      0.0390
               17      Vir  Alpha      14 (A')      0.0899
               19      Vir  Alpha      15 (A')      0.1032
               20      Vir  Alpha      16 (A')      0.1279
               24      Vir  Alpha      19 (A')      0.1817
               27      Vir  Alpha      21 (A')      0.2327
               28      Vir  Alpha      22 (A')      0.2513
               29      Vir  Alpha      23 (A')      0.2667
               41      Vir  Alpha      31 (A')      0.4101
               14      Vir  Beta       12 (A')      0.0390
               17      Vir  Beta       14 (A')      0.0899
               19      Vir  Beta       15 (A')      0.1032
               20      Vir  Beta       16 (A')      0.1279
               24      Vir  Beta       19 (A')      0.1817
               27      Vir  Beta       21 (A')      0.2327
               28      Vir  Beta       22 (A')      0.2513
               29      Vir  Beta       23 (A')      0.2667
               41      Vir  Beta       31 (A')      0.4101


 EOMEE transition 5/A'
 Total energy = -166.90359886 a.u.  Excitation energy = 290.0020 eV.
 R0^2 = 0.0000  R1^2 = 0.8078  R2_CCVV^2 = 0.0016  R2_COVV^2 = 0.0953  Res^2 = 8.23e-05
 Conv-d = yes

 Amplitude    Transitions between orbitals
  0.4638       3 (A') A                  ->    15 (A') A                  
  0.4638       3 (A') B                  ->    15 (A') B                  
  0.2637       3 (A') A                  ->    14 (A') A                  
  0.2637       3 (A') B                  ->    14 (A') B                  
 -0.1566       3 (A') A                  ->    24 (A') A                  
 -0.1566       3 (A') B                  ->    24 (A') B                  
  0.1468       3 (A') A                  ->    11 (A') A                  
  0.1468       3 (A') B                  ->    11 (A') B                  
 -0.1168       3 (A') A                  ->    16 (A') A                  
 -0.1168       3 (A') B                  ->    16 (A') B                  
  0.1150       3 (A') A                  ->    12 (A') A                  
  0.1150       3 (A') B                  ->    12 (A') B                  

              Summary of significant orbitals:

               Number  Type             Irrep      Energy
               3       Occ  Alpha       3 (A')    -11.2367
               3       Occ  Beta        3 (A')    -11.2367
               13      Vir  Alpha      11 (A')      0.0302
               14      Vir  Alpha      12 (A')      0.0390
               17      Vir  Alpha      14 (A')      0.0899
               19      Vir  Alpha      15 (A')      0.1032
               20      Vir  Alpha      16 (A')      0.1279
               31      Vir  Alpha      24 (A')      0.2928
               13      Vir  Beta       11 (A')      0.0302
               14      Vir  Beta       12 (A')      0.0390
               17      Vir  Beta       14 (A')      0.0899
               19      Vir  Beta       15 (A')      0.1032
               20      Vir  Beta       16 (A')      0.1279
               31      Vir  Beta       24 (A')      0.2928


      CVS-EOM-CCSD/MP2 left amplitudes will be solved using Davidson.
      Amplitudes will be solved using MOM  algorithm
      Roots     MaxVec    MaxIter   Precond   Conv      Thresh    Shift    
      5         60        60        1         1.00e-04  1.00e-104 0.00e+00  
 ------------------------------------------------------------------------------
      Iter ConvRoots NVecs ResNorm Current eigenvalues (eV)
 ------------------------------------------------------------------------------
      0    0      5     2.50e-02   287.7971   288.4023   289.0346   289.3684   290.0020   
      1    0      10    9.50e-03   287.7971   288.4020   289.0344   289.3682   290.0027   
      2    0      15    5.21e-04   287.7973   288.4025   289.0343   289.3682   290.0033   
      3    3      20    3.81e-04   287.7974*  288.4024*  289.0341*  289.3680   290.0026   
      4    4      22    1.60e-04   287.7974*  288.4024*  289.0341*  289.3680*  290.0032   
      5    5      23    4.91e-05   287.7974*  288.4024*  289.0341*  289.3680*  290.0030*  

     Davidson procedure converged

 Excited state properties for  CVS-EOMEE-CCSD transition 1/A'
 Dipole moment (a.u.): 1.639865 (X -1.553467, Y 0.525259, Z 0.000000)
 R-squared (a.u.): 189.227051 (XX 124.380860, YY 42.299694, ZZ 22.546497)

State OPDM analysis using libwa module will be excecuted
Created directory /work1/malop/qc_6480988.hnode2/plots
 NOs
   Occupation of frontier NOs:
      0.0050   0.0069   0.0098   0.9859   1.0083   1.9922   1.9928   1.9942
   Number of electrons: 24.000000
   Number of unpaired electrons: n_u =  2.03368, n_u,nl =  2.00110
   NO participation ratio (PR_NO):  2.114500
 
 Mulliken Population Analysis
 Atom      Charge (e)
 --------------------
  1 C        0.517431
  2 F       -0.295298
  3 C        0.004285
  4 H        0.525348
  5 H       -0.097182
  6 H       -0.654583
 --------------------
 Sum:        0.000000
 

 Excited state properties for  CVS-EOMEE-CCSD transition 2/A'
 Dipole moment (a.u.): 1.776008 (X 0.019716, Y -1.775899, Z 0.000000)
 R-squared (a.u.): 186.634124 (XX 113.066352, YY 54.281604, ZZ 19.286168)

State OPDM analysis using libwa module will be excecuted
 NOs
   Occupation of frontier NOs:
      0.0052   0.0082   0.0093   0.9910   1.0030   1.9923   1.9924   1.9943
   Number of electrons: 24.000000
   Number of unpaired electrons: n_u =  2.04623, n_u,nl =  2.00189
   NO participation ratio (PR_NO):  2.118183
 
 Mulliken Population Analysis
 Atom      Charge (e)
 --------------------
  1 C        0.361108
  2 F       -0.275036
  3 C       -0.078535
  4 H        0.415375
  5 H       -0.601928
  6 H        0.179017
 --------------------
 Sum:        0.000000
 

 Excited state properties for  CVS-EOMEE-CCSD transition 3/A'
 Dipole moment (a.u.): 1.583960 (X 1.578466, Y 0.131817, Z 0.000000)
 R-squared (a.u.): 197.699623 (XX 126.608561, YY 45.816503, ZZ 25.274559)

State OPDM analysis using libwa module will be excecuted
 NOs
   Occupation of frontier NOs:
      0.0077   0.0098   0.0100   0.9873   1.0001   1.9923   1.9937   1.9946
   Number of electrons: 24.000000
   Number of unpaired electrons: n_u =  2.05001, n_u,nl =  2.00238
   NO participation ratio (PR_NO):  2.127573
 
 Mulliken Population Analysis
 Atom      Charge (e)
 --------------------
  1 C        0.362515
  2 F       -0.510321
  3 C       -0.046167
  4 H        0.054887
  5 H       -0.054637
  6 H        0.193723
 --------------------
 Sum:        0.000000
 

 Excited state properties for  CVS-EOMEE-CCSD transition 4/A'
 Dipole moment (a.u.): 1.593194 (X 0.856487, Y 1.343390, Z 0.000000)
 R-squared (a.u.): 178.811762 (XX 114.495087, YY 46.086571, ZZ 18.230104)

State OPDM analysis using libwa module will be excecuted
 NOs
   Occupation of frontier NOs:
      0.0091   0.0096   0.0127   0.9912   0.9999   1.9915   1.9930   1.9933
   Number of electrons: 24.000000
   Number of unpaired electrons: n_u =  2.06426, n_u,nl =  2.00332
   NO participation ratio (PR_NO):  2.148759
 
 Mulliken Population Analysis
 Atom      Charge (e)
 --------------------
  1 C        1.051036
  2 F       -0.357298
  3 C       -1.042511
  4 H        0.450542
  5 H        0.028624
  6 H       -0.130394
 --------------------
 Sum:        0.000000
 

 Excited state properties for  CVS-EOMEE-CCSD transition 5/A'
 Dipole moment (a.u.): 0.909548 (X 0.541458, Y 0.730822, Z 0.000000)
 R-squared (a.u.): 200.951075 (XX 124.051914, YY 55.626538, ZZ 21.272623)

State OPDM analysis using libwa module will be excecuted
 NOs
   Occupation of frontier NOs:
      0.0050   0.0063   0.0097   0.9945   1.0029   1.9925   1.9936   1.9941
   Number of electrons: 24.000000
   Number of unpaired electrons: n_u =  2.04644, n_u,nl =  2.00150
   NO participation ratio (PR_NO):  2.111155
 
 Mulliken Population Analysis
 Atom      Charge (e)
 --------------------
  1 C       -1.344172
  2 F       -0.253548
  3 C        0.581981
  4 H        0.354862
  5 H        0.263840
  6 H        0.397037
 --------------------
 Sum:        0.000000
 

        Solving for CVS-EOMEE-CCSD A" singlet states.

       EOMEE-CCSD-SINGLES right amplitudes will be solved using Davidson.
      Amplitudes will be solved using standard  algorithm
      Roots     MaxVec    MaxIter   Precond   Conv      Thresh    Shift    
      5         60        60        1         1.00e-04  1.00e-104 0.00e+00  
 ------------------------------------------------------------------------------
      Iter ConvRoots NVecs ResNorm Current eigenvalues (eV)
 ------------------------------------------------------------------------------
      0    0      5     1.63e-02   299.5534   303.2189   304.8662   305.1296   305.7441   
      1    0      10    5.46e-02   297.3075   301.0821   302.8088   304.6551   305.4667   
      2    0      15    4.09e-04   296.3144   297.5740   302.5925   304.5612   305.2882   
      3    4      20    5.76e-05   296.3044*  297.5539*  302.5889*  304.5505   305.2773*  
      4    5      21    3.36e-05   296.3042*  297.5539*  302.5889*  304.5433*  305.2773*  

     Davidson procedure converged

        CVS-EOMEE-CCSD/MP2 right amplitudes will be solved using Davidson.
      Amplitudes will be solved using standard  algorithm
      Roots     MaxVec    MaxIter   Precond   Conv      Thresh    Shift    
      5         60        60        1         1.00e-04  1.00e-104 0.00e+00  
 ------------------------------------------------------------------------------
      Iter ConvRoots NVecs ResNorm Current eigenvalues (eV)
 ------------------------------------------------------------------------------
      0    0      5     1.72e+00   296.3042   297.5539   302.5889   304.5433   305.2773   
      1    0      10    1.02e+00   292.9302   294.3660   298.8292   300.7092   301.4914   
      2    0      15    5.05e-02   286.1618   288.3671   289.7091   291.1421   292.3670   
      3    0      20    1.11e-02   285.5836   287.7370   289.3007   290.7423   291.9635   
      4    0      25    2.15e-03   285.4656   287.5911   289.2500   290.7073   291.9088   
      5    0      30    8.50e-04   285.4451   287.5615   289.2296   290.6922   291.8799   
      6    1      35    2.85e-04   285.4395*  287.5544   289.2206   290.6831   291.8583   
      7    3      39    1.89e-04   285.4390*  287.5526*  289.2188*  290.6799   291.8487   
      8    4      41    8.52e-05   285.4390*  287.5525*  289.2188*  290.6791*  291.8430   
      9    4      42    7.85e-05   285.4390*  287.5525*  289.2188*  290.6791*  291.8352   
      10   5      43    4.98e-05   285.4390*  287.5525*  289.2188*  290.6791*  291.8321*  

     Davidson procedure converged

 EOMEE transition 1/A"
 Total energy = -167.07128618 a.u.  Excitation energy = 285.4390 eV.
 R0^2 = 0.0000  R1^2 = 0.8295  R2_CCVV^2 = 0.0017  R2_COVV^2 = 0.0844  Res^2 = 5.50e-05
 Conv-d = yes

 Amplitude    Transitions between orbitals
  0.4982       3 (A') A                  ->    5 (A") A                   
  0.4982       3 (A') B                  ->    5 (A") B                   
  0.2895       3 (A') A                  ->    4 (A") A                   
  0.2895       3 (A') B                  ->    4 (A") B                   
 -0.1643       3 (A') A                  ->    3 (A") A                   
 -0.1643       3 (A') B                  ->    3 (A") B                   
 -0.1621       3 (A') A                  ->    9 (A") A                   
 -0.1621       3 (A') B                  ->    9 (A") B                   
  0.1127       3 (A') A                  ->    6 (A") A                   
  0.1127       3 (A') B                  ->    6 (A") B                   

              Summary of significant orbitals:

               Number  Type             Irrep      Energy
               3       Occ  Alpha       3 (A')    -11.2367
               3       Occ  Beta        3 (A')    -11.2367
               16      Vir  Alpha       3 (A")      0.0897
               18      Vir  Alpha       4 (A")      0.0953
               23      Vir  Alpha       5 (A")      0.1704
               26      Vir  Alpha       6 (A")      0.2297
               36      Vir  Alpha       9 (A")      0.3710
               16      Vir  Beta        3 (A")      0.0897
               18      Vir  Beta        4 (A")      0.0953
               23      Vir  Beta        5 (A")      0.1704
               26      Vir  Beta        6 (A")      0.2297
               36      Vir  Beta        9 (A")      0.3710


 EOMEE transition 2/A"
 Total energy = -166.99361758 a.u.  Excitation energy = 287.5525 eV.
 R0^2 = 0.0000  R1^2 = 0.8342  R2_CCVV^2 = 0.0018  R2_COVV^2 = 0.0820  Res^2 = 2.52e-05
 Conv-d = yes

 Amplitude    Transitions between orbitals
 -0.4910       2 (A') A                  ->    5 (A") A                   
 -0.4910       2 (A') B                  ->    5 (A") B                   
 -0.2509       2 (A') A                  ->    4 (A") A                   
 -0.2509       2 (A') B                  ->    4 (A") B                   
  0.2287       2 (A') A                  ->    3 (A") A                   
  0.2287       2 (A') B                  ->    3 (A") B                   
  0.1511       2 (A') A                  ->    9 (A") A                   
  0.1511       2 (A') B                  ->    9 (A") B                   
 -0.1202       2 (A') A                  ->    6 (A") A                   
 -0.1202       2 (A') B                  ->    6 (A") B                   

              Summary of significant orbitals:

               Number  Type             Irrep      Energy
               2       Occ  Alpha       2 (A')    -11.3290
               2       Occ  Beta        2 (A')    -11.3290
               16      Vir  Alpha       3 (A")      0.0897
               18      Vir  Alpha       4 (A")      0.0953
               23      Vir  Alpha       5 (A")      0.1704
               26      Vir  Alpha       6 (A")      0.2297
               36      Vir  Alpha       9 (A")      0.3710
               16      Vir  Beta        3 (A")      0.0897
               18      Vir  Beta        4 (A")      0.0953
               23      Vir  Beta        5 (A")      0.1704
               26      Vir  Beta        6 (A")      0.2297
               36      Vir  Beta        9 (A")      0.3710


 EOMEE transition 3/A"
 Total energy = -166.93238148 a.u.  Excitation energy = 289.2188 eV.
 R0^2 = 0.0000  R1^2 = 0.8126  R2_CCVV^2 = 0.0016  R2_COVV^2 = 0.0929  Res^2 = 4.69e-05
 Conv-d = yes

 Amplitude    Transitions between orbitals
  0.5891       3 (A') A                  ->    3 (A") A                   
  0.5891       3 (A') B                  ->    3 (A") B                   
  0.1710       3 (A') A                  ->    4 (A") A                   
  0.1710       3 (A') B                  ->    4 (A") B                   
 -0.1069       3 (A') A                  ->    8 (A") A                   
 -0.1069       3 (A') B                  ->    8 (A") B                   

              Summary of significant orbitals:

               Number  Type             Irrep      Energy
               3       Occ  Alpha       3 (A')    -11.2367
               3       Occ  Beta        3 (A')    -11.2367
               16      Vir  Alpha       3 (A")      0.0897
               18      Vir  Alpha       4 (A")      0.0953
               32      Vir  Alpha       8 (A")      0.2988
               16      Vir  Beta        3 (A")      0.0897
               18      Vir  Beta        4 (A")      0.0953
               32      Vir  Beta        8 (A")      0.2988


 EOMEE transition 4/A"
 Total energy = -166.87871788 a.u.  Excitation energy = 290.6791 eV.
 R0^2 = 0.0000  R1^2 = 0.8072  R2_CCVV^2 = 0.0016  R2_COVV^2 = 0.0956  Res^2 = 2.92e-05
 Conv-d = yes

 Amplitude    Transitions between orbitals
 -0.5276       3 (A') A                  ->    4 (A") A                   
 -0.5276       3 (A') B                  ->    4 (A") B                   
  0.2840       3 (A') A                  ->    5 (A") A                   
  0.2840       3 (A') B                  ->    5 (A") B                   
 -0.1328       3 (A') A                  ->    9 (A") A                   
 -0.1328       3 (A') B                  ->    9 (A") B                   
  0.1220       3 (A') A                  ->    3 (A") A                   
  0.1220       3 (A') B                  ->    3 (A") B                   

              Summary of significant orbitals:

               Number  Type             Irrep      Energy
               3       Occ  Alpha       3 (A')    -11.2367
               3       Occ  Beta        3 (A')    -11.2367
               16      Vir  Alpha       3 (A")      0.0897
               18      Vir  Alpha       4 (A")      0.0953
               23      Vir  Alpha       5 (A")      0.1704
               36      Vir  Alpha       9 (A")      0.3710
               16      Vir  Beta        3 (A")      0.0897
               18      Vir  Beta        4 (A")      0.0953
               23      Vir  Beta        5 (A")      0.1704
               36      Vir  Beta        9 (A")      0.3710


 EOMEE transition 5/A"
 Total energy = -166.83634633 a.u.  Excitation energy = 291.8321 eV.
 R0^2 = 0.0000  R1^2 = 0.8037  R2_CCVV^2 = 0.0016  R2_COVV^2 = 0.0974  Res^2 = 9.25e-05
 Conv-d = yes

 Amplitude    Transitions between orbitals
 -0.4807       2 (A') A                  ->    3 (A") A                   
 -0.4807       2 (A') B                  ->    3 (A") B                   
 -0.3828       2 (A') A                  ->    4 (A") A                   
 -0.3828       2 (A') B                  ->    4 (A") B                   
  0.1121       2 (A') A                  ->    8 (A") A                   
  0.1121       2 (A') B                  ->    8 (A") B                   

              Summary of significant orbitals:

               Number  Type             Irrep      Energy
               2       Occ  Alpha       2 (A')    -11.3290
               2       Occ  Beta        2 (A')    -11.3290
               16      Vir  Alpha       3 (A")      0.0897
               18      Vir  Alpha       4 (A")      0.0953
               32      Vir  Alpha       8 (A")      0.2988
               16      Vir  Beta        3 (A")      0.0897
               18      Vir  Beta        4 (A")      0.0953
               32      Vir  Beta        8 (A")      0.2988


      CVS-EOM-CCSD/MP2 left amplitudes will be solved using Davidson.
      Amplitudes will be solved using MOM  algorithm
      Roots     MaxVec    MaxIter   Precond   Conv      Thresh    Shift    
      5         60        60        1         1.00e-04  1.00e-104 0.00e+00  
 ------------------------------------------------------------------------------
      Iter ConvRoots NVecs ResNorm Current eigenvalues (eV)
 ------------------------------------------------------------------------------
      0    0      5     2.09e-02   285.4390   287.5525   289.2188   290.6791   291.8321   
      1    0      10    1.05e-02   285.4384   287.5526   289.2187   290.6786   291.8314   
      2    0      15    5.19e-04   285.4387   287.5528   289.2186   290.6783   291.8323   
      3    4      20    8.96e-05   285.4386*  287.5528   289.2185*  290.6781*  291.8320*  
      4    5      21    6.38e-05   285.4386*  287.5528*  289.2185*  290.6781*  291.8320*  

     Davidson procedure converged

 Excited state properties for  CVS-EOMEE-CCSD transition 1/A"
 Dipole moment (a.u.): 1.122495 (X 1.121435, Y 0.048779, Z 0.000000)
 R-squared (a.u.): 153.720461 (XX 105.617297, YY 32.591139, ZZ 15.512026)

State OPDM analysis using libwa module will be excecuted
 NOs
   Occupation of frontier NOs:
      0.0051   0.0060   0.0073   0.9896   0.9997   1.9880   1.9940   1.9949
   Number of electrons: 24.000000
   Number of unpaired electrons: n_u =  2.06223, n_u,nl =  2.00151
   NO participation ratio (PR_NO):  2.148726
 
 Mulliken Population Analysis
 Atom      Charge (e)
 --------------------
  1 C        0.059883
  2 F       -0.352200
  3 C       -0.616629
  4 H        0.645091
  5 H        0.122240
  6 H        0.141616
 --------------------
 Sum:        0.000000
 

 Excited state properties for  CVS-EOMEE-CCSD transition 2/A"
 Dipole moment (a.u.): 0.643115 (X -0.017736, Y -0.642871, Z 0.000000)
 R-squared (a.u.): 155.874522 (XX 108.151556, YY 32.121400, ZZ 15.601566)

State OPDM analysis using libwa module will be excecuted
 NOs
   Occupation of frontier NOs:
      0.0048   0.0070   0.0079   0.9851   0.9997   1.9910   1.9939   1.9955
   Number of electrons: 24.000000
   Number of unpaired electrons: n_u =  2.06090, n_u,nl =  2.00103
   NO participation ratio (PR_NO):  2.155789
 
 Mulliken Population Analysis
 Atom      Charge (e)
 --------------------
  1 C       -1.298661
  2 F       -0.339064
  3 C        0.518690
  4 H        0.317555
  5 H        0.413335
  6 H        0.388144
 --------------------
 Sum:        0.000000
 

 Excited state properties for  CVS-EOMEE-CCSD transition 3/A"
 Dipole moment (a.u.): 0.196045 (X 0.073365, Y -0.181800, Z 0.000000)
 R-squared (a.u.): 186.856688 (XX 112.341057, YY 37.737114, ZZ 36.778517)

State OPDM analysis using libwa module will be excecuted
 NOs
   Occupation of frontier NOs:
      0.0047   0.0055   0.0098   0.9998   1.0023   1.9927   1.9939   1.9950
   Number of electrons: 24.000000
   Number of unpaired electrons: n_u =  2.04057, n_u,nl =  2.00160
   NO participation ratio (PR_NO):  2.086799
 
 Mulliken Population Analysis
 Atom      Charge (e)
 --------------------
  1 C       -0.448851
  2 F       -0.218481
  3 C       -0.509788
  4 H        0.753910
  5 H        0.234645
  6 H        0.188566
 --------------------
 Sum:        0.000000
 

 Excited state properties for  CVS-EOMEE-CCSD transition 4/A"
 Dipole moment (a.u.): 1.682474 (X 1.579080, Y 0.580712, Z 0.000000)
 R-squared (a.u.): 199.712315 (XX 118.882853, YY 42.811242, ZZ 38.018220)

State OPDM analysis using libwa module will be excecuted
 NOs
   Occupation of frontier NOs:
      0.0048   0.0055   0.0096   0.9936   0.9997   1.9927   1.9939   1.9950
   Number of electrons: 24.000000
   Number of unpaired electrons: n_u =  2.04691, n_u,nl =  2.00132
   NO participation ratio (PR_NO):  2.108536
 
 Mulliken Population Analysis
 Atom      Charge (e)
 --------------------
  1 C        0.249055
  2 F       -0.163184
  3 C       -1.238072
  4 H        0.743955
  5 H        0.201066
  6 H        0.207181
 --------------------
 Sum:        0.000000
 

 Excited state properties for  CVS-EOMEE-CCSD transition 5/A"
 Dipole moment (a.u.): 0.821775 (X 0.690512, Y 0.445542, Z 0.000000)
 R-squared (a.u.): 185.871410 (XX 110.110371, YY 38.628603, ZZ 37.132436)

State OPDM analysis using libwa module will be excecuted
 NOs
   Occupation of frontier NOs:
      0.0052   0.0086   0.0097   0.9911   0.9998   1.9920   1.9939   1.9944
   Number of electrons: 24.000000
   Number of unpaired electrons: n_u =  2.05648, n_u,nl =  2.00155
   NO participation ratio (PR_NO):  2.133462
 
 Mulliken Population Analysis
 Atom      Charge (e)
 --------------------
  1 C       -0.985463
  2 F       -0.131290
  3 C       -0.271545
  4 H        0.412744
  5 H        0.514563
  6 H        0.460991
 --------------------
 Sum:        0.000000
 

 CVS-EOMEE-CCSD calculation:   CPU 5500.44 s  wall 13324.24 s


 Start computing the transition properties

 ------------------------------------------------------------------------------
 State A: ccsd: 0/A'
 State B: cvs_eomee_ccsd/rhfref/singlets: 1/A'
 Transition dipole moment (a.u.):
   A->B: 0.028216 (X -0.028206, Y 0.000769, Z 0.000000)
   B->A: 0.027745 (X -0.027740, Y 0.000534, Z 0.000000)
 Oscillator strength (a.u.): 0.005520
 Norm of one-particle transition density matrix:
   A->B: 0.905670;   B->A: 0.872849
   ||gamma^AB||*||gamma^BA||: 0.790513

State analysis of transition OPDM (A->B) using libwa module will be excecuted
 NTOs
   Leading SVs and ENEs:
        0.8202   0.0000   0.0000   0.0000   0.0000   0.0000   0.0000   0.0000
 E(h) -11.2367 -11.3287  -0.2314  -0.0966  -0.4427  -0.1829  -0.4395  -0.3585
 E(e)   0.0880   0.3761  -0.1243   0.2427  -0.0497  -0.3775  -0.3537  -0.2106
 
   Sum of SVs (Omega):               0.820238
   Participation ratio (PR_NTO):     1.000019
   Entanglement entropy (S_HE):      0.234634
   Nr of entangled states (Z_HE):    1.176608
   Renormalized S_HE/Z_HE:  0.000170 /  1.000118
 
 Atomic CT numbers
   omega =     0.8202
 
 Exciton analysis of the transition density matrix
   <r_h> [Ang]:                        [  1.179227,   0.199658,  -0.000000]
   <r_e> [Ang]:                        [  2.031535,  -0.395590,   0.000000]
   |<r_e - r_h>| [Ang]:                  1.039592
   Hole size [Ang]:                      0.166019
     Cartesian components [Ang]:       [  0.096329,   0.095768,   0.095454]
   Electron size [Ang]:                  2.934277
     Cartesian components [Ang]:       [  1.627763,   1.812971,   1.635086]
   RMS electron-hole separation [Ang]:   3.117387
     Cartesian components [Ang]:       [  1.839886,   1.910575,   1.637872]
   Covariance(r_h, r_e) [Ang^2]:         0.000097
   Correlation coefficient:              0.000199
   Center-of-mass size [Ang]:            1.469502
     Cartesian components [Ang]:       [  0.815327,   0.907757,   0.818934]

 ------------------------------------------------------------------------------
 State A: ccsd: 0/A'
 State B: cvs_eomee_ccsd/rhfref/singlets: 2/A'
 Transition dipole moment (a.u.):
   A->B: 0.041786 (X -0.009549, Y 0.040680, Z 0.000000)
   B->A: 0.040733 (X -0.008884, Y 0.039753, Z 0.000000)
 Oscillator strength (a.u.): 0.012026
 Norm of one-particle transition density matrix:
   A->B: 0.905575;   B->A: 0.873961
   ||gamma^AB||*||gamma^BA||: 0.791437

State analysis of transition OPDM (A->B) using libwa module will be excecuted
 NTOs
   Leading SVs and ENEs:
        0.8200   0.0000   0.0000   0.0000   0.0000   0.0000   0.0000   0.0000
 E(h) -11.2367 -11.3289  -0.2314  -0.0966  -0.3973  -0.1829  -0.3955  -0.4206
 E(e)   0.1233   0.4160  -0.1243   0.2427  -0.2060  -0.3775  -0.1082  -0.4108
 
   Sum of SVs (Omega):               0.820066
   Participation ratio (PR_NTO):     1.000063
   Entanglement entropy (S_HE):      0.235117
   Nr of entangled states (Z_HE):    1.177002
   Renormalized S_HE/Z_HE:  0.000517 /  1.000358
 
 Atomic CT numbers
   omega =     0.8201
 
 Exciton analysis of the transition density matrix
   <r_h> [Ang]:                        [  1.179156,   0.199618,  -0.000000]
   <r_e> [Ang]:                        [  1.165063,   0.863269,  -0.000000]
   |<r_e - r_h>| [Ang]:                  0.663801
   Hole size [Ang]:                      0.166344
     Cartesian components [Ang]:       [  0.096760,   0.095897,   0.095454]
   Electron size [Ang]:                  3.155732
     Cartesian components [Ang]:       [  1.469722,   2.456180,   1.328814]
   RMS electron-hole separation [Ang]:   3.229000
     Cartesian components [Ang]:       [  1.472880,   2.546019,   1.332238]
   Covariance(r_h, r_e) [Ang^2]:         0.000254
   Correlation coefficient:              0.000483
   Center-of-mass size [Ang]:            1.580097
     Cartesian components [Ang]:       [  0.736498,   1.229050,   0.666119]

 ------------------------------------------------------------------------------
 State A: ccsd: 0/A'
 State B: cvs_eomee_ccsd/rhfref/singlets: 3/A'
 Transition dipole moment (a.u.):
   A->B: 0.022657 (X -0.017934, Y 0.013847, Z 0.000000)
   B->A: 0.022149 (X -0.017221, Y 0.013929, Z 0.000000)
 Oscillator strength (a.u.): 0.003553
 Norm of one-particle transition density matrix:
   A->B: 0.902148;   B->A: 0.865486
   ||gamma^AB||*||gamma^BA||: 0.780796

State analysis of transition OPDM (A->B) using libwa module will be excecuted
 NTOs
   Leading SVs and ENEs:
        0.8139   0.0000   0.0000   0.0000   0.0000   0.0000   0.0000   0.0000
 E(h) -11.2367 -11.3290  -0.2314  -0.0966  -0.4036  -0.4500  -0.1829  -0.4777
 E(e)   0.0863   0.2236  -0.1243   0.2427  -0.1937  -0.0768  -0.3775  -0.4036
 
   Sum of SVs (Omega):               0.813870
   Participation ratio (PR_NTO):     1.000028
   Entanglement entropy (S_HE):      0.242026
   Nr of entangled states (Z_HE):    1.182652
   Renormalized S_HE/Z_HE:  0.000247 /  1.000172
 
 Atomic CT numbers
   omega =     0.8139
 
 Exciton analysis of the transition density matrix
   <r_h> [Ang]:                        [  1.179165,   0.199624,  -0.000000]
   <r_e> [Ang]:                        [  0.272803,  -0.155060,   0.000000]
   |<r_e - r_h>| [Ang]:                  0.973290
   Hole size [Ang]:                      0.166302
     Cartesian components [Ang]:       [  0.096704,   0.095880,   0.095454]
   Electron size [Ang]:                  3.889212
     Cartesian components [Ang]:       [  2.692716,   2.098779,   1.862895]
   RMS electron-hole separation [Ang]:   4.012554
     Cartesian components [Ang]:       [  2.842756,   2.130690,   1.865339]
   Covariance(r_h, r_e) [Ang^2]:         0.000167
   Correlation coefficient:              0.000259
   Center-of-mass size [Ang]:            1.946405
     Cartesian components [Ang]:       [  1.347255,   1.050487,   0.932670]

 ------------------------------------------------------------------------------
 State A: ccsd: 0/A'
 State B: cvs_eomee_ccsd/rhfref/singlets: 4/A'
 Transition dipole moment (a.u.):
   A->B: 0.023131 (X 0.003382, Y 0.022882, Z 0.000000)
   B->A: 0.023141 (X 0.002640, Y 0.022990, Z 0.000000)
 Oscillator strength (a.u.): 0.003793
 Norm of one-particle transition density matrix:
   A->B: 0.898820;   B->A: 0.866659
   ||gamma^AB||*||gamma^BA||: 0.778970

State analysis of transition OPDM (A->B) using libwa module will be excecuted
 NTOs
   Leading SVs and ENEs:
        0.8078   0.0000   0.0000   0.0000   0.0000   0.0000   0.0000   0.0000
 E(h) -11.2367 -11.3290  -0.2314  -0.0966  -0.6642  -0.4334  -0.1829  -0.5800
 E(e)   0.1688   0.4242  -0.1243   0.2427  -0.1462  -0.1041  -0.3775  -0.3650
 
   Sum of SVs (Omega):               0.807877
   Participation ratio (PR_NTO):     1.000116
   Entanglement entropy (S_HE):      0.249384
   Nr of entangled states (Z_HE):    1.188699
   Renormalized S_HE/Z_HE:  0.000897 /  1.000622
 
 Atomic CT numbers
   omega =     0.8079
 
 Exciton analysis of the transition density matrix
   <r_h> [Ang]:                        [  1.178964,   0.199514,  -0.000000]
   <r_e> [Ang]:                        [  0.670272,  -0.860571,  -0.000000]
   |<r_e - r_h>| [Ang]:                  1.175817
   Hole size [Ang]:                      0.167216
     Cartesian components [Ang]:       [  0.097911,   0.096245,   0.095454]
   Electron size [Ang]:                  2.940317
     Cartesian components [Ang]:       [  1.845267,   1.939123,   1.216659]
   RMS electron-hole separation [Ang]:   3.171053
     Cartesian components [Ang]:       [  1.916458,   2.212103,   1.220397]
   Covariance(r_h, r_e) [Ang^2]:         0.000197
   Correlation coefficient:              0.000401
   Center-of-mass size [Ang]:            1.472568
     Cartesian components [Ang]:       [  0.924007,   0.970734,   0.610199]

 ------------------------------------------------------------------------------
 State A: ccsd: 0/A'
 State B: cvs_eomee_ccsd/rhfref/singlets: 5/A'
 Transition dipole moment (a.u.):
   A->B: 0.005579 (X 0.000338, Y -0.005569, Z 0.000000)
   B->A: 0.005712 (X 0.000489, Y -0.005691, Z 0.000000)
 Oscillator strength (a.u.): 0.000226
 Norm of one-particle transition density matrix:
   A->B: 0.902507;   B->A: 0.865165
   ||gamma^AB||*||gamma^BA||: 0.780817

State analysis of transition OPDM (A->B) using libwa module will be excecuted
 NTOs
   Leading SVs and ENEs:
        0.8136   0.0009   0.0000   0.0000   0.0000   0.0000   0.0000   0.0000
 E(h) -11.2367 -11.3290  -0.2314  -0.0966  -0.4366  -0.1829  -0.4192  -0.3683
 E(e)   0.1189   0.1187  -0.1243   0.2427  -0.0829  -0.3775  -0.3697  -0.2213
 
   Sum of SVs (Omega):               0.814519
   Participation ratio (PR_NTO):     1.002222
   Entanglement entropy (S_HE):      0.251256
   Nr of entangled states (Z_HE):    1.190243
   Renormalized S_HE/Z_HE:  0.012492 /  1.008696
 
 Atomic CT numbers
   omega =     0.8145
 
 Exciton analysis of the transition density matrix
   <r_h> [Ang]:                        [  1.178015,   0.198996,  -0.000000]
   <r_e> [Ang]:                        [  0.874494,  -0.488464,   0.000000]
   |<r_e - r_h>| [Ang]:                  0.751482
   Hole size [Ang]:                      0.171434
     Cartesian components [Ang]:       [  0.103377,   0.097935,   0.095455]
   Electron size [Ang]:                  3.911953
     Cartesian components [Ang]:       [  2.437270,   2.646666,   1.535659]
   RMS electron-hole separation [Ang]:   3.986993
     Cartesian components [Ang]:       [  2.458152,   2.736100,   1.538623]
   Covariance(r_h, r_e) [Ang^2]:         0.000691
   Correlation coefficient:              0.001031
   Center-of-mass size [Ang]:            1.957942
     Cartesian components [Ang]:       [  1.219791,   1.324314,   0.769311]

 ------------------------------------------------------------------------------
 State A: ccsd: 0/A'
 State B: cvs_eomee_ccsd/rhfref/singlets: 1/A"
 Transition dipole moment (a.u.):
   A->B: 0.080060 (X 0.000000, Y 0.000000, Z 0.080060)
   B->A: 0.081737 (X 0.000000, Y 0.000000, Z 0.081737)
 Oscillator strength (a.u.): 0.045762
 Norm of one-particle transition density matrix:
   A->B: 0.888391;   B->A: 0.890987
   ||gamma^AB||*||gamma^BA||: 0.791545

State analysis of transition OPDM (A->B) using libwa module will be excecuted
 NTOs
   Leading SVs and ENEs:
        0.7892   0.0000   0.0000   0.0000   0.0000   0.0000   0.0000   0.0000
 E(h) -11.2367 -11.3290 -26.3105  -0.6554  -0.0298   0.3811   0.4608   0.4602
 E(e)   0.1877   0.5934   4.1137   0.2941   0.3712   0.5230   1.2674   0.9516
 
   Sum of SVs (Omega):               0.789239
   Participation ratio (PR_NTO):     1.000002
   Entanglement entropy (S_HE):      0.269516
   Nr of entangled states (Z_HE):    1.205403
   Renormalized S_HE/Z_HE:  0.000022 /  1.000015
 
 Atomic CT numbers
   omega =     0.7892
 
 Exciton analysis of the transition density matrix
   <r_h> [Ang]:                        [  1.179313,   0.199705,  -0.000000]
   <r_e> [Ang]:                        [  0.676850,  -0.094382,  -0.000000]
   |<r_e - r_h>| [Ang]:                  0.582200
   Hole size [Ang]:                      0.165623
     Cartesian components [Ang]:       [  0.095802,   0.095610,   0.095455]
   Electron size [Ang]:                  1.401847
     Cartesian components [Ang]:       [  0.910767,   0.706577,   0.797766]
   RMS electron-hole separation [Ang]:   1.526939
     Cartesian components [Ang]:       [  1.044571,   0.771280,   0.803456]
   Covariance(r_h, r_e) [Ang^2]:         0.000010
   Correlation coefficient:              0.000044
   Center-of-mass size [Ang]:            0.705802
     Cartesian components [Ang]:       [  0.457900,   0.356510,   0.401728]

 ------------------------------------------------------------------------------
 State A: ccsd: 0/A'
 State B: cvs_eomee_ccsd/rhfref/singlets: 2/A"
 Transition dipole moment (a.u.):
   A->B: 0.090786 (X 0.000000, Y 0.000000, Z -0.090786)
   B->A: 0.092033 (X 0.000000, Y 0.000000, Z -0.092033)
 Oscillator strength (a.u.): 0.058862
 Norm of one-particle transition density matrix:
   A->B: 0.891336;   B->A: 0.894593
   ||gamma^AB||*||gamma^BA||: 0.797383

State analysis of transition OPDM (A->B) using libwa module will be excecuted
 NTOs
   Leading SVs and ENEs:
        0.7944   0.0000   0.0000   0.0000   0.0000   0.0000   0.0000   0.0000
 E(h) -11.3290 -11.2367 -26.3105  -0.1699   0.0907   0.7699   0.6684   0.3042
 E(e)   0.1929   0.2897   4.2015   0.4853   0.8849   0.7103   1.2080   1.0025
 
   Sum of SVs (Omega):               0.794479
   Participation ratio (PR_NTO):     1.000080
   Entanglement entropy (S_HE):      0.264212
   Nr of entangled states (Z_HE):    1.200980
   Renormalized S_HE/Z_HE:  0.000642 /  1.000445
 
 Atomic CT numbers
   omega =     0.7945
 
 Exciton analysis of the transition density matrix
   <r_h> [Ang]:                        [  0.016190,  -0.435454,   0.000000]
   <r_e> [Ang]:                        [  0.499992,  -0.162507,  -0.000000]
   |<r_e - r_h>| [Ang]:                  0.555485
   Hole size [Ang]:                      0.165641
     Cartesian components [Ang]:       [  0.095899,   0.095597,   0.095403]
   Electron size [Ang]:                  1.393046
     Cartesian components [Ang]:       [  0.916460,   0.683200,   0.796188]
   RMS electron-hole separation [Ang]:   1.508811
     Cartesian components [Ang]:       [  1.040721,   0.741884,   0.801884]
   Covariance(r_h, r_e) [Ang^2]:         0.000033
   Correlation coefficient:              0.000144
   Center-of-mass size [Ang]:            0.701441
     Cartesian components [Ang]:       [  0.460747,   0.344931,   0.400942]

 ------------------------------------------------------------------------------
 State A: ccsd: 0/A'
 State B: cvs_eomee_ccsd/rhfref/singlets: 3/A"
 Transition dipole moment (a.u.):
   A->B: 0.030611 (X 0.000000, Y 0.000000, Z 0.030611)
   B->A: 0.030861 (X 0.000000, Y 0.000000, Z 0.030861)
 Oscillator strength (a.u.): 0.006694
 Norm of one-particle transition density matrix:
   A->B: 0.904323;   B->A: 0.869157
   ||gamma^AB||*||gamma^BA||: 0.785999

State analysis of transition OPDM (A->B) using libwa module will be excecuted
 NTOs
   Leading SVs and ENEs:
        0.8178   0.0000   0.0000   0.0000   0.0000   0.0000   0.0000   0.0000
 E(h) -11.2367 -11.3290 -26.3105  -0.8402   0.3961   0.0106   0.1051   0.0943
 E(e)   0.1125   0.1436   4.1185   0.4490  -0.0423   0.5491   0.4491   0.8887
 
   Sum of SVs (Omega):               0.817800
   Participation ratio (PR_NTO):     1.000096
   Entanglement entropy (S_HE):      0.237927
   Nr of entangled states (Z_HE):    1.179297
   Renormalized S_HE/Z_HE:  0.000755 /  1.000524
 
 Atomic CT numbers
   omega =     0.8178
 
 Exciton analysis of the transition density matrix
   <r_h> [Ang]:                        [  1.179194,   0.199640,  -0.000000]
   <r_e> [Ang]:                        [  1.131779,  -0.004141,  -0.000000]
   |<r_e - r_h>| [Ang]:                  0.209224
   Hole size [Ang]:                      0.166166
     Cartesian components [Ang]:       [  0.096524,   0.095827,   0.095455]
   Electron size [Ang]:                  3.308918
     Cartesian components [Ang]:       [  1.453281,   1.482318,   2.576751]
   RMS electron-hole separation [Ang]:   3.319648
     Cartesian components [Ang]:       [  1.457190,   1.499300,   2.578519]
   Covariance(r_h, r_e) [Ang^2]:         0.000132
   Correlation coefficient:              0.000239
   Center-of-mass size [Ang]:            1.656564
     Cartesian components [Ang]:       [  0.728274,   0.742719,   1.289259]

 ------------------------------------------------------------------------------
 State A: ccsd: 0/A'
 State B: cvs_eomee_ccsd/rhfref/singlets: 4/A"
 Transition dipole moment (a.u.):
   A->B: 0.022896 (X 0.000000, Y 0.000000, Z 0.022896)
   B->A: 0.022063 (X 0.000000, Y 0.000000, Z 0.022063)
 Oscillator strength (a.u.): 0.003597
 Norm of one-particle transition density matrix:
   A->B: 0.902417;   B->A: 0.864050
   ||gamma^AB||*||gamma^BA||: 0.779733

State analysis of transition OPDM (A->B) using libwa module will be excecuted
 NTOs
   Leading SVs and ENEs:
        0.8143   0.0000   0.0000   0.0000   0.0000   0.0000   0.0000   0.0000
 E(h) -11.2367 -11.3290 -26.3105  -0.5750  -0.0759  -0.4977   0.5903   0.3828
 E(e)   0.1319   0.1456   3.9612  -0.2281   0.4579   0.4553   1.0182   0.4633
 
   Sum of SVs (Omega):               0.814356
   Participation ratio (PR_NTO):     1.000026
   Entanglement entropy (S_HE):      0.241454
   Nr of entangled states (Z_HE):    1.182183
   Renormalized S_HE/Z_HE:  0.000228 /  1.000158
 
 Atomic CT numbers
   omega =     0.8144
 
 Exciton analysis of the transition density matrix
   <r_h> [Ang]:                        [  1.179178,   0.199631,  -0.000000]
   <r_e> [Ang]:                        [  0.303315,  -0.423779,  -0.000000]
   |<r_e - r_h>| [Ang]:                  1.075071
   Hole size [Ang]:                      0.166242
     Cartesian components [Ang]:       [  0.096625,   0.095857,   0.095454]
   Electron size [Ang]:                  3.954386
     Cartesian components [Ang]:       [  2.264197,   1.862402,   2.653684]
   RMS electron-hole separation [Ang]:   4.101254
     Cartesian components [Ang]:       [  2.429578,   1.966288,   2.655400]
   Covariance(r_h, r_e) [Ang^2]:         0.000148
   Correlation coefficient:              0.000225
   Center-of-mass size [Ang]:            1.978958
     Cartesian components [Ang]:       [  1.133152,   0.932445,   1.327700]

 ------------------------------------------------------------------------------
 State A: ccsd: 0/A'
 State B: cvs_eomee_ccsd/rhfref/singlets: 5/A"
 Transition dipole moment (a.u.):
   A->B: 0.019652 (X 0.000000, Y 0.000000, Z 0.019652)
   B->A: 0.020071 (X 0.000000, Y 0.000000, Z 0.020071)
 Oscillator strength (a.u.): 0.002820
 Norm of one-particle transition density matrix:
   A->B: 0.899943;   B->A: 0.863917
   ||gamma^AB||*||gamma^BA||: 0.777476

State analysis of transition OPDM (A->B) using libwa module will be excecuted
 NTOs
   Leading SVs and ENEs:
        0.8099   0.0000   0.0000   0.0000   0.0000   0.0000   0.0000   0.0000
 E(h) -11.3290 -11.2367 -26.3105  -0.8059   0.9710  -0.1421   0.3172   0.2807
 E(e)   0.1087   0.1942   4.0527  -0.1724   0.8050   0.5664   0.5189   1.2148
 
   Sum of SVs (Omega):               0.809897
   Participation ratio (PR_NTO):     1.000063
   Entanglement entropy (S_HE):      0.246781
   Nr of entangled states (Z_HE):    1.186556
   Renormalized S_HE/Z_HE:  0.000517 /  1.000358
 
 Atomic CT numbers
   omega =     0.8099
 
 Exciton analysis of the transition density matrix
   <r_h> [Ang]:                        [  0.016326,  -0.435380,   0.000000]
   <r_e> [Ang]:                        [  0.190564,  -0.669801,  -0.000000]
   |<r_e - r_h>| [Ang]:                  0.292083
   Hole size [Ang]:                      0.166254
     Cartesian components [Ang]:       [  0.096711,   0.095841,   0.095404]
   Electron size [Ang]:                  3.309709
     Cartesian components [Ang]:       [  1.436829,   1.447499,   2.606615]
   RMS electron-hole separation [Ang]:   3.326770
     Cartesian components [Ang]:       [  1.450685,   1.469478,   2.608360]
   Covariance(r_h, r_e) [Ang^2]:        -0.000134
   Correlation coefficient:             -0.000243
   Center-of-mass size [Ang]:            1.656921
     Cartesian components [Ang]:       [  0.719989,   0.725339,   1.304180]


 All requested transition properties have been computed

 Transition Properties:   CPU 27.03 s  wall 61.84 s

 Total ccman2 time:   CPU 6499.04 s  wall 15427.59 s

 
 --------------------------------------------------------------
             Orbital Energies (a.u.) and Symmetries
 --------------------------------------------------------------
 
 Alpha MOs, Restricted
 -- Occupied --                  
-26.311 -11.329 -11.237  -1.627  -1.052  -0.838  -0.739  -0.691
  1 A'    2 A'    3 A'    4 A'    5 A'    6 A'    7 A'    1 A"                 
 -0.684  -0.589  -0.560  -0.385
  8 A'    9 A'   10 A'    2 A"                                                 
 -- Virtual --                   
  0.030   0.039   0.046   0.090   0.090   0.095   0.103   0.128
 11 A'   12 A'   13 A'    3 A"   14 A'    4 A"   15 A'   16 A'                 
  0.139   0.154   0.170   0.182   0.193   0.230   0.233   0.251
 17 A'   18 A'    5 A"   19 A'   20 A'    6 A"   21 A'   22 A'                 
  0.267   0.276   0.293   0.299   0.300   0.333   0.360   0.371
 23 A'    7 A"   24 A'    8 A"   25 A'   26 A'   27 A'    9 A"                 
  0.379   0.385   0.396   0.398   0.410   0.428   0.441   0.448
 28 A'   29 A'   10 A"   30 A'   31 A'   32 A'   11 A"   12 A"                 
  0.463   0.484   0.492   0.518   0.569   0.580   0.610   0.619
 33 A'   34 A'   35 A'   36 A'   13 A"   37 A'   14 A"   38 A'                 
  0.638   0.719   0.733   0.758   0.807   0.836   0.850   0.858
 39 A'   40 A'   15 A"   41 A'   42 A'   43 A'   16 A"   44 A'                 
  0.893   0.896   0.902   0.916   0.930   0.943   0.952   0.955
 45 A'   46 A'   17 A"   47 A'   48 A'   18 A"   49 A'   19 A"                 
  0.979   0.986   0.996   1.027   1.055   1.057   1.076   1.086
 20 A"   50 A'   51 A'   52 A'   53 A'   21 A"   22 A"   54 A'                 
  1.095   1.118   1.119   1.132   1.145   1.179   1.227   1.270
 23 A"   55 A'   24 A"   56 A'   25 A"   57 A'   58 A'   59 A'                 
  1.295   1.314   1.322   1.374   1.435   1.437   1.464   1.508
 60 A'   26 A"   61 A'   27 A"   28 A"   62 A'   63 A'   64 A'                 
  1.547   1.560   1.596   1.600   1.627   1.686   1.726   1.733
 29 A"   65 A'   66 A'   30 A"   31 A"   67 A'   68 A'   69 A'                 
  1.742   1.760   1.790   1.838   1.855   1.903   1.914   1.972
 32 A"   70 A'   33 A"   71 A'   72 A'   73 A'   34 A"   74 A'                 
  2.015   2.020   2.049   2.084   2.121   2.242   2.280   2.282
 35 A"   75 A'   76 A'   36 A"   77 A'   78 A'   37 A"   79 A'                 
  2.413   2.441   2.654   2.766   2.776   2.939   2.980   2.986
 80 A'   81 A'   82 A'   83 A'   38 A"   39 A"   40 A"   84 A'                 
  3.057   3.061   3.077   3.097   3.161   3.197   3.213   3.244
 41 A"   85 A'   86 A'   87 A'   88 A'   42 A"   89 A'   90 A'                 
  3.273   3.315   3.359   3.377   3.426   3.435   3.516   3.528
 43 A"   91 A'   44 A"   45 A"   92 A'   46 A"   47 A"   93 A'                 
  3.546   3.571   3.616   3.657   3.660   3.711   3.748   3.749
 94 A'   48 A"   95 A'   49 A"   96 A'   97 A'   50 A"   98 A'                 
  3.767   3.808   3.825   3.915   3.990   4.066   4.067   4.146
 51 A"   99 A'  100 A'  101 A'  102 A'   52 A"  103 A'  104 A'                 
  4.187   4.234   4.252   4.316   4.344   4.404   4.460   4.516
105 A'  106 A'   53 A"   54 A"  107 A'  108 A'   55 A"  109 A'                 
  4.581   4.639   4.690   4.787   4.787   4.873   4.909   4.961
 56 A"  110 A'   57 A"  111 A'  112 A'   58 A"  113 A'   59 A"                 
  4.992   5.012   5.121   5.123   5.242   5.296   5.344   5.380
 60 A"  114 A'  115 A'   61 A"  116 A'  117 A'   62 A"  118 A'                 
  5.478   5.494   5.636   5.641   5.703   5.852   6.116   6.292
119 A'   63 A"  120 A'   64 A"  121 A'  122 A'  123 A'  124 A'                 
  6.565   6.693   6.893   7.311   8.914   8.941   9.170   9.201
125 A'  126 A'  127 A'  128 A'   65 A"  129 A'   66 A"  130 A'                 
  9.323   9.372   9.403   9.485   9.495   9.634   9.871   9.890
 67 A"  131 A'   68 A"  132 A'  133 A'   69 A"  134 A'  135 A'                 
 14.746  17.068  17.328
136 A'  137 A'  138 A'                                                         
 
 Beta MOs, Restricted
 -- Occupied --                  
-26.311 -11.329 -11.237  -1.627  -1.052  -0.838  -0.739  -0.691
  1 A'    2 A'    3 A'    4 A'    5 A'    6 A'    7 A'    1 A"                 
 -0.684  -0.589  -0.560  -0.385
  8 A'    9 A'   10 A'    2 A"                                                 
 -- Virtual --                   
  0.030   0.039   0.046   0.090   0.090   0.095   0.103   0.128
 11 A'   12 A'   13 A'    3 A"   14 A'    4 A"   15 A'   16 A'                 
  0.139   0.154   0.170   0.182   0.193   0.230   0.233   0.251
 17 A'   18 A'    5 A"   19 A'   20 A'    6 A"   21 A'   22 A'                 
  0.267   0.276   0.293   0.299   0.300   0.333   0.360   0.371
 23 A'    7 A"   24 A'    8 A"   25 A'   26 A'   27 A'    9 A"                 
  0.379   0.385   0.396   0.398   0.410   0.428   0.441   0.448
 28 A'   29 A'   10 A"   30 A'   31 A'   32 A'   11 A"   12 A"                 
  0.463   0.484   0.492   0.518   0.569   0.580   0.610   0.619
 33 A'   34 A'   35 A'   36 A'   13 A"   37 A'   14 A"   38 A'                 
  0.638   0.719   0.733   0.758   0.807   0.836   0.850   0.858
 39 A'   40 A'   15 A"   41 A'   42 A'   43 A'   16 A"   44 A'                 
  0.893   0.896   0.902   0.916   0.930   0.943   0.952   0.955
 45 A'   46 A'   17 A"   47 A'   48 A'   18 A"   49 A'   19 A"                 
  0.979   0.986   0.996   1.027   1.055   1.057   1.076   1.086
 20 A"   50 A'   51 A'   52 A'   53 A'   21 A"   22 A"   54 A'                 
  1.095   1.118   1.119   1.132   1.145   1.179   1.227   1.270
 23 A"   55 A'   24 A"   56 A'   25 A"   57 A'   58 A'   59 A'                 
  1.295   1.314   1.322   1.374   1.435   1.437   1.464   1.508
 60 A'   26 A"   61 A'   27 A"   28 A"   62 A'   63 A'   64 A'                 
  1.547   1.560   1.596   1.600   1.627   1.686   1.726   1.733
 29 A"   65 A'   66 A'   30 A"   31 A"   67 A'   68 A'   69 A'                 
  1.742   1.760   1.790   1.838   1.855   1.903   1.914   1.972
 32 A"   70 A'   33 A"   71 A'   72 A'   73 A'   34 A"   74 A'                 
  2.015   2.020   2.049   2.084   2.121   2.242   2.280   2.282
 35 A"   75 A'   76 A'   36 A"   77 A'   78 A'   37 A"   79 A'                 
  2.413   2.441   2.654   2.766   2.776   2.939   2.980   2.986
 80 A'   81 A'   82 A'   83 A'   38 A"   39 A"   40 A"   84 A'                 
  3.057   3.061   3.077   3.097   3.161   3.197   3.213   3.244
 41 A"   85 A'   86 A'   87 A'   88 A'   42 A"   89 A'   90 A'                 
  3.273   3.315   3.359   3.377   3.426   3.435   3.516   3.528
 43 A"   91 A'   44 A"   45 A"   92 A'   46 A"   47 A"   93 A'                 
  3.546   3.571   3.616   3.657   3.660   3.711   3.748   3.749
 94 A'   48 A"   95 A'   49 A"   96 A'   97 A'   50 A"   98 A'                 
  3.767   3.808   3.825   3.915   3.990   4.066   4.067   4.146
 51 A"   99 A'  100 A'  101 A'  102 A'   52 A"  103 A'  104 A'                 
  4.187   4.234   4.252   4.316   4.344   4.404   4.460   4.516
105 A'  106 A'   53 A"   54 A"  107 A'  108 A'   55 A"  109 A'                 
  4.581   4.639   4.690   4.787   4.787   4.873   4.909   4.961
 56 A"  110 A'   57 A"  111 A'  112 A'   58 A"  113 A'   59 A"                 
  4.992   5.012   5.121   5.123   5.242   5.296   5.344   5.380
 60 A"  114 A'  115 A'   61 A"  116 A'  117 A'   62 A"  118 A'                 
  5.478   5.494   5.636   5.641   5.703   5.852   6.116   6.292
119 A'   63 A"  120 A'   64 A"  121 A'  122 A'  123 A'  124 A'                 
  6.565   6.693   6.893   7.311   8.914   8.941   9.170   9.201
125 A'  126 A'  127 A'  128 A'   65 A"  129 A'   66 A"  130 A'                 
  9.323   9.372   9.403   9.485   9.495   9.634   9.871   9.890
 67 A"  131 A'   68 A"  132 A'  133 A'   69 A"  134 A'  135 A'                 
 14.746  17.068  17.328
136 A'  137 A'  138 A'                                                         
 --------------------------------------------------------------
 
          Ground-State Mulliken Net Atomic Charges

     Atom                 Charge (a.u.)
  ----------------------------------------
      1 C                    -1.034089
      2 F                    -0.400006
      3 C                    -0.184387
      4 H                     0.733406
      5 H                     0.466920
      6 H                     0.418156
  ----------------------------------------
  Sum of atomic charges =     0.000000

 -----------------------------------------------------------------
                    Cartesian Multipole Moments
 -----------------------------------------------------------------
    Charge (ESU x 10^10)
                 0.0000
    Dipole Moment (Debye)
         X       1.3467      Y      -0.8360      Z       0.0000
       Tot       1.5851
    Quadrupole Moments (Debye-Ang)
        XX     -17.8344     XY       0.9542     YY     -15.3428
        XZ       0.0000     YZ      -0.0000     ZZ     -19.3724
    Octopole Moments (Debye-Ang^2)
       XXX      -3.8660    XXY      -0.1821    XYY      -2.3132
       YYY       0.5588    XXZ       0.0000    XYZ      -0.0000
       YYZ       0.0000    XZZ      -5.0470    YZZ       0.7889
       ZZZ       0.0000
    Hexadecapole Moments (Debye-Ang^3)
      XXXX    -118.3746   XXXY      -3.8680   XXYY     -26.0777
      XYYY       0.5939   YYYY     -34.6755   XXXZ       0.0000
      XXYZ      -0.0000   XYYZ      -0.0000   YYYZ       0.0000
      XXZZ     -26.1620   XYZZ      -0.3717   YYZZ     -10.9451
      XZZZ       0.0000   YZZZ      -0.0000   ZZZZ     -21.2159
 -----------------------------------------------------------------
Archival summary:
1\1\n-62-24-6\SP\ProcedureUnspecified\BasisUnspecified\123\malop\SunJun1716:32:112018SunJun1716:32:112018\0\\#,ProcedureUnspecified,BasisUnspecified,\\0,1\C\H,1,1.08083\C,1,1.32523,2,125.835\H,3,1.07898,1,118.942,2,-0,0\H,3,1.08006,1,121.377,2,-180,0\F,1,1.34281,2,112.267,3,180,0\\HF=-176.956311\\@

 Total job time:  15515.97s(wall), 6585.79s(cpu) 
 Sun Jun 17 16:32:11 2018

======= MOLDEN-FORMATTED INPUT FILE FOLLOWS =======
[Molden Format]
[Atoms] (Angs)
  C      1    6      1.17935012      0.19972949     -0.00000000
  F      2    9     -1.15290231      0.22477664     -0.00000000
  C      3    6      0.01631886     -0.43556811      0.00000000
  H      4    1     -0.11895302     -1.50789969      0.00000000
  H      5    1      1.23082549      1.27856114     -0.00000000
  H      6    1      2.09023450     -0.37861944      0.00000000

======= END OF MOLDEN-FORMATTED INPUT FILE =======


        *************************************************************
        *                                                           *
        *  Thank you very much for using Q-Chem.  Have a nice day.  *
        *                                                           *
        *************************************************************


