n-62-23-23 10.66.23
Q-Chem Developer Version! Running on 10.66.23.*
                  Welcome to Q-Chem
     A Quantum Leap Into The Future Of Chemistry


 Q-Chem 5.1, Q-Chem, Inc., Pleasanton, CA (2018)

 Yihan Shao,  Zhengting Gan,  E. Epifanovsky,  A. T. B. Gilbert,  M. Wormit,  
 J. Kussmann,  A. W. Lange,  A. Behn,  Jia Deng,  Xintian Feng,  D. Ghosh,  
 M. Goldey,  P. R. Horn,  L. D. Jacobson,  I. Kaliman,  T. Kus,  A. Landau,  
 Jie Liu,  E. I. Proynov,  R. M. Richard,  R. P. Steele,  E. J. Sundstrom,  
 H. L. Woodcock III,  P. M. Zimmerman,  D. Zuev,  B. Albrecht,  E. Alguire,  
 S. A. Baeppler,  D. Barton,  Z. Benda,  Y. A. Bernard,  E. J. Berquist,  
 K. B. Bravaya,  H. Burton,  D. Casanova,  Chun-Min Chang,  Yunqing Chen,  
 A. Chien,  K. D. Closser,  M. P. Coons,  S. Coriani,  S. Dasgupta,  
 A. L. Dempwolff,  M. Diedenhofen,  Hainam Do,  R. G. Edgar,  Po-Tung Fang,  
 S. Faraji,  S. Fatehi,  Qingguo Feng,  K. D. Fenk,  J. Fosso-Tande,  
 Qinghui Ge,  A. Ghysels,  G. Gidofalvi,  J. Gomes,  J. Gonthier,  A. Gunina,  
 M. W. D. Hanson-Heine,  P. H. P. Harbach,  A. W. Hauser,  J. E. Herr,  
 E. G. Hohenstein,  Z. C. Holden,  Kerwin Hui,  T.-C. Jagau,  Hyunjun Ji,  
 B. Kaduk,  K. Khistyaev,  Jaehoon Kim,  P. Klunzinger,  K. Koh,  
 D. Kosenkov,  L. Koulias,  T. Kowalczyk,  C. M. Krauter,  A. Kunitsa,  
 Ka Un Lao,  A. Laurent,  K. V. Lawler,  Joonho Lee,  D. Lefrancois,  
 S. Lehtola,  D. S. Levine,  Yi-Pei Li,  You-Sheng Lin,  Fenglai Liu,  
 E. Livshits,  A. Luenser,  P. Manohar,  E. Mansoor,  S. F. Manzer,  
 Shan-Ping Mao,  Yuezhi Mao,  N. Mardirossian,  A. V. Marenich,  
 T. Markovich,  L. A. Martinez-Martinez,  S. A. Maurer,  N. J. Mayhall,  
 S. C. McKenzie,  J.-M. Mewes,  A. F. Morrison,  J. W. Mullinax,  K. Nanda,  
 T. S. Nguyen-Beck,  R. Olivares-Amaya,  J. A. Parkhill,  T. M. Perrine,  
 F. Plasser,  P. Pokhilko,  S. Prager,  A. Prociuk,  E. Ramos,  D. R. Rehn,  
 F. Rob,  M. Schneider,  N. Sergueev,  S. M. Sharada,  S. Sharma,  
 D. W. Small,  T. Stauch,  T. Stein,  Yu-Chuan Su,  A. J. W. Thom,  
 A. Tkatchenko,  T. Tsuchimochi,  N. M. Tubman,  L. Vogt,  M. L. Vidal,  
 O. Vydrov,  M. A. Watson,  J. Wenzel,  M. de Wergifosse,  T. A. Wesolowski,  
 A. White,  J. Witte,  A. Yamada,  Jun Yang,  K. Yao,  S. Yeganeh,  
 S. R. Yost,  Zhi-Qiang You,  A. Zech,  Igor Ying Zhang,  Xing Zhang,  
 Yan Zhao,  Ying Zhu,  B. R. Brooks,  G. K. L. Chan,  C. J. Cramer,  
 M. S. Gordon,  W. J. Hehre,  A. Klamt,  M. W. Schmidt,  C. D. Sherrill,  
 D. G. Truhlar,  A. Aspuru-Guzik,  R. Baer,  A. T. Bell,  N. A. Besley,  
 Jeng-Da Chai,  R. A. DiStasio Jr.,  A. Dreuw,  B. D. Dunietz,  
 T. R. Furlani,  Chao-Ping Hsu,  Yousung Jung,  Jing Kong,  D. S. Lambrecht,  
 WanZhen Liang,  C. Ochsenfeld,  V. A. Rassolov,  L. V. Slipchenko,  
 J. E. Subotnik,  T. Van Voorhis,  J. M. Herbert,  A. I. Krylov,  
 P. M. W. Gill,  M. Head-Gordon

 Contributors to earlier versions of Q-Chem not listed above: 
 R. D. Adamson,  B. Austin,  J. Baker,  G. J. O. Beran,  K. Brandhorst,  
 S. T. Brown,  E. F. C. Byrd,  A. K. Chakraborty,  C.-L. Cheng,  
 Siu Hung Chien,  D. M. Chipman,  D. L. Crittenden,  H. Dachsel,  
 R. J. Doerksen,  A. D. Dutoi,  L. Fusti-Molnar,  W. A. Goddard III,  
 A. Golubeva-Zadorozhnaya,  S. R. Gwaltney,  G. Hawkins,  A. Heyden,  
 S. Hirata,  G. Kedziora,  F. J. Keil,  C. Kelley,  Jihan Kim,  R. A. King,  
 R. Z. Khaliullin,  P. P. Korambath,  W. Kurlancheek,  A. M. Lee,  M. S. Lee,  
 S. V. Levchenko,  Ching Yeh Lin,  D. Liotard,  R. C. Lochan,  I. Lotan,  
 P. E. Maslen,  N. Nair,  D. P. O'Neill,  D. Neuhauser,  E. Neuscamman,  
 C. M. Oana,  R. Olson,  B. Peters,  R. Peverati,  P. A. Pieniazek,  
 Y. M. Rhee,  J. Ritchie,  M. A. Rohrdanz,  E. Rosta,  N. J. Russ,  
 H. F. Schaefer III,  N. E. Schultz,  N. Shenvi,  A. C. Simmonett,  A. Sodt,  
 D. Stuck,  K. S. Thanthiriwatte,  V. Vanovschi,  Tao Wang,  A. Warshel,  
 C. F. Williams,  Q. Wu,  X. Xu,  W. Zhang

 Please cite Q-Chem as follows:
 Y. Shao et al., Mol. Phys. 113, 184-215 (2015)
 DOI: 10.1080/00268976.2014.952696

 Q-Chem 5.1.0 for Intel X86 EM64T Linux

 Parts of Q-Chem use Armadillo 8.300.2 (Tropical Shenanigans).
 http://arma.sourceforge.net/

 Q-Chem begins on Mon Aug 13 19:01:38 2018  

Host: 
0

     Scratch files written to /work1/malop/qc_7112784.hnode2//

Checking the input file for inconsistencies... 	...done.

--------------------------------------------------------------
User input:
--------------------------------------------------------------
$comment 
NEXAFS VINYLFLUORIDE / 6-311++G**
Optimized geometry with CFour
$end

$molecule
0 1
F      -1.1529023119     0.2247766372     0.0000000000
C1      1.1793501171     0.1997294858     0.0000000000
C2      0.0163188564    -0.4355681094     0.0000000000
H      -0.1189530186    -1.5078996853     0.0000000000
H       1.2308254859     1.2785611362     0.0000000000
H       2.0902344982    -0.3786194440     0.0000000000
$end

$rem
!    input_bohr = true
    jobtype = sp
    method = eom-ccsd
    cvs_ee_singlets    [20,13]
    basis = 6-311++G**
    n_frozen_core = 1
    cc_trans_prop = true
   EOM_DAVIDSON_MAXVECTORS = 1000
   eom_preconv_singles = true
!   eom_shift = 10470
   eom_davidson_convergence = 4   !as we discussed, this is good for core
   use_libqints = 1   !use new int library (will be def in trunk)
   thresh = 14   !this already should be default, but just in case
   scf_convergence = 13   !v. tight scf convergence, to reduce noise
   cc_convergence = 12   !tight CC, for the same reason
   basis_lin_dep_thresh = 8  !default is 6, use smaller, just in case
   cc_memory = 100000
   EOM_DAVIDSON_MAX_ITER 200
$end
--------------------------------------------------------------
 ----------------------------------------------------------------
             Standard Nuclear Orientation (Angstroms)
    I     Atom           X                Y                Z
 ----------------------------------------------------------------
    1      F       1.1529023119     0.2247766372    -0.0000000000
    2      C      -1.1793501171     0.1997294858    -0.0000000000
    3      C      -0.0163188564    -0.4355681094     0.0000000000
    4      H       0.1189530185    -1.5078996853     0.0000000000
    5      H      -1.2308254859     1.2785611362    -0.0000000000
    6      H      -2.0902344982    -0.3786194440     0.0000000000
 ----------------------------------------------------------------
 Molecular Point Group                 Cs    NOp =  2
 Largest Abelian Subgroup              Cs    NOp =  2
 Nuclear Repulsion Energy =    67.5482146698 hartrees
 There are       12 alpha and       12 beta electrons
 Requested basis set is 6-311++G(d,p)
 There are 33 shells and 87 basis functions
MEM_TOTAL is adjusted to CC_MEMORY + MEM_STATIC!
 Total memory of 100192MB is distributed as follows: 
   QALLOC including MEM_STATIC uses 192MB
   MEM_STATIC is set to 192MB
   CCMAN JOB total memory use is  100000MB
 Warning: actual memory use might exceed 100192MB

 Total QAlloc Memory Limit    192 MB
 Mega-Array Size       188 MB
 MEM_STATIC part       192 MB

                       Distance Matrix (Angstroms)
             F (  1)   C (  2)   C (  3)   H (  4)   H (  5)
   C (  2)  2.332387
   C (  3)  1.342808  1.325234
   H (  4)  2.017726  2.145131  1.080830
   H (  5)  2.606266  1.080059  2.100777  3.096170
   H (  6)  3.298791  1.078980  2.074697  2.481085  1.866770
 
 A cutoff of  1.0D-14 yielded    559 shell pairs
 There are      3934 function pairs (      4216 Cartesian)
 
 -------------------------------------------------------
 OpenMP Integral Computing Module                       
 Release: version 1.0, May 2013, Q-Chem Inc. Pittsburgh 
 -------------------------------------------------------
 Integral Job Info:
 Integral job number is                      11
 Integral operator is                         1
 short-range coefficients                     0
 long-range coefficients              100000000
 Omega coefficients                           0
 if combine SR and LR in K                    0
 Integral screening is                        0
 Integral computing path is                   2
 max size of driver memory is            800000
 size of driver memory is                593474
 size of scratch memory is              2361544
 max col of scratch BK array               1296
 max len of scratch array in speh3          155
 max len of scratch index in speh4           18
 max int batch size is                      520
 min int batch size is                       52
 fixed nKL is                                52
 max L of basis functions is                  2
 order of int derivative is                   0
 number of shells is                         33
 number of basis is                          90
 number of cartesian basis is                90
 number of contracted shell pairs           559
 number of primitive shell pairs           1601
 maxK2 (contraction) of shell pair           36
 max number of K2 of shell pair               1
 max number of CS2 of shell pair             82
 max number of PS2 of shell pair            174
 mem total for path MDJ                  511554
 -------------------------------------------------------
 Smallest overlap matrix eigenvalue = 1.26E-04

 Scale SEOQF with 1.000000e-01/1.000000e-01/1.000000e-01

 Standard Electronic Orientation quadrupole field applied
 Nucleus-field energy     =     0.0000000014 hartrees
 Guess from superposition of atomic densities
 Warning:  Energy on first SCF cycle will be non-variational
 SAD guess density has 24.000000 electrons

 -----------------------------------------------------------------------
  General SCF calculation program by
  Eric Jon Sundstrom, Paul Horn, Yuezhi Mao, Dmitri Zuev, Alec White,
  David Stuck, Shaama M.S., Shane Yost, Joonho Lee, David Small,
  Daniel Levine, Susi Lehtola, Hugh Burton, Evgeny Epifanovsky
 -----------------------------------------------------------------------
 Hartree-Fock
 A restricted SCF calculation will be
 performed using DIIS
 SCF converges when DIIS error is below 1.0e-13
 ---------------------------------------
  Cycle       Energy         DIIS error
 ---------------------------------------
    1    -177.5071171334      6.50e-02  
    2    -176.8894812042      6.89e-03  
    3    -176.9276658298      3.48e-03  
    4    -176.9358686501      7.40e-04  
    5    -176.9366096205      1.59e-04  
    6    -176.9366534677      6.88e-05  
    7    -176.9366606967      2.33e-05  
    8    -176.9366623994      7.45e-06  
    9    -176.9366625340      1.61e-06  
   10    -176.9366625393      5.78e-07  
   11    -176.9366625401      1.32e-07  
   12    -176.9366625402      2.47e-08  
   13    -176.9366625402      3.54e-09  
   14    -176.9366625402      5.67e-10  
   15    -176.9366625402      1.18e-10  
   16    -176.9366625402      2.50e-11  
   17    -176.9366625402      3.81e-12  
   18    -176.9366625402      5.95e-13  
   19    -176.9366625402      1.32e-13  
   20    -176.9366625402      4.06e-14  Convergence criterion met
 ---------------------------------------
 SCF time:   CPU 31.06s  wall 3.00s 
 SCF   energy in the final basis set =     -176.9366625402


 ------------------------------------------------------------------------------

   CCMAN2: suite of methods based on coupled cluster
           and equation of motion theories.

   Components:
   * libvmm-1.3-trunk
     by Evgeny Epifanovsky, Ilya Kaliman.
   * libtensor-2.5-trunk
     by Evgeny Epifanovsky, Michael Wormit, Dmitry Zuev, Sam Manzer, 
        Ilya Kaliman.
   * libcc-2.5-trunk
     by Evgeny Epifanovsky, Arik Landau, Tomasz Kus, Kirill Khistyaev, 
        Dmitry Zuev, Prashant Manohar, Xintian Feng, Anna Krylov, 
        Matthew Goldey, Alec White, Thomas Jagau, Kaushik Nanda, 
        Anastasia Gunina, Alexander Kunitsa, Joonho Lee.

   CCMAN original authors:
   Anna I. Krylov, C. David Sherrill, Steven R. Gwaltney,
   Edward F. C. Byrd (2000)
   Sergey V. Levchenko, Lyudmila V. Slipchenko, Tao Wang,
   Ana-Maria C. Cristian (2003)
   Piotr A. Pieniazek, C. Melania Oana, Evgeny Epifanovsky (2007)
   Prashant Manohar (2009)

 ------------------------------------------------------------------------------


 Calculation will run on 10 cores with 100000MB of RAM.

 
 Alpha MOs, Restricted
 -- Occupied --                  
-26.310 -11.332 -11.240  -1.629  -1.055  -0.840  -0.740  -0.691
  1 A'    2 A'    3 A'    4 A'    5 A'    6 A'    7 A'    1 A"                 
 -0.686  -0.591  -0.562  -0.386
  8 A'    9 A'   10 A'    2 A"                                                 
 -- Virtual --                   
  0.046   0.059   0.067   0.109   0.121   0.122   0.139   0.175
 11 A'   12 A'   13 A'    3 A"   14 A'    4 A"   15 A'   16 A'                 
  0.180   0.205   0.214   0.216   0.267   0.287   0.325   0.376
 17 A'   18 A'    5 A"   19 A'   20 A'   21 A'   22 A'    6 A"                 
  0.378   0.455   0.475   0.501   0.547   0.636   0.647   0.700
 23 A'   24 A'   25 A'   26 A'   27 A'   28 A'   29 A'   30 A'                 
  0.702   0.784   0.839   0.902   0.916   0.946   1.010   1.083
  7 A"    8 A"   31 A'   32 A'   33 A'   34 A'   35 A'   36 A'                 
  1.250   1.311   1.457   1.569   1.644   1.660   1.670   1.733
  9 A"   10 A"   11 A"   37 A'   38 A'   39 A'   12 A"   40 A'                 
  1.807   1.842   1.904   1.947   2.030   2.142   2.210   2.310
 41 A'   42 A'   13 A"   43 A'   14 A"   44 A'   45 A'   15 A"                 
  2.342   2.401   2.432   2.554   2.740   2.863   2.916   2.981
 46 A'   16 A"   47 A'   48 A'   49 A'   50 A'   51 A'   52 A'                 
  3.044   3.064   3.250   3.363   3.580   3.873   4.142   4.225
 53 A'   17 A"   18 A"   54 A'   55 A'   56 A'   57 A'   19 A"                 
  4.248   4.424   4.443   4.590   5.310   6.925   7.004   7.324
 58 A'   59 A'   20 A"   60 A'   61 A'   21 A"   62 A'   63 A'                 
 24.828  25.409  68.750
 64 A'   65 A'   66 A'                                                         
 
 Beta MOs, Restricted
 -- Occupied --                  
-26.310 -11.332 -11.240  -1.629  -1.055  -0.840  -0.740  -0.691
  1 A'    2 A'    3 A'    4 A'    5 A'    6 A'    7 A'    1 A"                 
 -0.686  -0.591  -0.562  -0.386
  8 A'    9 A'   10 A'    2 A"                                                 
 -- Virtual --                   
  0.046   0.059   0.067   0.109   0.121   0.122   0.139   0.175
 11 A'   12 A'   13 A'    3 A"   14 A'    4 A"   15 A'   16 A'                 
  0.180   0.205   0.214   0.216   0.267   0.287   0.325   0.376
 17 A'   18 A'    5 A"   19 A'   20 A'   21 A'   22 A'    6 A"                 
  0.378   0.455   0.475   0.501   0.547   0.636   0.647   0.700
 23 A'   24 A'   25 A'   26 A'   27 A'   28 A'   29 A'   30 A'                 
  0.702   0.784   0.839   0.902   0.916   0.946   1.010   1.083
  7 A"    8 A"   31 A'   32 A'   33 A'   34 A'   35 A'   36 A'                 
  1.250   1.311   1.457   1.569   1.644   1.660   1.670   1.733
  9 A"   10 A"   11 A"   37 A'   38 A'   39 A'   12 A"   40 A'                 
  1.807   1.842   1.904   1.947   2.030   2.142   2.210   2.310
 41 A'   42 A'   13 A"   43 A'   14 A"   44 A'   45 A'   15 A"                 
  2.342   2.401   2.432   2.554   2.740   2.863   2.916   2.981
 46 A'   16 A"   47 A'   48 A'   49 A'   50 A'   51 A'   52 A'                 
  3.044   3.064   3.250   3.363   3.580   3.873   4.142   4.225
 53 A'   17 A"   18 A"   54 A'   55 A'   56 A'   57 A'   19 A"                 
  4.248   4.424   4.443   4.590   5.310   6.925   7.004   7.324
 58 A'   59 A'   20 A"   60 A'   61 A'   21 A"   62 A'   63 A'                 
 24.828  25.409  68.750
 64 A'   65 A'   66 A'                                                         

 Occupation and symmetry of molecular orbitals

 Point group: Cs (2 irreducible representations).

                           A'   A"    All 
 ------------------------------------------
 All molecular orbitals:
  - Alpha                  66   21    87  
  - Beta                   66   21    87  
 ------------------------------------------
 Alpha orbitals:
  - Frozen occupied        1    0     1   
  - Active occupied        9    2     11  
  - Active virtual         56   19    75  
  - Frozen virtual         0    0     0   
 ------------------------------------------
 Beta orbitals:
  - Frozen occupied        1    0     1   
  - Active occupied        9    2     11  
  - Active virtual         56   19    75  
  - Frozen virtual         0    0     0   
 ------------------------------------------

 Import integrals:   CPU 0.00 s  wall 0.00 s

 Import integrals:   CPU 11.21 s  wall 1.43 s

 MP2 amplitudes:   CPU 0.20 s  wall 0.17 s

           CCSD T amplitudes will be solved using DIIS.

           Start     Size      MaxIter   EConv     TConv     
           3         7         100       1.00e-12  1.00e-11  
 ------------------------------------------------------------------------------
           Energy (a.u.)   Ediff      Tdiff       Comment
 ------------------------------------------------------------------------------
          -177.46267297                           
     1    -177.46992531   7.25e-03   6.20e-01     
     2    -177.48367294   1.37e-02   7.47e-02     
     3    -177.48438185   7.09e-04   2.95e-02     
     4    -177.48587863   1.50e-03   1.07e-02     Switched to DIIS steps.
     5    -177.48645975   5.81e-04   9.14e-03     
     6    -177.48647551   1.58e-05   1.54e-03     
     7    -177.48647024   5.26e-06   6.63e-04     
     8    -177.48646942   8.24e-07   1.05e-04     
     9    -177.48646957   1.46e-07   4.12e-05     
    10    -177.48646957   5.41e-09   1.05e-05     
    11    -177.48646958   9.95e-09   3.51e-06     
    12    -177.48646958   3.52e-09   1.60e-06     
    13    -177.48646958   2.99e-09   5.07e-07     
    14    -177.48646958   7.30e-10   1.61e-07     
    15    -177.48646958   8.29e-11   5.17e-08     
    16    -177.48646958   4.58e-10   2.37e-08     
    17    -177.48646958   7.93e-11   8.47e-09     
    18    -177.48646958   4.39e-11   3.78e-09     
    19    -177.48646958   2.02e-11   1.36e-09     
    20    -177.48646958   8.04e-13   5.37e-10     
    21    -177.48646958   6.21e-13   2.14e-10     
    22    -177.48646958   7.00e-13   8.57e-11     
    23    -177.48646958   2.46e-13   3.59e-11     
    24    -177.48646958   3.65e-13   1.38e-11     
    25    -177.48646958   3.50e-14   5.92e-12     
 ------------------------------------------------------------------------------
          -177.48646958                           CCSD T converged.

 SCF energy                 = -176.93666254
 MP2 energy                 = -177.46267297
 CCSD correlation energy     =   -0.54980704
 CCSD total energy           = -177.48646958

 CCSD  T1^2 = 0.0060  T2^2 = 0.1650  Leading amplitudes:

 Amplitude    Orbitals with energies
  0.0216       2 (A") A                  ->    7 (A") A                   
              -0.3861                          0.7018                     
  0.0216       2 (A") B                  ->    7 (A") B                   
              -0.3861                          0.7018                     
  0.0181       1 (A") A                  ->    3 (A") A                   
              -0.6905                          0.1085                     
  0.0181       1 (A") B                  ->    3 (A") B                   
              -0.6905                          0.1085                     

 Amplitude    Orbitals with energies
 -0.0805       2 (A") A      2 (A") B    ->    5 (A") A      5 (A") B     
              -0.3861       -0.3861            0.2142        0.2142       
  0.0805       2 (A") A      2 (A") B    ->    5 (A") B      5 (A") A     
              -0.3861       -0.3861            0.2142        0.2142       
  0.0805       2 (A") B      2 (A") A    ->    5 (A") A      5 (A") B     
              -0.3861       -0.3861            0.2142        0.2142       
 -0.0805       2 (A") B      2 (A") A    ->    5 (A") B      5 (A") A     
              -0.3861       -0.3861            0.2142        0.2142       

 Computing CCSD intermediates for later calculations
 Finished.

           CCSD Lambda amplitudes will be solved using DIIS.
           Start     Size      MaxIter   EConv     LConv     
           3         7         100       1.00e-12  1.00e-11  
 ------------------------------------------------------------------------------
            Enorm      Ldiff       Comment
 ------------------------------------------------------------------------------
     1     3.67e-02   2.32e-02     
     2     1.09e-02   4.86e-03     
     3     4.09e-03   6.90e-04     
     4     2.06e-03   6.93e-04     Switched to DIIS steps.
     5     5.08e-04   3.83e-04     
     6     2.24e-04   6.73e-05     
     7     6.00e-05   1.42e-05     
     8     2.45e-05   1.10e-06     
     9     8.86e-06   2.41e-06     
    10     3.32e-06   9.54e-07     
    11     1.24e-06   2.97e-07     
    12     3.50e-07   1.36e-07     
    13     1.34e-07   2.25e-08     
    14     4.89e-08   1.31e-08     
    15     1.75e-08   6.45e-09     
    16     8.10e-09   2.08e-09     
    17     3.29e-09   1.06e-09     
    18     1.49e-09   2.10e-10     
    19     6.01e-10   5.84e-12     
    20     2.54e-10   3.36e-11     
    21     1.17e-10   1.99e-11     
    22     4.20e-11   1.20e-11     
    23     1.64e-11   3.82e-12     
    24     6.77e-12   1.20e-12     
    25     2.29e-12   6.97e-13     
    26     9.86e-13   1.59e-13     
 ------------------------------------------------------------------------------
                                   CCSD Lambda converged.

 CCSD calculation:   CPU 151.13 s  wall 26.23 s

        Solving for CVS-EOMEE-CCSD A' singlet states.

       EOMEE-CCSD-SINGLES right amplitudes will be solved using Davidson.
        Amplitudes will be solved using standard  algorithm.
     Hard-coded thresholds: 
     LinDepThresh=1.00e-15  NormThresh=1.00e-06  ReorthogonThresh=1.00e-02

      Roots     MaxVec    MaxIter   Precond   Conv      Shift    
      20        1000      200       1         1.00e-04  0.00e+00  
 ------------------------------------------------------------------------------
      Iter ConvRoots NVecs ResNorm Current eigenvalues (eV)
 ------------------------------------------------------------------------------
      0    0      20    1.45e-02   711.5031   712.9486   713.9228   714.5601   715.6445   715.9492   716.5078   717.2368   717.7816   717.9789   718.6666   719.3009   719.8762   721.1264   721.8381   723.8066   724.7669   726.6580   727.8524   730.2254   
Rerun orthogonalization...
      1    0      40    5.56e-03   709.6003   712.3756   713.6595   714.3919   715.4425   715.7708   716.4307   717.1652   717.5820   717.8646   718.4903   718.9272   719.7360   720.7130   721.4432   723.6257   724.2905   726.3900   727.6870   730.1376   
      2    20     56    4.04e-26   709.1333*  712.3243*  713.6488*  714.3844*  715.4349*  715.7502*  716.4097*  717.1598*  717.5656*  717.8597*  718.4857*  718.9115*  719.7316*  720.6737*  721.3747*  723.6054*  724.1904*  726.3388*  727.5913*  730.0544*  

     Davidson procedure converged

        CVS-EOMEE-CCSD/MP2 right amplitudes will be solved using Davidson.
        Amplitudes will be solved using standard  algorithm.
     Hard-coded thresholds: 
     LinDepThresh=1.00e-15  NormThresh=1.00e-06  ReorthogonThresh=1.00e-02

      Roots     MaxVec    MaxIter   Precond   Conv      Shift    
      20        1000      200       1         1.00e-04  0.00e+00  
 ------------------------------------------------------------------------------
      Iter ConvRoots NVecs ResNorm Current eigenvalues (eV)
 ------------------------------------------------------------------------------
      0    0      20    5.06e+00   709.1333   712.3243   713.6488   714.3844   715.4349   715.7502   716.4097   717.1598   717.5656   717.8597   718.4857   718.9115   719.7316   720.6737   721.3747   723.6054   724.1904   726.3388   727.5913   730.0544   
      1    0      40    4.21e+00   706.2829   709.0611   710.3548   710.9941   712.0838   712.3670   713.0073   713.7608   714.1929   714.4318   715.0862   715.5824   716.2803   717.3260   718.0144   720.1482   720.7616   722.8697   724.0891   726.4966   
      2    0      60    2.09e-01   691.9426   693.1760   693.6629   694.2222   695.3661   695.7441   696.0541   696.7403   697.3235   697.4657   698.0846   698.6419   699.3980   701.0814   701.5084   702.9819   703.7000   705.6876   706.5972   708.6524   
      3    0      80    1.09e-02   691.2168   692.2907   692.7234   693.2132   694.3806   694.7462   695.1206   695.7422   696.3149   696.4789   697.0380   697.6402   698.4957   700.2350   700.6342   701.9528   702.7355   704.7720   705.5461   707.6094   
      4    0      100   1.00e-03   691.1882   692.2560   692.7087   693.1876   694.3630   694.7160   695.1072   695.7273   696.2994   696.4552   697.0147   697.6211   698.4726   700.1984   700.6053   701.9210   702.6933   704.7364   705.5149   707.5787   
      5    4      120   3.09e-04   691.1837   692.2512   692.7046*  693.1827   694.3589*  694.7113   695.1032*  695.7227*  696.2940   696.4494   697.0080   697.6130   698.4652   700.1896   700.5969   701.9062   702.6755   704.7258   705.5049   707.5665   
      6    15     136   1.02e-04   691.1825*  692.2497*  692.7043*  693.1809*  694.3587*  694.7098*  695.1030*  695.7223*  696.2912*  696.4471*  697.0048*  697.6095*  698.4620*  700.1865*  700.5933*  701.8969   702.6646   704.7182   705.4981   707.5483   
      7    19     141   5.74e-05   691.1825*  692.2496*  692.7044*  693.1809*  694.3587*  694.7098*  695.1030*  695.7223*  696.2912*  696.4471*  697.0047*  697.6096*  698.4620*  700.1865*  700.5932*  701.8963*  702.6635*  704.7169*  705.4970*  707.5402   
      8    19     142   4.45e-05   691.1824*  692.2496*  692.7044*  693.1809*  694.3587*  694.7098*  695.1030*  695.7223*  696.2912*  696.4471*  697.0047*  697.6095*  698.4620*  700.1865*  700.5932*  701.8963*  702.6635*  704.7169*  705.4969*  707.5350   
      9    19     143   3.52e-05   691.1824*  692.2496*  692.7044*  693.1809*  694.3587*  694.7098*  695.1030*  695.7223*  696.2912*  696.4470*  697.0047*  697.6095*  698.4620*  700.1865*  700.5932*  701.8962*  702.6635*  704.7169*  705.4968*  707.5315   
      10   20     144   3.08e-05   691.1824*  692.2496*  692.7044*  693.1809*  694.3587*  694.7098*  695.1030*  695.7223*  696.2912*  696.4470*  697.0047*  697.6095*  698.4620*  700.1865*  700.5932*  701.8962*  702.6635*  704.7169*  705.4968*  707.5307*  

     Davidson procedure converged

 EOMEE transition 1/A'
 Total energy = -152.08598229 a.u.  Excitation energy = 691.1824 eV.
 R0^2 = 0.0000  R1^2 = 0.8510  R2_CCVV^2 = 0.0004  R2_COVV^2 = 0.0743  Res^2 = 9.71e-06
 Conv-d = yes

 Amplitude    Transitions between orbitals
 -0.4143       1 (A') A                  ->    14 (A') A                  
 -0.4143       1 (A') B                  ->    14 (A') B                  
  0.2348       1 (A') A                  ->    23 (A') A                  
  0.2348       1 (A') B                  ->    23 (A') B                  
  0.2210       1 (A') A                  ->    11 (A') A                  
  0.2210       1 (A') B                  ->    11 (A') B                  
 -0.2110       1 (A') A                  ->    13 (A') A                  
 -0.2110       1 (A') B                  ->    13 (A') B                  
  0.1919       1 (A') A                  ->    22 (A') A                  
  0.1919       1 (A') B                  ->    22 (A') B                  
 -0.1077       1 (A') A                  ->    21 (A') A                  
 -0.1077       1 (A') B                  ->    21 (A') B                  
  0.1042       1 (A') A                  ->    16 (A') A                  
  0.1042       1 (A') B                  ->    16 (A') B                  

              Summary of significant orbitals:

               Number  Type             Irrep      Energy
               1       Occ  Alpha       1 (A')    -26.3102
               1       Occ  Beta        1 (A')    -26.3102
               13      Vir  Alpha      11 (A')      0.0456
               15      Vir  Alpha      13 (A')      0.0672
               17      Vir  Alpha      14 (A')      0.1208
               20      Vir  Alpha      16 (A')      0.1755
               26      Vir  Alpha      21 (A')      0.2869
               27      Vir  Alpha      22 (A')      0.3253
               29      Vir  Alpha      23 (A')      0.3781
               13      Vir  Beta       11 (A')      0.0456
               15      Vir  Beta       13 (A')      0.0672
               17      Vir  Beta       14 (A')      0.1208
               20      Vir  Beta       16 (A')      0.1755
               26      Vir  Beta       21 (A')      0.2869
               27      Vir  Beta       22 (A')      0.3253
               29      Vir  Beta       23 (A')      0.3781


 EOMEE transition 2/A'
 Total energy = -152.04676354 a.u.  Excitation energy = 692.2496 eV.
 R0^2 = 0.0000  R1^2 = 0.8472  R2_CCVV^2 = 0.0004  R2_COVV^2 = 0.0762  Res^2 = 1.14e-05
 Conv-d = yes

 Amplitude    Transitions between orbitals
  0.4447       1 (A') A                  ->    11 (A') A                  
  0.4447       1 (A') B                  ->    11 (A') B                  
 -0.2386       1 (A') A                  ->    22 (A') A                  
 -0.2386       1 (A') B                  ->    22 (A') B                  
 -0.2138       1 (A') A                  ->    13 (A') A                  
 -0.2138       1 (A') B                  ->    13 (A') B                  
 -0.1732       1 (A') A                  ->    23 (A') A                  
 -0.1732       1 (A') B                  ->    23 (A') B                  
  0.1387       1 (A') A                  ->    26 (A') A                  
  0.1387       1 (A') B                  ->    26 (A') B                  
  0.1308       1 (A') A                  ->    12 (A') A                  
  0.1308       1 (A') B                  ->    12 (A') B                  
  0.1099       1 (A') A                  ->    17 (A') A                  
  0.1099       1 (A') B                  ->    17 (A') B                  
  0.1058       1 (A') A                  ->    21 (A') A                  
  0.1058       1 (A') B                  ->    21 (A') B                  

              Summary of significant orbitals:

               Number  Type             Irrep      Energy
               1       Occ  Alpha       1 (A')    -26.3102
               1       Occ  Beta        1 (A')    -26.3102
               13      Vir  Alpha      11 (A')      0.0456
               14      Vir  Alpha      12 (A')      0.0589
               15      Vir  Alpha      13 (A')      0.0672
               21      Vir  Alpha      17 (A')      0.1802
               26      Vir  Alpha      21 (A')      0.2869
               27      Vir  Alpha      22 (A')      0.3253
               29      Vir  Alpha      23 (A')      0.3781
               32      Vir  Alpha      26 (A')      0.5012
               13      Vir  Beta       11 (A')      0.0456
               14      Vir  Beta       12 (A')      0.0589
               15      Vir  Beta       13 (A')      0.0672
               21      Vir  Beta       17 (A')      0.1802
               26      Vir  Beta       21 (A')      0.2869
               27      Vir  Beta       22 (A')      0.3253
               29      Vir  Beta       23 (A')      0.3781
               32      Vir  Beta       26 (A')      0.5012


 EOMEE transition 3/A'
 Total energy = -152.03005228 a.u.  Excitation energy = 692.7043 eV.
 R0^2 = 0.0000  R1^2 = 0.8416  R2_CCVV^2 = 0.0004  R2_COVV^2 = 0.0790  Res^2 = 5.15e-05
 Conv-d = yes

 Amplitude    Transitions between orbitals
  0.5291       1 (A') A                  ->    12 (A') A                  
  0.5291       1 (A') B                  ->    12 (A') B                  
  0.2075       1 (A') A                  ->    15 (A') A                  
  0.2075       1 (A') B                  ->    15 (A') B                  
  0.1945       1 (A') A                  ->    13 (A') A                  
  0.1945       1 (A') B                  ->    13 (A') B                  
  0.1253       1 (A') A                  ->    17 (A') A                  
  0.1253       1 (A') B                  ->    17 (A') B                  
 -0.1118       1 (A') A                  ->    16 (A') A                  
 -0.1118       1 (A') B                  ->    16 (A') B                  

              Summary of significant orbitals:

               Number  Type             Irrep      Energy
               1       Occ  Alpha       1 (A')    -26.3102
               1       Occ  Beta        1 (A')    -26.3102
               14      Vir  Alpha      12 (A')      0.0589
               15      Vir  Alpha      13 (A')      0.0672
               19      Vir  Alpha      15 (A')      0.1393
               20      Vir  Alpha      16 (A')      0.1755
               21      Vir  Alpha      17 (A')      0.1802
               14      Vir  Beta       12 (A')      0.0589
               15      Vir  Beta       13 (A')      0.0672
               19      Vir  Beta       15 (A')      0.1393
               20      Vir  Beta       16 (A')      0.1755
               21      Vir  Beta       17 (A')      0.1802


 EOMEE transition 4/A'
 Total energy = -152.01253875 a.u.  Excitation energy = 693.1809 eV.
 R0^2 = 0.0000  R1^2 = 0.8408  R2_CCVV^2 = 0.0004  R2_COVV^2 = 0.0794  Res^2 = 1.01e-05
 Conv-d = yes

 Amplitude    Transitions between orbitals
  0.3983       1 (A') A                  ->    13 (A') A                  
  0.3983       1 (A') B                  ->    13 (A') B                  
  0.3638       1 (A') A                  ->    11 (A') A                  
  0.3638       1 (A') B                  ->    11 (A') B                  
  0.1722       1 (A') A                  ->    14 (A') A                  
  0.1722       1 (A') B                  ->    14 (A') B                  
 -0.1495       1 (A') A                  ->    12 (A') A                  
 -0.1495       1 (A') B                  ->    12 (A') B                  
  0.1412       1 (A') A                  ->    22 (A') A                  
  0.1412       1 (A') B                  ->    22 (A') B                  
 -0.1187       1 (A') A                  ->    26 (A') A                  
 -0.1187       1 (A') B                  ->    26 (A') B                  
  0.1119       1 (A') A                  ->    16 (A') A                  
  0.1119       1 (A') B                  ->    16 (A') B                  
 -0.1029       1 (A') A                  ->    21 (A') A                  
 -0.1029       1 (A') B                  ->    21 (A') B                  

              Summary of significant orbitals:

               Number  Type             Irrep      Energy
               1       Occ  Alpha       1 (A')    -26.3102
               1       Occ  Beta        1 (A')    -26.3102
               13      Vir  Alpha      11 (A')      0.0456
               14      Vir  Alpha      12 (A')      0.0589
               15      Vir  Alpha      13 (A')      0.0672
               17      Vir  Alpha      14 (A')      0.1208
               20      Vir  Alpha      16 (A')      0.1755
               26      Vir  Alpha      21 (A')      0.2869
               27      Vir  Alpha      22 (A')      0.3253
               32      Vir  Alpha      26 (A')      0.5012
               13      Vir  Beta       11 (A')      0.0456
               14      Vir  Beta       12 (A')      0.0589
               15      Vir  Beta       13 (A')      0.0672
               17      Vir  Beta       14 (A')      0.1208
               20      Vir  Beta       16 (A')      0.1755
               26      Vir  Beta       21 (A')      0.2869
               27      Vir  Beta       22 (A')      0.3253
               32      Vir  Beta       26 (A')      0.5012


 EOMEE transition 5/A'
 Total energy = -151.96925528 a.u.  Excitation energy = 694.3587 eV.
 R0^2 = 0.0000  R1^2 = 0.8409  R2_CCVV^2 = 0.0004  R2_COVV^2 = 0.0794  Res^2 = 5.65e-05
 Conv-d = yes

 Amplitude    Transitions between orbitals
 -0.4973       1 (A') A                  ->    15 (A') A                  
 -0.4973       1 (A') B                  ->    15 (A') B                  
  0.2600       1 (A') A                  ->    12 (A') A                  
  0.2600       1 (A') B                  ->    12 (A') B                  
  0.2474       1 (A') A                  ->    16 (A') A                  
  0.2474       1 (A') B                  ->    16 (A') B                  
 -0.1101       1 (A') A                  ->    24 (A') A                  
 -0.1101       1 (A') B                  ->    24 (A') B                  

              Summary of significant orbitals:

               Number  Type             Irrep      Energy
               1       Occ  Alpha       1 (A')    -26.3102
               1       Occ  Beta        1 (A')    -26.3102
               14      Vir  Alpha      12 (A')      0.0589
               19      Vir  Alpha      15 (A')      0.1393
               20      Vir  Alpha      16 (A')      0.1755
               30      Vir  Alpha      24 (A')      0.4550
               14      Vir  Beta       12 (A')      0.0589
               19      Vir  Beta       15 (A')      0.1393
               20      Vir  Beta       16 (A')      0.1755
               30      Vir  Beta       24 (A')      0.4550


 EOMEE transition 6/A'
 Total energy = -151.95635431 a.u.  Excitation energy = 694.7098 eV.
 R0^2 = 0.0000  R1^2 = 0.8440  R2_CCVV^2 = 0.0004  R2_COVV^2 = 0.0778  Res^2 = 8.69e-06
 Conv-d = yes

 Amplitude    Transitions between orbitals
 -0.4250       1 (A') A                  ->    14 (A') A                  
 -0.4250       1 (A') B                  ->    14 (A') B                  
  0.3223       1 (A') A                  ->    13 (A') A                  
  0.3223       1 (A') B                  ->    13 (A') B                  
  0.1781       1 (A') A                  ->    26 (A') A                  
  0.1781       1 (A') B                  ->    26 (A') B                  
 -0.1751       1 (A') A                  ->    22 (A') A                  
 -0.1751       1 (A') B                  ->    22 (A') B                  
  0.1552       1 (A') A                  ->    21 (A') A                  
  0.1552       1 (A') B                  ->    21 (A') B                  
  0.1267       1 (A') A                  ->    18 (A') A                  
  0.1267       1 (A') B                  ->    18 (A') B                  

              Summary of significant orbitals:

               Number  Type             Irrep      Energy
               1       Occ  Alpha       1 (A')    -26.3102
               1       Occ  Beta        1 (A')    -26.3102
               15      Vir  Alpha      13 (A')      0.0672
               17      Vir  Alpha      14 (A')      0.1208
               22      Vir  Alpha      18 (A')      0.2053
               26      Vir  Alpha      21 (A')      0.2869
               27      Vir  Alpha      22 (A')      0.3253
               32      Vir  Alpha      26 (A')      0.5012
               15      Vir  Beta       13 (A')      0.0672
               17      Vir  Beta       14 (A')      0.1208
               22      Vir  Beta       18 (A')      0.2053
               26      Vir  Beta       21 (A')      0.2869
               27      Vir  Beta       22 (A')      0.3253
               32      Vir  Beta       26 (A')      0.5012


 EOMEE transition 7/A'
 Total energy = -151.94190534 a.u.  Excitation energy = 695.1029 eV.
 R0^2 = 0.0000  R1^2 = 0.8414  R2_CCVV^2 = 0.0004  R2_COVV^2 = 0.0791  Res^2 = 5.91e-05
 Conv-d = yes

 Amplitude    Transitions between orbitals
  0.4383       1 (A') A                  ->    17 (A') A                  
  0.4383       1 (A') B                  ->    17 (A') B                  
  0.3825       1 (A') A                  ->    16 (A') A                  
  0.3825       1 (A') B                  ->    16 (A') B                  
 -0.1295       1 (A') A                  ->    23 (A') A                  
 -0.1295       1 (A') B                  ->    23 (A') B                  
  0.1126       1 (A') A                  ->    20 (A') A                  
  0.1126       1 (A') B                  ->    20 (A') B                  
 -0.1100       1 (A') A                  ->    11 (A') A                  
 -0.1100       1 (A') B                  ->    11 (A') B                  
 -0.1090       1 (A') A                  ->    18 (A') A                  
 -0.1090       1 (A') B                  ->    18 (A') B                  

              Summary of significant orbitals:

               Number  Type             Irrep      Energy
               1       Occ  Alpha       1 (A')    -26.3102
               1       Occ  Beta        1 (A')    -26.3102
               13      Vir  Alpha      11 (A')      0.0456
               20      Vir  Alpha      16 (A')      0.1755
               21      Vir  Alpha      17 (A')      0.1802
               22      Vir  Alpha      18 (A')      0.2053
               25      Vir  Alpha      20 (A')      0.2666
               29      Vir  Alpha      23 (A')      0.3781
               13      Vir  Beta       11 (A')      0.0456
               20      Vir  Beta       16 (A')      0.1755
               21      Vir  Beta       17 (A')      0.1802
               22      Vir  Beta       18 (A')      0.2053
               25      Vir  Beta       20 (A')      0.2666
               29      Vir  Beta       23 (A')      0.3781


 EOMEE transition 8/A'
 Total energy = -151.91914584 a.u.  Excitation energy = 695.7223 eV.
 R0^2 = 0.0000  R1^2 = 0.8390  R2_CCVV^2 = 0.0004  R2_COVV^2 = 0.0803  Res^2 = 5.98e-05
 Conv-d = yes

 Amplitude    Transitions between orbitals
  0.3701       1 (A') A                  ->    16 (A') A                  
  0.3701       1 (A') B                  ->    16 (A') B                  
 -0.3467       1 (A') A                  ->    17 (A') A                  
 -0.3467       1 (A') B                  ->    17 (A') B                  
  0.2244       1 (A') A                  ->    15 (A') A                  
  0.2244       1 (A') B                  ->    15 (A') B                  
  0.2172       1 (A') A                  ->    20 (A') A                  
  0.2172       1 (A') B                  ->    20 (A') B                  
  0.1354       1 (A') A                  ->    18 (A') A                  
  0.1354       1 (A') B                  ->    18 (A') B                  
  0.1056       1 (A') A                  ->    21 (A') A                  
  0.1056       1 (A') B                  ->    21 (A') B                  
 -0.1027       1 (A') A                  ->    25 (A') A                  
 -0.1027       1 (A') B                  ->    25 (A') B                  

              Summary of significant orbitals:

               Number  Type             Irrep      Energy
               1       Occ  Alpha       1 (A')    -26.3102
               1       Occ  Beta        1 (A')    -26.3102
               19      Vir  Alpha      15 (A')      0.1393
               20      Vir  Alpha      16 (A')      0.1755
               21      Vir  Alpha      17 (A')      0.1802
               22      Vir  Alpha      18 (A')      0.2053
               25      Vir  Alpha      20 (A')      0.2666
               26      Vir  Alpha      21 (A')      0.2869
               31      Vir  Alpha      25 (A')      0.4748
               19      Vir  Beta       15 (A')      0.1393
               20      Vir  Beta       16 (A')      0.1755
               21      Vir  Beta       17 (A')      0.1802
               22      Vir  Beta       18 (A')      0.2053
               25      Vir  Beta       20 (A')      0.2666
               26      Vir  Beta       21 (A')      0.2869
               31      Vir  Beta       25 (A')      0.4748


 EOMEE transition 9/A'
 Total energy = -151.89823690 a.u.  Excitation energy = 696.2912 eV.
 R0^2 = 0.0000  R1^2 = 0.8390  R2_CCVV^2 = 0.0004  R2_COVV^2 = 0.0803  Res^2 = 1.08e-05
 Conv-d = yes

 Amplitude    Transitions between orbitals
 -0.5488       1 (A') A                  ->    18 (A') A                  
 -0.5488       1 (A') B                  ->    18 (A') B                  
 -0.2034       1 (A') A                  ->    19 (A') A                  
 -0.2034       1 (A') B                  ->    19 (A') B                  
 -0.1323       1 (A') A                  ->    17 (A') A                  
 -0.1323       1 (A') B                  ->    17 (A') B                  
  0.1028       1 (A') A                  ->    13 (A') A                  
  0.1028       1 (A') B                  ->    13 (A') B                  
  0.1022       1 (A') A                  ->    21 (A') A                  
  0.1022       1 (A') B                  ->    21 (A') B                  

              Summary of significant orbitals:

               Number  Type             Irrep      Energy
               1       Occ  Alpha       1 (A')    -26.3102
               1       Occ  Beta        1 (A')    -26.3102
               15      Vir  Alpha      13 (A')      0.0672
               21      Vir  Alpha      17 (A')      0.1802
               22      Vir  Alpha      18 (A')      0.2053
               24      Vir  Alpha      19 (A')      0.2159
               26      Vir  Alpha      21 (A')      0.2869
               15      Vir  Beta       13 (A')      0.0672
               21      Vir  Beta       17 (A')      0.1802
               22      Vir  Beta       18 (A')      0.2053
               24      Vir  Beta       19 (A')      0.2159
               26      Vir  Beta       21 (A')      0.2869


 EOMEE transition 10/A'
 Total energy = -151.89251098 a.u.  Excitation energy = 696.4470 eV.
 R0^2 = 0.0000  R1^2 = 0.8408  R2_CCVV^2 = 0.0004  R2_COVV^2 = 0.0794  Res^2 = 1.24e-05
 Conv-d = yes

 Amplitude    Transitions between orbitals
 -0.3799       1 (A') A                  ->    19 (A') A                  
 -0.3799       1 (A') B                  ->    19 (A') B                  
  0.3307       1 (A') A                  ->    20 (A') A                  
  0.3307       1 (A') B                  ->    20 (A') B                  
 -0.2074       1 (A') A                  ->    15 (A') A                  
 -0.2074       1 (A') B                  ->    15 (A') B                  
  0.1705       1 (A') A                  ->    22 (A') A                  
  0.1705       1 (A') B                  ->    22 (A') B                  
  0.1360       1 (A') A                  ->    17 (A') A                  
  0.1360       1 (A') B                  ->    17 (A') B                  
  0.1228       1 (A') A                  ->    21 (A') A                  
  0.1228       1 (A') B                  ->    21 (A') B                  
 -0.1130       1 (A') A                  ->    16 (A') A                  
 -0.1130       1 (A') B                  ->    16 (A') B                  
  0.1022       1 (A') A                  ->    18 (A') A                  
  0.1022       1 (A') B                  ->    18 (A') B                  

              Summary of significant orbitals:

               Number  Type             Irrep      Energy
               1       Occ  Alpha       1 (A')    -26.3102
               1       Occ  Beta        1 (A')    -26.3102
               19      Vir  Alpha      15 (A')      0.1393
               20      Vir  Alpha      16 (A')      0.1755
               21      Vir  Alpha      17 (A')      0.1802
               22      Vir  Alpha      18 (A')      0.2053
               24      Vir  Alpha      19 (A')      0.2159
               25      Vir  Alpha      20 (A')      0.2666
               26      Vir  Alpha      21 (A')      0.2869
               27      Vir  Alpha      22 (A')      0.3253
               19      Vir  Beta       15 (A')      0.1393
               20      Vir  Beta       16 (A')      0.1755
               21      Vir  Beta       17 (A')      0.1802
               22      Vir  Beta       18 (A')      0.2053
               24      Vir  Beta       19 (A')      0.2159
               25      Vir  Beta       20 (A')      0.2666
               26      Vir  Beta       21 (A')      0.2869
               27      Vir  Beta       22 (A')      0.3253


 EOMEE transition 11/A'
 Total energy = -151.87201678 a.u.  Excitation energy = 697.0047 eV.
 R0^2 = 0.0000  R1^2 = 0.8369  R2_CCVV^2 = 0.0004  R2_COVV^2 = 0.0814  Res^2 = 2.39e-05
 Conv-d = yes

 Amplitude    Transitions between orbitals
  0.4366       1 (A') A                  ->    19 (A') A                  
  0.4366       1 (A') B                  ->    19 (A') B                  
  0.3786       1 (A') A                  ->    20 (A') A                  
  0.3786       1 (A') B                  ->    20 (A') B                  
 -0.1298       1 (A') A                  ->    16 (A') A                  
 -0.1298       1 (A') B                  ->    16 (A') B                  
 -0.1267       1 (A') A                  ->    18 (A') A                  
 -0.1267       1 (A') B                  ->    18 (A') B                  

              Summary of significant orbitals:

               Number  Type             Irrep      Energy
               1       Occ  Alpha       1 (A')    -26.3102
               1       Occ  Beta        1 (A')    -26.3102
               20      Vir  Alpha      16 (A')      0.1755
               22      Vir  Alpha      18 (A')      0.2053
               24      Vir  Alpha      19 (A')      0.2159
               25      Vir  Alpha      20 (A')      0.2666
               20      Vir  Beta       16 (A')      0.1755
               22      Vir  Beta       18 (A')      0.2053
               24      Vir  Beta       19 (A')      0.2159
               25      Vir  Beta       20 (A')      0.2666


 EOMEE transition 12/A'
 Total energy = -151.84979160 a.u.  Excitation energy = 697.6095 eV.
 R0^2 = 0.0000  R1^2 = 0.8350  R2_CCVV^2 = 0.0004  R2_COVV^2 = 0.0823  Res^2 = 1.47e-05
 Conv-d = yes

 Amplitude    Transitions between orbitals
 -0.5260       1 (A') A                  ->    21 (A') A                  
 -0.5260       1 (A') B                  ->    21 (A') B                  
  0.2177       1 (A') A                  ->    20 (A') A                  
  0.2177       1 (A') B                  ->    20 (A') B                  
 -0.1715       1 (A') A                  ->    23 (A') A                  
 -0.1715       1 (A') B                  ->    23 (A') B                  
 -0.1679       1 (A') A                  ->    22 (A') A                  
 -0.1679       1 (A') B                  ->    22 (A') B                  

              Summary of significant orbitals:

               Number  Type             Irrep      Energy
               1       Occ  Alpha       1 (A')    -26.3102
               1       Occ  Beta        1 (A')    -26.3102
               25      Vir  Alpha      20 (A')      0.2666
               26      Vir  Alpha      21 (A')      0.2869
               27      Vir  Alpha      22 (A')      0.3253
               29      Vir  Alpha      23 (A')      0.3781
               25      Vir  Beta       20 (A')      0.2666
               26      Vir  Beta       21 (A')      0.2869
               27      Vir  Beta       22 (A')      0.3253
               29      Vir  Beta       23 (A')      0.3781


 EOMEE transition 13/A'
 Total energy = -151.81846387 a.u.  Excitation energy = 698.4620 eV.
 R0^2 = 0.0000  R1^2 = 0.8429  R2_CCVV^2 = 0.0004  R2_COVV^2 = 0.0784  Res^2 = 2.29e-05
 Conv-d = yes

 Amplitude    Transitions between orbitals
 -0.5004       1 (A') A                  ->    23 (A') A                  
 -0.5004       1 (A') B                  ->    23 (A') B                  
  0.3332       1 (A') A                  ->    22 (A') A                  
  0.3332       1 (A') B                  ->    22 (A') B                  
  0.1306       1 (A') A                  ->    18 (A') A                  
  0.1306       1 (A') B                  ->    18 (A') B                  

              Summary of significant orbitals:

               Number  Type             Irrep      Energy
               1       Occ  Alpha       1 (A')    -26.3102
               1       Occ  Beta        1 (A')    -26.3102
               22      Vir  Alpha      18 (A')      0.2053
               27      Vir  Alpha      22 (A')      0.3253
               29      Vir  Alpha      23 (A')      0.3781
               22      Vir  Beta       18 (A')      0.2053
               27      Vir  Beta       22 (A')      0.3253
               29      Vir  Beta       23 (A')      0.3781


 EOMEE transition 14/A'
 Total energy = -151.75508880 a.u.  Excitation energy = 700.1865 eV.
 R0^2 = 0.0000  R1^2 = 0.8493  R2_CCVV^2 = 0.0004  R2_COVV^2 = 0.0752  Res^2 = 2.92e-05
 Conv-d = yes

 Amplitude    Transitions between orbitals
 -0.4768       1 (A') A                  ->    24 (A') A                  
 -0.4768       1 (A') B                  ->    24 (A') B                  
 -0.3142       1 (A') A                  ->    26 (A') A                  
 -0.3142       1 (A') B                  ->    26 (A') B                  
 -0.1841       1 (A') A                  ->    25 (A') A                  
 -0.1841       1 (A') B                  ->    25 (A') B                  
  0.1135       1 (A') A                  ->    17 (A') A                  
  0.1135       1 (A') B                  ->    17 (A') B                  

              Summary of significant orbitals:

               Number  Type             Irrep      Energy
               1       Occ  Alpha       1 (A')    -26.3102
               1       Occ  Beta        1 (A')    -26.3102
               21      Vir  Alpha      17 (A')      0.1802
               30      Vir  Alpha      24 (A')      0.4550
               31      Vir  Alpha      25 (A')      0.4748
               32      Vir  Alpha      26 (A')      0.5012
               21      Vir  Beta       17 (A')      0.1802
               30      Vir  Beta       24 (A')      0.4550
               31      Vir  Beta       25 (A')      0.4748
               32      Vir  Beta       26 (A')      0.5012


 EOMEE transition 15/A'
 Total energy = -151.74014210 a.u.  Excitation energy = 700.5932 eV.
 R0^2 = 0.0000  R1^2 = 0.8450  R2_CCVV^2 = 0.0004  R2_COVV^2 = 0.0773  Res^2 = 3.97e-05
 Conv-d = yes

 Amplitude    Transitions between orbitals
  0.3654       1 (A') A                  ->    24 (A') A                  
  0.3654       1 (A') B                  ->    24 (A') B                  
 -0.3159       1 (A') A                  ->    26 (A') A                  
 -0.3159       1 (A') B                  ->    26 (A') B                  
 -0.2235       1 (A') A                  ->    25 (A') A                  
 -0.2235       1 (A') B                  ->    25 (A') B                  
  0.2142       1 (A') A                  ->    27 (A') A                  
  0.2142       1 (A') B                  ->    27 (A') B                  
 -0.1699       1 (A') A                  ->    22 (A') A                  
 -0.1699       1 (A') B                  ->    22 (A') B                  
  0.1229       1 (A') A                  ->    29 (A') A                  
  0.1229       1 (A') B                  ->    29 (A') B                  

              Summary of significant orbitals:

               Number  Type             Irrep      Energy
               1       Occ  Alpha       1 (A')    -26.3102
               1       Occ  Beta        1 (A')    -26.3102
               27      Vir  Alpha      22 (A')      0.3253
               30      Vir  Alpha      24 (A')      0.4550
               31      Vir  Alpha      25 (A')      0.4748
               32      Vir  Alpha      26 (A')      0.5012
               33      Vir  Alpha      27 (A')      0.5473
               35      Vir  Alpha      29 (A')      0.6469
               27      Vir  Beta       22 (A')      0.3253
               30      Vir  Beta       24 (A')      0.4550
               31      Vir  Beta       25 (A')      0.4748
               32      Vir  Beta       26 (A')      0.5012
               33      Vir  Beta       27 (A')      0.5473
               35      Vir  Beta       29 (A')      0.6469


 EOMEE transition 16/A'
 Total energy = -151.69225707 a.u.  Excitation energy = 701.8962 eV.
 R0^2 = 0.0000  R1^2 = 0.8363  R2_CCVV^2 = 0.0004  R2_COVV^2 = 0.0817  Res^2 = 3.36e-05
 Conv-d = yes

 Amplitude    Transitions between orbitals
  0.5319       1 (A') A                  ->    25 (A') A                  
  0.5319       1 (A') B                  ->    25 (A') B                  
 -0.2379       1 (A') A                  ->    26 (A') A                  
 -0.2379       1 (A') B                  ->    26 (A') B                  
 -0.2052       1 (A') A                  ->    22 (A') A                  
 -0.2052       1 (A') B                  ->    22 (A') B                  

              Summary of significant orbitals:

               Number  Type             Irrep      Energy
               1       Occ  Alpha       1 (A')    -26.3102
               1       Occ  Beta        1 (A')    -26.3102
               27      Vir  Alpha      22 (A')      0.3253
               31      Vir  Alpha      25 (A')      0.4748
               32      Vir  Alpha      26 (A')      0.5012
               27      Vir  Beta       22 (A')      0.3253
               31      Vir  Beta       25 (A')      0.4748
               32      Vir  Beta       26 (A')      0.5012


 EOMEE transition 17/A'
 Total energy = -151.66406071 a.u.  Excitation energy = 702.6635 eV.
 R0^2 = 0.0000  R1^2 = 0.8370  R2_CCVV^2 = 0.0004  R2_COVV^2 = 0.0813  Res^2 = 4.30e-05
 Conv-d = yes

 Amplitude    Transitions between orbitals
 -0.5543       1 (A') A                  ->    27 (A') A                  
 -0.5543       1 (A') B                  ->    27 (A') B                  
 -0.1808       1 (A') A                  ->    28 (A') A                  
 -0.1808       1 (A') B                  ->    28 (A') B                  
  0.1429       1 (A') A                  ->    29 (A') A                  
  0.1429       1 (A') B                  ->    29 (A') B                  
 -0.1342       1 (A') A                  ->    26 (A') A                  
 -0.1342       1 (A') B                  ->    26 (A') B                  
  0.1256       1 (A') A                  ->    24 (A') A                  
  0.1256       1 (A') B                  ->    24 (A') B                  

              Summary of significant orbitals:

               Number  Type             Irrep      Energy
               1       Occ  Alpha       1 (A')    -26.3102
               1       Occ  Beta        1 (A')    -26.3102
               30      Vir  Alpha      24 (A')      0.4550
               32      Vir  Alpha      26 (A')      0.5012
               33      Vir  Alpha      27 (A')      0.5473
               34      Vir  Alpha      28 (A')      0.6356
               35      Vir  Alpha      29 (A')      0.6469
               30      Vir  Beta       24 (A')      0.4550
               32      Vir  Beta       26 (A')      0.5012
               33      Vir  Beta       27 (A')      0.5473
               34      Vir  Beta       28 (A')      0.6356
               35      Vir  Beta       29 (A')      0.6469


 EOMEE transition 18/A'
 Total energy = -151.58859991 a.u.  Excitation energy = 704.7169 eV.
 R0^2 = 0.0000  R1^2 = 0.8381  R2_CCVV^2 = 0.0004  R2_COVV^2 = 0.0808  Res^2 = 3.99e-05
 Conv-d = yes

 Amplitude    Transitions between orbitals
  0.5409       1 (A') A                  ->    28 (A') A                  
  0.5409       1 (A') B                  ->    28 (A') B                  
 -0.1933       1 (A') A                  ->    27 (A') A                  
 -0.1933       1 (A') B                  ->    27 (A') B                  
 -0.1735       1 (A') A                  ->    30 (A') A                  
 -0.1735       1 (A') B                  ->    30 (A') B                  
 -0.1453       1 (A') A                  ->    29 (A') A                  
 -0.1453       1 (A') B                  ->    29 (A') B                  
 -0.1160       1 (A') A                  ->    25 (A') A                  
 -0.1160       1 (A') B                  ->    25 (A') B                  

              Summary of significant orbitals:

               Number  Type             Irrep      Energy
               1       Occ  Alpha       1 (A')    -26.3102
               1       Occ  Beta        1 (A')    -26.3102
               31      Vir  Alpha      25 (A')      0.4748
               33      Vir  Alpha      27 (A')      0.5473
               34      Vir  Alpha      28 (A')      0.6356
               35      Vir  Alpha      29 (A')      0.6469
               36      Vir  Alpha      30 (A')      0.7004
               31      Vir  Beta       25 (A')      0.4748
               33      Vir  Beta       27 (A')      0.5473
               34      Vir  Beta       28 (A')      0.6356
               35      Vir  Beta       29 (A')      0.6469
               36      Vir  Beta       30 (A')      0.7004


 EOMEE transition 19/A'
 Total energy = -151.55993853 a.u.  Excitation energy = 705.4968 eV.
 R0^2 = 0.0000  R1^2 = 0.8316  R2_CCVV^2 = 0.0004  R2_COVV^2 = 0.0840  Res^2 = 5.14e-05
 Conv-d = yes

 Amplitude    Transitions between orbitals
  0.4969       1 (A') A                  ->    29 (A') A                  
  0.4969       1 (A') B                  ->    29 (A') B                  
  0.2259       1 (A') A                  ->    28 (A') A                  
  0.2259       1 (A') B                  ->    28 (A') B                  
  0.2213       1 (A') A                  ->    26 (A') A                  
  0.2213       1 (A') B                  ->    26 (A') B                  
  0.1935       1 (A') A                  ->    30 (A') A                  
  0.1935       1 (A') B                  ->    30 (A') B                  
 -0.1064       1 (A') A                  ->    23 (A') A                  
 -0.1064       1 (A') B                  ->    23 (A') B                  

              Summary of significant orbitals:

               Number  Type             Irrep      Energy
               1       Occ  Alpha       1 (A')    -26.3102
               1       Occ  Beta        1 (A')    -26.3102
               29      Vir  Alpha      23 (A')      0.3781
               32      Vir  Alpha      26 (A')      0.5012
               34      Vir  Alpha      28 (A')      0.6356
               35      Vir  Alpha      29 (A')      0.6469
               36      Vir  Alpha      30 (A')      0.7004
               29      Vir  Beta       23 (A')      0.3781
               32      Vir  Beta       26 (A')      0.5012
               34      Vir  Beta       28 (A')      0.6356
               35      Vir  Beta       29 (A')      0.6469
               36      Vir  Beta       30 (A')      0.7004


 EOMEE transition 20/A'
 Total energy = -151.48519472 a.u.  Excitation energy = 707.5307 eV.
 R0^2 = 0.0000  R1^2 = 0.8271  R2_CCVV^2 = 0.0003  R2_COVV^2 = 0.0863  Res^2 = 2.67e-05
 Conv-d = yes

 Amplitude    Transitions between orbitals
  0.5757       1 (A') A                  ->    30 (A') A                  
  0.5757       1 (A') B                  ->    30 (A') B                  
 -0.2446       1 (A') A                  ->    29 (A') A                  
 -0.2446       1 (A') B                  ->    29 (A') B                  

              Summary of significant orbitals:

               Number  Type             Irrep      Energy
               1       Occ  Alpha       1 (A')    -26.3102
               1       Occ  Beta        1 (A')    -26.3102
               35      Vir  Alpha      29 (A')      0.6469
               36      Vir  Alpha      30 (A')      0.7004
               35      Vir  Beta       29 (A')      0.6469
               36      Vir  Beta       30 (A')      0.7004


      CVS-EOM-CCSD/MP2 left amplitudes will be solved using Davidson.
        Amplitudes will be solved using MOM  algorithm.
     Hard-coded thresholds: 
     LinDepThresh=1.00e-15  NormThresh=1.00e-06  ReorthogonThresh=1.00e-02

      Roots     MaxVec    MaxIter   Precond   Conv      Shift    
      20        1000      200       1         1.00e-04  0.00e+00  
 ------------------------------------------------------------------------------
      Iter ConvRoots NVecs ResNorm Current eigenvalues (eV)
 ------------------------------------------------------------------------------
      0    0      20    1.13e-01   691.1824   692.2496   692.7044   693.1809   694.3587   694.7098   695.1030   695.7223   696.2912   696.4470   697.0047   697.6095   698.4620   700.1865   700.5932   701.8962   702.6635   704.7169   705.4968   707.5307   
      1    0      40    6.47e-02   691.1821   692.2493   692.7043   693.1807   694.3587   694.7096   695.1028   695.7222   696.2910   696.4467   697.0041   697.6092   698.4614   700.1858   700.5923   701.8956   702.6630   704.7165   705.4962   707.5306   
      2    0      60    5.13e-04   691.1824   692.2496   692.7037   693.1809   694.3579   694.7098   695.1021   695.7215   696.2912   696.4470   697.0046   697.6095   698.4618   700.1863   700.5930   701.8960   702.6632   704.7167   705.4965   707.5306   
      3    19     80    8.39e-05   691.1823*  692.2495*  692.7032*  693.1809*  694.3575*  694.7097*  695.1016*  695.7210*  696.2912*  696.4469*  697.0047*  697.6095*  698.4619*  700.1864*  700.5930*  701.8962*  702.6635*  704.7169*  705.4967   707.5304*  
      4    20     81    7.91e-05   691.1823*  692.2495*  692.7032*  693.1809*  694.3575*  694.7097*  695.1016*  695.7210*  696.2912*  696.4469*  697.0047*  697.6095*  698.4619*  700.1864*  700.5930*  701.8962*  702.6635*  704.7169*  705.4967*  707.5304*  

     Davidson procedure converged

        Solving for CVS-EOMEE-CCSD A" singlet states.

       EOMEE-CCSD-SINGLES right amplitudes will be solved using Davidson.
        Amplitudes will be solved using standard  algorithm.
     Hard-coded thresholds: 
     LinDepThresh=1.00e-15  NormThresh=1.00e-06  ReorthogonThresh=1.00e-02

      Roots     MaxVec    MaxIter   Precond   Conv      Shift    
      13        1000      200       1         1.00e-04  0.00e+00  
 ------------------------------------------------------------------------------
      Iter ConvRoots NVecs ResNorm Current eigenvalues (eV)
 ------------------------------------------------------------------------------
      0    0      13    1.70e-02   712.4224   714.7859   717.3008   717.5961   728.4866   732.1636   739.1145   743.8776   745.5873   750.1479   761.7411   765.4344   772.5738   
Rerun orthogonalization...
      1    13     19    2.11e-27   712.2635*  714.7800*  717.2808*  717.5269*  728.4772*  732.1588*  738.3327*  743.8101*  745.5369*  749.9406*  761.6799*  765.2170*  772.2779*  

     Davidson procedure converged

        CVS-EOMEE-CCSD/MP2 right amplitudes will be solved using Davidson.
        Amplitudes will be solved using standard  algorithm.
     Hard-coded thresholds: 
     LinDepThresh=1.00e-15  NormThresh=1.00e-06  ReorthogonThresh=1.00e-02

      Roots     MaxVec    MaxIter   Precond   Conv      Shift    
      13        1000      200       1         1.00e-04  0.00e+00  
 ------------------------------------------------------------------------------
      Iter ConvRoots NVecs ResNorm Current eigenvalues (eV)
 ------------------------------------------------------------------------------
      0    0      13    5.11e+00   712.2635   714.7800   717.2808   717.5269   728.4772   732.1588   738.3327   743.8101   745.5369   749.9406   761.6799   765.2170   772.2779   
      1    0      26    4.32e+00   708.9545   711.3584   713.8460   714.2347   724.9503   728.5552   735.5124   740.2460   741.9657   746.5100   758.1250   761.6451   768.7131   
      2    0      39    1.45e+00   692.0877   694.3973   696.6080   698.2164   707.2987   710.3849   726.3777   737.0376   738.9556   742.6704   743.2063   743.9517   745.5655   
      3    0      52    4.39e-01   691.2914   693.4981   695.5811   697.5288   706.4215   709.2884   722.4854   730.4804   735.1346   736.3368   738.4075   739.0761   740.0077   
      4    0      65    1.72e-01   691.2821   693.4888   695.5666   697.5220   706.4094   709.2574   721.1553   726.8566   732.3056   733.3808   733.6132   734.8393   735.7939   
      5    5      78    1.20e-01   691.2773*  693.4852*  695.5626*  697.5185*  706.4045*  709.2502   720.6045   723.3432   725.5420   728.0134   730.0162   730.3034   731.9590   
      6    6      86    6.81e-02   691.2773*  693.4852*  695.5625*  697.5186*  706.4044*  709.2449*  719.7626   720.3902   720.9822   723.8016   725.9073   727.6179   729.1035   
      7    6      93    4.64e-02   691.2773*  693.4852*  695.5625*  697.5186*  706.4043*  709.2447*  717.2167   718.3816   718.6840   721.5114   722.0698   724.3995   727.4244   
      8    6      100   1.97e-02   691.2773*  693.4852*  695.5625*  697.5185*  706.4042*  709.2447*  715.2206   716.9305   717.6159   720.5298   721.2213   722.4042   724.9414   
      9    6      107   1.11e-02   691.2773*  693.4852*  695.5625*  697.5185*  706.4042*  709.2446*  714.2178   716.0565   717.1055   720.1330   720.8235   721.6152   723.0872   
      10   6      114   1.06e-02   691.2772*  693.4852*  695.5625*  697.5185*  706.4041*  709.2445*  713.8287   715.6561   716.7792   719.1289   720.1367   720.7073   721.3445   
      11   6      121   1.04e-02   691.2772*  693.4852*  695.5625*  697.5185*  706.4041*  709.2444*  713.6511   715.3975   716.5646   717.3978   719.7379   719.9020   720.6052   
      12   6      128   1.37e-02   691.2772*  693.4852*  695.5625*  697.5185*  706.4040*  709.2443*  713.5188   715.1327   716.1223   716.8780   717.9022   719.2658   719.6030   
Found complex roots...
      13   6      135   8.23e-03   691.2772*  693.4852*  695.5625*  697.5185*  706.4038*  709.2442*  713.3937   714.8402   715.6629   716.7065   717.0805   717.8180   718.5259   
      14   6      142   3.46e-03   691.2772*  693.4852*  695.5625*  697.5185*  706.4037*  709.2441*  713.3079   714.6252   715.4266   716.5444   716.8561   717.0788   717.9964   
      15   6      149   1.68e-03   691.2771*  693.4852*  695.5625*  697.5185*  706.4037*  709.2440*  713.2762   714.5474   715.3432   716.4526   716.6491   716.9262   717.6700   
      16   6      156   1.26e-03   691.2771*  693.4852*  695.5624*  697.5185*  706.4037*  709.2440*  713.2663   714.5162   715.3152   716.3960   716.5514   716.9044   717.3922   
      17   7      163   9.32e-04   691.2771*  693.4852*  695.5624*  697.5185*  706.4037*  709.2440*  713.2628*  714.5013   715.3009   716.3479   716.5040   716.8897   717.1528   
      18   7      169   1.01e-03   691.2771*  693.4852*  695.5624*  697.5185*  706.4037*  709.2440*  713.2615*  714.4901   715.2922   716.2794   716.4681   716.8646   716.9545   
      19   7      175   1.30e-03   691.2771*  693.4851*  695.5624*  697.5185*  706.4037*  709.2440*  713.2610*  714.4810   715.2876   716.1092   716.4249   716.7187   716.8876   
      20   8      181   1.15e-03   691.2770*  693.4851*  695.5624*  697.5185*  706.4037*  709.2439*  713.2609*  714.4729   715.2852*  715.7839   716.3884   716.6050   716.8780   
      21   8      186   7.30e-04   691.2770*  693.4851*  695.5624*  697.5185*  706.4037*  709.2439*  713.2608*  714.4665   715.2841*  715.5072   716.3680   716.5601   716.8729   
Found complex roots...
      22   8      191   4.33e-04   691.2770*  693.4851*  695.5624*  697.5185*  706.4037*  709.2439*  713.2608*  714.4622   715.2833*  715.3446   716.3562   716.5385   716.8690   
      23   9      196   2.11e-04   691.2770*  693.4851*  695.5624*  697.5185*  706.4036*  709.2439*  713.2608*  714.4597*  715.2563   715.2832*  716.3489   716.5270   716.8654   
      24   9      200   1.21e-04   691.2770*  693.4851*  695.5624*  697.5185*  706.4036*  709.2439*  713.2608*  714.4586*  715.2182   715.2829*  716.3451   716.5213   716.8616   
      25   11     204   6.79e-05   691.2770*  693.4851*  695.5624*  697.5185*  706.4036*  709.2439*  713.2608*  714.4581*  715.2004   715.2827*  716.3430*  716.5178*  716.8576   
      26   12     206   4.40e-05   691.2770*  693.4851*  695.5624*  697.5185*  706.4036*  709.2439*  713.2608*  714.4579*  715.1930   715.2827*  716.3421*  716.5160*  716.8547*  
      27   13     207   3.32e-05   691.2770*  693.4851*  695.5624*  697.5185*  706.4036*  709.2439*  713.2608*  714.4579*  715.1899*  715.2827*  716.3417*  716.5150*  716.8544*  

     Davidson procedure converged

 EOMEE transition 1/A"
 Total energy = -152.08250651 a.u.  Excitation energy = 691.2770 eV.
 R0^2 = 0.0000  R1^2 = 0.8379  R2_CCVV^2 = 0.0004  R2_COVV^2 = 0.0809  Res^2 = 3.62e-05
 Conv-d = yes

 Amplitude    Transitions between orbitals
 -0.5228       1 (A') A                  ->    3 (A") A                   
 -0.5228       1 (A') B                  ->    3 (A") B                   
 -0.3506       1 (A') A                  ->    5 (A") A                   
 -0.3506       1 (A') B                  ->    5 (A") B                   
  0.1016       1 (A') A                  ->    4 (A") A                   
  0.1016       1 (A') B                  ->    4 (A") B                   

              Summary of significant orbitals:

               Number  Type             Irrep      Energy
               1       Occ  Alpha       1 (A')    -26.3102
               1       Occ  Beta        1 (A')    -26.3102
               16      Vir  Alpha       3 (A")      0.1085
               18      Vir  Alpha       4 (A")      0.1220
               23      Vir  Alpha       5 (A")      0.2142
               16      Vir  Beta        3 (A")      0.1085
               18      Vir  Beta        4 (A")      0.1220
               23      Vir  Beta        5 (A")      0.2142


 EOMEE transition 2/A"
 Total energy = -152.00135970 a.u.  Excitation energy = 693.4851 eV.
 R0^2 = 0.0000  R1^2 = 0.8421  R2_CCVV^2 = 0.0004  R2_COVV^2 = 0.0788  Res^2 = 3.11e-05
 Conv-d = yes

 Amplitude    Transitions between orbitals
 -0.6208       1 (A') A                  ->    4 (A") A                   
 -0.6208       1 (A') B                  ->    4 (A") B                   
  0.1262       1 (A') A                  ->    6 (A") A                   
  0.1262       1 (A') B                  ->    6 (A") B                   
 -0.1145       1 (A') A                  ->    5 (A") A                   
 -0.1145       1 (A') B                  ->    5 (A") B                   

              Summary of significant orbitals:

               Number  Type             Irrep      Energy
               1       Occ  Alpha       1 (A')    -26.3102
               1       Occ  Beta        1 (A')    -26.3102
               18      Vir  Alpha       4 (A")      0.1220
               23      Vir  Alpha       5 (A")      0.2142
               28      Vir  Alpha       6 (A")      0.3757
               18      Vir  Beta        4 (A")      0.1220
               23      Vir  Beta        5 (A")      0.2142
               28      Vir  Beta        6 (A")      0.3757


 EOMEE transition 3/A"
 Total energy = -151.92502132 a.u.  Excitation energy = 695.5624 eV.
 R0^2 = 0.0000  R1^2 = 0.8370  R2_CCVV^2 = 0.0004  R2_COVV^2 = 0.0813  Res^2 = 4.44e-05
 Conv-d = yes

 Amplitude    Transitions between orbitals
 -0.5311       1 (A') A                  ->    5 (A") A                   
 -0.5311       1 (A') B                  ->    5 (A") B                   
  0.3561       1 (A') A                  ->    3 (A") A                   
  0.3561       1 (A') B                  ->    3 (A") B                   

              Summary of significant orbitals:

               Number  Type             Irrep      Energy
               1       Occ  Alpha       1 (A')    -26.3102
               1       Occ  Beta        1 (A')    -26.3102
               16      Vir  Alpha       3 (A")      0.1085
               23      Vir  Alpha       5 (A")      0.2142
               16      Vir  Beta        3 (A")      0.1085
               23      Vir  Beta        5 (A")      0.2142


 EOMEE transition 4/A"
 Total energy = -151.85313478 a.u.  Excitation energy = 697.5185 eV.
 R0^2 = 0.0000  R1^2 = 0.8512  R2_CCVV^2 = 0.0004  R2_COVV^2 = 0.0742  Res^2 = 2.74e-05
 Conv-d = yes

 Amplitude    Transitions between orbitals
 -0.6270       1 (A') A                  ->    6 (A") A                   
 -0.6270       1 (A') B                  ->    6 (A") B                   
 -0.1362       1 (A') A                  ->    4 (A") A                   
 -0.1362       1 (A') B                  ->    4 (A") B                   

              Summary of significant orbitals:

               Number  Type             Irrep      Energy
               1       Occ  Alpha       1 (A')    -26.3102
               1       Occ  Beta        1 (A')    -26.3102
               18      Vir  Alpha       4 (A")      0.1220
               28      Vir  Alpha       6 (A")      0.3757
               18      Vir  Beta        4 (A")      0.1220
               28      Vir  Beta        6 (A")      0.3757


 EOMEE transition 5/A"
 Total energy = -151.52661352 a.u.  Excitation energy = 706.4036 eV.
 R0^2 = 0.0000  R1^2 = 0.8345  R2_CCVV^2 = 0.0004  R2_COVV^2 = 0.0826  Res^2 = 5.02e-05
 Conv-d = yes

 Amplitude    Transitions between orbitals
 -0.6095       1 (A') A                  ->    7 (A") A                   
 -0.6095       1 (A') B                  ->    7 (A") B                   
  0.2048       1 (A') A                  ->    8 (A") A                   
  0.2048       1 (A') B                  ->    8 (A") B                   

              Summary of significant orbitals:

               Number  Type             Irrep      Energy
               1       Occ  Alpha       1 (A')    -26.3102
               1       Occ  Beta        1 (A')    -26.3102
               37      Vir  Alpha       7 (A")      0.7018
               38      Vir  Alpha       8 (A")      0.7837
               37      Vir  Beta        7 (A")      0.7018
               38      Vir  Beta        8 (A")      0.7837


 EOMEE transition 6/A"
 Total energy = -151.42223564 a.u.  Excitation energy = 709.2439 eV.
 R0^2 = 0.0000  R1^2 = 0.8208  R2_CCVV^2 = 0.0003  R2_COVV^2 = 0.0894  Res^2 = 2.93e-05
 Conv-d = yes

 Amplitude    Transitions between orbitals
  0.6044       1 (A') A                  ->    8 (A") A                   
  0.6044       1 (A') B                  ->    8 (A") B                   
  0.2022       1 (A') A                  ->    7 (A") A                   
  0.2022       1 (A') B                  ->    7 (A") B                   

              Summary of significant orbitals:

               Number  Type             Irrep      Energy
               1       Occ  Alpha       1 (A')    -26.3102
               1       Occ  Beta        1 (A')    -26.3102
               37      Vir  Alpha       7 (A")      0.7018
               38      Vir  Alpha       8 (A")      0.7837
               37      Vir  Beta        7 (A")      0.7018
               38      Vir  Beta        8 (A")      0.7837


 EOMEE transition 7/A"
 Total energy = -151.27461822 a.u.  Excitation energy = 713.2608 eV.
 R0^2 = 0.0000  R1^2 = 0.0021  R2_CCVV^2 = 0.0000  R2_COVV^2 = 0.4989  Res^2 = 4.20e-06
 Conv-d = yes

 Amplitude    Transitions between orbitals
  0.1655       1 (A') A      2 (A") B    ->    14 (A') A     22 (A') B    
 -0.1655       1 (A') A      2 (A") B    ->    22 (A') B     14 (A') A    
 -0.1655       1 (A') B      2 (A") A    ->    22 (A') A     14 (A') B    
  0.1655       1 (A') B      2 (A") A    ->    14 (A') B     22 (A') A    
 -0.1564       1 (A') A      2 (A") B    ->    22 (A') A     22 (A') B    
  0.1564       1 (A') A      2 (A") B    ->    22 (A') B     22 (A') A    
[...]
 State A: ccsd: 0/A'
 State B: cvs_eomee_ccsd/rhfref/singlets: 4/A'
 Transition dipole moment (a.u.):
   A->B: 0.020020 (X 0.019661, Y 0.003773, Z 0.000000)
   B->A: 0.020451 (X 0.020100, Y 0.003775, Z 0.000000)
 Oscillator strength (a.u.): 0.006953
 Norm of one-particle transition density matrix:
   A->B: 0.913699;   B->A: 0.883001
   ||gamma^AB||*||gamma^BA||: 0.806797

 ------------------------------------------------------------------------------
 State A: ccsd: 0/A'
 State B: cvs_eomee_ccsd/rhfref/singlets: 5/A'
 Transition dipole moment (a.u.):
   A->B: 0.011978 (X 0.004661, Y -0.011033, Z 0.000000)
   B->A: 0.012228 (X 0.004713, Y -0.011284, Z 0.000000)
 Oscillator strength (a.u.): 0.002492
 Norm of one-particle transition density matrix:
   A->B: 0.915166;   B->A: 0.882055
   ||gamma^AB||*||gamma^BA||: 0.807227

 ------------------------------------------------------------------------------
 State A: ccsd: 0/A'
 State B: cvs_eomee_ccsd/rhfref/singlets: 6/A'
 Transition dipole moment (a.u.):
   A->B: 0.023985 (X -0.022856, Y -0.007270, Z 0.000000)
   B->A: 0.024299 (X -0.023114, Y -0.007496, Z 0.000000)
 Oscillator strength (a.u.): 0.009919
 Norm of one-particle transition density matrix:
   A->B: 0.915262;   B->A: 0.885675
   ||gamma^AB||*||gamma^BA||: 0.810625

 ------------------------------------------------------------------------------
 State A: ccsd: 0/A'
 State B: cvs_eomee_ccsd/rhfref/singlets: 7/A'
 Transition dipole moment (a.u.):
   A->B: 0.006331 (X -0.005483, Y 0.003164, Z 0.000000)
   B->A: 0.006123 (X -0.005136, Y 0.003334, Z 0.000000)
 Oscillator strength (a.u.): 0.000659
 Norm of one-particle transition density matrix:
   A->B: 0.915138;   B->A: 0.882157
   ||gamma^AB||*||gamma^BA||: 0.807295

 ------------------------------------------------------------------------------
 State A: ccsd: 0/A'
 State B: cvs_eomee_ccsd/rhfref/singlets: 8/A'
 Transition dipole moment (a.u.):
   A->B: 0.003305 (X -0.002997, Y 0.001393, Z 0.000000)
   B->A: 0.003326 (X -0.002984, Y 0.001471, Z 0.000000)
 Oscillator strength (a.u.): 0.000187
 Norm of one-particle transition density matrix:
   A->B: 0.913430;   B->A: 0.880252
   ||gamma^AB||*||gamma^BA||: 0.804048

 ------------------------------------------------------------------------------
 State A: ccsd: 0/A'
 State B: cvs_eomee_ccsd/rhfref/singlets: 9/A'
 Transition dipole moment (a.u.):
   A->B: 0.002269 (X 0.000901, Y -0.002082, Z 0.000000)
   B->A: 0.002283 (X 0.000944, Y -0.002079, Z 0.000000)
 Oscillator strength (a.u.): 0.000088
 Norm of one-particle transition density matrix:
   A->B: 0.913881;   B->A: 0.880323
   ||gamma^AB||*||gamma^BA||: 0.804510

 ------------------------------------------------------------------------------
 State A: ccsd: 0/A'
 State B: cvs_eomee_ccsd/rhfref/singlets: 10/A'
 Transition dipole moment (a.u.):
   A->B: 0.015591 (X 0.002711, Y 0.015353, Z 0.000000)
   B->A: 0.015909 (X 0.002802, Y 0.015660, Z 0.000000)
 Oscillator strength (a.u.): 0.004232
 Norm of one-particle transition density matrix:
   A->B: 0.913644;   B->A: 0.882613
   ||gamma^AB||*||gamma^BA||: 0.806394

 ------------------------------------------------------------------------------
 State A: ccsd: 0/A'
 State B: cvs_eomee_ccsd/rhfref/singlets: 11/A'
 Transition dipole moment (a.u.):
   A->B: 0.010628 (X -0.003147, Y 0.010152, Z 0.000000)
   B->A: 0.010883 (X -0.003214, Y 0.010397, Z 0.000000)
 Oscillator strength (a.u.): 0.001975
 Norm of one-particle transition density matrix:
   A->B: 0.912031;   B->A: 0.879327
   ||gamma^AB||*||gamma^BA||: 0.801974

 ------------------------------------------------------------------------------
 State A: ccsd: 0/A'
 State B: cvs_eomee_ccsd/rhfref/singlets: 12/A'
 Transition dipole moment (a.u.):
   A->B: 0.002544 (X 0.000035, Y -0.002543, Z 0.000000)
   B->A: 0.002688 (X -0.000022, Y -0.002688, Z 0.000000)
 Oscillator strength (a.u.): 0.000117
 Norm of one-particle transition density matrix:
   A->B: 0.909279;   B->A: 0.878051
   ||gamma^AB||*||gamma^BA||: 0.798393

 ------------------------------------------------------------------------------
 State A: ccsd: 0/A'
 State B: cvs_eomee_ccsd/rhfref/singlets: 13/A'
 Transition dipole moment (a.u.):
   A->B: 0.009634 (X 0.009499, Y -0.001611, Z 0.000000)
   B->A: 0.009693 (X 0.009551, Y -0.001657, Z 0.000000)
 Oscillator strength (a.u.): 0.001598
 Norm of one-particle transition density matrix:
   A->B: 0.915496;   B->A: 0.883741
   ||gamma^AB||*||gamma^BA||: 0.809061

 ------------------------------------------------------------------------------
 State A: ccsd: 0/A'
 State B: cvs_eomee_ccsd/rhfref/singlets: 14/A'
 Transition dipole moment (a.u.):
   A->B: 0.022445 (X 0.017269, Y -0.014337, Z 0.000000)
   B->A: 0.022573 (X 0.017268, Y -0.014538, Z 0.000000)
 Oscillator strength (a.u.): 0.008691
 Norm of one-particle transition density matrix:
   A->B: 0.918733;   B->A: 0.889345
   ||gamma^AB||*||gamma^BA||: 0.817070

 ------------------------------------------------------------------------------
 State A: ccsd: 0/A'
 State B: cvs_eomee_ccsd/rhfref/singlets: 15/A'
 Transition dipole moment (a.u.):
   A->B: 0.017099 (X 0.011341, Y 0.012796, Z 0.000000)
   B->A: 0.017162 (X 0.011275, Y 0.012939, Z 0.000000)
 Oscillator strength (a.u.): 0.005037
 Norm of one-particle transition density matrix:
   A->B: 0.915810;   B->A: 0.885985
   ||gamma^AB||*||gamma^BA||: 0.811393

 ------------------------------------------------------------------------------
 State A: ccsd: 0/A'
 State B: cvs_eomee_ccsd/rhfref/singlets: 16/A'
 Transition dipole moment (a.u.):
   A->B: 0.011410 (X 0.010297, Y 0.004915, Z 0.000000)
   B->A: 0.011560 (X 0.010416, Y 0.005016, Z 0.000000)
 Oscillator strength (a.u.): 0.002268
 Norm of one-particle transition density matrix:
   A->B: 0.910904;   B->A: 0.878943
   ||gamma^AB||*||gamma^BA||: 0.800633

 ------------------------------------------------------------------------------
 State A: ccsd: 0/A'
 State B: cvs_eomee_ccsd/rhfref/singlets: 17/A'
 Transition dipole moment (a.u.):
   A->B: 0.015179 (X 0.007615, Y -0.013130, Z 0.000000)
   B->A: 0.015327 (X 0.007691, Y -0.013258, Z 0.000000)
 Oscillator strength (a.u.): 0.004005
 Norm of one-particle transition density matrix:
   A->B: 0.909160;   B->A: 0.880148
   ||gamma^AB||*||gamma^BA||: 0.800195

 ------------------------------------------------------------------------------
 State A: ccsd: 0/A'
 State B: cvs_eomee_ccsd/rhfref/singlets: 18/A'
 Transition dipole moment (a.u.):
   A->B: 0.012622 (X -0.007366, Y 0.010249, Z 0.000000)
   B->A: 0.012780 (X -0.007348, Y 0.010456, Z 0.000000)
 Oscillator strength (a.u.): 0.002785
 Norm of one-particle transition density matrix:
   A->B: 0.911572;   B->A: 0.880920
   ||gamma^AB||*||gamma^BA||: 0.803022

 ------------------------------------------------------------------------------
 State A: ccsd: 0/A'
 State B: cvs_eomee_ccsd/rhfref/singlets: 19/A'
 Transition dipole moment (a.u.):
   A->B: 0.011266 (X 0.007967, Y 0.007966, Z 0.000000)
   B->A: 0.011332 (X 0.007955, Y 0.008070, Z 0.000000)
 Oscillator strength (a.u.): 0.002207
 Norm of one-particle transition density matrix:
   A->B: 0.908193;   B->A: 0.875627
   ||gamma^AB||*||gamma^BA||: 0.795238

 ------------------------------------------------------------------------------
 State A: ccsd: 0/A'
 State B: cvs_eomee_ccsd/rhfref/singlets: 20/A'
 Transition dipole moment (a.u.):
   A->B: 0.002463 (X 0.001668, Y 0.001811, Z 0.000000)
   B->A: 0.002457 (X 0.001660, Y 0.001812, Z 0.000000)
 Oscillator strength (a.u.): 0.000105
 Norm of one-particle transition density matrix:
   A->B: 0.905231;   B->A: 0.872695
   ||gamma^AB||*||gamma^BA||: 0.789991

 ------------------------------------------------------------------------------
 State A: ccsd: 0/A'
 State B: cvs_eomee_ccsd/rhfref/singlets: 1/A"
 Transition dipole moment (a.u.):
   A->B: 0.022367 (X 0.000000, Y 0.000000, Z -0.022367)
   B->A: 0.024058 (X 0.000000, Y 0.000000, Z -0.024058)
 Oscillator strength (a.u.): 0.009114
 Norm of one-particle transition density matrix:
   A->B: 0.888934;   B->A: 0.883594
   ||gamma^AB||*||gamma^BA||: 0.785457

 ------------------------------------------------------------------------------
 State A: ccsd: 0/A'
 State B: cvs_eomee_ccsd/rhfref/singlets: 2/A"
 Transition dipole moment (a.u.):
   A->B: 0.007745 (X 0.000000, Y 0.000000, Z 0.007745)
   B->A: 0.007920 (X 0.000000, Y 0.000000, Z 0.007920)
 Oscillator strength (a.u.): 0.001042
 Norm of one-particle transition density matrix:
   A->B: 0.915279;   B->A: 0.882907
   ||gamma^AB||*||gamma^BA||: 0.808106

 ------------------------------------------------------------------------------
 State A: ccsd: 0/A'
 State B: cvs_eomee_ccsd/rhfref/singlets: 3/A"
 Transition dipole moment (a.u.):
   A->B: 0.001071 (X 0.000000, Y 0.000000, Z -0.001071)
   B->A: 0.001300 (X 0.000000, Y 0.000000, Z -0.001300)
 Oscillator strength (a.u.): 0.000024
 Norm of one-particle transition density matrix:
   A->B: 0.910323;   B->A: 0.879092
   ||gamma^AB||*||gamma^BA||: 0.800258

 ------------------------------------------------------------------------------
 State A: ccsd: 0/A'
 State B: cvs_eomee_ccsd/rhfref/singlets: 4/A"
 Transition dipole moment (a.u.):
   A->B: 0.026922 (X 0.000000, Y 0.000000, Z -0.026922)
   B->A: 0.027387 (X 0.000000, Y 0.000000, Z -0.027387)
 Oscillator strength (a.u.): 0.012600
 Norm of one-particle transition density matrix:
   A->B: 0.919528;   B->A: 0.891188
   ||gamma^AB||*||gamma^BA||: 0.819472

 ------------------------------------------------------------------------------
 State A: ccsd: 0/A'
 State B: cvs_eomee_ccsd/rhfref/singlets: 5/A"
 Transition dipole moment (a.u.):
   A->B: 0.001721 (X 0.000000, Y 0.000000, Z -0.001721)
   B->A: 0.001768 (X 0.000000, Y 0.000000, Z -0.001768)
 Oscillator strength (a.u.): 0.000053
 Norm of one-particle transition density matrix:
   A->B: 0.910085;   B->A: 0.878590
   ||gamma^AB||*||gamma^BA||: 0.799592

 ------------------------------------------------------------------------------
 State A: ccsd: 0/A'
 State B: cvs_eomee_ccsd/rhfref/singlets: 6/A"
 Transition dipole moment (a.u.):
   A->B: 0.000029 (X 0.000000, Y 0.000000, Z -0.000029)
   B->A: 0.000061 (X 0.000000, Y 0.000000, Z 0.000061)
 Oscillator strength (a.u.): -0.000000
 Norm of one-particle transition density matrix:
   A->B: 0.902522;   B->A: 0.868220
   ||gamma^AB||*||gamma^BA||: 0.783588

 ------------------------------------------------------------------------------
 State A: ccsd: 0/A'
 State B: cvs_eomee_ccsd/rhfref/singlets: 7/A"
 Transition dipole moment (a.u.):
   A->B: 0.000628 (X 0.000000, Y 0.000000, Z -0.000628)
   B->A: 0.000698 (X 0.000000, Y 0.000000, Z -0.000698)
 Oscillator strength (a.u.): 0.000008
 Norm of one-particle transition density matrix:
   A->B: 0.045736;   B->A: 0.044737
   ||gamma^AB||*||gamma^BA||: 0.002046

 ------------------------------------------------------------------------------
 State A: ccsd: 0/A'
 State B: cvs_eomee_ccsd/rhfref/singlets: 8/A"
 Transition dipole moment (a.u.):
   A->B: 0.000445 (X 0.000000, Y 0.000000, Z 0.000445)
   B->A: 0.000406 (X 0.000000, Y 0.000000, Z 0.000406)
 Oscillator strength (a.u.): 0.000003
 Norm of one-particle transition density matrix:
   A->B: 0.019205;   B->A: 0.018522
   ||gamma^AB||*||gamma^BA||: 0.000356

 ------------------------------------------------------------------------------
 State A: ccsd: 0/A'
 State B: cvs_eomee_ccsd/rhfref/singlets: 9/A"
 Transition dipole moment (a.u.):
   A->B: 0.000239 (X 0.000000, Y 0.000000, Z -0.000239)
   B->A: 0.000321 (X 0.000000, Y 0.000000, Z -0.000321)
 Oscillator strength (a.u.): 0.000001
 Norm of one-particle transition density matrix:
   A->B: 0.011230;   B->A: 0.011782
   ||gamma^AB||*||gamma^BA||: 0.000132

 ------------------------------------------------------------------------------
 State A: ccsd: 0/A'
 State B: cvs_eomee_ccsd/rhfref/singlets: 10/A"
 Transition dipole moment (a.u.):
   A->B: 0.000173 (X 0.000000, Y 0.000000, Z 0.000173)
   B->A: 0.000140 (X 0.000000, Y 0.000000, Z 0.000140)
 Oscillator strength (a.u.): 0.000000
 Norm of one-particle transition density matrix:
   A->B: 0.010844;   B->A: 0.009751
   ||gamma^AB||*||gamma^BA||: 0.000106

 ------------------------------------------------------------------------------
 State A: ccsd: 0/A'
 State B: cvs_eomee_ccsd/rhfref/singlets: 11/A"
 Transition dipole moment (a.u.):
   A->B: 0.000019 (X 0.000000, Y 0.000000, Z 0.000019)
   B->A: 0.000114 (X 0.000000, Y 0.000000, Z -0.000114)
 Oscillator strength (a.u.): -0.000000
 Norm of one-particle transition density matrix:
   A->B: 0.011892;   B->A: 0.010250
   ||gamma^AB||*||gamma^BA||: 0.000122

 ------------------------------------------------------------------------------
 State A: ccsd: 0/A'
 State B: cvs_eomee_ccsd/rhfref/singlets: 12/A"
 Transition dipole moment (a.u.):
   A->B: 0.000126 (X 0.000000, Y 0.000000, Z 0.000126)
   B->A: 0.000130 (X 0.000000, Y 0.000000, Z 0.000130)
 Oscillator strength (a.u.): 0.000000
 Norm of one-particle transition density matrix:
   A->B: 0.012820;   B->A: 0.011899
   ||gamma^AB||*||gamma^BA||: 0.000153

 ------------------------------------------------------------------------------
 State A: ccsd: 0/A'
 State B: cvs_eomee_ccsd/rhfref/singlets: 13/A"
 Transition dipole moment (a.u.):
   A->B: 0.002101 (X 0.000000, Y 0.000000, Z -0.002101)
   B->A: 0.000471 (X 0.000000, Y 0.000000, Z -0.000471)
 Oscillator strength (a.u.): 0.000017
 Norm of one-particle transition density matrix:
   A->B: 0.148837;   B->A: 0.132133
   ||gamma^AB||*||gamma^BA||: 0.019666


 All requested transition properties have been computed

 Transition Properties:   CPU 50.92 s  wall 13.74 s

 Total ccman2 time:   CPU 4942.18 s  wall 1556.27 s

 
 --------------------------------------------------------------
             Orbital Energies (a.u.) and Symmetries
 --------------------------------------------------------------
 
 Alpha MOs, Restricted
 -- Occupied --                  
-26.310 -11.332 -11.240  -1.629  -1.055  -0.840  -0.740  -0.691
  1 A'    2 A'    3 A'    4 A'    5 A'    6 A'    7 A'    1 A"                 
 -0.686  -0.591  -0.562  -0.386
  8 A'    9 A'   10 A'    2 A"                                                 
 -- Virtual --                   
  0.046   0.059   0.067   0.109   0.121   0.122   0.139   0.175
 11 A'   12 A'   13 A'    3 A"   14 A'    4 A"   15 A'   16 A'                 
  0.180   0.205   0.214   0.216   0.267   0.287   0.325   0.376
 17 A'   18 A'    5 A"   19 A'   20 A'   21 A'   22 A'    6 A"                 
  0.378   0.455   0.475   0.501   0.547   0.636   0.647   0.700
 23 A'   24 A'   25 A'   26 A'   27 A'   28 A'   29 A'   30 A'                 
  0.702   0.784   0.839   0.902   0.916   0.946   1.010   1.083
  7 A"    8 A"   31 A'   32 A'   33 A'   34 A'   35 A'   36 A'                 
  1.250   1.311   1.457   1.569   1.644   1.660   1.670   1.733
  9 A"   10 A"   11 A"   37 A'   38 A'   39 A'   12 A"   40 A'                 
  1.807   1.842   1.904   1.947   2.030   2.142   2.210   2.310
 41 A'   42 A'   13 A"   43 A'   14 A"   44 A'   45 A'   15 A"                 
  2.342   2.401   2.432   2.554   2.740   2.863   2.916   2.981
 46 A'   16 A"   47 A'   48 A'   49 A'   50 A'   51 A'   52 A'                 
  3.044   3.064   3.250   3.363   3.580   3.873   4.142   4.225
 53 A'   17 A"   18 A"   54 A'   55 A'   56 A'   57 A'   19 A"                 
  4.248   4.424   4.443   4.590   5.310   6.925   7.004   7.324
 58 A'   59 A'   20 A"   60 A'   61 A'   21 A"   62 A'   63 A'                 
 24.828  25.409  68.750
 64 A'   65 A'   66 A'                                                         
 
 Beta MOs, Restricted
 -- Occupied --                  
-26.310 -11.332 -11.240  -1.629  -1.055  -0.840  -0.740  -0.691
  1 A'    2 A'    3 A'    4 A'    5 A'    6 A'    7 A'    1 A"                 
 -0.686  -0.591  -0.562  -0.386
  8 A'    9 A'   10 A'    2 A"                                                 
 -- Virtual --                   
  0.046   0.059   0.067   0.109   0.121   0.122   0.139   0.175
 11 A'   12 A'   13 A'    3 A"   14 A'    4 A"   15 A'   16 A'                 
  0.180   0.205   0.214   0.216   0.267   0.287   0.325   0.376
 17 A'   18 A'    5 A"   19 A'   20 A'   21 A'   22 A'    6 A"                 
  0.378   0.455   0.475   0.501   0.547   0.636   0.647   0.700
 23 A'   24 A'   25 A'   26 A'   27 A'   28 A'   29 A'   30 A'                 
  0.702   0.784   0.839   0.902   0.916   0.946   1.010   1.083
  7 A"    8 A"   31 A'   32 A'   33 A'   34 A'   35 A'   36 A'                 
  1.250   1.311   1.457   1.569   1.644   1.660   1.670   1.733
  9 A"   10 A"   11 A"   37 A'   38 A'   39 A'   12 A"   40 A'                 
  1.807   1.842   1.904   1.947   2.030   2.142   2.210   2.310
 41 A'   42 A'   13 A"   43 A'   14 A"   44 A'   45 A'   15 A"                 
  2.342   2.401   2.432   2.554   2.740   2.863   2.916   2.981
 46 A'   16 A"   47 A'   48 A'   49 A'   50 A'   51 A'   52 A'                 
  3.044   3.064   3.250   3.363   3.580   3.873   4.142   4.225
 53 A'   17 A"   18 A"   54 A'   55 A'   56 A'   57 A'   19 A"                 
  4.248   4.424   4.443   4.590   5.310   6.925   7.004   7.324
 58 A'   59 A'   20 A"   60 A'   61 A'   21 A"   62 A'   63 A'                 
 24.828  25.409  68.750
 64 A'   65 A'   66 A'                                                         
 --------------------------------------------------------------
 
          Ground-State Mulliken Net Atomic Charges

     Atom                 Charge (a.u.)
  ----------------------------------------
      1 F                    -0.161411
      2 C                    -0.250461
      3 C                    -0.020824
      4 H                     0.169571
      5 H                     0.148351
      6 H                     0.114774
  ----------------------------------------
  Sum of atomic charges =    -0.000000

 -----------------------------------------------------------------
                    Cartesian Multipole Moments
 -----------------------------------------------------------------
    Charge (ESU x 10^10)
                -0.0000
    Dipole Moment (Debye)
         X      -1.4919      Y      -0.9315      Z       0.0000
       Tot       1.7588
    Quadrupole Moments (Debye-Ang)
        XX     -18.0169     XY      -0.9545     YY     -15.3190
        XZ      -0.0000     YZ      -0.0000     ZZ     -19.4634
    Octopole Moments (Debye-Ang^2)
       XXX       3.3630    XXY      -0.3982    XYY       2.1562
       YYY       0.4379    XXZ       0.0000    XYZ      -0.0000
       YYZ       0.0000    XZZ       4.9913    YZZ       0.6898
       ZZZ       0.0000
    Hexadecapole Moments (Debye-Ang^3)
      XXXX    -118.9090   XXXY       3.8287   XXYY     -26.0404
      XYYY      -0.5470   YYYY     -34.4769   XXXZ      -0.0000
      XXYZ      -0.0000   XYYZ      -0.0000   YYYZ      -0.0000
      XXZZ     -26.3130   XYZZ       0.5238   YYZZ     -10.9109
      XZZZ      -0.0000   YZZZ      -0.0000   ZZZZ     -21.3270
 -----------------------------------------------------------------
Archival summary:
1\1\n-62-23-23\SP\ProcedureUnspecified\BasisUnspecified\123\malop\MonAug1319:28:302018MonAug1319:28:302018\0\\#,ProcedureUnspecified,BasisUnspecified,\\0,1\C\H,1,1.08083\C,1,1.32523,2,125.835\H,3,1.07898,1,118.942,2,-0,0\H,3,1.08006,1,121.377,2,180,0\F,1,1.34281,2,112.267,3,180,0\\HF=-176.936663\\@

 Total job time:  1611.39s(wall), 5030.53s(cpu) 
 Mon Aug 13 19:28:30 2018

        *************************************************************
        *                                                           *
        *  Thank you very much for using Q-Chem.  Have a nice day.  *
        *                                                           *
        *************************************************************


