[Molden Format]
[Atoms] (Angs)
  C      1    6     -0.00714236     -1.70213747     -0.00000000
  H      2    1     -2.06882847     -1.44022412      0.00000000
  H      3    1     -0.12337987     -2.77567521      0.00000000
  H      4    1      0.04651892      1.98813947     -0.00000000
  C      5    6     -1.21953563      0.40211669      0.00000000
  O      6    8     -2.25921553      1.03043814      0.00000000
  C      7    6      1.28797806      0.34644937     -0.00000000
  O      8    8      2.31273661      1.00537216     -0.00000000
  N      9    7      0.03446295      0.97739857     -0.00000000
  N     10    7     -1.17287765     -0.98229824      0.00000000
  C     11    6      1.20107039     -1.10433419     -0.00000000
  H     12    1      2.11220096     -1.67699125     -0.00000000
[GTO]
1    0
S    6    1.000000
   4.56324000E+03    1.96665000E-03 
   6.82024000E+02    1.52306000E-02 
   1.54973000E+02    7.61269000E-02 
   4.44553000E+01    2.60801000E-01 
   1.30290000E+01    6.16462000E-01 
   1.82773000E+00    2.21006000E-01 
SP   3    1.000000
   2.09642000E+01    1.14660000E-01   4.02487000E-02 
   4.80331000E+00    9.19999000E-01   2.37594000E-01 
   1.45933000E+00   -3.03068000E-03   8.15854000E-01 
SP   1    1.000000
   4.83456000E-01    1.00000000E+00   1.00000000E+00 
SP   1    1.000000
   1.45585000E-01    1.00000000E+00   1.00000000E+00 
SP   1    1.000000
   4.38000000E-02    1.00000000E+00   1.00000000E+00 
D    1    1.000000
   6.26000000E-01    1.00000000E+00 

2    0
S    3    1.000000
   3.38650000E+01    2.54938000E-02 
   5.09479000E+00    1.90373000E-01 
   1.15879000E+00    8.52161000E-01 
S    1    1.000000
   3.25840000E-01    1.00000000E+00 
S    1    1.000000
   1.02741000E-01    1.00000000E+00 
S    1    1.000000
   3.60000000E-02    1.00000000E+00 
P    1    1.000000
   7.50000000E-01    1.00000000E+00 

3    0
S    3    1.000000
   3.38650000E+01    2.54938000E-02 
   5.09479000E+00    1.90373000E-01 
   1.15879000E+00    8.52161000E-01 
S    1    1.000000
   3.25840000E-01    1.00000000E+00 
S    1    1.000000
   1.02741000E-01    1.00000000E+00 
S    1    1.000000
   3.60000000E-02    1.00000000E+00 
P    1    1.000000
   7.50000000E-01    1.00000000E+00 

4    0
S    3    1.000000
   3.38650000E+01    2.54938000E-02 
   5.09479000E+00    1.90373000E-01 
   1.15879000E+00    8.52161000E-01 
S    1    1.000000
   3.25840000E-01    1.00000000E+00 
S    1    1.000000
   1.02741000E-01    1.00000000E+00 
S    1    1.000000
   3.60000000E-02    1.00000000E+00 
P    1    1.000000
   7.50000000E-01    1.00000000E+00 

5    0
S    6    1.000000
   4.56324000E+03    1.96665000E-03 
   6.82024000E+02    1.52306000E-02 
   1.54973000E+02    7.61269000E-02 
   4.44553000E+01    2.60801000E-01 
   1.30290000E+01    6.16462000E-01 
   1.82773000E+00    2.21006000E-01 
SP   3    1.000000
   2.09642000E+01    1.14660000E-01   4.02487000E-02 
   4.80331000E+00    9.19999000E-01   2.37594000E-01 
   1.45933000E+00   -3.03068000E-03   8.15854000E-01 
SP   1    1.000000
   4.83456000E-01    1.00000000E+00   1.00000000E+00 
SP   1    1.000000
   1.45585000E-01    1.00000000E+00   1.00000000E+00 
SP   1    1.000000
   4.38000000E-02    1.00000000E+00   1.00000000E+00 
D    1    1.000000
   6.26000000E-01    1.00000000E+00 

6    0
S    6    1.000000
   8.58850000E+03    1.89515000E-03 
   1.29723000E+03    1.43859000E-02 
   2.99296000E+02    7.07320000E-02 
   8.73771000E+01    2.40001000E-01 
   2.56789000E+01    5.94797000E-01 
   3.74004000E+00    2.80802000E-01 
SP   3    1.000000
   4.21175000E+01    1.13889000E-01   3.65114000E-02 
   9.62837000E+00    9.20811000E-01   2.37153000E-01 
   2.85332000E+00   -3.27447000E-03   8.19702000E-01 
SP   1    1.000000
   9.05661000E-01    1.00000000E+00   1.00000000E+00 
SP   1    1.000000
   2.55611000E-01    1.00000000E+00   1.00000000E+00 
SP   1    1.000000
   8.45000000E-02    1.00000000E+00   1.00000000E+00 
D    1    1.000000
   1.29200000E+00    1.00000000E+00 

7    0
S    6    1.000000
   4.56324000E+03    1.96665000E-03 
   6.82024000E+02    1.52306000E-02 
   1.54973000E+02    7.61269000E-02 
   4.44553000E+01    2.60801000E-01 
   1.30290000E+01    6.16462000E-01 
   1.82773000E+00    2.21006000E-01 
SP   3    1.000000
   2.09642000E+01    1.14660000E-01   4.02487000E-02 
   4.80331000E+00    9.19999000E-01   2.37594000E-01 
   1.45933000E+00   -3.03068000E-03   8.15854000E-01 
SP   1    1.000000
   4.83456000E-01    1.00000000E+00   1.00000000E+00 
SP   1    1.000000
   1.45585000E-01    1.00000000E+00   1.00000000E+00 
SP   1    1.000000
   4.38000000E-02    1.00000000E+00   1.00000000E+00 
D    1    1.000000
   6.26000000E-01    1.00000000E+00 

8    0
S    6    1.000000
   8.58850000E+03    1.89515000E-03 
   1.29723000E+03    1.43859000E-02 
   2.99296000E+02    7.07320000E-02 
   8.73771000E+01    2.40001000E-01 
   2.56789000E+01    5.94797000E-01 
   3.74004000E+00    2.80802000E-01 
SP   3    1.000000
   4.21175000E+01    1.13889000E-01   3.65114000E-02 
   9.62837000E+00    9.20811000E-01   2.37153000E-01 
   2.85332000E+00   -3.27447000E-03   8.19702000E-01 
SP   1    1.000000
   9.05661000E-01    1.00000000E+00   1.00000000E+00 
SP   1    1.000000
   2.55611000E-01    1.00000000E+00   1.00000000E+00 
SP   1    1.000000
   8.45000000E-02    1.00000000E+00   1.00000000E+00 
D    1    1.000000
   1.29200000E+00    1.00000000E+00 

9    0
S    6    1.000000
   6.29348000E+03    1.96979000E-03 
   9.49044000E+02    1.49613000E-02 
   2.18776000E+02    7.35006000E-02 
   6.36916000E+01    2.48937000E-01 
   1.88282000E+01    6.02460000E-01 
   2.72023000E+00    2.56202000E-01 
SP   3    1.000000
   3.06331000E+01    1.11906000E-01   3.83119000E-02 
   7.02614000E+00    9.21666000E-01   2.37403000E-01 
   2.11205000E+00   -2.56919000E-03   8.17592000E-01 
SP   1    1.000000
   6.84009000E-01    1.00000000E+00   1.00000000E+00 
SP   1    1.000000
   2.00878000E-01    1.00000000E+00   1.00000000E+00 
SP   1    1.000000
   6.39000000E-02    1.00000000E+00   1.00000000E+00 
D    1    1.000000
   9.13000000E-01    1.00000000E+00 

10    0
S    6    1.000000
   6.29348000E+03    1.96979000E-03 
   9.49044000E+02    1.49613000E-02 
   2.18776000E+02    7.35006000E-02 
   6.36916000E+01    2.48937000E-01 
   1.88282000E+01    6.02460000E-01 
   2.72023000E+00    2.56202000E-01 
SP   3    1.000000
   3.06331000E+01    1.11906000E-01   3.83119000E-02 
   7.02614000E+00    9.21666000E-01   2.37403000E-01 
   2.11205000E+00   -2.56919000E-03   8.17592000E-01 
SP   1    1.000000
   6.84009000E-01    1.00000000E+00   1.00000000E+00 
SP   1    1.000000
   2.00878000E-01    1.00000000E+00   1.00000000E+00 
SP   1    1.000000
   6.39000000E-02    1.00000000E+00   1.00000000E+00 
D    1    1.000000
   9.13000000E-01    1.00000000E+00 

11    0
S    6    1.000000
   4.56324000E+03    1.96665000E-03 
   6.82024000E+02    1.52306000E-02 
   1.54973000E+02    7.61269000E-02 
   4.44553000E+01    2.60801000E-01 
   1.30290000E+01    6.16462000E-01 
   1.82773000E+00    2.21006000E-01 
SP   3    1.000000
   2.09642000E+01    1.14660000E-01   4.02487000E-02 
   4.80331000E+00    9.19999000E-01   2.37594000E-01 
   1.45933000E+00   -3.03068000E-03   8.15854000E-01 
SP   1    1.000000
   4.83456000E-01    1.00000000E+00   1.00000000E+00 
SP   1    1.000000
   1.45585000E-01    1.00000000E+00   1.00000000E+00 
SP   1    1.000000
   4.38000000E-02    1.00000000E+00   1.00000000E+00 
D    1    1.000000
   6.26000000E-01    1.00000000E+00 

12    0
S    3    1.000000
   3.38650000E+01    2.54938000E-02 
   5.09479000E+00    1.90373000E-01 
   1.15879000E+00    8.52161000E-01 
S    1    1.000000
   3.25840000E-01    1.00000000E+00 
S    1    1.000000
   1.02741000E-01    1.00000000E+00 
S    1    1.000000
   3.60000000E-02    1.00000000E+00 
P    1    1.000000
   7.50000000E-01    1.00000000E+00 

[MO]
Sym=X
Ene= 2.006078
Spin=Alpha
Occup=1
     1   -4.454367957785e-14
     2   -1.836873968451e-14
     3   -5.481207231710e-14
     4   -3.658457847682e-14
     5   -8.686719818033e-02
     6   -5.269859998750e-14
     7   -1.212921090220e-13
     8   -1.296122056200e-14
     9   -1.501984260860e-01
    10    2.071695102205e-13
    11    1.767270898858e-14
    12    7.340264742854e-14
    13   -1.298274227593e-01
    14   -2.903784829955e-12
    15   -7.628647552926e-13
    16   -6.049619522187e-13
    17   -1.499921641293e-02
    18   -7.048438810567e-16
    19   -1.281137340354e-02
    20   -1.060097192523e-02
    21   -1.144852945451e-14
    22   -1.657465808308e-14
    23    1.712931453657e-14
    24   -2.924338447420e-13
    25    2.015901996598e-13
    26    4.892671919059e-14
    27   -1.851441562637e-14
    28   -5.978395747640e-15
    29    5.180200982174e-04
    30    8.606301414618e-15
    31    3.296159676403e-14
    32    1.071916423566e-13
    33   -1.117649877259e-13
    34   -6.890251917656e-15
    35    3.819069397943e-15
    36   -6.429232420212e-03
    37    2.303923540161e-14
    38    3.481864744783e-13
    39    1.098153092345e-13
    40   -5.398504603332e-14
    41    5.236727420370e-15
    42   -2.884832814672e-14
    43    5.517957079240e-03
    44    4.079860596790e-15
    45    7.644990908425e-15
    46    1.052668991346e-14
    47    7.149662851513e-15
    48    1.038517223872e-01
    49   -2.007496595779e-14
    50    2.355782340058e-14
    51   -5.026330185951e-15
    52    1.834584744029e-01
    53   -2.265508806431e-13
    54    4.504465161901e-13
    55    6.653718933625e-13
    56    1.033748438523e-01
    57    2.378311388415e-13
    58    7.662291698108e-14
    59   -3.582056044188e-14
    60    2.162239402189e-02
    61    4.117808619314e-15
    62   -1.916675452537e-02
    63    2.051705718573e-02
    64    7.333408597772e-15
    65    9.580694496649e-15
    66   -1.794666243235e-15
    67   -1.771918636784e-15
    68   -1.339891991686e-15
    69    3.845408255021e-14
    70    2.417924295476e-01
    71    1.490028913623e-15
    72    2.958193704801e-16
    73    4.488497232992e-14
    74    2.822967350369e-01
    75    5.652501451420e-14
    76   -3.201785080182e-14
    77   -7.868937608721e-14
    78    1.738470104982e-01
    79    2.132248616035e-13
    80    3.918404634039e-14
    81   -9.796367348246e-14
    82   -8.775024125986e-03
    83    4.282787390993e-16
    84    1.921784453803e-02
    85   -1.174653549271e-02
    86    7.386360167068e-16
    87    1.730570379728e-15
    88    3.316610416135e-14
    89    2.781978071901e-14
    90   -3.289030875403e-14
    91    4.698356037742e-14
    92   -5.137885154106e-02
    93    2.597896541701e-14
    94   -1.614011592319e-14
    95    5.312553780330e-14
    96   -9.043097578129e-02
    97   -4.520675504912e-13
    98    2.547409138582e-13
    99    3.947246812538e-13
   100   -6.316030629687e-02
   101    1.741609754969e-12
   102   -3.735877003146e-13
   103   -4.074204379751e-13
   104   -1.449817821540e-02
   105    7.657151226600e-15
   106   -1.290519387468e-02
   107    8.022854782914e-03
   108    1.512862096400e-15
   109   -2.299605793590e-14
   110   -5.910444635419e-14
   111   -5.437465274802e-14
   112    3.711279427018e-15
   113    2.267575663245e-14
   114   -5.569699088056e-02
   115    1.473210994915e-14
   116   -1.141644240619e-14
   117    4.335993328525e-14
   118   -8.872988187927e-02
   119   -1.741358390544e-14
   120    3.691044564725e-15
   121    7.398992652386e-14
   122   -7.228285718324e-02
   123   -3.078660600786e-13
   124    1.824396908784e-13
   125    5.514393215742e-14
   126    9.309999751255e-03
   127    4.878273371182e-16
   128    6.882284584751e-03
   129    4.627081587302e-03
   130    3.436316778440e-15
   131   -3.192084630160e-16
   132    6.384736167325e-14
   133    2.563466047130e-14
   134    2.294076557097e-14
   135    2.145385756869e-14
   136    6.268057431727e-02
   137    1.911985805089e-13
   138    4.051292397192e-14
   139    9.247362295618e-14
   140    1.051488501820e-01
   141   -3.413445552367e-13
   142    2.729333542584e-13
   143   -5.851647326990e-13
   144    9.853702511758e-02
   145   -7.529367690846e-13
   146    2.587894901995e-13
   147    1.487860349173e-13
   148    3.792461527727e-03
   149   -7.506612938051e-16
   150   -1.203713640856e-02
   151   -2.034954948161e-03
   152    1.197750476655e-14
   153   -3.348055631949e-15
   154    3.141403197688e-14
   155    2.265264896608e-14
   156    3.916058313149e-15
   157   -1.373367912213e-14
   158   -3.218508114324e-03
   159   -1.685145752674e-14
   160    5.360724505307e-14
   161   -1.712158913603e-14
   162   -4.570607050428e-03
   163    4.840703857994e-13
   164   -5.914779812483e-13
   165    7.143558484887e-14
   166    9.611827629283e-04
   167    4.584166088424e-13
   168    4.602155030964e-13
   169    2.950289196546e-13
   170    6.174559116337e-03
   171   -8.809119399610e-15
   172   -7.412919148622e-03
   173    1.169173465650e-02
   174    5.826998816161e-15
   175    6.766874196580e-15
   176   -1.112585272786e-13
   177   -4.829447874816e-14
   178    3.388363362916e-14
   179    1.985913785020e-14
   180   -9.802309490833e-02
   181   -2.350208447409e-13
   182    5.080045741378e-14
   183    3.526839232614e-14
   184   -1.706294889743e-01
   185    2.496406444225e-13
   186    1.036346824288e-13
   187    1.918122623274e-13
   188   -1.446733211634e-01
   189    1.096213227044e-12
   190   -3.664223655014e-13
   191   -6.191392816926e-13
   192   -2.453606483248e-03
   193    1.304342026455e-14
   194    1.578661154004e-02
   195   -9.850585149473e-04
   196   -4.806834452618e-15
   197    1.432577621494e-16
   198   -3.294806378364e-14
   199   -4.411140224579e-14
   200   -8.627336502139e-14
   201    7.266502178188e-14
   202    7.841633475569e-15
   203    5.532392218130e-16
   204   -8.030936527137e-03
Sym=X
Ene= 2.003787
Spin=Alpha
Occup=1
     1    7.844225659969e-03
     2    1.312831483511e-02
     3    1.040575402560e-02
     4   -2.691531420671e-02
     5   -1.474255889656e-14
     6   -3.556912552976e-02
     7    1.755698003668e-02
     8   -4.459929164140e-02
     9    5.569131865701e-15
    10   -4.267737328458e-02
    11   -8.376956213177e-03
    12   -4.324165949666e-02
    13   -3.746329856955e-14
    14   -1.040136014397e-01
    15   -3.060950569411e-03
    16   -9.052363765560e-03
    17    1.222497511102e-13
    18    1.898585069656e-03
    19    3.492130968793e-15
    20   -5.171229705137e-16
    21   -1.085661946381e-02
    22    4.602465264399e-03
    23    2.437671024386e-03
    24   -1.144641438283e-02
    25   -2.889232001824e-02
    26    2.696979912465e-02
    27   -6.155277511787e-04
    28    5.336319717755e-04
    29   -1.289402726814e-14
    30    1.993134410907e-02
    31    3.303665485112e-02
    32    1.599133521440e-02
    33    4.344746824049e-03
    34    5.435885450410e-04
    35    4.446225932220e-04
    36    1.429835067024e-15
    37    1.554525477551e-03
    38    1.656573476525e-02
    39    3.189274471512e-02
    40   -4.630706225497e-02
    41    1.275002435538e-03
    42   -1.142243269300e-03
    43    1.034543536314e-14
    44   -8.745511772519e-03
    45   -1.452547846870e-02
    46   -4.086606059820e-02
    47   -1.324502245896e-02
    48   -6.196011154895e-15
    49    4.312297089457e-02
    50   -6.894111795420e-02
    51   -2.855542306625e-02
    52   -1.741696095165e-14
    53    4.997695226731e-02
    54    3.730621469747e-02
    55    6.196131818947e-02
    56    5.313584998254e-14
    57    3.998580408890e-02
    58    6.238500914304e-02
    59    7.941401674200e-02
    60   -1.122884635294e-13
    61   -2.138889230785e-03
    62    7.253296666215e-15
    63    9.457321993127e-15
    64   -5.481272970109e-02
    65   -3.262752312233e-02
    66   -3.623870526203e-03
    67   -5.118941248728e-03
    68    2.188506148758e-01
    69    2.556777925258e-01
    70   -4.400536654905e-14
    71    1.497389464030e-02
    72    2.515444547148e-01
    73    2.931983406841e-01
    74   -3.669759162638e-14
    75   -2.065969804708e-02
    76    1.546435860759e-01
    77    2.122918961500e-01
    78   -5.708947878389e-14
    79   -2.185273679872e-02
    80   -5.403497543648e-03
    81    4.106857528125e-03
    82    5.590596308310e-14
    83   -2.654135857239e-03
    84   -4.432521159201e-15
    85   -4.687755932581e-15
    86    1.463562468711e-02
    87    1.545164249749e-03
    88   -1.489393882407e-02
    89   -2.497381592810e-02
    90   -3.105037648069e-02
    91   -9.968410445618e-04
    92    4.781871758869e-14
    93    6.813937707383e-02
    94   -5.165986004014e-02
    95   -3.296018129785e-03
    96    6.539348353289e-14
    97    6.853627025899e-02
    98   -4.868908905205e-02
    99    8.026536884661e-03
   100    1.233692502438e-13
   101   -1.523901923797e-01
   102   -4.449594061353e-03
   103    9.086598297894e-02
   104    2.323095868626e-13
   105   -1.685735354253e-03
   106   -8.363189410086e-18
   107    7.067622888357e-15
   108   -2.910345765446e-02
   109    5.801899720616e-03
   110    3.596995630074e-03
   111    6.105290018312e-03
   112   -5.102063556101e-02
   113    9.816760707958e-02
   114    5.980353061278e-14
   115   -1.842519240527e-02
   116   -7.966129523332e-02
   117    1.510633988510e-01
   118    5.944635560608e-14
   119   -1.129786045914e-02
   120   -7.375339190599e-02
   121    1.362937714871e-01
   122    1.227106901362e-13
   123    2.708805759394e-02
   124   -1.245801280225e-02
   125    1.794350396854e-03
   126   -1.239462173181e-13
   127    2.593280943494e-04
   128   -6.684580475619e-16
   129   -1.227832844529e-14
   130    6.756039447238e-03
   131   -4.030139638037e-03
   132    2.457632998354e-02
   133    4.067613685123e-02
   134    5.176931641910e-02
   135    2.397173446139e-02
   136    7.844363488788e-14
   137   -1.079737708845e-01
   138    7.642948813958e-02
   139    2.709014577201e-02
   140    1.396970782997e-13
   141   -2.084909269111e-01
   142    7.167809486663e-02
   143    4.536633683956e-02
   144    9.099860680143e-14
   145   -1.788035693354e-01
   146   -6.908506776141e-03
   147    2.347373692526e-03
   148   -4.439160395492e-14
   149   -1.360731755210e-03
   150    3.912687152443e-15
   151    2.041764894239e-15
   152    8.924407152549e-04
   153   -3.753360560168e-03
   154   -1.286974600309e-02
   155   -2.109706331513e-02
   156   -2.423543351130e-02
   157    5.721990976586e-02
   158   -5.401814575400e-14
   159    5.573865034029e-02
   160   -4.205944982666e-02
   161    8.201800793145e-02
   162   -8.631571853435e-14
   163    1.081596317939e-01
   164   -3.607123408715e-02
   165    8.853944925751e-02
   166   -1.242455707721e-13
   167    1.138741272474e-01
   168   -7.839162294962e-03
   169    5.005433304905e-03
   170    3.635654486647e-15
   171    7.650888875161e-04
   172    6.338438964753e-16
   173    1.512404768180e-16
   174   -2.118037241961e-03
   175   -1.188734664331e-03
   176   -4.942135561867e-03
   177   -8.168470181484e-03
   178    1.435745119865e-03
   179    3.028880019420e-02
   180    1.540283710004e-14
   181    2.117712629929e-02
   182    3.556585683527e-03
   183    4.368241492987e-02
   184    3.561675741088e-15
   185    5.867232817858e-02
   186   -1.393787844725e-02
   187    3.667045888946e-02
   188    4.371008916013e-14
   189    2.525409310762e-01
   190   -3.088978694454e-02
   191    3.506401105262e-02
   192   -2.017351759065e-13
   193    1.520487700608e-04
   194    8.695415356635e-15
   195    3.049533233004e-15
   196   -5.271226329574e-03
   197    4.904715624934e-04
   198   -8.768559958419e-03
   199   -1.517028918345e-02
   200   -4.219189603852e-03
   201    1.152653622396e-02
   202    1.414834850294e-03
   203   -4.317066403787e-05
   204    1.060499577672e-15
Sym=X
Ene= 2.001611
Spin=Alpha
Occup=1
     1    5.927581066639e-03
     2    9.445614655583e-03
     3    2.737575809563e-02
     4   -6.688626282083e-03
     5    1.184796056125e-12
     6   -2.484902969814e-02
     7    4.802980865857e-02
     8   -1.070751377623e-02
     9    2.032097445595e-12
    10    3.492179234594e-03
    11    2.918997430951e-02
    12    1.150766420787e-02
    13    1.367003425574e-12
    14    2.879062437993e-01
    15    7.987684402957e-02
    16    9.865326590838e-02
    17    3.577330253597e-13
    18    1.401971138949e-03
    19   -8.919613045480e-14
    20    2.025799287924e-13
    21   -1.075623401555e-03
    22   -1.214710992894e-03
    23   -7.157388818537e-03
    24   -1.067913731213e-02
    25   -2.124435684929e-02
    26   -1.612688741434e-03
    27   -1.878556937816e-03
    28    1.353856603224e-03
    29    1.274121307460e-13
    30   -1.538706134859e-03
    31    2.293308599314e-03
    32    4.938441579904e-03
    33    4.942140481461e-02
    34    1.054380831513e-03
    35    1.655076057639e-04
    36    9.756257635233e-14
    37   -1.037929884061e-02
    38   -1.074045909270e-02
    39    6.965673908198e-03
    40    1.675717819679e-02
    41   -2.211415212656e-03
    42    1.453517605660e-03
    43    1.699955865310e-14
    44    2.019194068504e-02
    45    3.146362541660e-02
    46    7.469213418379e-02
    47   -7.569163630822e-02
    48    5.893518899090e-13
    49   -8.869928680410e-02
    50    1.144134763251e-01
    51   -1.252957816544e-01
    52    1.031882385961e-12
    53   -7.627373227447e-02
    54    1.795464307745e-02
    55    8.398073479564e-03
    56    4.495715838473e-13
    57   -1.956643186533e-02
    58    8.545153266723e-03
    59    2.802135719080e-02
    60    1.583489480997e-13
    61    6.361178058542e-03
    62    6.280291324676e-14
    63   -2.273007524658e-13
    64   -3.611636636360e-02
    65    6.163300036552e-03
    66    4.440045341243e-03
    67    5.921488400127e-03
    68   -9.447644134805e-02
    69    2.404774062325e-01
    70   -2.297322736649e-13
    71   -1.044907498034e-02
    72   -1.069073893989e-01
    73    2.745535100898e-01
    74   -2.279813569614e-13
    75    7.789798699581e-02
    76   -1.864493617711e-02
    77    1.598933118753e-01
    78   -2.690059930980e-13
    79    2.203638378808e-02
    80   -1.279955234658e-03
    81   -2.175986659335e-03
    82   -1.647451739185e-13
    83    9.591870270518e-03
    84    3.812500655209e-14
    85   -2.503011557960e-14
    86   -2.702734519553e-03
    87    1.738259645950e-02
    88    1.392447536241e-02
    89    2.319980223438e-02
    90   -3.441512262608e-03
    91   -8.114247891179e-04
    92   -8.279824073738e-13
    93   -6.616280398073e-02
    94   -7.537865446384e-03
    95    6.632084528472e-03
    96   -1.468620422604e-12
    97   -7.860954319156e-02
    98    3.599712025207e-02
    99   -5.869431179226e-02
   100   -1.047505630029e-12
   101    1.980073852380e-01
   102    4.239041498842e-02
   103   -1.043279378677e-01
   104   -2.843051178120e-14
   105    2.152623091701e-03
   106   -3.874443310213e-13
   107   -3.117950682692e-13
   108    4.454967312697e-02
   109   -2.433001258629e-02
   110   -9.599458348550e-03
   111   -1.627589298712e-02
   112    1.186600543629e-01
   113   -1.316953219648e-01
   114   -1.876435725309e-12
   115    4.938090761500e-02
   116    1.817250407790e-01
   117   -2.042263301176e-01
   118   -2.958217064592e-12
   119    6.438471231542e-02
   120    1.573609839375e-01
   121   -1.960783838593e-01
   122   -2.661587414415e-12
   123    1.854293093937e-02
   124   -6.111046215165e-03
   125   -1.084488885919e-02
   126   -3.494809824769e-13
   127    1.529236123794e-03
   128    1.723574477419e-13
   129    1.100405983371e-13
   130   -1.082871551079e-02
   131    2.464098908594e-03
   132   -7.535939887560e-03
   133   -1.328735744685e-02
   134    2.623170626681e-02
   135   -2.553721957981e-02
   136    2.797579594107e-13
   137    3.793300858162e-02
   138    3.554921109857e-02
   139   -3.868797705763e-02
   140    4.200320994593e-13
   141    9.293941158320e-02
   142    7.513959646184e-02
   143   -4.970688501811e-02
   144    5.864072063349e-13
   145    9.292450861229e-02
   146   -2.019669155401e-02
   147   -3.923442244754e-02
   148    1.964358895557e-14
   149    1.049541988082e-03
   150   -9.634206948901e-14
   151   -1.092767633743e-14
   152   -3.492239098920e-03
   153    7.217690721318e-03
   154   -1.328339234068e-02
   155   -2.164799093310e-02
   156   -6.766192320335e-03
   157    6.332958058704e-02
   158    1.761524231330e-12
   159    5.582416589769e-02
   160   -1.188119242837e-02
   161    9.643632728061e-02
   162    2.906824078191e-12
   163    9.163498912224e-02
   164   -7.133709633692e-03
   165    8.344002450515e-02
   166    2.603272499930e-12
   167    5.933704747454e-03
   168   -1.559025148191e-02
   169   -4.344441232512e-02
   170   -1.681385818513e-13
   171   -2.779571624785e-04
   172    1.137561369620e-13
   173    3.182182345780e-14
   174   -3.576299666565e-03
   175    4.674824071474e-03
   176    6.999969747598e-03
   177    1.137855994571e-02
   178    4.310150138466e-03
   179   -4.364521286669e-02
   180    6.475535219454e-13
   181   -2.868582901931e-02
   182    4.504290528734e-03
   183   -6.119809842491e-02
   184    1.089526882569e-12
   185   -1.147392449084e-01
   186    1.773626202662e-02
   187   -7.507955374527e-02
   188    1.194976286856e-12
   189   -5.446525375383e-01
   190    8.662160793213e-02
   191   -5.665351185699e-02
   192   -1.525134312856e-13
   193   -8.808465722770e-04
   194   -1.875290873217e-13
   195   -1.292067341578e-13
   196   -1.669558844468e-03
   197   -6.171681099367e-04
   198    1.549612421553e-02
   199    2.730188808384e-02
   200   -1.421793011434e-03
   201   -3.477937052920e-02
   202   -2.603518837472e-03
   203    2.238563325218e-03
   204    3.526420797446e-14
Sym=X
Ene= 2.001567
Spin=Alpha
Occup=1
     1    2.634199160680e-13
     2    3.960702431371e-13
     3    2.933532991526e-13
     4   -1.869948146691e-13
     5   -1.007555438991e-01
     6   -9.370202318463e-13
     7    5.386563233937e-13
     8   -2.919799970210e-13
     9   -1.725503511736e-01
    10   -1.463247412794e-13
    11    2.399314076168e-13
    12    1.826219042177e-14
    13   -1.246786924944e-01
    14   -4.953500571590e-12
    15   -1.811010494295e-12
    16    1.376962191900e-13
    17   -2.258176006248e-02
    18    4.415537069435e-14
    19    4.965546098508e-03
    20   -1.693044681762e-02
    21   -5.068965815439e-14
    22   -4.395815968103e-15
    23   -2.055444906254e-13
    24   -4.135121989844e-13
    25    5.246717138843e-13
    26   -3.257841691928e-13
    27   -5.655863493046e-14
    28    2.951411596509e-15
    29   -1.003564708768e-02
    30   -4.698070415899e-14
    31   -5.624127233683e-14
    32    2.004007975681e-13
    33    3.398176144769e-13
    34    8.129202690733e-15
    35   -2.220439152270e-14
    36   -7.792328775747e-03
    37    6.086963775466e-15
    38    1.412254328735e-13
    39   -4.183843883292e-13
    40    4.849315284277e-13
    41   -2.962205489955e-14
    42   -1.343458068771e-14
    43   -2.096767476275e-03
    44    2.028365615385e-13
    45    3.431738630306e-13
    46    9.108188444620e-13
    47   -9.124388849050e-13
    48   -5.204710309785e-02
    49   -1.058241891063e-12
    50    1.410781521991e-12
    51   -1.513774190770e-12
    52   -9.062423739912e-02
    53   -1.020546785688e-12
    54    3.805746985971e-13
    55    1.467153018990e-13
    56   -3.952293621900e-02
    57    3.715386596827e-13
    58   -7.420397833471e-14
    59   -3.527688328948e-13
    60   -2.207773997788e-02
    61    8.297346045823e-14
    62   -9.101077312593e-03
    63    1.611860850850e-02
    64   -4.173485004960e-13
    65    1.052458545062e-13
    66   -1.566308154283e-14
    67   -2.701395136236e-14
    68   -1.301218837443e-12
    69    2.842988125623e-12
    70    2.054707365425e-02
    71    2.119774404514e-13
    72   -1.464895623051e-12
    73    3.245796252116e-12
    74    2.082906796172e-02
    75    1.179332237271e-12
    76   -3.289783129386e-13
    77    1.831283927192e-12
    78    2.179179970229e-02
    79    4.019895442055e-13
    80    2.057339887333e-14
    81    1.710612935402e-15
    82    2.007362752787e-02
    83    1.155361960551e-13
    84   -3.291213151356e-03
    85    2.031177330280e-03
    86   -3.967633890392e-14
    87    2.081678419876e-13
    88    2.317299591393e-13
    89    2.825791619766e-13
    90    4.887662977913e-14
    91   -7.463896075866e-14
    92    6.170423022771e-02
    93   -5.262655212672e-13
    94    6.666452963086e-14
    95   -1.487092967696e-14
    96    1.075541560766e-01
    97   -6.312305820799e-13
    98    5.139312911787e-13
    99   -6.612528429221e-13
   100    8.550403842415e-02
   101    6.593120821312e-12
   102    1.019946379977e-12
   103   -2.927202167678e-12
   104    1.483924824678e-02
   105    1.620567949948e-14
   106    3.617821921204e-02
   107    2.630570065277e-02
   108    5.167196780877e-13
   109   -2.967814009050e-13
   110    1.335765969663e-13
   111    6.149994681312e-14
   112    1.312409854316e-12
   113   -1.666135762032e-12
   114    1.595930480453e-01
   115    3.317759082681e-13
   116    2.006363398992e-12
   117   -2.583106738699e-12
   118    2.501943790653e-01
   119    4.285226652319e-13
   120    1.813331626481e-12
   121   -2.400315111715e-12
   122    2.301594062185e-01
   123   -1.599067485958e-13
   124    2.785790685533e-15
   125   -6.558888774925e-14
   126    2.623712737442e-02
   127    1.151705472756e-14
   128   -1.410229593973e-02
   129   -8.632194216832e-03
   130   -1.312175302606e-13
   131    4.389335311079e-14
   132    6.587379698311e-15
   133   -1.162270689354e-13
   134    2.668784571180e-13
   135   -1.744326386330e-13
   136   -4.445084282856e-02
   137    6.734011847111e-13
   138    3.603782405690e-13
   139   -2.503709064083e-13
   140   -7.008437835632e-02
   141    1.164619539754e-12
   142    8.326737409144e-13
   143   -5.127012915225e-13
   144   -8.545324966693e-02