[Molden Format]
[Atoms] (Angs)
  C      1    6     -0.00714236     -1.70213747     -0.00000000
  H      2    1     -2.06882847     -1.44022412      0.00000000
  H      3    1     -0.12337987     -2.77567521      0.00000000
  H      4    1      0.04651892      1.98813947     -0.00000000
  C      5    6     -1.21953563      0.40211669      0.00000000
  O      6    8     -2.25921553      1.03043814      0.00000000
  C      7    6      1.28797806      0.34644937     -0.00000000
  O      8    8      2.31273661      1.00537216     -0.00000000
  N      9    7      0.03446295      0.97739857     -0.00000000
  N     10    7     -1.17287765     -0.98229824      0.00000000
  C     11    6      1.20107039     -1.10433419     -0.00000000
  H     12    1      2.11220096     -1.67699125     -0.00000000
[GTO]
1    0
S    6    1.000000
   4.56324000E+03    1.96665000E-03 
   6.82024000E+02    1.52306000E-02 
   1.54973000E+02    7.61269000E-02 
   4.44553000E+01    2.60801000E-01 
   1.30290000E+01    6.16462000E-01 
   1.82773000E+00    2.21006000E-01 
SP   3    1.000000
   2.09642000E+01    1.14660000E-01   4.02487000E-02 
   4.80331000E+00    9.19999000E-01   2.37594000E-01 
   1.45933000E+00   -3.03068000E-03   8.15854000E-01 
SP   1    1.000000
   4.83456000E-01    1.00000000E+00   1.00000000E+00 
SP   1    1.000000
   1.45585000E-01    1.00000000E+00   1.00000000E+00 
SP   1    1.000000
   4.38000000E-02    1.00000000E+00   1.00000000E+00 
D    1    1.000000
   6.26000000E-01    1.00000000E+00 

2    0
S    3    1.000000
   3.38650000E+01    2.54938000E-02 
   5.09479000E+00    1.90373000E-01 
   1.15879000E+00    8.52161000E-01 
S    1    1.000000
   3.25840000E-01    1.00000000E+00 
S    1    1.000000
   1.02741000E-01    1.00000000E+00 
S    1    1.000000
   3.60000000E-02    1.00000000E+00 
P    1    1.000000
   7.50000000E-01    1.00000000E+00 

3    0
S    3    1.000000
   3.38650000E+01    2.54938000E-02 
   5.09479000E+00    1.90373000E-01 
   1.15879000E+00    8.52161000E-01 
S    1    1.000000
   3.25840000E-01    1.00000000E+00 
S    1    1.000000
   1.02741000E-01    1.00000000E+00 
S    1    1.000000
   3.60000000E-02    1.00000000E+00 
P    1    1.000000
   7.50000000E-01    1.00000000E+00 

4    0
S    3    1.000000
   3.38650000E+01    2.54938000E-02 
   5.09479000E+00    1.90373000E-01 
   1.15879000E+00    8.52161000E-01 
S    1    1.000000
   3.25840000E-01    1.00000000E+00 
S    1    1.000000
   1.02741000E-01    1.00000000E+00 
S    1    1.000000
   3.60000000E-02    1.00000000E+00 
P    1    1.000000
   7.50000000E-01    1.00000000E+00 

5    0
S    6    1.000000
   4.56324000E+03    1.96665000E-03 
   6.82024000E+02    1.52306000E-02 
   1.54973000E+02    7.61269000E-02 
   4.44553000E+01    2.60801000E-01 
   1.30290000E+01    6.16462000E-01 
   1.82773000E+00    2.21006000E-01 
SP   3    1.000000
   2.09642000E+01    1.14660000E-01   4.02487000E-02 
   4.80331000E+00    9.19999000E-01   2.37594000E-01 
   1.45933000E+00   -3.03068000E-03   8.15854000E-01 
SP   1    1.000000
   4.83456000E-01    1.00000000E+00   1.00000000E+00 
SP   1    1.000000
   1.45585000E-01    1.00000000E+00   1.00000000E+00 
SP   1    1.000000
   4.38000000E-02    1.00000000E+00   1.00000000E+00 
D    1    1.000000
   6.26000000E-01    1.00000000E+00 

6    0
S    6    1.000000
   8.58850000E+03    1.89515000E-03 
   1.29723000E+03    1.43859000E-02 
   2.99296000E+02    7.07320000E-02 
   8.73771000E+01    2.40001000E-01 
   2.56789000E+01    5.94797000E-01 
   3.74004000E+00    2.80802000E-01 
SP   3    1.000000
   4.21175000E+01    1.13889000E-01   3.65114000E-02 
   9.62837000E+00    9.20811000E-01   2.37153000E-01 
   2.85332000E+00   -3.27447000E-03   8.19702000E-01 
SP   1    1.000000
   9.05661000E-01    1.00000000E+00   1.00000000E+00 
SP   1    1.000000
   2.55611000E-01    1.00000000E+00   1.00000000E+00 
SP   1    1.000000
   8.45000000E-02    1.00000000E+00   1.00000000E+00 
D    1    1.000000
   1.29200000E+00    1.00000000E+00 

7    0
S    6    1.000000
   4.56324000E+03    1.96665000E-03 
   6.82024000E+02    1.52306000E-02 
   1.54973000E+02    7.61269000E-02 
   4.44553000E+01    2.60801000E-01 
   1.30290000E+01    6.16462000E-01 
   1.82773000E+00    2.21006000E-01 
SP   3    1.000000
   2.09642000E+01    1.14660000E-01   4.02487000E-02 
   4.80331000E+00    9.19999000E-01   2.37594000E-01 
   1.45933000E+00   -3.03068000E-03   8.15854000E-01 
SP   1    1.000000
   4.83456000E-01    1.00000000E+00   1.00000000E+00 
SP   1    1.000000
   1.45585000E-01    1.00000000E+00   1.00000000E+00 
SP   1    1.000000
   4.38000000E-02    1.00000000E+00   1.00000000E+00 
D    1    1.000000
   6.26000000E-01    1.00000000E+00 

8    0
S    6    1.000000
   8.58850000E+03    1.89515000E-03 
   1.29723000E+03    1.43859000E-02 
   2.99296000E+02    7.07320000E-02 
   8.73771000E+01    2.40001000E-01 
   2.56789000E+01    5.94797000E-01 
   3.74004000E+00    2.80802000E-01 
SP   3    1.000000
   4.21175000E+01    1.13889000E-01   3.65114000E-02 
   9.62837000E+00    9.20811000E-01   2.37153000E-01 
   2.85332000E+00   -3.27447000E-03   8.19702000E-01 
SP   1    1.000000
   9.05661000E-01    1.00000000E+00   1.00000000E+00 
SP   1    1.000000
   2.55611000E-01    1.00000000E+00   1.00000000E+00 
SP   1    1.000000
   8.45000000E-02    1.00000000E+00   1.00000000E+00 
D    1    1.000000
   1.29200000E+00    1.00000000E+00 

9    0
S    6    1.000000
   6.29348000E+03    1.96979000E-03 
   9.49044000E+02    1.49613000E-02 
   2.18776000E+02    7.35006000E-02 
   6.36916000E+01    2.48937000E-01 
   1.88282000E+01    6.02460000E-01 
   2.72023000E+00    2.56202000E-01 
SP   3    1.000000
   3.06331000E+01    1.11906000E-01   3.83119000E-02 
   7.02614000E+00    9.21666000E-01   2.37403000E-01 
   2.11205000E+00   -2.56919000E-03   8.17592000E-01 
SP   1    1.000000
   6.84009000E-01    1.00000000E+00   1.00000000E+00 
SP   1    1.000000
   2.00878000E-01    1.00000000E+00   1.00000000E+00 
SP   1    1.000000
   6.39000000E-02    1.00000000E+00   1.00000000E+00 
D    1    1.000000
   9.13000000E-01    1.00000000E+00 

10    0
S    6    1.000000
   6.29348000E+03    1.96979000E-03 
   9.49044000E+02    1.49613000E-02 
   2.18776000E+02    7.35006000E-02 
   6.36916000E+01    2.48937000E-01 
   1.88282000E+01    6.02460000E-01 
   2.72023000E+00    2.56202000E-01 
SP   3    1.000000
   3.06331000E+01    1.11906000E-01   3.83119000E-02 
   7.02614000E+00    9.21666000E-01   2.37403000E-01 
   2.11205000E+00   -2.56919000E-03   8.17592000E-01 
SP   1    1.000000
   6.84009000E-01    1.00000000E+00   1.00000000E+00 
SP   1    1.000000
   2.00878000E-01    1.00000000E+00   1.00000000E+00 
SP   1    1.000000
   6.39000000E-02    1.00000000E+00   1.00000000E+00 
D    1    1.000000
   9.13000000E-01    1.00000000E+00 

11    0
S    6    1.000000
   4.56324000E+03    1.96665000E-03 
   6.82024000E+02    1.52306000E-02 
   1.54973000E+02    7.61269000E-02 
   4.44553000E+01    2.60801000E-01 
   1.30290000E+01    6.16462000E-01 
   1.82773000E+00    2.21006000E-01 
SP   3    1.000000
   2.09642000E+01    1.14660000E-01   4.02487000E-02 
   4.80331000E+00    9.19999000E-01   2.37594000E-01 
   1.45933000E+00   -3.03068000E-03   8.15854000E-01 
SP   1    1.000000
   4.83456000E-01    1.00000000E+00   1.00000000E+00 
SP   1    1.000000
   1.45585000E-01    1.00000000E+00   1.00000000E+00 
SP   1    1.000000
   4.38000000E-02    1.00000000E+00   1.00000000E+00 
D    1    1.000000
   6.26000000E-01    1.00000000E+00 

12    0
S    3    1.000000
   3.38650000E+01    2.54938000E-02 
   5.09479000E+00    1.90373000E-01 
   1.15879000E+00    8.52161000E-01 
S    1    1.000000
   3.25840000E-01    1.00000000E+00 
S    1    1.000000
   1.02741000E-01    1.00000000E+00 
S    1    1.000000
   3.60000000E-02    1.00000000E+00 
P    1    1.000000
   7.50000000E-01    1.00000000E+00 

[MO]
Sym=X
Ene= 2.007963
Spin=Alpha
Occup=1
     1   -8.471329601148e-15
     2   -3.830677420550e-15
     3    2.631545006082e-14
     4    2.583562068745e-15
     5   -3.613099723320e-02
     6   -2.213149115934e-14
     7    2.409089693845e-14
     8    2.410737763309e-14
     9   -6.271468858429e-02
    10    4.399025852098e-13
    11   -7.943225492070e-14
    12    1.572224453461e-13
    13   -3.634676432216e-02
    14   -5.657941850274e-12
    15   -1.612764644343e-12
    16   -6.800201763380e-13
    17   -3.007982573737e-03
    18   -5.974930783373e-15
    19    1.226966033349e-02
    20   -6.725389352260e-03
    21   -1.712698556033e-14
    22   -9.293941985363e-17
    23   -2.150508743341e-14
    24   -2.493314618105e-13
    25    8.927446316343e-14
    26   -5.026632798208e-13
    27   -1.480606823457e-14
    28   -5.892357068003e-15
    29   -8.769965185960e-03
    30    6.590351549116e-15
    31    1.106943544484e-14
    32    6.065210091629e-14
    33   -8.003422284403e-14
    34   -5.928215459393e-17
    35   -8.161618420250e-15
    36   -2.873406465282e-03
    37    7.882110337447e-15
    38    2.068888923096e-13
    39   -4.857959079718e-13
    40    3.648872694244e-13
    41    5.432499068107e-15
    42   -1.163079892694e-14
    43    8.363209682721e-03
    44   -3.574142006252e-14
    45   -3.686842717708e-14
    46    1.712167109192e-14
    47    3.476002662555e-14
    48   -2.546111824584e-02
    49    2.580286512825e-14
    50    1.311630178012e-14
    51    2.900015600742e-14
    52   -4.463292286320e-02
    53    1.434587953546e-14
    54    1.705612886709e-13
    55    3.636226523769e-13
    56   -2.967751101158e-02
    57    1.215318963006e-12
    58    2.048919348771e-15
    59   -7.128962802842e-13
    60   -1.066303595708e-02
    61   -1.451991613513e-15
    62    1.861095774905e-02
    63    1.287793700352e-02
    64   -1.901461643714e-14
    65   -1.299813027870e-14
    66   -1.653408407638e-14
    67   -1.866059378480e-14
    68    3.554077362045e-14
    69    4.099964638071e-14
    70   -4.340598350434e-02
    71    2.285461492996e-14
    72    7.529621599617e-14
    73    9.317352645183e-14
    74   -6.818254388441e-02
    75    7.286170014373e-14
    76   -1.146006987496e-14
    77   -5.769273708425e-14
    78   -6.070207993589e-02
    79   -3.125643889855e-13
    80   -3.407941835910e-14
    81    2.788529228970e-13
    82    8.863570210595e-04
    83   -2.212576283861e-15
    84   -4.310602371656e-03
    85    2.931618539034e-03
    86    4.638496995621e-15
    87    7.231591994051e-16
    88    2.955295819665e-14
    89    3.384299517657e-14
    90    3.106102219402e-14
    91   -3.137821678832e-14
    92    1.129538259744e-01
    93   -4.386742419779e-14
    94    6.350889259613e-14
    95   -5.153289443140e-14
    96    1.990854381750e-01
    97   -4.088118823921e-13
    98    2.260462783011e-15
    99    1.711157533843e-13
   100    1.114221223410e-01
   101   -1.277834746974e-12
   102    1.446781155372e-12
   103   -3.398087485096e-13
   104    3.775646511315e-02
   105    8.622533946654e-15
   106    1.454725164665e-02
   107    2.543859217418e-02
   108   -4.492376598829e-14
   109    1.794887317686e-14
   110    1.568851791877e-14
   111    2.360452206924e-14
   112   -1.094083050423e-13
   113    1.594524831291e-13
   114    2.523531657310e-01
   115   -8.629321260657e-14
   116   -1.121889364013e-13
   117    1.691325883207e-13
   118    2.949639905140e-01
   119   -1.973353593890e-14
   120   -2.720652325062e-14
   121    5.410618070125e-14
   122    1.822826903245e-01
   123   -5.794992872767e-14
   124   -2.097865658651e-13
   125   -1.642009229034e-13
   126   -1.320402311275e-02
   127    1.543840254995e-15
   128   -2.033811979685e-02
   129   -1.239892287156e-02
   130    5.196945881592e-15
   131   -3.223815200047e-15
   132    4.714101546398e-14
   133    5.325560291450e-14
   134   -5.669032774911e-14
   135    3.435067052785e-14
   136    1.043383590890e-01
   137   -7.138297234629e-14
   138   -1.076232984481e-13
   139    8.334182357630e-14
   140    1.726035368273e-01
   141   -3.423265903538e-13
   142   -4.577201715045e-14
   143   -3.189768282754e-13
   144    1.641450743709e-01
   145    1.495150352406e-12
   146    4.056276944975e-13
   147    4.601433333516e-13
   148    5.348414750768e-04
   149    6.087034488413e-15
   150    9.797453521666e-03
   151   -4.909559050563e-03
   152    4.605636694800e-15
   153    7.988908852546e-15
   154   -3.117714123325e-14
   155   -6.243736607817e-15
   156    2.286390485596e-15
   157    1.771611772894e-14
   158   -1.011031677642e-01
   159   -1.118151780937e-13
   160    4.950038532322e-14
   161    1.663094578608e-14
   162   -1.667943459468e-01
   163    1.231421523798e-13
   164   -4.830715151854e-13
   165    5.468576783923e-14
   166   -1.581745377549e-01
   167   -7.797971852816e-13
   168   -1.787411168203e-14
   169    3.074608421241e-13
   170   -7.110161129492e-03
   171   -2.763471033158e-15
   172   -4.160896658893e-03
   173   -1.412886384354e-03
   174    7.806325564810e-15
   175    6.647768717605e-15
   176    1.298892604526e-13
   177    9.698926157002e-14
   178   -2.003818955581e-15
   179    2.172633358126e-14
   180    9.438766210368e-03
   181    5.433686519469e-14
   182   -3.732442997454e-15
   183    4.669913664540e-14
   184    1.808191375809e-02
   185    3.264510183035e-14
   186   -4.848379304388e-15
   187    1.060323690825e-13
   188    2.464270586156e-03
   189    5.520228270075e-12
   190   -2.328464369277e-12
   191   -9.647451306388e-13
   192   -1.335334433181e-02
   193   -1.949780406069e-15
   194    3.960765974417e-03
   195    1.217116343236e-02
   196    1.933197987587e-16
   197    1.262740302065e-14
   198   -2.290900564275e-15
   199   -5.686624880676e-15
   200    1.488929852136e-13
   201    2.039308268682e-13
   202    1.770854801626e-15
   203    7.484120833745e-16
   204    1.225470908851e-03
Sym=X
Ene= 2.002834
Spin=Alpha
Occup=1
     1   -9.014985006007e-03
     2   -1.530948792519e-02
     3    2.149558824180e-02
     4    2.045915655915e-02
     5   -4.989434813095e-14
     6    4.238946571397e-02
     7    3.608659892251e-02
     8    3.465624738294e-02
     9   -9.206840238476e-14
    10    7.177598242093e-02
    11    2.872111052584e-02
    12    5.390775326961e-02
    13   -7.319978770924e-14
    14    2.178023893615e-01
    15    5.817391216762e-02
    16    4.363025060390e-02
    17    2.804620705047e-14
    18   -1.174420190951e-03
    19   -2.428544377979e-14
    20   -8.604486745665e-15
    21    8.224840179091e-03
    22   -4.394974042177e-04
    23    1.915669099512e-03
    24    6.006064488979e-03
    25    1.870711541267e-03
    26   -1.210981412204e-02
    27    5.715136036762e-04
    28    2.947477637026e-04
    29    2.070211321447e-15
    30   -1.415385959722e-02
    31   -1.935717047999e-02
    32   -9.494901303181e-03
    33    1.782515994590e-02
    34    1.196625498727e-03
    35    5.795724841197e-04
    36   -9.448109919066e-15
    37    3.445677874091e-04
    38   -1.209515810116e-02
    39   -1.564203994995e-02
    40    4.813542262916e-02
    41    2.320068879254e-03
    42    1.558350867925e-05
    43    9.152192405250e-16
    44    1.329138045070e-02
    45    2.209136715930e-02
    46   -3.376130211974e-02
    47   -1.513870317543e-02
    48   -5.035930522120e-14
    49   -6.188641820350e-02
    50   -5.657137928150e-02
    51   -2.401186120514e-02
    52   -1.032992112075e-13
    53   -6.286131815517e-02
    54   -5.090022636229e-02
    55   -2.104264102390e-02
    56    1.781285128256e-14
    57   -4.212377441611e-02
    58   -2.615812200117e-02
    59   -4.340837475698e-02
    60   -2.857952934316e-14
    61    1.777696227710e-03
    62    2.725662223339e-15
    63   -8.185913752917e-15
    64    1.486724019090e-02
    65   -2.237990756474e-03
    66   -3.608638394223e-03
    67   -6.069857417414e-03
    68   -2.227537739002e-02
    69   -5.069533874100e-02
    70   -1.108574018605e-13
    71    1.758489911050e-02
    72   -3.595060594731e-02
    73   -7.775977371967e-02
    74   -1.484349770909e-13
    75    1.168705216078e-02
    76   -2.843083732985e-02
    77   -6.527579662256e-02
    78   -1.031347139874e-13
    79   -1.474358446088e-02
    80   -5.934665895029e-03
    81   -1.504101237284e-03
    82    2.690529468968e-16
    83   -1.595865575794e-04
    84   -6.414066632976e-15
    85    8.174726025741e-15
    86   -4.505161979769e-03
    87   -2.584152788017e-03
    88    9.150208838884e-03
    89    1.579718409875e-02
    90   -4.105153952049e-02
    91    3.365900901670e-02
    92    2.963540330807e-14
    93   -4.687726014228e-02
    94   -7.032559325422e-02
    95    6.647594204850e-02
    96    4.597862755773e-14
    97   -6.198165609977e-02
    98    7.172750432128e-03
    99   -1.928025704254e-02
   100    9.706804276129e-14
   101    2.170393600928e-01
   102    2.189923672488e-02
   103   -1.228032211687e-01
   104    3.717600696895e-14
   105    3.432678854242e-04
   106    2.823671977974e-14
   107    3.564355033949e-14
   108    5.421329876588e-02
   109   -3.450640209454e-02
   110    4.877179415112e-03
   111    6.875888542853e-03
   112    2.277950459537e-01
   113   -2.747354321053e-01
   114    2.985589350336e-13
   115   -1.997562124532e-02
   116    2.611384175993e-01
   117   -3.152722277052e-01
   118    3.131720741419e-13
   119    1.472618412174e-02
   120    1.720349246016e-01
   121   -2.331571480049e-01
   122    1.405535664993e-13
   123    2.459426815864e-02
   124   -7.022292061551e-03
   125   -4.866865766220e-03
   126    1.502551682303e-14
   127    2.330271812574e-03
   128   -1.695443133768e-14
   129   -4.703211330414e-15
   130   -1.294724133369e-02
   131    2.099141615853e-03
   132   -2.349378731941e-02
   133   -3.880596338041e-02
   134    7.518014022886e-02
   135   -2.185841171244e-02
   136   -3.536460835255e-14
   137    1.042316030124e-01
   138    1.182203141164e-01
   139   -2.588968534714e-02
   140   -5.341837590550e-14
   141    1.835560447577e-01
   142    8.837922757791e-02
   143   -4.500575716489e-02
   144   -8.156214081844e-14
   145    1.410981185711e-01
   146   -5.149899785218e-02
   147   -2.190843724785e-02
   148   -2.418395667410e-14
   149    1.045137871879e-03
   150    9.342788464706e-15
   151    3.118997031053e-15
   152   -7.671995240417e-04
   153   -3.545104487966e-03
   154    1.901995916467e-03
   155    3.148508448006e-03
   156    8.585120719674e-04
   157   -9.732060465725e-03
   158    2.924382543172e-14
   159   -8.221367193874e-03
   160    2.328110508840e-03
   161   -1.333438972418e-02
   162    4.137966293307e-14
   163   -2.423071101262e-02
   164   -1.169698619632e-03
   165   -1.239346860992e-02
   166    1.803655284691e-14
   167   -6.100718597155e-02
   168   -6.732686559168e-03
   169   -3.011039070728e-02
   170    6.148386974049e-16
   171   -3.115659567244e-04
   172   -6.920019142870e-15
   173   -9.723414077252e-15
   174    2.555788757547e-03
   175   -9.920069072629e-04
   176    1.797391739095e-02
   177    2.932460384499e-02
   178   -3.345685701761e-02
   179   -5.404200476149e-02
   180   -6.180806353372e-14
   181   -7.408640527957e-02
   182   -5.372176260472e-02
   183   -7.555050829345e-02
   184   -9.443722613564e-14
   185   -1.528633873639e-01
   186    2.903113592875e-03
   187   -7.649031262597e-02
   188   -1.264884606034e-13
   189   -4.703589363133e-01
   190    6.882102561889e-02
   191   -3.623332237946e-02
   192   -5.209561917836e-14
   193    8.194251855179e-04
   194   -1.054752490571e-14
   195    6.823169155194e-15
   196    2.992302170962e-03
   197   -2.516849039428e-03
   198   -1.285826249367e-02
   199   -1.550692367259e-02
   200   -9.505831978312e-04
   201   -2.479524136313e-02
   202    1.763773035508e-03
   203   -1.862183511869e-03
   204   -2.254572991809e-15
Sym=X
Ene= 2.001887
Spin=Alpha
Occup=1
     1   -7.772592485290e-05
     2    1.808711750155e-05
     3    1.249798050955e-02
     4   -1.120500485137e-02
     5    4.038693959261e-13
     6    1.421544012597e-03
     7    2.026079224619e-02
     8   -1.756788681514e-02
     9    6.788405746862e-13
    10   -1.614556414890e-03
    11    2.294387348099e-02
    12   -7.366770205006e-03
    13    8.135327230848e-13
    14    1.390866135179e-02
    15    4.498428321110e-02
    16    2.946744906403e-03
    17    1.634900757735e-13
    18    1.074630079821e-03
    19    2.228885672602e-13
    20    3.195625862775e-14
    21   -1.335389070779e-03
    22   -5.662387144733e-03
    23   -1.681983520629e-02
    24   -3.533159269128e-02
    25   -2.645529112801e-02
    26    3.106711675713e-02
    27   -3.346260847890e-03
    28   -2.837560330511e-03
    29   -8.376912826582e-14
    30    7.014561560659e-03
    31    1.247494236010e-02
    32   -1.705009859225e-03
    33    1.335601313729e-02
    34    4.400077340467e-04
    35    1.497499845185e-03
    36    2.569287189562e-14
    37    4.412894561006e-03
    38    5.073772373334e-03
    39    2.566467541506e-02
    40   -6.153471012611e-03
    41   -2.583819355904e-03
    42   -2.352463652698e-03
    43    6.245306765016e-14
    44   -1.087626045814e-02
    45   -1.777172443223e-02
    46    5.020956944239e-03
    47    8.738114949412e-03
    48   -1.235118313343e-13
    49    5.179737171267e-02
    50    5.852982316768e-03
    51    9.031663443193e-03
    52   -2.369522659866e-13
    53    3.719906761013e-02
    54    6.096542580832e-02
    55    9.779798161080e-02
    56   -7.672844170068e-14
    57    1.413462265260e-02
    58    6.019104710458e-02
    59    7.524286830032e-02
    60    6.547308719163e-14
    61   -1.698317277215e-03
    62    1.207362786967e-13
    63    1.630120263777e-13
    64   -5.531417856608e-02
    65   -2.955375961870e-02
    66    7.242136122484e-03
    67    1.219155372497e-02
    68    1.230692644129e-01
    69    1.687734933455e-01
    70   -1.702647819072e-13
    71   -3.570699178331e-02
    72    1.898161833211e-01
    73    2.613498542846e-01
    74   -2.600502733115e-13
    75   -4.330052691666e-02
    76    1.647547279058e-01
    77    2.417385928700e-01
    78   -2.167468868854e-13
    79   -8.201886425352e-03
    80    2.556534989361e-03
    81    1.243240713367e-02
    82   -2.025254442651e-14
    83   -7.952053362198e-04
    84   -1.177128020665e-14
    85    1.406804395340e-14
    86    1.334977704689e-02
    87    4.978845430789e-03
    88   -1.363396005852e-02
    89   -2.088766582889e-02
    90    6.564652605870e-02
    91    7.880079729460e-02
    92    1.724963252315e-13
    93    5.868629167840e-02
    94    1.013899264250e-01
    95    1.317349528009e-01
    96    3.453635305897e-13
    97    3.649380422317e-02
    98    1.426428208612e-02
    99    1.918271028048e-02
   100    1.338770826085e-13
   101    1.296082219758e-02
   102    9.541342836640e-04
   103   -1.610357040637e-02
   104   -7.754794640390e-14
   105   -6.565378352921e-03
   106   -2.879232898127e-13
   107   -1.581338478749e-13
   108    2.178497390237e-02
   109    9.050156442950e-03
   110   -4.492882420078e-03
   111   -6.137963663039e-03
   112   -1.042316852712e-01
   113   -1.805486575667e-01
   114   -1.837233926660e-12
   115    1.404493256357e-02
   116   -1.191752562601e-01
   117   -2.060608496401e-01
   118   -2.086706909501e-12
   119   -7.099727276753e-02
   120   -3.039508770769e-02
   121   -1.164503550094e-01
   122   -1.504709194853e-12
   123   -1.013276773241e-02
   124   -4.368895318106e-03
   125   -4.893140682497e-03
   126   -2.304545509687e-13
   127   -8.322380180735e-03
   128    6.131436616307e-14
   129    3.635988934135e-14
   130    4.621340317328e-03
   131    1.432333882004e-02
   132    1.012757537294e-02
   133    1.718225341202e-02
   134    2.419605757093e-02
   135    2.105995031685e-02
   136    9.093859763587e-13
   137   -4.443498882343e-02
   138    3.060186769181e-02
   139    2.743697924253e-02
   140    1.485107503849e-12
   141   -1.219067090072e-01
   142    7.925786581836e-02
   143    3.330444750862e-02
   144    1.480993962351e-12
   145   -1.300162349787e-01
   146    1.139006088495e-03
   147   -1.840822156292e-02
   148    2.043241931943e-13
   149   -1.263742982293e-03
   150    2.866092292722e-14
   151   -2.692838178486e-14
   152    6.397769099497e-03
   153    6.648798258903e-03
   154   -1.120613614926e-02
   155   -1.853688746264e-02
   156    9.915489008217e-03
   157    4.791080960214e-02
   158   -8.198491383756e-13
   159    4.946546146924e-02
   160    1.237766581602e-02
   161    6.833352643443e-02
   162   -1.311071587792e-12
   163    1.350151845781e-01
   164   -8.820845581224e-04
   165    8.723184870422e-02
   166   -1.521768870115e-12
   167    1.569734692973e-01
   168    4.307474797252e-03
   169   -6.796353278313e-03
   170   -4.462966171714e-13
   171    2.053525218511e-03
   172    2.233414999337e-14
   173   -4.292141458402e-14
   174    3.324720996640e-05
   175    2.976627932665e-04
   176    1.156750738072e-02
   177    1.858359332229e-02
   178    1.551497503272e-02
   179   -5.339457096121e-02
   180    8.021909492172e-13
   181   -4.518275358059e-02
   182    2.181236165069e-02
   183   -8.280236369946e-02
   184    1.379194431781e-12
   185   -6.984065499394e-02
   186    2.797502054385e-02
   187   -5.974877197732e-02
   188    1.379925030165e-12
   189   -9.907796920064e-02
   190    2.626678633383e-02
   191    9.877664355145e-03
   192    1.102889406121e-13
   193    1.896386206248e-03
   194   -9.185669511329e-14
   195    7.692121359495e-15
   196    4.612895926808e-03
   197    3.408842749988e-03
   198    2.342482525598e-02
   199    3.729379810932e-02
   200    1.121418038074e-03
   201   -4.028636643717e-03
   202   -4.119956881027e-03
   203    1.175169223220e-03
   204    5.887911905318e-14
Sym=X
Ene= 2.001764
Spin=Alpha
Occup=1
     1   -1.695292880950e-14
     2    6.313289291014e-14
     3    1.111826911339e-13
     4   -1.984362178194e-13
     5   -5.864024623420e-02
     6   -3.943367480035e-13
     7    1.716990161059e-13
     8   -2.967989532722e-13
     9   -9.981463560955e-02
    10    2.097139661271e-13
    11    2.556762032590e-14
    12    1.300998203023e-14
    13   -1.123130876832e-01
    14   -7.924148767200e-13
    15   -9.156787363513e-15
    16    4.220426451432e-13
    17   -1.581268262313e-02
    18    2.087688814697e-14
    19   -2.898279165434e-02
    20   -4.410216901137e-03
    21   -9.320788415774e-14
    22   -3.014727935392e-14
    23   -2.845064876964e-13
    24   -7.135907725919e-13
    25   -3.057595980829e-13
    26   -3.271494707011e-13
    27   -7.032066387284e-14
    28   -1.943252325284e-14
    29    1.037181261633e-02
    30    1.086315334197e-13
    31    2.524699337392e-13
    32    9.569396977183e-14
    33    3.976820239510e-13
    34    1.916403272657e-15
    35    2.736094825354e-16
    36   -4.546081878040e-03
    37    8.841974568847e-14
    38    3.361218476672e-13
    39   -3.247788588327e-13
    40    6.112592703381e-13
    41   -1.962801916520e-14
    42   -3.919407020971e-14
    43   -9.182500957725e-03
    44   -1.399043560448e-13
    45   -2.591576159093e-13
    46    1.919348305290e-13
    47   -1.373305967652e-13
    48    1.446728332930e-02
    49    7.916090283988e-13
    50    2.867229217657e-13
    51   -2.807139498112e-13
    52    2.835927695792e-02
    53    5.250364939900e-13
    54    6.872630289569e-13
    55    9.966694521227e-13
    56    1.536055726687e-02
    57    7.109342583959e-13
    58    2.707879181731e-13
    59   -2.120122906389e-13
    60   -1.587409251805e-02
    61   -3.926034769099e-14
    62   -1.974143342890e-02
    63   -1.850394367982e-02
    64   -4.656231680054e-13
    65   -2.114548567140e-13
    66   -6.847757317991e-14
    67   -2.102230631119e-14
    68    8.141750993461e-13
    69    1.336522636422e-12
    70    2.313198296960e-02
    71   -2.237981923232e-13
    72    1.283785423977e-12
    73    2.094379257742e-12
    74    3.640412792268e-02
    75   -1.701226062872e-13
    76    1.073633001270e-12
    77    1.770053960325e-12
    78    2.941137826286e-02
    79   -2.759843924977e-13
    80   -5.013764427662e-15
    81    4.097020433969e-13
    82    7.515067152766e-03
    83    1.848293736413e-16
    84    2.122830986919e-03
    85   -1.942713166196e-03
    86    9.002604491549e-14
    87    4.546103032973e-14
    88   -2.905636091920e-13
    89   -3.637588551321e-13
    90    5.149130834253e-13
    91    3.983604245258e-13
    92   -2.608187524778e-02
    93    7.365529682643e-13
    94    8.187325401617e-13
    95    6.955067523406e-13
    96   -4.982848715812e-02
    97   -8.124047300445e-14
    98    2.678349738501e-13
    99    1.038075792779e-13
   100   -2.069404903157e-02
   101    1.454580454373e-12
   102    1.584176309165e-12
   103   -1.435273197742e-12
   104    1.322660057961e-02
   105   -4.678661568856e-14
   106    4.069080990349e-02
   107    2.188194696442e-02
   108    1.191933064572e-13
   109    8.830457661199e-14
   110   -1.793191879580e-14
   111   -2.336071269761e-14
   112   -8.509237353571e-13
   113   -1.231455465937e-12
   114    2.467081592675e-01
   115    1.338294579141e-14
   116   -9.624169469639e-13
   117   -1.420735572894e-12
   118    2.799726303955e-01
   119   -5.696105386505e-13
   120   -2.141019863183e-13
   121   -8.329239371066e-13
   122    1.967758471640e-01
   123   -2.500862188287e-13
   124   -3.384932071612e-13
   125   -1.001987289464e-13
   126    3.085038285030e-02
   127   -5.933292474961e-14
   128   -8.021875092114e-03
   129   -4.837343905870e-03
   130    2.953875275790e-14
   131    1.086406003678e-13
   132    3.524226794755e-13
   133    3.278670802950e-13
   134    7.026255518431e-14
   135    1.715561040218e-13
   136   -1.253561045329e-01
   137   -1.597391386951e-13
   138    2.744175993763e-14
   139    2.599280148497e-13
   140   -2.039318618878e-01
   141   -1.045374505173e-12
   142    5.795068462066e-13
   143   -1.321385812790e-13
   144   -2.140059714242e-01