[Molden Format]
[Atoms] (Angs)
  C      1    6     -0.00714236     -1.70213747     -0.00000000
  H      2    1     -2.06882847     -1.44022412      0.00000000
  H      3    1     -0.12337987     -2.77567521      0.00000000
  H      4    1      0.04651892      1.98813947     -0.00000000
  C      5    6     -1.21953563      0.40211669      0.00000000
  O      6    8     -2.25921553      1.03043814      0.00000000
  C      7    6      1.28797806      0.34644937     -0.00000000
  O      8    8      2.31273661      1.00537216     -0.00000000
  N      9    7      0.03446295      0.97739857     -0.00000000
  N     10    7     -1.17287765     -0.98229824      0.00000000
  C     11    6      1.20107039     -1.10433419     -0.00000000
  H     12    1      2.11220096     -1.67699125     -0.00000000
[GTO]
1    0
S    6    1.000000
   4.56324000E+03    1.96665000E-03 
   6.82024000E+02    1.52306000E-02 
   1.54973000E+02    7.61269000E-02 
   4.44553000E+01    2.60801000E-01 
   1.30290000E+01    6.16462000E-01 
   1.82773000E+00    2.21006000E-01 
SP   3    1.000000
   2.09642000E+01    1.14660000E-01   4.02487000E-02 
   4.80331000E+00    9.19999000E-01   2.37594000E-01 
   1.45933000E+00   -3.03068000E-03   8.15854000E-01 
SP   1    1.000000
   4.83456000E-01    1.00000000E+00   1.00000000E+00 
SP   1    1.000000
   1.45585000E-01    1.00000000E+00   1.00000000E+00 
SP   1    1.000000
   4.38000000E-02    1.00000000E+00   1.00000000E+00 
D    1    1.000000
   6.26000000E-01    1.00000000E+00 

2    0
S    3    1.000000
   3.38650000E+01    2.54938000E-02 
   5.09479000E+00    1.90373000E-01 
   1.15879000E+00    8.52161000E-01 
S    1    1.000000
   3.25840000E-01    1.00000000E+00 
S    1    1.000000
   1.02741000E-01    1.00000000E+00 
S    1    1.000000
   3.60000000E-02    1.00000000E+00 
P    1    1.000000
   7.50000000E-01    1.00000000E+00 

3    0
S    3    1.000000
   3.38650000E+01    2.54938000E-02 
   5.09479000E+00    1.90373000E-01 
   1.15879000E+00    8.52161000E-01 
S    1    1.000000
   3.25840000E-01    1.00000000E+00 
S    1    1.000000
   1.02741000E-01    1.00000000E+00 
S    1    1.000000
   3.60000000E-02    1.00000000E+00 
P    1    1.000000
   7.50000000E-01    1.00000000E+00 

4    0
S    3    1.000000
   3.38650000E+01    2.54938000E-02 
   5.09479000E+00    1.90373000E-01 
   1.15879000E+00    8.52161000E-01 
S    1    1.000000
   3.25840000E-01    1.00000000E+00 
S    1    1.000000
   1.02741000E-01    1.00000000E+00 
S    1    1.000000
   3.60000000E-02    1.00000000E+00 
P    1    1.000000
   7.50000000E-01    1.00000000E+00 

5    0
S    6    1.000000
   4.56324000E+03    1.96665000E-03 
   6.82024000E+02    1.52306000E-02 
   1.54973000E+02    7.61269000E-02 
   4.44553000E+01    2.60801000E-01 
   1.30290000E+01    6.16462000E-01 
   1.82773000E+00    2.21006000E-01 
SP   3    1.000000
   2.09642000E+01    1.14660000E-01   4.02487000E-02 
   4.80331000E+00    9.19999000E-01   2.37594000E-01 
   1.45933000E+00   -3.03068000E-03   8.15854000E-01 
SP   1    1.000000
   4.83456000E-01    1.00000000E+00   1.00000000E+00 
SP   1    1.000000
   1.45585000E-01    1.00000000E+00   1.00000000E+00 
SP   1    1.000000
   4.38000000E-02    1.00000000E+00   1.00000000E+00 
D    1    1.000000
   6.26000000E-01    1.00000000E+00 

6    0
S    6    1.000000
   8.58850000E+03    1.89515000E-03 
   1.29723000E+03    1.43859000E-02 
   2.99296000E+02    7.07320000E-02 
   8.73771000E+01    2.40001000E-01 
   2.56789000E+01    5.94797000E-01 
   3.74004000E+00    2.80802000E-01 
SP   3    1.000000
   4.21175000E+01    1.13889000E-01   3.65114000E-02 
   9.62837000E+00    9.20811000E-01   2.37153000E-01 
   2.85332000E+00   -3.27447000E-03   8.19702000E-01 
SP   1    1.000000
   9.05661000E-01    1.00000000E+00   1.00000000E+00 
SP   1    1.000000
   2.55611000E-01    1.00000000E+00   1.00000000E+00 
SP   1    1.000000
   8.45000000E-02    1.00000000E+00   1.00000000E+00 
D    1    1.000000
   1.29200000E+00    1.00000000E+00 

7    0
S    6    1.000000
   4.56324000E+03    1.96665000E-03 
   6.82024000E+02    1.52306000E-02 
   1.54973000E+02    7.61269000E-02 
   4.44553000E+01    2.60801000E-01 
   1.30290000E+01    6.16462000E-01 
   1.82773000E+00    2.21006000E-01 
SP   3    1.000000
   2.09642000E+01    1.14660000E-01   4.02487000E-02 
   4.80331000E+00    9.19999000E-01   2.37594000E-01 
   1.45933000E+00   -3.03068000E-03   8.15854000E-01 
SP   1    1.000000
   4.83456000E-01    1.00000000E+00   1.00000000E+00 
SP   1    1.000000
   1.45585000E-01    1.00000000E+00   1.00000000E+00 
SP   1    1.000000
   4.38000000E-02    1.00000000E+00   1.00000000E+00 
D    1    1.000000
   6.26000000E-01    1.00000000E+00 

8    0
S    6    1.000000
   8.58850000E+03    1.89515000E-03 
   1.29723000E+03    1.43859000E-02 
   2.99296000E+02    7.07320000E-02 
   8.73771000E+01    2.40001000E-01 
   2.56789000E+01    5.94797000E-01 
   3.74004000E+00    2.80802000E-01 
SP   3    1.000000
   4.21175000E+01    1.13889000E-01   3.65114000E-02 
   9.62837000E+00    9.20811000E-01   2.37153000E-01 
   2.85332000E+00   -3.27447000E-03   8.19702000E-01 
SP   1    1.000000
   9.05661000E-01    1.00000000E+00   1.00000000E+00 
SP   1    1.000000
   2.55611000E-01    1.00000000E+00   1.00000000E+00 
SP   1    1.000000
   8.45000000E-02    1.00000000E+00   1.00000000E+00 
D    1    1.000000
   1.29200000E+00    1.00000000E+00 

9    0
S    6    1.000000
   6.29348000E+03    1.96979000E-03 
   9.49044000E+02    1.49613000E-02 
   2.18776000E+02    7.35006000E-02 
   6.36916000E+01    2.48937000E-01 
   1.88282000E+01    6.02460000E-01 
   2.72023000E+00    2.56202000E-01 
SP   3    1.000000
   3.06331000E+01    1.11906000E-01   3.83119000E-02 
   7.02614000E+00    9.21666000E-01   2.37403000E-01 
   2.11205000E+00   -2.56919000E-03   8.17592000E-01 
SP   1    1.000000
   6.84009000E-01    1.00000000E+00   1.00000000E+00 
SP   1    1.000000
   2.00878000E-01    1.00000000E+00   1.00000000E+00 
SP   1    1.000000
   6.39000000E-02    1.00000000E+00   1.00000000E+00 
D    1    1.000000
   9.13000000E-01    1.00000000E+00 

10    0
S    6    1.000000
   6.29348000E+03    1.96979000E-03 
   9.49044000E+02    1.49613000E-02 
   2.18776000E+02    7.35006000E-02 
   6.36916000E+01    2.48937000E-01 
   1.88282000E+01    6.02460000E-01 
   2.72023000E+00    2.56202000E-01 
SP   3    1.000000
   3.06331000E+01    1.11906000E-01   3.83119000E-02 
   7.02614000E+00    9.21666000E-01   2.37403000E-01 
   2.11205000E+00   -2.56919000E-03   8.17592000E-01 
SP   1    1.000000
   6.84009000E-01    1.00000000E+00   1.00000000E+00 
SP   1    1.000000
   2.00878000E-01    1.00000000E+00   1.00000000E+00 
SP   1    1.000000
   6.39000000E-02    1.00000000E+00   1.00000000E+00 
D    1    1.000000
   9.13000000E-01    1.00000000E+00 

11    0
S    6    1.000000
   4.56324000E+03    1.96665000E-03 
   6.82024000E+02    1.52306000E-02 
   1.54973000E+02    7.61269000E-02 
   4.44553000E+01    2.60801000E-01 
   1.30290000E+01    6.16462000E-01 
   1.82773000E+00    2.21006000E-01 
SP   3    1.000000
   2.09642000E+01    1.14660000E-01   4.02487000E-02 
   4.80331000E+00    9.19999000E-01   2.37594000E-01 
   1.45933000E+00   -3.03068000E-03   8.15854000E-01 
SP   1    1.000000
   4.83456000E-01    1.00000000E+00   1.00000000E+00 
SP   1    1.000000
   1.45585000E-01    1.00000000E+00   1.00000000E+00 
SP   1    1.000000
   4.38000000E-02    1.00000000E+00   1.00000000E+00 
D    1    1.000000
   6.26000000E-01    1.00000000E+00 

12    0
S    3    1.000000
   3.38650000E+01    2.54938000E-02 
   5.09479000E+00    1.90373000E-01 
   1.15879000E+00    8.52161000E-01 
S    1    1.000000
   3.25840000E-01    1.00000000E+00 
S    1    1.000000
   1.02741000E-01    1.00000000E+00 
S    1    1.000000
   3.60000000E-02    1.00000000E+00 
P    1    1.000000
   7.50000000E-01    1.00000000E+00 

[MO]
Sym=X
Ene= 2.006315
Spin=Alpha
Occup=1
     1   -4.852956427677e-14
     2   -2.098752577757e-14
     3   -5.036888798017e-14
     4   -3.520531193553e-14
     5   -8.464863845840e-02
     6   -5.512324051866e-14
     7   -1.148531969755e-13
     8   -8.746774200906e-15
     9   -1.466953753212e-01
    10    2.276084001887e-13
    11    2.398644451807e-14
    12    8.283084276327e-14
    13   -1.264648289818e-01
    14   -2.828138903277e-12
    15   -7.531183460889e-13
    16   -5.846813707512e-13
    17   -1.643552982886e-02
    18   -7.516128544087e-16
    19   -1.265878098357e-02
    20   -1.029545244154e-02
    21   -1.254081276117e-14
    22   -1.616889871011e-14
    23    8.415594047844e-15
    24   -3.164605972827e-13
    25    2.053732696476e-13
    26    6.474144872679e-14
    27   -2.093809162786e-14
    28   -6.631326910858e-15
    29    5.438061642947e-04
    30    6.874777753987e-15
    31    2.995707982647e-14
    32    1.163365994654e-13
    33   -1.043466003683e-13
    34   -7.023806512464e-15
    35    3.484032246279e-15
    36   -6.308232270719e-03
    37    1.699409499682e-14
    38    3.570962996858e-13
    39    1.357402659254e-13
    40   -6.961680418936e-14
    41    5.460051619418e-15
    42   -2.979601822156e-14
    43    5.945746193879e-03
    44    8.729446858338e-16
    45    1.622907915861e-15
    46    1.384103414419e-14
    47    7.866360533109e-15
    48    1.068452352672e-01
    49   -1.527466746324e-15
    50    2.754176534199e-14
    51   -4.268803738782e-15
    52    1.894308826841e-01
    53   -2.235419960486e-13
    54    4.782782704932e-13
    55    6.930099911477e-13
    56    1.029406212085e-01
    57    2.114556705557e-13
    58    8.764810940167e-14
    59   -3.014838856970e-15
    60    1.445394935827e-02
    61    3.134544551185e-15
    62   -1.907157104938e-02
    63    2.099403151155e-02
    64    8.643196425365e-15
    65    9.076774966598e-15
    66   -1.814644593814e-15
    67   -1.410069714322e-15
    68    4.488805951796e-15
    69    3.695753458284e-14
    70    2.483591405458e-01
    71    1.879379407876e-16
    72    6.468476519650e-15
    73    4.341550773643e-14
    74    2.894927306945e-01
    75    5.468770419177e-14
    76   -3.004449999378e-14
    77   -8.312445732427e-14
    78    1.762394687320e-01
    79    2.356952738825e-13
    80    4.358717480165e-14
    81   -1.092657526016e-13
    82   -8.319679952087e-03
    83    2.321609199365e-16
    84    2.005839929888e-02
    85   -1.201161013091e-02
    86    8.699009351105e-16
    87    1.251958307024e-15
    88    3.327038297917e-14
    89    2.741167847868e-14
    90   -3.612526059873e-14
    91    4.612835186044e-14
    92   -4.619015828598e-02
    93    2.975339912540e-14
    94   -1.963698325586e-14
    95    4.997845382270e-14
    96   -8.141160209298e-02
    97   -4.656927716669e-13
    98    2.644989767211e-13
    99    4.194053786276e-13
   100   -5.796443476462e-02
   101    1.804359696197e-12
   102   -4.172941148383e-13
   103   -3.985931935259e-13
   104   -1.491356146535e-02
   105    7.472003099118e-15
   106   -1.227344680039e-02
   107    8.695807099180e-03
   108    4.072222245021e-16
   109   -2.238888020223e-14
   110   -5.091696275140e-14
   111   -4.662690789042e-14
   112    2.460868969348e-15
   113    2.744315171683e-14
   114   -4.928416283682e-02
   115    1.215932874375e-14
   116   -1.365620129348e-14
   117    5.101933265268e-14
   118   -7.858029001498e-02
   119   -2.145644446757e-14
   120    1.248420127234e-15
   121    8.179853095097e-14
   122   -6.353816077626e-02
   123   -3.221733374281e-13
   124    1.938376664607e-13
   125    6.016937741906e-14
   126    9.432883283969e-03
   127    6.113405439169e-16
   128    6.157920845788e-03
   129    4.150227079658e-03
   130    3.336725267261e-15
   131   -4.549450699236e-16
   132    6.331727889347e-14
   133    2.513269782808e-14
   134    1.956294796654e-14
   135    1.375316910635e-14
   136    6.714218814902e-02
   137    1.939432011277e-13
   138    3.544394142091e-14
   139    8.270406172957e-14
   140    1.126000049993e-01
   141   -3.741081630943e-13
   142    2.808269980484e-13
   143   -6.211414990689e-13
   144    1.044021788708e-01
   145   -8.304534123697e-13
   146    2.701600752573e-13
   147    1.307261577911e-13
   148    5.418300878500e-03
   149   -5.587541873334e-16
   150   -1.198037569335e-02
   151   -2.492475155657e-03
   152    1.348138451887e-14
   153   -2.815664163276e-15
   154    3.276217422325e-14
   155    2.778056185727e-14
   156    8.566879272105e-15
   157   -6.339659394358e-15
   158   -1.363020662997e-03
   159   -3.983640716291e-14
   160    6.332172985132e-14
   161   -4.863681821680e-15
   162   -1.499466033192e-03
   163    4.838449844379e-13
   164   -6.162323257752e-13
   165    7.879493123497e-14
   166    3.579245848814e-03
   167    4.746219988960e-13
   168    4.627278723597e-13
   169    3.018288345158e-13
   170    7.443153415500e-03
   171   -8.314468868400e-15
   172   -7.175550188357e-03
   173    1.189661906552e-02
   174    4.994280728044e-15
   175    7.221457182147e-15
   176   -9.913874873999e-14
   177   -3.878504896253e-14
   178    3.062523129379e-14
   179    2.182694022332e-14
   180   -9.556023825755e-02
   181   -2.326215690970e-13
   182    4.586044676255e-14
   183    3.926204156113e-14
   184   -1.665206037669e-01
   185    2.661096053136e-13
   186    1.110151660049e-13
   187    2.050776014779e-13
   188   -1.419844261663e-01
   189    1.009032631885e-12
   190   -3.139620582173e-13
   191   -6.238771187524e-13
   192   -4.426101164146e-04
   193    1.338093266309e-14
   194    1.548211641039e-02
   195   -6.535454152172e-04
   196   -4.799400819167e-15
   197    7.959758744686e-16
   198   -3.543648320375e-14
   199   -4.790831663439e-14
   200   -9.898269058743e-14
   201    6.293686909974e-14
   202    7.987582746501e-15
   203    4.553210447076e-16
   204   -7.850785552822e-03
Sym=X
Ene= 2.003944
Spin=Alpha
Occup=1
     1    7.759376095280e-03
     2    1.297113272480e-02
     3    1.060752479704e-02
     4   -2.718683453494e-02
     5   -1.406137691244e-14
     6   -3.506962188723e-02
     7    1.814071807137e-02
     8   -4.511688607816e-02
     9    7.398933410419e-15
    10   -4.182808382825e-02
    11   -7.320964474371e-03
    12   -4.351077312168e-02
    13   -3.924209709010e-14
    14   -8.403555840293e-02
    15    1.781807364635e-03
    16   -4.559575932305e-03
    17    1.299986176872e-13
    18    1.874086344266e-03
    19    3.440977602259e-15
    20   -6.798213610596e-16
    21   -1.095139832405e-02
    22    4.372793898820e-03
    23    5.562755237854e-04
    24   -1.390329431580e-02
    25   -2.880145666554e-02
    26    2.932853532706e-02
    27   -9.563609671881e-04
    28    3.593376002886e-04
    29   -1.336384407195e-14
    30    2.027322136768e-02
    31    3.353907962554e-02
    32    1.609738625161e-02
    33    5.589827383362e-03
    34    5.535319906357e-04
    35    5.130275419437e-04
    36    1.887423968588e-15
    37    4.963570151113e-03
    38    2.056756906987e-02
    39    3.352291635689e-02
    40   -4.503749324487e-02
    41    1.097065333012e-03
    42   -1.734928295475e-03
    43    1.085952266271e-14
    44   -8.062272009922e-03
    45   -1.332023770060e-02
    46   -3.631383934512e-02
    47   -1.481188122734e-02
    48   -1.051735650563e-14
    49    3.923752168700e-02
    50   -6.117049552618e-02
    51   -3.142266282773e-02
    52   -2.470081919894e-14
    53    4.264483218308e-02
    54    4.091787550879e-02
    55    6.356657553597e-02
    56    4.919255778897e-14
    57    3.276779985746e-02
    58    6.305029414333e-02
    59    8.340064240892e-02
    60   -1.214351005425e-13
    61   -1.899188201142e-03
    62    6.794242933503e-15
    63    8.558410494710e-15
    64   -5.715197821378e-02
    65   -3.232453656892e-02
    66   -4.477135216429e-03
    67   -6.387129982088e-03
    68    2.147655525060e-01
    69    2.694198196838e-01
    70   -5.158454556282e-14
    71    1.929808053443e-02
    72    2.467845775435e-01
    73    3.083733705017e-01
    74   -4.510023132046e-14
    75   -1.205349846888e-02
    76    1.537379954836e-01
    77    2.196519651526e-01
    78   -6.410634657349e-14
    79   -1.740242335079e-02
    80   -5.215801104203e-03
    81    2.861636127070e-03
    82    6.187059710501e-14
    83   -2.464195615490e-03
    84   -5.174569873122e-15
    85   -4.349809349339e-15
    86    1.487974796698e-02
    87    2.767255788719e-03
    88   -1.387660508596e-02
    89   -2.324774068855e-02
    90   -2.943146437892e-02
    91   -2.002334431823e-03
    92    4.638098514275e-14
    93    6.321767671116e-02
    94   -4.936587681193e-02
    95   -4.619461780202e-03
    96    6.280629637373e-14
    97    6.474430516009e-02
    98   -4.704229582962e-02
    99    5.059025851536e-03
   100    1.231960223400e-13
   101   -1.373738987443e-01
   102   -3.886506759207e-03
   103    8.400683878088e-02
   104    2.450025955836e-13
   105   -1.528053467656e-03
   106    6.852587788287e-16
   107    6.869647619282e-15
   108   -2.721893797180e-02
   109    4.621158094410e-03
   110    3.209639064453e-03
   111    5.450361124114e-03
   112   -4.521730816194e-02
   113    9.080727044821e-02
   114    5.981262079646e-14
   115   -1.652039842161e-02
   116   -7.074578172009e-02
   117    1.396299921026e-01
   118    5.830149804619e-14
   119   -8.483393614793e-03
   120   -6.617216063160e-02
   121    1.255258393936e-01
   122    1.252027992136e-13
   123    2.830329163782e-02
   124   -1.266290375486e-02
   125    1.483633188231e-03
   126   -1.306265015428e-13
   127    2.552669145099e-04
   128   -4.410923534528e-16
   129   -1.234034386306e-14
   130    6.110064162106e-03
   131   -3.841868287664e-03
   132    2.302168376262e-02
   133    3.815881966055e-02
   134    5.092504513320e-02
   135    2.661050563373e-02
   136    7.375976833254e-14
   137   -1.015600782702e-01
   138    7.487780873672e-02
   139    3.136855897882e-02
   140    1.321989200388e-13
   141   -2.019400138675e-01
   142    7.239907121027e-02
   143    4.794298068374e-02
   144    8.086346330262e-14
   145   -1.783094871302e-01
   146   -7.303664242979e-03
   147    1.110015821159e-03
   148   -4.499065558140e-14
   149   -1.523274487562e-03
   150    4.288170341133e-15
   151    2.615754204641e-15
   152    4.407646274646e-04
   153   -3.209495930081e-03
   154   -1.289265432002e-02
   155   -2.114194251877e-02
   156   -2.246424568878e-02
   157    5.950920884033e-02
   158   -5.432956932424e-14
   159    5.590152806419e-02
   160   -3.925127267674e-02
   161    8.526585876090e-02
   162   -8.717944892077e-14
   163    1.117709750316e-01
   164   -3.393684152247e-02
   165    9.244079731231e-02
   166   -1.211842171628e-13
   167    1.182524315800e-01
   168   -7.573884757783e-03
   169    5.095260294782e-03
   170    5.001430255265e-15
   171    8.606887218407e-04
   172    5.997065170840e-16
   173   -5.136519583042e-17
   174   -2.197686101022e-03
   175   -1.020593393393e-03
   176   -4.535863691989e-03
   177   -7.499290705157e-03
   178    2.025889101241e-03
   179    2.882246664344e-02
   180    1.579680378882e-14
   181    1.948916862531e-02
   182    4.257390463019e-03
   183    4.166089831678e-02
   184    4.065259953744e-15
   185    5.364830813546e-02
   186   -1.251640201785e-02
   187    3.427252898591e-02
   188    4.574532380074e-14
   189    2.171454876883e-01
   190   -2.459664663176e-02
   191    3.211869431766e-02
   192   -2.129990325670e-13
   193    1.039975667459e-04
   194    8.895557927532e-15
   195    2.876309754000e-15
   196   -5.368342599029e-03
   197    5.276881223102e-04
   198   -8.189776315252e-03
   199   -1.427607402451e-02
   200   -4.243330819364e-03
   201    9.215564574991e-03
   202    1.326169156922e-03
   203    7.458955588050e-05
   204    9.836839848542e-16
Sym=X
Ene= 2.001782
Spin=Alpha
Occup=1
     1    4.932604945260e-03
     2    7.866719417268e-03
     3    2.660043509550e-02
     4   -2.480098384131e-03
     5    4.191766247022e-13
     6   -2.080912118723e-02
     7    4.663207208121e-02
     8   -4.270608105889e-03
     9    7.210047120880e-13
    10    1.628118448832e-03
    11    2.927850726489e-02
    12    1.416997463978e-02
    13    4.113415718401e-13
    14    2.992604554682e-01
    15    7.884054949843e-02
    16    9.974185603437e-02
    17    1.804052211540e-13
    18    1.107994992188e-03
    19   -5.762312930223e-14
    20    7.590421750967e-14
    21   -2.167066458177e-04
    22   -1.759977503115e-03
    23   -8.771606393980e-03
    24   -1.074772505741e-02
    25   -1.804167053209e-02
    26    2.327533773744e-03
    27   -2.037790233863e-03
    28    1.093118784134e-03
    29    5.557839753212e-14
    30   -4.304420285847e-03
    31   -2.371650238769e-03
    32    4.033217422857e-03
    33    4.739501531290e-02
    34    9.832341627770e-04
    35   -1.191110158750e-04
    36    3.865722815714e-14
    37   -1.193311686082e-02
    38   -1.291467597032e-02
    39    7.386477662212e-03
    40    2.474327886756e-02
    41   -2.023740780102e-03
    42    1.622418771426e-03
    43   -2.536534679920e-15
    44    2.263930322297e-02
    45    3.554622964395e-02
    46    8.038220495245e-02
    47   -7.547734932854e-02
    48    2.035281223452e-13
    49   -1.007329820463e-01
    50    1.241599299763e-01
    51   -1.247927787483e-01
    52    3.625619843266e-13
    53   -8.829078516315e-02
    54    1.465588894632e-02
    55    5.965599565265e-03
    56    1.469363450994e-13
    57   -5.573509454002e-02
    58   -3.192995063337e-03
    59    3.083707995828e-02
    60    1.204093635931e-15
    61    7.014236425949e-03
    62   -1.524708517364e-14
    63   -1.114881864557e-13
    64   -3.316868164674e-02
    65    8.030869864420e-03
    66    4.015656913896e-03
    67    5.279592513720e-03
    68   -1.133719874922e-01
    69    2.319506502141e-01
    70   -2.994192239100e-14
    71   -7.600295209114e-03
    72   -1.284232176975e-01
    73    2.644217670245e-01
    74   -2.001607265449e-14
    75    8.481915087250e-02
    76   -2.944313341327e-02
    77    1.502302494309e-01
    78   -6.957400101278e-14
    79    2.425368817867e-02
    80   -7.494029732675e-04
    81   -2.532953162247e-03
    82   -9.901349816203e-15
    83    1.008563394676e-02
    84    1.591054637799e-14
    85   -1.126852676078e-14
    86   -3.874719122259e-03
    87    1.824785927409e-02
    88    1.436801324256e-02
    89    2.395255494036e-02
    90   -4.395713085123e-03
    91    2.245716203159e-03
    92   -3.615679153657e-13
    93   -6.824161755978e-02
    94   -8.738290029180e-03
    95    1.149179630350e-02
    96   -6.563161563508e-13
    97   -8.238440260130e-02
    98    3.840435966803e-02
    99   -5.346979542339e-02
   100   -3.958703679285e-13
   101    2.186532327864e-01
   102    3.694667993502e-02
   103   -1.095675720493e-01
   104    7.773050446265e-14
   105    1.990490116380e-03
   106   -1.016192415638e-13
   107   -1.093978747983e-13
   108    4.495264946631e-02
   109   -2.411702505152e-02
   110   -9.289797945166e-03
   111   -1.577587556615e-02
   112    1.165114532741e-01
   113   -1.300880970883e-01
   114   -6.372957363220e-13
   115    4.819051697602e-02
   116    1.784774763944e-01
   117   -2.016190838197e-01
   118   -1.013805004447e-12
   119    6.164543589476e-02
   120    1.549921263492e-01
   121   -1.939198997211e-01
   122   -8.738066846101e-13
   123    1.643076679690e-02
   124   -5.080732101534e-03
   125   -1.019633295611e-02
   126   -1.337940341719e-13
   127    1.568739116543e-03
   128    6.364896533156e-14
   129    4.379404067498e-14
   130   -1.054711321756e-02
   131    2.433482123654e-03
   132   -9.300442060323e-03
   133   -1.616759052050e-02
   134    2.492853557875e-02
   135   -2.922334670915e-02
   136   -1.015991885299e-13
   137    4.544178888182e-02
   138    3.419294244780e-02
   139   -4.410787311995e-02
   140   -1.848858662971e-13
   141    1.048647937512e-01
   142    7.038408739093e-02
   143   -5.659838735508e-02
   144   -1.361619783247e-13
   145    1.057666303384e-01
   146   -2.346035123031e-02
   147   -4.269280063197e-02
   148   -4.481365272048e-14
   149    9.611409111960e-04
   150   -3.307098456694e-14
   151    6.818771311233e-15
   152   -3.257955102443e-03
   153    7.203580564654e-03
   154   -1.220548105626e-02
   155   -1.992898639350e-02
   156   -2.459061193097e-03
   157    5.912724167188e-02
   158    7.621443380326e-13
   159    5.143800050827e-02
   160   -4.873180895297e-03
   161    9.017319334979e-02
   162    1.257217837386e-12
   163    8.605705334616e-02
   164   -4.518718271346e-05
   165    7.840333858903e-02
   166    1.199094502491e-12
   167    1.166905750961e-02
   168   -1.412658119307e-02
   169   -3.934243535158e-02
   170   -2.189018942055e-14
   171   -2.722332615252e-04
   172    4.362845412281e-14
   173    1.696158505264e-14
   174   -3.164472676953e-03
   175    4.825971910001e-03
   176    7.052725283744e-03
   177    1.146418621336e-02
   178    3.139981791997e-03
   179   -4.612864876476e-02
   180    1.622715126702e-13
   181   -2.904339370689e-02
   182    2.834996616791e-03
   183   -6.526072531541e-02
   184    2.734805603127e-13
   185   -1.110986088322e-01
   186    1.655449000194e-02
   187   -7.583017042098e-02
   188    3.214369400024e-13
   189   -5.622377950358e-01
   190    9.081552493641e-02
   191   -6.056649685702e-02
   192   -1.519520916079e-13
   193   -9.004485012234e-04
   194   -5.792432709178e-14
   195   -5.424382246406e-14
   196   -7.035068144122e-04
   197   -7.802044898180e-04
   198    1.611013600118e-02
   199    2.839892599438e-02
   200   -7.260642354378e-05
   201   -3.814353870600e-02
   202   -2.670130065966e-03
   203    2.047930583189e-03
   204    4.549747937734e-15
Sym=X
Ene= 2.001642
Spin=Alpha
Occup=1
     1   -2.015981872560e-13
     2   -2.961390777038e-13
     3   -6.505252426257e-14
     4    1.137685712270e-13
     5    1.015804143888e-01
     6    6.743740863356e-13
     7   -1.403555095294e-13
     8    1.768909715799e-13
     9    1.742852942264e-01
    10    1.798288479014e-13
    11   -1.050123941983e-14
    12    7.454881216068e-14
    13    1.241666666805e-01
    14    7.397934848343e-12
    15    2.491450772244e-12
    16    6.768873295170e-13
    17    2.344162800232e-02
    18   -2.875018310475e-14
    19   -5.834864412530e-03
    20    1.743929813613e-02
    21    3.670681619385e-14
    22    2.563674028399e-15
    23    1.644984097895e-13
    24    3.309829311653e-13
    25   -7.037835066594e-13
    26    3.034759753568e-13
    27    4.105021140011e-14
    28    7.774805443602e-15
    29    1.069440355542e-02
    30    3.804741535557e-14
    31    8.278255745291e-14
    32   -1.482752134140e-13
    33    7.108308401983e-14
    34    8.314278002827e-16
    35    2.241869407788e-14
    36    7.892502998459e-03
    37   -1.200613647673e-13
    38   -2.644573812831e-13
    39    5.006043692471e-13
    40   -4.009691833113e-13
    41    1.323968385546e-14
    42    3.022029118009e-14
    43    1.655606845372e-03
    44   -1.284702491273e-15
    45   -7.827888550878e-14
    46   -3.669366690557e-13
    47    3.441918849901e-13
    48    5.322810063580e-02
    49    4.673980965170e-13
    50   -5.818852021017e-13
    51    5.726867451668e-13
    52    9.316048617036e-02
    53    5.094313657952e-13
    54   -2.006498447363e-13
    55   -5.160264180720e-14
    56    3.805210535495e-02
    57   -3.943762376936e-13
    58    1.922499624642e-13
    59    5.761219687789e-13
    60    2.361232079353e-02
    61   -3.839547653834e-14
    62    7.878967240754e-03
    63   -1.734787323362e-02
    64    1.361683829205e-13
    65   -6.859622016197e-14
    66    4.848075783510e-14
    67    7.072013856123e-14
    68    6.834461721454e-13
    69   -9.813596566913e-13
    70   -1.418209457233e-02
    71   -2.920460832864e-13
    72    7.659232475907e-13
    73   -1.118290925076e-12
    74   -1.346334701971e-02
    75   -6.152884891944e-13
    76    2.422901804786e-13
    77   -5.768121330784e-13
    78   -1.677111390802e-02
    79   -2.178065636508e-13
    80   -2.537709064253e-14
    81   -2.744872930836e-14
    82   -1.904114636904e-02
    83   -4.525646679628e-14
    84    3.650040733808e-03
    85   -2.338913631510e-03
    86    2.589567047672e-14
    87   -8.084142814060e-14
    88   -1.403603789226e-13
    89   -1.301413484547e-13
    90   -7.142762237520e-14
    91    7.221403212879e-14
    92   -6.142676914161e-02
    93    8.792965116660e-14
    94   -1.211745598468e-13
    95    7.037408378340e-14
    96   -1.073433233331e-01
    97    5.809179771899e-14
    98   -2.489853281220e-13
    99    2.039650068503e-13
   100   -8.396319178755e-02
   101   -5.016404424864e-12
   102   -7.256176458677e-13
   103    2.144003087586e-12
   104   -1.317937376391e-02
   105   -2.409100731120e-15
   106   -3.448694334249e-02
   107   -2.601196670102e-02
   108   -1.749525893315e-13
   109    1.178983206776e-13
   110   -2.255493834543e-13
   111   -2.172112013596e-13
   112   -4.162893852770e-13
   113    6.619382534540e-13
   114   -1.548049830100e-01
   115    1.330199245184e-13
   116   -6.347201139483e-13
   117    1.026058169015e-12
   118   -2.426870229442e-01
   119    1.371543929262e-13
   120   -6.217778086340e-13
   121    9.112275537111e-13
   122   -2.228847519251e-01
   123    2.933420143676e-13
   124   -4.673221528089e-14
   125   -1.578369524283e-14
   126   -2.444719445191e-02
   127   -1.388631189519e-15
   128    1.384888361518e-02
   129    8.392003367265e-03
   130    4.997301736132e-14
   131   -2.365750581783e-14
   132   -2.834441448177e-14
   133    5.605323172199e-14
   134   -5.752986962217e-14
   135   -4.864766414934e-14
   136    3.808287662903e-02
   137   -4.420793263538e-13
   138   -7.642145370168e-14
   139   -9.034928525414e-14
   140    5.956589237747e-02
   141   -5.529095513866e-13
   142   -2.249036882890e-13
   143    1.012397297669e-13
   144    7.460592089862e-02