[Molden Format]
[Atoms] (Angs)
  C      1    6     -0.00714236     -1.70213747     -0.00000000
  H      2    1     -2.06882847     -1.44022412      0.00000000
  H      3    1     -0.12337987     -2.77567521      0.00000000
  H      4    1      0.04651892      1.98813947     -0.00000000
  C      5    6     -1.21953563      0.40211669      0.00000000
  O      6    8     -2.25921553      1.03043814      0.00000000
  C      7    6      1.28797806      0.34644937     -0.00000000
  O      8    8      2.31273661      1.00537216     -0.00000000
  N      9    7      0.03446295      0.97739857     -0.00000000
  N     10    7     -1.17287765     -0.98229824      0.00000000
  C     11    6      1.20107039     -1.10433419     -0.00000000
  H     12    1      2.11220096     -1.67699125     -0.00000000
[GTO]
1    0
S    6    1.000000
   4.56324000E+03    1.96665000E-03 
   6.82024000E+02    1.52306000E-02 
   1.54973000E+02    7.61269000E-02 
   4.44553000E+01    2.60801000E-01 
   1.30290000E+01    6.16462000E-01 
   1.82773000E+00    2.21006000E-01 
SP   3    1.000000
   2.09642000E+01    1.14660000E-01   4.02487000E-02 
   4.80331000E+00    9.19999000E-01   2.37594000E-01 
   1.45933000E+00   -3.03068000E-03   8.15854000E-01 
SP   1    1.000000
   4.83456000E-01    1.00000000E+00   1.00000000E+00 
SP   1    1.000000
   1.45585000E-01    1.00000000E+00   1.00000000E+00 
SP   1    1.000000
   4.38000000E-02    1.00000000E+00   1.00000000E+00 
D    1    1.000000
   6.26000000E-01    1.00000000E+00 

2    0
S    3    1.000000
   3.38650000E+01    2.54938000E-02 
   5.09479000E+00    1.90373000E-01 
   1.15879000E+00    8.52161000E-01 
S    1    1.000000
   3.25840000E-01    1.00000000E+00 
S    1    1.000000
   1.02741000E-01    1.00000000E+00 
S    1    1.000000
   3.60000000E-02    1.00000000E+00 
P    1    1.000000
   7.50000000E-01    1.00000000E+00 

3    0
S    3    1.000000
   3.38650000E+01    2.54938000E-02 
   5.09479000E+00    1.90373000E-01 
   1.15879000E+00    8.52161000E-01 
S    1    1.000000
   3.25840000E-01    1.00000000E+00 
S    1    1.000000
   1.02741000E-01    1.00000000E+00 
S    1    1.000000
   3.60000000E-02    1.00000000E+00 
P    1    1.000000
   7.50000000E-01    1.00000000E+00 

4    0
S    3    1.000000
   3.38650000E+01    2.54938000E-02 
   5.09479000E+00    1.90373000E-01 
   1.15879000E+00    8.52161000E-01 
S    1    1.000000
   3.25840000E-01    1.00000000E+00 
S    1    1.000000
   1.02741000E-01    1.00000000E+00 
S    1    1.000000
   3.60000000E-02    1.00000000E+00 
P    1    1.000000
   7.50000000E-01    1.00000000E+00 

5    0
S    6    1.000000
   4.56324000E+03    1.96665000E-03 
   6.82024000E+02    1.52306000E-02 
   1.54973000E+02    7.61269000E-02 
   4.44553000E+01    2.60801000E-01 
   1.30290000E+01    6.16462000E-01 
   1.82773000E+00    2.21006000E-01 
SP   3    1.000000
   2.09642000E+01    1.14660000E-01   4.02487000E-02 
   4.80331000E+00    9.19999000E-01   2.37594000E-01 
   1.45933000E+00   -3.03068000E-03   8.15854000E-01 
SP   1    1.000000
   4.83456000E-01    1.00000000E+00   1.00000000E+00 
SP   1    1.000000
   1.45585000E-01    1.00000000E+00   1.00000000E+00 
SP   1    1.000000
   4.38000000E-02    1.00000000E+00   1.00000000E+00 
D    1    1.000000
   6.26000000E-01    1.00000000E+00 

6    0
S    6    1.000000
   8.58850000E+03    1.89515000E-03 
   1.29723000E+03    1.43859000E-02 
   2.99296000E+02    7.07320000E-02 
   8.73771000E+01    2.40001000E-01 
   2.56789000E+01    5.94797000E-01 
   3.74004000E+00    2.80802000E-01 
SP   3    1.000000
   4.21175000E+01    1.13889000E-01   3.65114000E-02 
   9.62837000E+00    9.20811000E-01   2.37153000E-01 
   2.85332000E+00   -3.27447000E-03   8.19702000E-01 
SP   1    1.000000
   9.05661000E-01    1.00000000E+00   1.00000000E+00 
SP   1    1.000000
   2.55611000E-01    1.00000000E+00   1.00000000E+00 
SP   1    1.000000
   8.45000000E-02    1.00000000E+00   1.00000000E+00 
D    1    1.000000
   1.29200000E+00    1.00000000E+00 

7    0
S    6    1.000000
   4.56324000E+03    1.96665000E-03 
   6.82024000E+02    1.52306000E-02 
   1.54973000E+02    7.61269000E-02 
   4.44553000E+01    2.60801000E-01 
   1.30290000E+01    6.16462000E-01 
   1.82773000E+00    2.21006000E-01 
SP   3    1.000000
   2.09642000E+01    1.14660000E-01   4.02487000E-02 
   4.80331000E+00    9.19999000E-01   2.37594000E-01 
   1.45933000E+00   -3.03068000E-03   8.15854000E-01 
SP   1    1.000000
   4.83456000E-01    1.00000000E+00   1.00000000E+00 
SP   1    1.000000
   1.45585000E-01    1.00000000E+00   1.00000000E+00 
SP   1    1.000000
   4.38000000E-02    1.00000000E+00   1.00000000E+00 
D    1    1.000000
   6.26000000E-01    1.00000000E+00 

8    0
S    6    1.000000
   8.58850000E+03    1.89515000E-03 
   1.29723000E+03    1.43859000E-02 
   2.99296000E+02    7.07320000E-02 
   8.73771000E+01    2.40001000E-01 
   2.56789000E+01    5.94797000E-01 
   3.74004000E+00    2.80802000E-01 
SP   3    1.000000
   4.21175000E+01    1.13889000E-01   3.65114000E-02 
   9.62837000E+00    9.20811000E-01   2.37153000E-01 
   2.85332000E+00   -3.27447000E-03   8.19702000E-01 
SP   1    1.000000
   9.05661000E-01    1.00000000E+00   1.00000000E+00 
SP   1    1.000000
   2.55611000E-01    1.00000000E+00   1.00000000E+00 
SP   1    1.000000
   8.45000000E-02    1.00000000E+00   1.00000000E+00 
D    1    1.000000
   1.29200000E+00    1.00000000E+00 

9    0
S    6    1.000000
   6.29348000E+03    1.96979000E-03 
   9.49044000E+02    1.49613000E-02 
   2.18776000E+02    7.35006000E-02 
   6.36916000E+01    2.48937000E-01 
   1.88282000E+01    6.02460000E-01 
   2.72023000E+00    2.56202000E-01 
SP   3    1.000000
   3.06331000E+01    1.11906000E-01   3.83119000E-02 
   7.02614000E+00    9.21666000E-01   2.37403000E-01 
   2.11205000E+00   -2.56919000E-03   8.17592000E-01 
SP   1    1.000000
   6.84009000E-01    1.00000000E+00   1.00000000E+00 
SP   1    1.000000
   2.00878000E-01    1.00000000E+00   1.00000000E+00 
SP   1    1.000000
   6.39000000E-02    1.00000000E+00   1.00000000E+00 
D    1    1.000000
   9.13000000E-01    1.00000000E+00 

10    0
S    6    1.000000
   6.29348000E+03    1.96979000E-03 
   9.49044000E+02    1.49613000E-02 
   2.18776000E+02    7.35006000E-02 
   6.36916000E+01    2.48937000E-01 
   1.88282000E+01    6.02460000E-01 
   2.72023000E+00    2.56202000E-01 
SP   3    1.000000
   3.06331000E+01    1.11906000E-01   3.83119000E-02 
   7.02614000E+00    9.21666000E-01   2.37403000E-01 
   2.11205000E+00   -2.56919000E-03   8.17592000E-01 
SP   1    1.000000
   6.84009000E-01    1.00000000E+00   1.00000000E+00 
SP   1    1.000000
   2.00878000E-01    1.00000000E+00   1.00000000E+00 
SP   1    1.000000
   6.39000000E-02    1.00000000E+00   1.00000000E+00 
D    1    1.000000
   9.13000000E-01    1.00000000E+00 

11    0
S    6    1.000000
   4.56324000E+03    1.96665000E-03 
   6.82024000E+02    1.52306000E-02 
   1.54973000E+02    7.61269000E-02 
   4.44553000E+01    2.60801000E-01 
   1.30290000E+01    6.16462000E-01 
   1.82773000E+00    2.21006000E-01 
SP   3    1.000000
   2.09642000E+01    1.14660000E-01   4.02487000E-02 
   4.80331000E+00    9.19999000E-01   2.37594000E-01 
   1.45933000E+00   -3.03068000E-03   8.15854000E-01 
SP   1    1.000000
   4.83456000E-01    1.00000000E+00   1.00000000E+00 
SP   1    1.000000
   1.45585000E-01    1.00000000E+00   1.00000000E+00 
SP   1    1.000000
   4.38000000E-02    1.00000000E+00   1.00000000E+00 
D    1    1.000000
   6.26000000E-01    1.00000000E+00 

12    0
S    3    1.000000
   3.38650000E+01    2.54938000E-02 
   5.09479000E+00    1.90373000E-01 
   1.15879000E+00    8.52161000E-01 
S    1    1.000000
   3.25840000E-01    1.00000000E+00 
S    1    1.000000
   1.02741000E-01    1.00000000E+00 
S    1    1.000000
   3.60000000E-02    1.00000000E+00 
P    1    1.000000
   7.50000000E-01    1.00000000E+00 

[MO]
Sym=X
Ene= 2.008092
Spin=Alpha
Occup=1
     1    1.105255940533e-14
     2    5.543464591974e-15
     3   -2.461956379507e-14
     4   -4.600405995545e-15
     5    3.624648363617e-02
     6    2.310703470304e-14
     7   -2.131239566399e-14
     8   -2.780497156651e-14
     9    6.293460007581e-02
    10   -4.323634489064e-13
    11    7.340908108346e-14
    12   -1.527867970008e-13
    13    3.668155702396e-02
    14    6.017289049743e-12
    15    1.662579320990e-12
    16    7.892556266085e-13
    17    7.098389186158e-03
    18    5.934530687739e-15
    19   -1.273062871092e-02
    20    6.680303468025e-03
    21    1.606253752002e-14
    22    1.024754027689e-15
    23    2.465700918494e-14
    24    2.531786434696e-13
    25   -8.076345448955e-14
    26    5.041318876427e-13
    27    1.585918876027e-14
    28    6.627075151756e-15
    29    8.995303853654e-03
    30   -5.002175723673e-15
    31   -9.714925566581e-15
    32   -4.622338373862e-14
    33    1.297599829263e-13
    34    3.250566364762e-16
    35    8.117710787429e-15
    36    2.937965722311e-03
    37   -3.706446401135e-15
    38   -2.056211481783e-13
    39    5.063298243424e-13
    40   -3.576652826779e-13
    41   -5.793004516083e-15
    42    1.143253652732e-14
    43   -8.753007417699e-03
    44    3.529932053210e-14
    45    3.670425926256e-14
    46   -1.726824751209e-14
    47   -3.671554889132e-14
    48    2.140499052094e-02
    49   -2.713769956934e-14
    50   -1.310298229127e-14
    51   -3.442186317668e-14
    52    3.757936368445e-02
    53   -2.095607613873e-14
    54   -1.574454759406e-13
    55   -3.703504446636e-13
    56    2.484029886565e-02
    57   -1.298810961268e-12
    58   -1.188900955143e-14
    59    7.397739335500e-13
    60    1.178771286642e-02
    61    1.678537677980e-15
    62   -1.736624287035e-02
    63   -1.382340909304e-02
    64    1.635101351320e-14
    65    1.300961428720e-14
    66    1.242732287413e-14
    67    1.403465275744e-14
    68   -3.798875413692e-14
    69   -3.759059135245e-14
    70    3.638081603161e-02
    71   -1.543480337543e-14
    72   -7.908968545488e-14
    73   -8.837356989234e-14
    74    5.709659413204e-02
    75   -6.183086017155e-14
    76    1.152423811438e-14
    77    6.173575021467e-14
    78    5.096778913056e-02
    79    3.417898610634e-13
    80    4.168564339518e-14
    81   -2.890691508014e-13
    82   -1.577983360529e-03
    83    2.210501311044e-15
    84    3.582277012108e-03
    85   -2.484957009409e-03
    86   -4.826225495811e-15
    87   -6.470639755389e-16
    88   -2.871261050622e-14
    89   -3.291442269302e-14
    90   -2.293814064195e-14
    91    2.113288647317e-14
    92   -1.138736272927e-01
    93    4.283684709582e-14
    94   -5.266830605634e-14
    95    3.457104301210e-14
    96   -2.014992022563e-01
    97    4.223298969583e-13
    98   -1.662571103692e-16
    99   -1.813915915283e-13
   100   -1.096676527492e-01
   101    1.544152869854e-12
   102   -1.502934709040e-12
   103    2.866710730190e-13
   104   -2.939557620632e-02
   105   -8.242971562366e-15
   106   -1.439860452788e-02
   107   -2.530294082086e-02
   108    4.492683280796e-14
   109   -1.652076205266e-14
   110   -1.592064028756e-14
   111   -2.384065995234e-14
   112    1.140980690372e-13
   113   -1.691488765379e-13
   114   -2.528690241225e-01
   115    8.725003436743e-14
   116    1.175194910463e-13
   117   -1.804344297112e-13
   118   -2.954828585869e-01
   119    2.095672470650e-14
   120    2.910981849291e-14
   121   -6.069758988158e-14
   122   -1.813247126757e-01
   123    5.064655876024e-14
   124    2.156622217639e-13
   125    1.753153481575e-13
   126    1.218037440951e-02
   127   -1.861780673520e-15
   128    2.062341223961e-02
   129    1.264015213786e-02
   130   -6.491700264021e-15
   131    3.946018197674e-15
   132   -4.522430217752e-14
   133   -4.833761332567e-14
   134    5.151886830149e-14
   135   -2.683170581606e-14
   136   -1.058942625275e-01
   137    5.418275612346e-14
   138    9.967390152178e-14
   139   -7.190121932256e-14
   140   -1.753602703282e-01
   141    3.252753019113e-13
   142    4.137128401158e-14
   143    3.366550192816e-13
   144   -1.648883572787e-01
   145   -1.542158239392e-12
   146   -4.076675188813e-13
   147   -4.812931123801e-13
   148   -2.446043052168e-03
   149   -5.769240609135e-15
   150   -9.702707773886e-03
   151    5.162259864765e-03
   152   -5.241874672287e-15
   153   -7.267416613563e-15
   154    2.748413938263e-14
   155    2.018312399936e-15
   156   -5.918111440183e-15
   157   -1.556984671559e-14
   158    1.024974429818e-01
   159    1.193071987855e-13
   160   -5.558936745616e-14
   161   -1.345781414355e-14
   162    1.689788436080e-01
   163   -1.285016770855e-13
   164    4.790770753943e-13
   165   -4.998432747144e-14
   166    1.615352376248e-01
   167    7.479658272307e-13
   168    1.261126347967e-14
   169   -3.083452053440e-13
   170    6.321276035904e-03
   171    3.196983777533e-15
   172    4.205777497850e-03
   173    1.019505368658e-03
   174   -8.150368613009e-15
   175   -7.070571526988e-15
   176   -1.308396936729e-13
   177   -9.959692002095e-14
   178    1.112380855256e-15
   179   -1.639849677273e-14
   180   -1.092246683911e-02
   181   -4.546390924378e-14
   182    2.111063325412e-15
   183   -3.718099003567e-14
   184   -2.054925134327e-02
   185   -2.153786077308e-14
   186    1.121410183582e-14
   187   -1.095906840210e-13
   188   -6.641421717310e-03
   189   -6.026368066861e-12
   190    2.478012403177e-12
   191    9.024982014295e-13
   192    8.827219240523e-03
   193    1.282083936295e-15
   194   -3.878611570993e-03
   195   -1.236389115520e-02
   196   -1.742440063982e-15
   197   -1.135420275459e-14
   198    8.207553231184e-16
   199   -5.422966662264e-16
   200   -1.658566753743e-13
   201   -2.667399957341e-13
   202   -1.588754454337e-15
   203   -4.161778935309e-16
   204   -1.346053964447e-03
Sym=X
Ene= 2.002859
Spin=Alpha
Occup=1
     1    8.626132582000e-03
     2    1.464755882048e-02
     3   -2.121776417303e-02
     4   -2.054023621453e-02
     5    4.037063498652e-14
     6   -4.063758308490e-02
     7   -3.581919194663e-02
     8   -3.480356385305e-02
     9    7.608742608501e-14
    10   -6.927782517265e-02
    11   -2.851555602060e-02
    12   -5.363539194760e-02
    13    5.421802062167e-14
    14   -2.270970889658e-01
    15   -5.962718336236e-02
    16   -4.577258253294e-02
    17   -2.735891766712e-14
    18    1.134521960517e-03
    19    1.839363068837e-14
    20    7.931472451719e-15
    21   -8.405848625810e-03
    22    7.232585767689e-04
    23   -1.816470450916e-03
    24   -5.600368840618e-03
    25   -1.424465066045e-03
    26    1.133308804314e-02
    27   -5.495118429134e-04
    28   -2.305937954702e-04
    29    1.413186625603e-17
    30    1.475631100486e-02
    31    2.033637902558e-02
    32    1.015975556004e-02
    33   -1.835221404408e-02
    34   -1.146675746954e-03
    35   -5.375771952704e-04
    36    8.803347052558e-15
    37    3.101764561425e-03
    38    1.627989190110e-02
    39    1.549244004975e-02
    40   -4.744935630492e-02
    41   -2.512051150577e-03
    42   -4.552327405245e-04
    43   -1.955023261783e-15
    44   -1.325342750840e-02
    45   -2.192493029385e-02
    46    3.348124559832e-02
    47    1.526904984852e-02
    48    4.821413638075e-14
    49    6.100006528560e-02
    50    5.635572946232e-02
    51    2.430570245963e-02
    52    1.000578104276e-13
    53    6.281155691880e-02
    54    5.025214970139e-02
    55    1.864179502036e-02
    56   -2.200646475507e-14
    57    4.345840212746e-02
    58    2.566058742383e-02
    59    4.139426415226e-02
    60    2.856349242548e-14
    61   -1.776446631226e-03
    62   -2.316312520687e-15
    63    2.755756372780e-15
    64   -1.399944231810e-02
    65    3.245615812733e-03
    66    3.796989835355e-03
    67    6.390522878233e-03
    68    2.007051436515e-02
    69    4.714951549680e-02
    70    1.016312283400e-13
    71   -1.854679008383e-02
    72    3.257163979716e-02
    73    7.220335945684e-02
    74    1.337928766712e-13
    75   -1.220249774378e-02
    76    2.546041796490e-02
    77    6.027486592424e-02
    78    8.964039804672e-14
    79    1.527385305108e-02
    80    5.901476362063e-03
    81    1.392967742396e-03
    82   -2.705177033764e-15
    83    1.285010244916e-04
    84    5.516641307586e-15
    85   -7.758701406321e-15
    86    4.239060011982e-03
    87    2.445613141910e-03
    88   -7.586678223872e-03
    89   -1.319336256098e-02
    90    4.175737507194e-02
    91   -3.594035011134e-02
    92   -3.661729457826e-14
    93    3.963279494492e-02
    94    7.159997902431e-02
    95   -7.047889707635e-02
    96   -5.925793228825e-14
    97    5.748951321816e-02
    98   -8.562033095017e-03
    99    1.888280314358e-02
   100   -1.028908188187e-13
   101   -2.244373103672e-01
   102   -2.061845457487e-02
   103    1.237829935392e-01
   104   -3.060407629701e-14
   105    1.147492909833e-04
   106   -2.369091570870e-14
   107   -3.220564571140e-14
   108   -5.519600167782e-02
   109    3.483455965806e-02
   110   -4.712530926012e-03
   111   -6.648798729214e-03
   112   -2.248763805308e-01
   113    2.775622656586e-01
   114   -2.692105662667e-13
   115    1.926308086189e-02
   116   -2.576618023451e-01
   117    3.184085108215e-01
   118   -2.801062953768e-13
   119   -1.223239963567e-02
   120   -1.708695082972e-01
   121    2.342853904609e-01
   122   -1.147128426713e-13
   123   -2.221775071568e-02
   124    6.519062867708e-03
   125    4.552923415008e-03
   126   -9.898495587211e-15
   127   -2.201604328691e-03
   128    1.647149083053e-14
   129    4.486478953795e-15
   130    1.291806965489e-02
   131   -2.472093714517e-03
   132    2.298796759203e-02
   133    3.803318023901e-02
   134   -7.808891609942e-02
   135    2.565428279787e-02
   136    1.876917619499e-14
   137   -1.025425565218e-01
   138   -1.228575406713e-01
   139    3.211406702011e-02
   140    2.583099813366e-14
   141   -1.807236900467e-01
   142   -9.171589699057e-02
   143    4.949398339525e-02
   144    5.718513286542e-14
   145   -1.389531251749e-01
   146    5.163336263249e-02
   147    2.334696104253e-02
   148    1.990837040693e-14
   149   -1.021651475524e-03
   150   -9.811274392522e-15
   151   -2.381869988325e-15
   152    1.334337435201e-04
   153    3.731828100648e-03
   154   -1.462397985225e-03
   155   -2.421665644677e-03
   156   -1.161675391491e-03
   157    9.034167318741e-03
   158   -7.292649956083e-15
   159    6.311415038385e-03
   160   -2.643585633438e-03
   161    1.232161154852e-02
   162   -6.267605257701e-15
   163    2.037217698767e-02
   164    7.638265548612e-04
   165    1.116653380314e-02
   166    2.381390088171e-14
   167    5.906946993954e-02
   168    6.660664423357e-03
   169    3.019352137209e-02
   170    8.069931813428e-15
   171    2.981935210632e-04
   172    6.491364021122e-15
   173    1.037420411801e-14
   174   -2.531156436392e-03
   175    9.715104585587e-04
   176   -1.774739021508e-02
   177   -2.878226441842e-02
   178    3.147741759634e-02
   179    5.514454738469e-02
   180    4.096375169608e-14
   181    7.223448727171e-02
   182    5.065328552684e-02
   183    7.713788115840e-02
   184    5.873693246766e-14
   185    1.525905345914e-01
   186   -4.216648684585e-03
   187    7.922934806546e-02
   188    8.958901629833e-14
   189    4.816779827671e-01
   190   -7.305672595775e-02
   191    3.752467021948e-02
   192    4.498088793933e-14
   193   -6.764548474975e-04
   194    1.259717820793e-14
   195   -7.298097309229e-15
   196   -2.873198359090e-03
   197    2.741808019812e-03
   198    1.064507409612e-02
   199    1.218612707526e-02
   200    7.270018445150e-04
   201    2.731679583007e-02
   202   -1.445833368821e-03
   203    1.671538395050e-03
   204    8.886431923648e-16
Sym=X
Ene= 2.001885
Spin=Alpha
Occup=1
     1   -4.305517397791e-04
     2   -9.179709851500e-04
     3   -7.574070404264e-03
     4    1.178109625196e-02
     5   -1.246514470882e-13
     6    1.042940416253e-03
     7   -1.242441025455e-02
     8    1.820553088707e-02
     9   -2.023447750086e-13
    10    2.821559075249e-03
    11   -2.014770237663e-02
    12    6.964625783931e-03
    13   -2.980502680352e-13
    14   -3.676257823133e-02
    15   -4.060577786454e-02
    16   -8.957436483188e-03
    17   -1.069140611624e-13
    18   -1.066689150194e-03
    19   -9.807921371586e-14
    20   -8.666881941431e-15
    21    6.840564599413e-04
    22    6.713147276392e-03
    23    1.700363667104e-02
    24    3.627247997734e-02
    25    2.433935911154e-02
    26   -3.277956769877e-02
    27    3.276869550587e-03
    28    3.041013135749e-03
    29    4.163725529347e-14
    30   -6.815154558573e-03
    31   -1.204349253977e-02
    32    1.981062295522e-03
    33   -1.113977360407e-02
    34   -2.188460609114e-04
    35   -1.601031257896e-03
    36   -4.539742119380e-15
    37   -7.278189796801e-03
    38   -7.794399680157e-03
    39   -2.414566143522e-02
    40    1.084436651270e-02
    41    2.477308424522e-03
    42    2.855232434899e-03
    43   -2.593769831376e-14
    44    1.033161079492e-02
    45    1.681662425248e-02
    46   -3.368953114202e-03
    47   -1.201150800106e-02
    48    7.157213824901e-14
    49   -4.917576562871e-02
    50   -3.491325556641e-03
    51   -1.438221093560e-02
    52    1.320690792093e-13
    53   -3.720645038940e-02
    54   -6.026547426518e-02
    55   -9.482494796511e-02
    56    2.397381522673e-14
    57   -6.037738239522e-03
    58   -5.759266649522e-02
    59   -7.656964417976e-02
    60   -5.838010147287e-15
    61    1.498702514342e-03
    62   -4.177237348790e-14
    63   -8.563982426828e-14
    64    5.362721736344e-02
    65    2.890559381018e-02
    66   -7.633303834623e-03
    67   -1.288422288213e-02
    68   -1.231662416308e-01
    69   -1.638662743291e-01
    70    9.090611523080e-14
    71    3.801949065689e-02
    72   -1.898442666764e-01
    73   -2.537372913128e-01
    74    1.359233837316e-13
    75    4.586576853257e-02
    76   -1.644220307440e-01
    77   -2.354611513687e-01
    78    1.196990685601e-13
    79    7.283094454799e-03
    80   -3.418617856945e-03
    81   -1.215002404070e-02
    82   -6.817779309411e-15
    83    9.872454348951e-04
    84    4.578162910134e-15
    85   -6.896759918177e-15
    86   -1.326025171768e-02
    87   -4.681370845249e-03
    88    1.401836044620e-02
    89    2.152105227148e-02
    90   -6.917800131832e-02
    91   -8.025070948338e-02
    92   -4.512322632723e-14
    93   -6.051378825038e-02
    94   -1.070814813263e-01
    95   -1.337406494168e-01
    96   -1.062966156196e-13
    97   -4.110505022844e-02
    98   -1.480892444331e-02
    99   -2.021301358552e-02
   100   -1.874425419123e-14
   101   -6.315042261242e-02
   102    5.899714858828e-03
   103    2.489504960311e-02
   104    1.652339133555e-16
   105    6.847672900489e-03
   106    1.216020928783e-13
   107    6.272964866798e-14
   108   -2.081253881652e-02
   109   -9.317419727248e-03
   110    5.182192442376e-03
   111    7.126240052485e-03
   112    1.115767083666e-01
   113    1.779482569396e-01
   114    8.258111426579e-13
   115   -1.709492071168e-02
   116    1.277823857660e-01
   117    2.031425637760e-01
   118    9.398147570943e-13
   119    7.228163821099e-02
   120    3.438724014871e-02
   121    1.129732335454e-01
   122    6.882723316357e-13
   123    1.478539842582e-02
   124    3.254053737175e-03
   125    3.939899236353e-03
   126    9.532667646851e-14
   127    8.679803256063e-03
   128   -3.063813795252e-14
   129   -1.807897792086e-14
   130   -5.054363627616e-03
   131   -1.483259313423e-02
   132   -9.510757755060e-03
   133   -1.622359709479e-02
   134   -2.274874590622e-02
   135   -2.465317239716e-02
   136   -3.941911630038e-13
   137    4.206808401516e-02
   138   -2.863964250051e-02
   139   -3.311386711694e-02
   140   -6.461965750439e-13
   141    1.188936269948e-01
   142   -7.576149355876e-02
   143   -3.831807752968e-02
   144   -6.057787567165e-13
   145    1.362255426972e-01
   146   -8.422057341910e-04
   147    1.487637015245e-02
   148   -1.155657744238e-13
   149    1.259702497867e-03
   150   -1.296397789451e-14
   151    8.054974083312e-15
   152   -6.261895045214e-03
   153   -6.628566723916e-03
   154    1.081452930717e-02
   155    1.792962121726e-02
   156   -1.203256960625e-02
   157   -4.300168484432e-02
   158    4.005586501676e-13
   159   -4.814408533554e-02
   160   -1.575372477511e-02
   161   -6.075960048516e-02
   162    6.315675990371e-13
   163   -1.316265693172e-01
   164   -1.419241399048e-03
   165   -8.049055789166e-02
   166    6.980634427017e-13
   167   -1.491997758825e-01
   168   -6.119336719584e-03
   169    2.693659548170e-03
   170    2.213544977460e-13
   171   -2.138953641208e-03
   172   -4.364212042279e-15
   173    2.131290509767e-14
   174   -2.757246302599e-04
   175    1.550708814941e-05
   176   -1.096605732439e-02
   177   -1.760080928545e-02
   178   -2.203757204868e-02
   179    5.395507091658e-02
   180   -2.974251972956e-13
   181    4.268949081815e-02
   182   -3.175573997696e-02
   183    8.388000867351e-02
   184   -5.181033367326e-13
   185    6.649967974865e-02
   186   -3.460816773482e-02
   187    6.173817668873e-02
   188   -5.020280678088e-13
   189    1.362861950998e-01
   190   -3.527439831210e-02
   191    4.002593941757e-03
   192   -1.496429703943e-14
   193   -1.864988133434e-03
   194    2.779886674166e-14
   195    1.962180672382e-15
   196   -4.868403719188e-03
   197   -2.772441753626e-03
   198   -2.898339947744e-02
   199   -4.584050671034e-02
   200   -7.701981017117e-04
   201    1.344752196804e-02
   202    4.740707906538e-03
   203   -1.599850163454e-03
   204   -2.190929434859e-14
Sym=X
Ene= 2.001563
Spin=Alpha
Occup=1
     1   -5.935857283092e-14
     2    2.560997128419e-14
     3    6.243082422780e-14
     4   -1.616486350671e-13
     5   -4.822652352799e-02
     6   -3.884906885687e-13
     7    9.335695175972e-14
     8   -2.366158220365e-13
     9   -8.169316029178e-02
    10    2.932753554090e-13
    11   -7.193652980899e-14
    12    7.258603830694e-14
    13   -9.797363844391e-02
    14   -1.006190035908e-12
    15   -1.913515185801e-13
    16    3.480167704523e-13
    17   -1.949563346878e-02
    18    1.666979553928e-14
    19   -2.760872627675e-02
    20   -2.933322898251e-03
    21   -9.117660296399e-14
    22   -1.634556189431e-15
    23   -2.386546147397e-13
    24   -6.069535672197e-13
    25   -2.154500712676e-13
    26   -4.540920708531e-13
    27   -6.282128928028e-14
    28   -1.106324854222e-14
    29    1.066993402111e-02
    30    9.042732489968e-14
    31    2.243436651427e-13
    32    1.109319288158e-13
    33    3.023010039040e-13
    34    7.857275018403e-16
    35   -4.641293063451e-15
    36   -3.880221493243e-03
    37    9.666556497414e-14
    38    3.489792918314e-13
    39   -4.523041765991e-13
    40    6.220953154516e-13
    41   -1.008240898514e-14
    42   -3.428332321700e-14
    43   -1.020148997300e-02
    44   -1.102030272699e-13
    45   -2.031423943266e-13
    46    1.562029990074e-13
    47   -1.303405395212e-13
    48    1.557112591363e-02
    49    6.022377270193e-13
    50    2.434042627231e-13
    51   -2.505397602124e-13
    52    3.004114454123e-02
    53    3.968554587133e-13
    54    4.368468541104e-13
    55    5.885083222396e-13
    56    1.752452294633e-02
    57    7.830633328559e-13
    58    5.208155600706e-14
    59   -5.444731864638e-13
    60   -1.820635207564e-02
    61   -3.375919587167e-14
    62   -2.164862525909e-02
    63   -1.841742792135e-02
    64   -2.227270595059e-13
    65   -8.942238132781e-14
    66   -1.067624708541e-13
    67   -9.054831344521e-14
    68    3.236943528397e-13
    69    6.168001662563e-13
    70    2.917765057583e-02
    71   -9.791286301642e-15
    72    5.277282285111e-13
    73    9.810808041551e-13
    74    4.587817084084e-02
    75    5.344294173095e-14
    76    4.033992155994e-13
    77    7.426801283991e-13
    78    3.842877920713e-02
    79   -2.765047451830e-13
    80   -2.245490354486e-14
    81    3.719920200842e-13
    82    9.346225322788e-03
    83    5.461653893831e-16
    84    2.563252235436e-03
    85   -2.212504366963e-03
    86    3.718873448003e-14
    87    2.194673183493e-14
    88   -2.199734066564e-13
    89   -2.616838689538e-13
    90    2.536391514086e-13
    91    5.255185371683e-14
    92   -2.066965880476e-02
    93    4.732697091355e-13
    94    4.178209058058e-13
    95    1.213320605440e-13
    96   -4.088509604150e-02
    97   -2.434088185020e-13
    98    1.953340474996e-13
    99   -4.090624309822e-16
   100   -1.180116591478e-02
   101    9.674087711632e-13
   102    1.678574536914e-12
   103   -1.295589043720e-12
   104    5.242304137624e-03
   105   -1.807161054421e-14
   106    4.298077276592e-02
   107    2.060033849126e-02
   108    3.311495532432e-14
   109    4.977498860049e-14
   110    6.776972226448e-15
   111    1.100450079237e-14
   112   -3.855363202443e-13
   113   -5.257029555510e-13
   114    2.568887872661e-01
   115   -7.563229285509e-14
   116   -4.275468400216e-13
   117   -6.155742810142e-13
   118    2.918806302296e-01
   119   -2.808879700239e-13
   120   -6.349231889026e-14
   121   -3.868688835780e-13
   122    2.021366324252e-01
   123   -1.761415533173e-13
   124   -3.446339379013e-13
   125   -9.448863838813e-14
   126    2.964682524020e-02
   127   -2.393153655415e-14
   128   -9.017235050311e-03
   129   -5.577277050376e-03
   130    6.429968394577e-15
   131    5.028111475950e-14
   132    3.437529271095e-13
   133    2.749956576657e-13
   134   -5.274177567404e-14
   135    1.076304760409e-13
   136   -1.328775436939e-01
   137    7.721684741537e-14
   138   -1.348783342265e-13
   139    1.865432217161e-13
   140   -2.160037969250e-01
   141   -5.077261603502e-13
   142    2.235210863846e-13
   143   -2.506171303057e-13
   144   -2.283190309941e-01