[Molden Format]
[Atoms] (Angs)
  C      1    6     -0.00714236     -1.70213747     -0.00000000
  H      2    1     -2.06882847     -1.44022412      0.00000000
  H      3    1     -0.12337987     -2.77567521      0.00000000
  H      4    1      0.04651892      1.98813947     -0.00000000
  C      5    6     -1.21953563      0.40211669      0.00000000
  O      6    8     -2.25921553      1.03043814      0.00000000
  C      7    6      1.28797806      0.34644937     -0.00000000
  O      8    8      2.31273661      1.00537216     -0.00000000
  N      9    7      0.03446295      0.97739857     -0.00000000
  N     10    7     -1.17287765     -0.98229824      0.00000000
  C     11    6      1.20107039     -1.10433419     -0.00000000
  H     12    1      2.11220096     -1.67699125     -0.00000000
[GTO]
1    0
S    6    1.000000
   4.56324000E+03    1.96665000E-03 
   6.82024000E+02    1.52306000E-02 
   1.54973000E+02    7.61269000E-02 
   4.44553000E+01    2.60801000E-01 
   1.30290000E+01    6.16462000E-01 
   1.82773000E+00    2.21006000E-01 
SP   3    1.000000
   2.09642000E+01    1.14660000E-01   4.02487000E-02 
   4.80331000E+00    9.19999000E-01   2.37594000E-01 
   1.45933000E+00   -3.03068000E-03   8.15854000E-01 
SP   1    1.000000
   4.83456000E-01    1.00000000E+00   1.00000000E+00 
SP   1    1.000000
   1.45585000E-01    1.00000000E+00   1.00000000E+00 
SP   1    1.000000
   4.38000000E-02    1.00000000E+00   1.00000000E+00 
D    1    1.000000
   6.26000000E-01    1.00000000E+00 

2    0
S    3    1.000000
   3.38650000E+01    2.54938000E-02 
   5.09479000E+00    1.90373000E-01 
   1.15879000E+00    8.52161000E-01 
S    1    1.000000
   3.25840000E-01    1.00000000E+00 
S    1    1.000000
   1.02741000E-01    1.00000000E+00 
S    1    1.000000
   3.60000000E-02    1.00000000E+00 
P    1    1.000000
   7.50000000E-01    1.00000000E+00 

3    0
S    3    1.000000
   3.38650000E+01    2.54938000E-02 
   5.09479000E+00    1.90373000E-01 
   1.15879000E+00    8.52161000E-01 
S    1    1.000000
   3.25840000E-01    1.00000000E+00 
S    1    1.000000
   1.02741000E-01    1.00000000E+00 
S    1    1.000000
   3.60000000E-02    1.00000000E+00 
P    1    1.000000
   7.50000000E-01    1.00000000E+00 

4    0
S    3    1.000000
   3.38650000E+01    2.54938000E-02 
   5.09479000E+00    1.90373000E-01 
   1.15879000E+00    8.52161000E-01 
S    1    1.000000
   3.25840000E-01    1.00000000E+00 
S    1    1.000000
   1.02741000E-01    1.00000000E+00 
S    1    1.000000
   3.60000000E-02    1.00000000E+00 
P    1    1.000000
   7.50000000E-01    1.00000000E+00 

5    0
S    6    1.000000
   4.56324000E+03    1.96665000E-03 
   6.82024000E+02    1.52306000E-02 
   1.54973000E+02    7.61269000E-02 
   4.44553000E+01    2.60801000E-01 
   1.30290000E+01    6.16462000E-01 
   1.82773000E+00    2.21006000E-01 
SP   3    1.000000
   2.09642000E+01    1.14660000E-01   4.02487000E-02 
   4.80331000E+00    9.19999000E-01   2.37594000E-01 
   1.45933000E+00   -3.03068000E-03   8.15854000E-01 
SP   1    1.000000
   4.83456000E-01    1.00000000E+00   1.00000000E+00 
SP   1    1.000000
   1.45585000E-01    1.00000000E+00   1.00000000E+00 
SP   1    1.000000
   4.38000000E-02    1.00000000E+00   1.00000000E+00 
D    1    1.000000
   6.26000000E-01    1.00000000E+00 

6    0
S    6    1.000000
   8.58850000E+03    1.89515000E-03 
   1.29723000E+03    1.43859000E-02 
   2.99296000E+02    7.07320000E-02 
   8.73771000E+01    2.40001000E-01 
   2.56789000E+01    5.94797000E-01 
   3.74004000E+00    2.80802000E-01 
SP   3    1.000000
   4.21175000E+01    1.13889000E-01   3.65114000E-02 
   9.62837000E+00    9.20811000E-01   2.37153000E-01 
   2.85332000E+00   -3.27447000E-03   8.19702000E-01 
SP   1    1.000000
   9.05661000E-01    1.00000000E+00   1.00000000E+00 
SP   1    1.000000
   2.55611000E-01    1.00000000E+00   1.00000000E+00 
SP   1    1.000000
   8.45000000E-02    1.00000000E+00   1.00000000E+00 
D    1    1.000000
   1.29200000E+00    1.00000000E+00 

7    0
S    6    1.000000
   4.56324000E+03    1.96665000E-03 
   6.82024000E+02    1.52306000E-02 
   1.54973000E+02    7.61269000E-02 
   4.44553000E+01    2.60801000E-01 
   1.30290000E+01    6.16462000E-01 
   1.82773000E+00    2.21006000E-01 
SP   3    1.000000
   2.09642000E+01    1.14660000E-01   4.02487000E-02 
   4.80331000E+00    9.19999000E-01   2.37594000E-01 
   1.45933000E+00   -3.03068000E-03   8.15854000E-01 
SP   1    1.000000
   4.83456000E-01    1.00000000E+00   1.00000000E+00 
SP   1    1.000000
   1.45585000E-01    1.00000000E+00   1.00000000E+00 
SP   1    1.000000
   4.38000000E-02    1.00000000E+00   1.00000000E+00 
D    1    1.000000
   6.26000000E-01    1.00000000E+00 

8    0
S    6    1.000000
   8.58850000E+03    1.89515000E-03 
   1.29723000E+03    1.43859000E-02 
   2.99296000E+02    7.07320000E-02 
   8.73771000E+01    2.40001000E-01 
   2.56789000E+01    5.94797000E-01 
   3.74004000E+00    2.80802000E-01 
SP   3    1.000000
   4.21175000E+01    1.13889000E-01   3.65114000E-02 
   9.62837000E+00    9.20811000E-01   2.37153000E-01 
   2.85332000E+00   -3.27447000E-03   8.19702000E-01 
SP   1    1.000000
   9.05661000E-01    1.00000000E+00   1.00000000E+00 
SP   1    1.000000
   2.55611000E-01    1.00000000E+00   1.00000000E+00 
SP   1    1.000000
   8.45000000E-02    1.00000000E+00   1.00000000E+00 
D    1    1.000000
   1.29200000E+00    1.00000000E+00 

9    0
S    6    1.000000
   6.29348000E+03    1.96979000E-03 
   9.49044000E+02    1.49613000E-02 
   2.18776000E+02    7.35006000E-02 
   6.36916000E+01    2.48937000E-01 
   1.88282000E+01    6.02460000E-01 
   2.72023000E+00    2.56202000E-01 
SP   3    1.000000
   3.06331000E+01    1.11906000E-01   3.83119000E-02 
   7.02614000E+00    9.21666000E-01   2.37403000E-01 
   2.11205000E+00   -2.56919000E-03   8.17592000E-01 
SP   1    1.000000
   6.84009000E-01    1.00000000E+00   1.00000000E+00 
SP   1    1.000000
   2.00878000E-01    1.00000000E+00   1.00000000E+00 
SP   1    1.000000
   6.39000000E-02    1.00000000E+00   1.00000000E+00 
D    1    1.000000
   9.13000000E-01    1.00000000E+00 

10    0
S    6    1.000000
   6.29348000E+03    1.96979000E-03 
   9.49044000E+02    1.49613000E-02 
   2.18776000E+02    7.35006000E-02 
   6.36916000E+01    2.48937000E-01 
   1.88282000E+01    6.02460000E-01 
   2.72023000E+00    2.56202000E-01 
SP   3    1.000000
   3.06331000E+01    1.11906000E-01   3.83119000E-02 
   7.02614000E+00    9.21666000E-01   2.37403000E-01 
   2.11205000E+00   -2.56919000E-03   8.17592000E-01 
SP   1    1.000000
   6.84009000E-01    1.00000000E+00   1.00000000E+00 
SP   1    1.000000
   2.00878000E-01    1.00000000E+00   1.00000000E+00 
SP   1    1.000000
   6.39000000E-02    1.00000000E+00   1.00000000E+00 
D    1    1.000000
   9.13000000E-01    1.00000000E+00 

11    0
S    6    1.000000
   4.56324000E+03    1.96665000E-03 
   6.82024000E+02    1.52306000E-02 
   1.54973000E+02    7.61269000E-02 
   4.44553000E+01    2.60801000E-01 
   1.30290000E+01    6.16462000E-01 
   1.82773000E+00    2.21006000E-01 
SP   3    1.000000
   2.09642000E+01    1.14660000E-01   4.02487000E-02 
   4.80331000E+00    9.19999000E-01   2.37594000E-01 
   1.45933000E+00   -3.03068000E-03   8.15854000E-01 
SP   1    1.000000
   4.83456000E-01    1.00000000E+00   1.00000000E+00 
SP   1    1.000000
   1.45585000E-01    1.00000000E+00   1.00000000E+00 
SP   1    1.000000
   4.38000000E-02    1.00000000E+00   1.00000000E+00 
D    1    1.000000
   6.26000000E-01    1.00000000E+00 

12    0
S    3    1.000000
   3.38650000E+01    2.54938000E-02 
   5.09479000E+00    1.90373000E-01 
   1.15879000E+00    8.52161000E-01 
S    1    1.000000
   3.25840000E-01    1.00000000E+00 
S    1    1.000000
   1.02741000E-01    1.00000000E+00 
S    1    1.000000
   3.60000000E-02    1.00000000E+00 
P    1    1.000000
   7.50000000E-01    1.00000000E+00 

[MO]
Sym=X
Ene= 2.006145
Spin=Alpha
Occup=1
     1   -3.600875244219e-14
     2   -6.627102979668e-15
     3   -5.005066577936e-14
     4   -3.760218184012e-14
     5   -9.336660656246e-02
     6   -7.685017144499e-14
     7   -1.133685860673e-13
     8   -1.520984272284e-14
     9   -1.615342429728e-01
    10    1.922728112298e-13
    11    1.509052823218e-14
    12    6.295804476930e-14
    13   -1.380635542650e-01
    14   -3.425192273545e-12
    15   -9.379751418941e-13
    16   -6.615606572266e-13
    17   -1.559219171432e-02
    18    7.023882672042e-16
    19   -1.314254105727e-02
    20   -1.210932068032e-02
    21   -1.279106490996e-14
    22   -1.522937447706e-14
    23    1.351396428828e-14
    24   -2.968808126195e-13
    25    2.470711120353e-13
    26    2.644257159708e-14
    27   -1.953159122556e-14
    28   -6.350393633459e-15
    29    7.714755683602e-05
    30    4.861907186713e-15
    31    2.324293208071e-14
    32    1.084479418783e-13
    33   -1.233707635581e-13
    34   -6.552954439332e-15
    35    2.319489471129e-15
    36   -6.742060498413e-03
    37    2.343567295061e-14
    38    3.488425958173e-13
    39    7.874670440794e-14
    40   -2.630886293382e-14
    41    5.401247152041e-15
    42   -2.814983904731e-14
    43    5.348557524235e-03
    44    4.047733831401e-15
    45    7.767987924678e-15
    46    9.957640955729e-15
    47    6.208334725763e-15
    48    1.006350450193e-01
    49   -2.020437230209e-14
    50    2.214608864828e-14
    51   -5.844870821992e-15
    52    1.784437445018e-01
    53   -2.378487772648e-13
    54    4.486126674592e-13
    55    6.614336243503e-13
    56    1.012050504279e-01
    57    2.563039723485e-13
    58    5.986752342186e-14
    59   -7.753618523479e-14
    60    2.013416718976e-02
    61    4.525137085661e-15
    62   -1.903548164011e-02
    63    2.089591052620e-02
    64    8.191627576938e-15
    65    9.899325108125e-15
    66   -2.619332731246e-15
    67   -2.652759821772e-15
    68   -4.347548958796e-15
    69    3.579811912426e-14
    70    2.375095475914e-01
    71    4.918092826374e-15
    72   -3.099443848727e-15
    73    4.237149716673e-14
    74    2.772657502928e-01
    75    5.933651707295e-14
    76   -3.330806161127e-14
    77   -8.158375651766e-14
    78    1.699785114389e-01
    79    2.157016318919e-13
    80    4.043750979238e-14
    81   -9.497988118968e-14
    82   -7.911786551496e-03
    83    3.734634254745e-16
    84    1.886102277676e-02
    85   -1.191600492636e-02
    86    4.721874544812e-16
    87    1.666867930261e-15
    88    3.193561413871e-14
    89    2.480800788325e-14
    90   -3.261696896324e-14
    91    4.728284031992e-14
    92   -4.883141233287e-02
    93    3.531707172510e-14
    94   -1.680971629355e-14
    95    5.449503917953e-14
    96   -8.597772390557e-02
    97   -4.375140360778e-13
    98    2.561329187445e-13
    99    3.993443513163e-13
   100   -5.936711617762e-02
   101    2.019535880691e-12
   102   -3.244616936264e-13
   103   -5.220907107094e-13
   104   -1.396295705705e-02
   105    7.005429966051e-15
   106   -1.093106914116e-02
   107    9.801699343692e-03
   108    1.454970558402e-15
   109   -2.176319744959e-14
   110   -5.651187013159e-14
   111   -5.290189879140e-14
   112    5.571259798074e-16
   113    2.383411129818e-14
   114   -4.708996527911e-02
   115    1.975355120311e-14
   116   -1.636159421106e-14
   117    4.506634266434e-14
   118   -7.527722557790e-02
   119   -1.701599988423e-14
   120    3.043691578326e-15
   121    7.566423225286e-14
   122   -5.963300069481e-02
   123   -3.288691459582e-13
   124    1.838297660239e-13
   125    6.036344908562e-14
   126    1.120423920253e-02
   127    2.758734477926e-16
   128    6.181880878048e-03
   129    4.224720610913e-03
   130    3.580688930055e-15
   131   -1.865999654833e-16
   132    6.228856833661e-14
   133    2.380975053001e-14
   134    2.402791938668e-14
   135    2.127487065935e-14
   136    6.084087830029e-02
   137    1.943637652908e-13
   138    4.262444170321e-14
   139    9.144904959209e-14
   140    1.023439383409e-01
   141   -3.332850624523e-13
   142    2.688688530177e-13
   143   -5.820138936459e-13
   144    9.510341885653e-02
   145   -7.275869438128e-13
   146    2.684797605832e-13
   147    2.071769210382e-13
   148    3.707058802611e-03
   149   -1.302130650450e-15
   150   -1.156246865360e-02
   151   -2.153199500241e-03
   152    1.176267326784e-14
   153   -3.720571377418e-15
   154    3.017071210565e-14
   155    2.649170547388e-14
   156   -2.749425687765e-16
   157   -7.934488915633e-15
   158   -9.769265968043e-03
   159   -4.254397599300e-14
   160    4.572818478198e-14
   161   -8.626124141047e-15
   162   -1.551238095282e-02
   163    4.606297006403e-13
   164   -5.882472094639e-13
   165    8.193864118915e-14
   166   -7.743781282816e-03
   167    4.331732587191e-13
   168    5.231744175105e-13
   169    3.384373207895e-13
   170    7.152604157864e-03
   171   -8.347164502928e-15
   172   -7.995191279259e-03
   173    1.142076178083e-02
   174    5.342303221658e-15
   175    7.254726962948e-15
   176   -1.026949522060e-13
   177   -3.999985655231e-14
   178    3.341984177913e-14
   179    2.343512387967e-14
   180   -1.038185922818e-01
   181   -2.409713418733e-13
   182    4.823168440548e-14
   183    4.047383765533e-14
   184   -1.803845816027e-01
   185    2.539709956797e-13
   186    1.012768844804e-13
   187    1.993164889839e-13
   188   -1.561890494062e-01
   189    1.353104791253e-12
   190   -5.146831919377e-13
   191   -8.042175661909e-13
   192   -2.201755941315e-03
   193    1.279547807086e-14
   194    1.715560752106e-02
   195   -6.904977621062e-04
   196   -6.032122227876e-15
   197    3.552612062490e-16
   198   -3.653000369536e-14
   199   -4.829600058116e-14
   200   -9.287316763442e-14
   201    5.610921533317e-14
   202    8.215731597989e-15
   203    2.941041215506e-16
   204   -8.309153728730e-03
Sym=X
Ene= 2.003364
Spin=Alpha
Occup=1
     1   -8.232820003113e-03
     2   -1.374820889283e-02
     3   -1.104366996857e-02
     4    2.844018571313e-02
     5    1.476351100224e-14
     6    3.706813383154e-02
     7   -1.846680435645e-02
     8    4.724038982693e-02
     9   -3.595179966158e-15
    10    4.502136662799e-02
    11    8.724083682326e-03
    12    4.746466429513e-02
    13    3.645841840378e-14
    14    1.287362532576e-01
    15    3.327790895084e-03
    16    1.616588397556e-02
    17   -1.263520205366e-13
    18   -2.012397223096e-03
    19   -4.400187530325e-15
    20    8.860515746097e-16
    21    1.121692350516e-02
    22   -4.755614392814e-03
    23   -2.774346885395e-03
    24    1.113450350280e-02
    25    2.462061343775e-02
    26   -3.569741064920e-02
    27    5.367511713139e-04
    28   -7.399606450023e-04
    29    1.316895255563e-14
    30   -2.097185706635e-02
    31   -3.387482489396e-02
    32   -1.542891007511e-02
    33   -4.799080942998e-03
    34   -6.098638105473e-04
    35   -4.735059104172e-04
    36   -1.198011385667e-15
    37   -5.139855150814e-03
    38   -2.093398461712e-02
    39   -2.758830543014e-02
    40    5.150127519918e-02
    41   -1.502129109557e-03
    42    1.680333325849e-03
    43   -9.957925490578e-15
    44    8.917483616569e-03
    45    1.501740904369e-02
    46    4.516730900144e-02
    47    1.766542693945e-02
    48    7.816261649054e-15
    49   -4.564018167841e-02
    50    7.653614688436e-02
    51    3.505426381749e-02
    52    2.010667226008e-14
    53   -5.261229304873e-02
    54   -3.872316393492e-02
    55   -6.073422479934e-02
    56   -4.963380426986e-14
    57   -3.822672460861e-02
    58   -6.408913402422e-02
    59   -7.550614660375e-02
    60    1.145345532963e-13
    61    2.306040356441e-03
    62   -9.550144120035e-15
    63   -1.023262811854e-14
    64    5.561866645880e-02
    65    3.287930106030e-02
    66   -4.156948235381e-04
    67   -7.680852664671e-04
    68   -2.207421340331e-01
    69   -2.460053280104e-01
    70    5.429549410648e-14
    71    5.807924784384e-03
    72   -2.530413398573e-01
    73   -2.819940187954e-01
    74    4.782535351919e-14
    75    3.155520613740e-02
    76   -1.542776457344e-01
    77   -2.040089503248e-01
    78    6.464402157532e-14
    79    2.027982302403e-02
    80    5.831878019387e-03
    81   -3.578201108591e-03
    82   -5.673993175728e-14
    83    2.663354254101e-03
    84    4.684437195450e-15
    85    3.991031108639e-15
    86   -1.456377236481e-02
    87   -7.615187441121e-04
    88    1.528568466216e-02
    89    2.560851705254e-02
    90    3.127177504638e-02
    91    7.554638599422e-04
    92   -5.190669837495e-14
    93   -6.982798470597e-02
    94    5.238360856645e-02
    95    2.831006889978e-03
    96   -7.210836099338e-14
    97   -7.242515529959e-02
    98    5.084297536995e-02
    99   -8.678868006048e-03
   100   -1.245584424772e-13
   101    1.695037067332e-01
   102    5.262976148381e-03
   103   -9.691307574911e-02
   104   -2.360245067174e-13
   105    1.776596970559e-03
   106    8.211609518880e-16
   107   -6.970857501366e-15
   108    3.013428246117e-02
   109   -5.705795432991e-03
   110   -4.011987365871e-03
   111   -6.809654924286e-03
   112    5.281745304220e-02
   113   -1.003182739241e-01
   114   -6.055536732520e-14
   115    2.046524019502e-02
   116    8.249357820529e-02
   117   -1.543504265898e-01
   118   -6.112178622238e-14
   119    1.338238876335e-02
   120    7.581353765142e-02
   121   -1.392463847801e-01
   122   -1.231894136717e-13
   123   -2.715250757787e-02
   124    1.198756249497e-02
   125   -1.406981286217e-03
   126    1.259331198618e-13
   127   -2.341547908201e-04
   128    1.384725615838e-15
   129    1.175288954996e-14
   130   -6.991407548666e-03
   131    4.071832372265e-03
   132   -2.478362725082e-02
   133   -4.098651691767e-02
   134   -5.475884731166e-02
   135   -2.883297821683e-02
   136   -8.752524565377e-14
   137    1.085043283279e-01
   138   -8.113570252516e-02
   139   -3.487011475798e-02
   140   -1.545936121728e-13
   141    2.117869784328e-01
   142   -7.342873065022e-02
   143   -5.348723178739e-02
   144   -1.079678828559e-13
   145    1.793344940727e-01
   146    6.830169478579e-03
   147   -9.954749272357e-03
   148    4.211389703354e-14
   149    1.400363146306e-03
   150   -4.229521067084e-15
   151   -1.088513872064e-15
   152   -4.149691336037e-04
   153    4.277926790637e-03
   154    1.374581358558e-02
   155    2.246095039627e-02
   156    2.566572796412e-02
   157   -6.056833949955e-02
   158    5.771768858537e-14
   159   -5.895332342665e-02
   160    4.419189474963e-02
   161   -8.758562436178e-02
   162    9.319167178766e-14
   163   -1.105098350057e-01
   164    3.624980395104e-02
   165   -9.265627054138e-02
   166    1.301175235420e-13
   167   -1.168187528628e-01
   168    2.357459572916e-03
   169   -7.375567269826e-03
   170   -1.684271928110e-15
   171   -5.881251507222e-04
   172   -4.420135082682e-16
   173    2.570728132344e-16
   174    2.860796357106e-03
   175    1.233391336753e-03
   176    5.091116041173e-03
   177    8.414646753777e-03
   178   -1.975642535103e-03
   179   -3.098868116687e-02
   180   -1.593011070105e-14
   181   -2.175233832413e-02
   182   -4.259734009736e-03
   183   -4.464196570852e-02
   184   -5.512471149202e-15
   185   -6.218264829911e-02
   186    1.506237958785e-02
   187   -3.868079125186e-02
   188   -4.446216895052e-14
   189   -2.854292399571e-01
   190    3.560050665011e-02
   191   -4.198618235882e-02
   192    2.053582403471e-13
   193   -1.488855456987e-04
   194   -8.714144034784e-15
   195   -3.403726163515e-15
   196    5.444811381064e-03
   197   -5.747158765071e-04
   198    8.701165171790e-03
   199    1.489532450499e-02
   200    3.592278159058e-03
   201   -1.305087780690e-02
   202   -1.379092808214e-03
   203   -1.903786624935e-05
   204   -9.869776940477e-16
Sym=X
Ene= 2.001671
Spin=Alpha
Occup=1
     1    2.173262356829e-13
     2    2.891265890182e-13
     3   -2.354980510260e-13
     4   -4.585324026232e-14
     5   -9.806586685704e-02
     6   -5.579478925401e-13
     7   -3.805121795261e-13
     8   -7.121693466082e-14
     9   -1.676993643578e-01
    10   -3.112277517841e-13
    11   -2.960095870079e-13
    12   -1.907046693323e-13
    13   -1.201974209955e-01
    14   -9.581598937433e-12
    15   -3.134866507392e-12
    16   -1.482378265633e-12
    17   -2.359477158812e-02
    18    1.989599002551e-14
    19    4.710253759341e-03
    20   -1.768765181626e-02
    21   -2.807505362199e-14
    22    8.104979416729e-15
    23   -5.408881659182e-14
    24   -1.740539979211e-13
    25    8.862816214324e-13
    26   -3.572209830516e-13
    27   -1.497135246345e-14
    28   -1.741649443359e-14
    29   -9.395513774667e-03
    30   -4.663036155327e-14
    31   -1.367321315221e-13
    32    1.019536200598e-13
    33   -4.836622516256e-13
    34   -1.226210572750e-14
    35   -2.966780710497e-14
    36   -7.342750005449e-03
    37    1.863489754847e-13
    38    3.076031988796e-13
    39   -5.804935436666e-13
    40    1.920080990107e-13
    41    9.062535036044e-15
    42   -3.573897571406e-14
    43   -4.209121683385e-03
    44   -1.867187951082e-13
    45   -2.465661959483e-13
    46   -4.398017579378e-13
    47    4.326151363502e-13
    48   -6.827655997873e-02
    49    5.475303692491e-13
    50   -6.623688902651e-13
    51    7.146811494636e-13
    52   -1.190782933245e-01
    53    3.454119073847e-13
    54    1.563707897742e-15
    55   -5.303610501273e-14
    56   -5.482049357917e-02
    57    7.542785963358e-13
    58   -2.502612140766e-13
    59   -9.076202369499e-13
    60   -2.652155713773e-02
    61   -3.199774878236e-14
    62   -1.146062530672e-02
    63    1.372954066758e-02
    64    2.263786695400e-13
    65   -7.499759759292e-15
    66   -1.076622813684e-13
    67   -1.512661400525e-13
    68    3.843995755222e-13
    69   -1.465691920790e-12
    70    3.523695881193e-03
    71    4.619530168708e-13
    72    4.436544447671e-13
    73   -1.674383284936e-12
    74    2.180849660492e-04
    75   -2.013082070128e-13
    76   -5.550336827631e-16
    77   -1.015117946498e-12
    78    1.093393074131e-02
    79   -1.064734321897e-14
    80    4.425662745119e-14
    81    4.604750145509e-14
    82    2.238796878095e-02
    83   -5.769078700257e-14
    84   -5.378174790559e-03
    85    3.252125398779e-03
    86    5.792989587456e-15
    87   -1.054220260992e-13
    88   -5.323106827610e-14
    89   -1.711222652510e-13
    90    1.187309335015e-13
    91   -9.795889724503e-14
    92    4.529610924880e-02
    93    7.108857310241e-13
    94    2.171806062533e-13
    95   -1.862601244556e-13
    96    7.919479478282e-02
    97    8.720045055232e-13
    98   -8.885740427090e-14
    99    3.516235727371e-13
   100    7.043515958013e-02
   101    3.447182574369e-12
   102    2.538075764661e-13
   103   -1.190526179710e-12
   104    7.357601723411e-03
   105   -2.121817830399e-14
   106    3.694817081000e-02
   107    2.299693482785e-02
   108   -2.731014135307e-13
   109    1.315298801114e-13
   110    2.750902690052e-13
   111    3.594820380910e-13
   112   -8.031985711083e-13
   113    6.169319429393e-13
   114    1.436013574918e-01
   115   -7.432972835077e-13
   116   -1.231618687358e-12
   117    9.581999424197e-13
   118    2.247402612227e-01
   119   -9.231115929409e-13
   120   -9.741618065585e-13
   121    1.014371350878e-12
   122    2.089885710425e-01
   123   -5.273521021467e-13
   124    1.109774799660e-13
   125    1.423228123593e-13
   126    2.737853905495e-02
   127   -1.591241123256e-14
   128   -1.202781073526e-02
   129   -7.439435400423e-03
   130    5.807221365929e-14
   131    3.274459884736e-15
   132    6.883022802575e-14
   133    6.623564344985e-14
   134   -1.974264474787e-13
   135    2.809352392114e-13
   136   -7.472683992385e-02
   137   -4.059580245325e-14
   138   -2.705797139171e-13
   139    4.379702977122e-13
   140   -1.201050358692e-01
   141   -4.446645004920e-13
   142   -5.157962310517e-13
   143    4.035768474701e-13
   144   -1.315657274519e-01
   145   -4.370301978714e-13
   146    3.703500153616e-13
   147    1.288535982028e-12
   148   -3.451682812394e-03
   149   -8.225919604118e-15
   150    8.860650411745e-03
   151    4.362804051209e-03
   152    1.006988936095e-14
   153   -4.299154682333e-14
   154   -2.028322274390e-13
   155   -2.154863500764e-14
   156    1.135721181523e-14
   157   -2.676917898681e-13
   158   -1.380570919527e-01
   159   -7.952631134985e-13
   160    1.749860000848e-14
   161   -4.093513776716e-13
   162   -2.281673801583e-01
   163   -8.829130949282e-13
   164   -3.918333687243e-14
   165   -3.561764066635e-13
   166   -1.954660903108e-01
   167   -5.657867521671e-13
   168    1.187495460252e-12
   169    9.568117850357e-13
   170    2.458600198136e-02
   171    1.532582204616e-14
   172   -9.867553985301e-03
   173   -4.227618811919e-03
   174   -1.543513111251e-16
   175   -1.765050796018e-14
   176    3.955638649213e-13
   177    3.164157286431e-13
   178    1.717380463301e-13
   179    4.191141895207e-13
   180   -6.276023032305e-02
   181    6.117672316869e-14
   182    2.591719120363e-13
   183    6.216660276173e-13
   184   -1.055120817422e-01
   185    7.327048415555e-13
   186    2.164959687511e-14
   187    5.779469505424e-13
   188   -1.108964383971e-01
   189    6.461257590606e-12
   190   -2.654278427054e-12
   191   -2.402043742948e-12
   192    5.918072527953e-03
   193    1.177814447950e-14
   194    1.674177344953e-02
   195    8.030023498707e-03
   196   -4.075902727291e-14
   197   -1.446361968727e-14
   198   -6.173607566257e-14
   199   -9.803371706820e-14
   200   -3.686926328576e-14
   201    1.884586549135e-13
   202    1.333561248170e-14
   203    1.889336571651e-15
   204   -3.806837252010e-03
Sym=X
Ene= 2.001605
Spin=Alpha
Occup=1
     1    6.143297853126e-03
     2    9.912165695732e-03
     3    2.966934926991e-02
     4   -3.892528029015e-03
     5   -5.865801367626e-13
     6   -2.633903478427e-02
     7    5.164123022877e-02
     8   -6.607447224345e-03
     9   -1.000576767763e-12
    10   -3.489463868711e-03
    11    2.840068866986e-02
    12    1.105564924050e-02
    13   -8.164318734457e-13
    14    2.881116129809e-01
    15    8.168726761279e-02
    16    9.836402640177e-02
    17   -4.406446691251e-14
    18    1.346860060925e-03
    19   -2.025356255036e-15
    20   -1.025346164459e-13
    21   -7.623181504489e-04
    22   -9.584120510655e-04
    23   -5.714914570350e-03
    24   -8.070077136795e-03
    25   -1.921131621073e-02
    26    7.002037621499e-03
    27   -1.616638431462e-03
    28    1.409739583126e-03
    29   -4.851078293949e-14
    30   -4.011051695135e-03
    31   -1.849299469370e-03
    32    4.912944757033e-03
    33    4.902583268287e-02
    34    1.079167013411e-03
    35   -2.871564097472e-04
    36   -3.786730188483e-14
    37   -1.089518267313e-02
    38   -1.033923939892e-02
    39    1.003080664035e-02
    40    2.029880506196e-02
    41   -2.048671474508e-03
    42    1.446921979427e-03
    43   -3.312920569729e-14
    44    2.088243218218e-02
    45    3.249724268838e-02
    46    7.537347117545e-02
    47   -7.907825606629e-02
    48   -4.332783484294e-13
    49   -9.162828526986e-02
    50    1.152204167240e-01
    51   -1.306582139416e-01
    52   -7.503699808690e-13
    53   -8.094260485118e-02
    54    2.096879506025e-02
    55    1.073199502724e-02
    56   -3.416231308893e-13
    57   -4.308260935861e-02
    58    5.784805876114e-03
    59    3.434306203231e-02
    60   -2.633782174541e-13
    61    6.300468954178e-03
    62   -1.136283001374e-13
    63    4.466206740444e-14
    64   -3.770701148815e-02
    65    5.813682794409e-03
    66    7.501230016117e-03
    67    1.037297351137e-02
    68   -9.250785133212e-02
    69    2.436400155775e-01
    70    2.940541283833e-14
    71   -2.559859924833e-02
    72   -1.049939044182e-01
    73    2.782738039153e-01
    74    1.443830863557e-14
    75    7.305289505057e-02
    76   -1.582430309546e-02
    77    1.604367641924e-01
    78    4.977203118326e-14
    79    2.462167441962e-02
    80   -1.160771187416e-03
    81   -2.660065728031e-03
    82    2.067885924687e-13
    83    9.930214456135e-03
    84   -3.281378584292e-14
    85    1.852167453140e-14
    86   -2.466325235369e-03
    87    1.787951404710e-02
    88    1.404040039738e-02
    89    2.347790392650e-02
    90   -8.014408396174e-03
    91   -5.047882321987e-04
    92    1.584125195681e-13
    93   -6.757233096858e-02
    94   -1.513726376160e-02
    95    6.758054930462e-03
    96    2.515929813879e-13
    97   -8.359283387130e-02
    98    3.496195546207e-02
    99   -5.683270032732e-02
   100    3.672116960418e-13
   101    1.920577638580e-01
   102    4.012025268982e-02
   103   -1.017241320200e-01
   104    1.903419444689e-13
   105    2.047875441057e-03
   106    2.575113969618e-13
   107    1.329066057728e-13
   108    4.324226617476e-02
   109   -2.455578156098e-02
   110   -1.007102852743e-02
   111   -1.711119132576e-02
   112    1.187697769889e-01
   113   -1.236909217294e-01
   114    8.439931940118e-13
   115    5.205982493980e-02
   116    1.817108805470e-01
   117   -1.919718585374e-01
   118    1.303818597185e-12
   119    6.959485460243e-02
   120    1.553563056164e-01
   121   -1.862197545206e-01
   122    1.275541112860e-12
   123    2.161921206180e-02
   124   -6.567888004156e-03
   125   -1.037012641826e-02
   126    1.190361026076e-13
   127    1.726523455743e-03
   128   -6.388261574798e-14
   129   -3.468707470952e-14
   130   -1.058654760542e-02
   131    1.824705965587e-03
   132   -7.476263036780e-03
   133   -1.316020794320e-02
   134    2.919410699494e-02
   135   -2.652410178789e-02
   136   -6.947638538603e-13
   137    3.747339761994e-02
   138    4.024424334682e-02
   139   -4.061657399046e-02
   140   -1.130565682653e-12
   141    8.982547591993e-02
   142    7.861268008497e-02
   143   -5.179265319567e-02
   144   -1.213135569057e-12