[Molden Format]
[Atoms] (Angs)
  C      1    6     -0.00714236     -1.70213747     -0.00000000
  H      2    1     -2.06882847     -1.44022412      0.00000000
  H      3    1     -0.12337987     -2.77567521      0.00000000
  H      4    1      0.04651892      1.98813947     -0.00000000
  C      5    6     -1.21953563      0.40211669      0.00000000
  O      6    8     -2.25921553      1.03043814      0.00000000
  C      7    6      1.28797806      0.34644937     -0.00000000
  O      8    8      2.31273661      1.00537216     -0.00000000
  N      9    7      0.03446295      0.97739857     -0.00000000
  N     10    7     -1.17287765     -0.98229824      0.00000000
  C     11    6      1.20107039     -1.10433419     -0.00000000
  H     12    1      2.11220096     -1.67699125     -0.00000000
[GTO]
1    0
S    6    1.000000
   4.56324000E+03    1.96665000E-03 
   6.82024000E+02    1.52306000E-02 
   1.54973000E+02    7.61269000E-02 
   4.44553000E+01    2.60801000E-01 
   1.30290000E+01    6.16462000E-01 
   1.82773000E+00    2.21006000E-01 
SP   3    1.000000
   2.09642000E+01    1.14660000E-01   4.02487000E-02 
   4.80331000E+00    9.19999000E-01   2.37594000E-01 
   1.45933000E+00   -3.03068000E-03   8.15854000E-01 
SP   1    1.000000
   4.83456000E-01    1.00000000E+00   1.00000000E+00 
SP   1    1.000000
   1.45585000E-01    1.00000000E+00   1.00000000E+00 
SP   1    1.000000
   4.38000000E-02    1.00000000E+00   1.00000000E+00 
D    1    1.000000
   6.26000000E-01    1.00000000E+00 

2    0
S    3    1.000000
   3.38650000E+01    2.54938000E-02 
   5.09479000E+00    1.90373000E-01 
   1.15879000E+00    8.52161000E-01 
S    1    1.000000
   3.25840000E-01    1.00000000E+00 
S    1    1.000000
   1.02741000E-01    1.00000000E+00 
S    1    1.000000
   3.60000000E-02    1.00000000E+00 
P    1    1.000000
   7.50000000E-01    1.00000000E+00 

3    0
S    3    1.000000
   3.38650000E+01    2.54938000E-02 
   5.09479000E+00    1.90373000E-01 
   1.15879000E+00    8.52161000E-01 
S    1    1.000000
   3.25840000E-01    1.00000000E+00 
S    1    1.000000
   1.02741000E-01    1.00000000E+00 
S    1    1.000000
   3.60000000E-02    1.00000000E+00 
P    1    1.000000
   7.50000000E-01    1.00000000E+00 

4    0
S    3    1.000000
   3.38650000E+01    2.54938000E-02 
   5.09479000E+00    1.90373000E-01 
   1.15879000E+00    8.52161000E-01 
S    1    1.000000
   3.25840000E-01    1.00000000E+00 
S    1    1.000000
   1.02741000E-01    1.00000000E+00 
S    1    1.000000
   3.60000000E-02    1.00000000E+00 
P    1    1.000000
   7.50000000E-01    1.00000000E+00 

5    0
S    6    1.000000
   4.56324000E+03    1.96665000E-03 
   6.82024000E+02    1.52306000E-02 
   1.54973000E+02    7.61269000E-02 
   4.44553000E+01    2.60801000E-01 
   1.30290000E+01    6.16462000E-01 
   1.82773000E+00    2.21006000E-01 
SP   3    1.000000
   2.09642000E+01    1.14660000E-01   4.02487000E-02 
   4.80331000E+00    9.19999000E-01   2.37594000E-01 
   1.45933000E+00   -3.03068000E-03   8.15854000E-01 
SP   1    1.000000
   4.83456000E-01    1.00000000E+00   1.00000000E+00 
SP   1    1.000000
   1.45585000E-01    1.00000000E+00   1.00000000E+00 
SP   1    1.000000
   4.38000000E-02    1.00000000E+00   1.00000000E+00 
D    1    1.000000
   6.26000000E-01    1.00000000E+00 

6    0
S    6    1.000000
   8.58850000E+03    1.89515000E-03 
   1.29723000E+03    1.43859000E-02 
   2.99296000E+02    7.07320000E-02 
   8.73771000E+01    2.40001000E-01 
   2.56789000E+01    5.94797000E-01 
   3.74004000E+00    2.80802000E-01 
SP   3    1.000000
   4.21175000E+01    1.13889000E-01   3.65114000E-02 
   9.62837000E+00    9.20811000E-01   2.37153000E-01 
   2.85332000E+00   -3.27447000E-03   8.19702000E-01 
SP   1    1.000000
   9.05661000E-01    1.00000000E+00   1.00000000E+00 
SP   1    1.000000
   2.55611000E-01    1.00000000E+00   1.00000000E+00 
SP   1    1.000000
   8.45000000E-02    1.00000000E+00   1.00000000E+00 
D    1    1.000000
   1.29200000E+00    1.00000000E+00 

7    0
S    6    1.000000
   4.56324000E+03    1.96665000E-03 
   6.82024000E+02    1.52306000E-02 
   1.54973000E+02    7.61269000E-02 
   4.44553000E+01    2.60801000E-01 
   1.30290000E+01    6.16462000E-01 
   1.82773000E+00    2.21006000E-01 
SP   3    1.000000
   2.09642000E+01    1.14660000E-01   4.02487000E-02 
   4.80331000E+00    9.19999000E-01   2.37594000E-01 
   1.45933000E+00   -3.03068000E-03   8.15854000E-01 
SP   1    1.000000
   4.83456000E-01    1.00000000E+00   1.00000000E+00 
SP   1    1.000000
   1.45585000E-01    1.00000000E+00   1.00000000E+00 
SP   1    1.000000
   4.38000000E-02    1.00000000E+00   1.00000000E+00 
D    1    1.000000
   6.26000000E-01    1.00000000E+00 

8    0
S    6    1.000000
   8.58850000E+03    1.89515000E-03 
   1.29723000E+03    1.43859000E-02 
   2.99296000E+02    7.07320000E-02 
   8.73771000E+01    2.40001000E-01 
   2.56789000E+01    5.94797000E-01 
   3.74004000E+00    2.80802000E-01 
SP   3    1.000000
   4.21175000E+01    1.13889000E-01   3.65114000E-02 
   9.62837000E+00    9.20811000E-01   2.37153000E-01 
   2.85332000E+00   -3.27447000E-03   8.19702000E-01 
SP   1    1.000000
   9.05661000E-01    1.00000000E+00   1.00000000E+00 
SP   1    1.000000
   2.55611000E-01    1.00000000E+00   1.00000000E+00 
SP   1    1.000000
   8.45000000E-02    1.00000000E+00   1.00000000E+00 
D    1    1.000000
   1.29200000E+00    1.00000000E+00 

9    0
S    6    1.000000
   6.29348000E+03    1.96979000E-03 
   9.49044000E+02    1.49613000E-02 
   2.18776000E+02    7.35006000E-02 
   6.36916000E+01    2.48937000E-01 
   1.88282000E+01    6.02460000E-01 
   2.72023000E+00    2.56202000E-01 
SP   3    1.000000
   3.06331000E+01    1.11906000E-01   3.83119000E-02 
   7.02614000E+00    9.21666000E-01   2.37403000E-01 
   2.11205000E+00   -2.56919000E-03   8.17592000E-01 
SP   1    1.000000
   6.84009000E-01    1.00000000E+00   1.00000000E+00 
SP   1    1.000000
   2.00878000E-01    1.00000000E+00   1.00000000E+00 
SP   1    1.000000
   6.39000000E-02    1.00000000E+00   1.00000000E+00 
D    1    1.000000
   9.13000000E-01    1.00000000E+00 

10    0
S    6    1.000000
   6.29348000E+03    1.96979000E-03 
   9.49044000E+02    1.49613000E-02 
   2.18776000E+02    7.35006000E-02 
   6.36916000E+01    2.48937000E-01 
   1.88282000E+01    6.02460000E-01 
   2.72023000E+00    2.56202000E-01 
SP   3    1.000000
   3.06331000E+01    1.11906000E-01   3.83119000E-02 
   7.02614000E+00    9.21666000E-01   2.37403000E-01 
   2.11205000E+00   -2.56919000E-03   8.17592000E-01 
SP   1    1.000000
   6.84009000E-01    1.00000000E+00   1.00000000E+00 
SP   1    1.000000
   2.00878000E-01    1.00000000E+00   1.00000000E+00 
SP   1    1.000000
   6.39000000E-02    1.00000000E+00   1.00000000E+00 
D    1    1.000000
   9.13000000E-01    1.00000000E+00 

11    0
S    6    1.000000
   4.56324000E+03    1.96665000E-03 
   6.82024000E+02    1.52306000E-02 
   1.54973000E+02    7.61269000E-02 
   4.44553000E+01    2.60801000E-01 
   1.30290000E+01    6.16462000E-01 
   1.82773000E+00    2.21006000E-01 
SP   3    1.000000
   2.09642000E+01    1.14660000E-01   4.02487000E-02 
   4.80331000E+00    9.19999000E-01   2.37594000E-01 
   1.45933000E+00   -3.03068000E-03   8.15854000E-01 
SP   1    1.000000
   4.83456000E-01    1.00000000E+00   1.00000000E+00 
SP   1    1.000000
   1.45585000E-01    1.00000000E+00   1.00000000E+00 
SP   1    1.000000
   4.38000000E-02    1.00000000E+00   1.00000000E+00 
D    1    1.000000
   6.26000000E-01    1.00000000E+00 

12    0
S    3    1.000000
   3.38650000E+01    2.54938000E-02 
   5.09479000E+00    1.90373000E-01 
   1.15879000E+00    8.52161000E-01 
S    1    1.000000
   3.25840000E-01    1.00000000E+00 
S    1    1.000000
   1.02741000E-01    1.00000000E+00 
S    1    1.000000
   3.60000000E-02    1.00000000E+00 
P    1    1.000000
   7.50000000E-01    1.00000000E+00 

[MO]
Sym=X
Ene= 2.003351
Spin=Alpha
Occup=1
     1   -6.834555610924e-03
     2   -1.160209978188e-02
     3   -2.999864307856e-03
     4    1.180333360264e-02
     5    1.336446559068e-14
     6    3.144649487788e-02
     7   -5.560228940707e-03
     8    2.069148350972e-02
     9   -8.563753211991e-15
    10    4.957562237732e-02
    11    2.553523625762e-03
    12    2.696690650433e-02
    13    3.752386456988e-14
    14    5.631226322647e-02
    15   -8.851277658674e-03
    16   -7.189404791015e-03
    17   -1.246407633793e-13
    18   -1.138386260498e-03
    19   -6.086574690027e-15
    20   -3.162779414028e-18
    21    6.214087409172e-03
    22   -2.347412760541e-03
    23   -1.136827772977e-02
    24   -3.753412104895e-03
    25    3.186178904564e-02
    26   -3.154307797503e-02
    27   -8.280638269020e-04
    28    8.426354986988e-04
    29    1.384739827281e-14
    30   -7.255453398262e-03
    31   -1.317162832072e-02
    32   -1.291973257346e-02
    33   -9.863092995534e-03
    34   -2.467158227826e-04
    35    8.409769788503e-04
    36   -2.255455194169e-15
    37    8.257794265968e-03
    38   -2.458851149383e-03
    39   -3.638890409261e-02
    40    4.877724534183e-02
    41    7.418121116478e-04
    42    1.145226009353e-04
    43   -1.358508000641e-14
    44    7.662802350129e-03
    45    1.139341027680e-02
    46    6.324032581388e-03
    47   -1.947750428554e-02
    48   -1.362538263395e-14
    49   -2.872164265713e-02
    50    1.258138553354e-02
    51   -2.525511063142e-02
    52   -1.634644658341e-14
    53   -3.992109456955e-02
    54   -4.624440334633e-02
    55   -6.841969097630e-02
    56   -6.897279871911e-14
    57   -3.089404437671e-02
    58   -6.928015285133e-02
    59   -9.739915250368e-02
    60    1.039500418284e-13
    61    1.186924713153e-03
    62   -4.366556992649e-15
    63   -1.250866249332e-14
    64    4.905321408900e-02
    65    2.704037817662e-02
    66    2.771218667642e-03
    67    3.923860804430e-03
    68   -2.109719441538e-01
    69   -2.869417527428e-01
    70    4.668090612098e-15
    71   -1.202912130428e-02
    72   -2.450201664272e-01
    73   -3.327793857852e-01
    74   -8.180255179888e-15
    75    1.028780428360e-02
    76   -1.632754488779e-01
    77   -2.437302254921e-01
    78    2.900480530976e-14
    79    1.425497713484e-02
    80    4.627296389342e-03
    81   -1.787156804740e-03
    82   -5.394569825247e-14
    83    1.667509453665e-03
    84    1.125986356357e-15
    85    6.647805817286e-15
    86   -1.559978839122e-02
    87   -4.701837935127e-03
    88    9.912335603399e-03
    89    1.700784785319e-02
    90    1.190258594404e-02
    91    2.833163551280e-03
    92   -5.114585668804e-14
    93   -4.828635702238e-02
    94    1.928604502811e-02
    95    7.143621534131e-03
    96   -7.184951926784e-14
    97   -5.585842166889e-02
    98    3.627422348051e-02
    99   -1.449784287942e-02
   100   -1.262760959812e-13
   101    1.549735686292e-01
   102    9.937968788119e-04
   103   -9.026883583569e-02
   104   -2.276494657237e-13
   105    7.330513221095e-04
   106    5.970549018948e-15
   107   -6.136633535170e-15
   108    2.700643801927e-02
   109   -1.058883346815e-02
   110   -2.013357910194e-03
   111   -3.466476476335e-03
   112    5.626650505270e-02
   113   -8.658269030512e-02
   114   -4.731082660580e-14
   115    1.102344632484e-02
   116    8.700932853984e-02
   117   -1.336512992803e-01
   118   -4.057087610952e-14
   119    1.338399387501e-02
   120    7.831724209017e-02
   121   -1.250124336495e-01
   122   -9.956751097020e-14
   123   -2.054869495226e-02
   124    1.384280224385e-02
   125   -3.400392626491e-03
   126    1.282455832780e-13
   127    2.180049622126e-04
   128   -5.908542078500e-17
   129    1.174255500653e-14
   130   -6.082752857454e-03
   131    2.644439462882e-03
   132   -2.313378712726e-02
   133   -3.809543468685e-02
   134   -1.526767051486e-02
   135   -1.194238407700e-02
   136   -1.117694151761e-13
   137    1.001899539767e-01
   138   -1.857618517906e-02
   139   -8.023244438827e-03
   140   -1.928338559949e-13
   141    2.004389925749e-01
   142   -3.435216808305e-02
   143   -2.867540446506e-02
   144   -1.441578393997e-13
   145    1.814718061641e-01
   146    2.371343711544e-03
   147    9.143730519385e-03
   148    3.761295217947e-14
   149    1.704403218880e-03
   150   -3.838244786829e-15
   151   -1.763321766824e-15
   152   -3.857759694969e-03
   153   -5.479576663911e-05
   154    1.178999735438e-02
   155    1.939022794966e-02
   156    1.747459599010e-02
   157   -2.511560525098e-02
   158    5.689826613343e-14
   159   -5.120528962712e-02
   160    3.124827056525e-02
   161   -3.075466381614e-02
   162    9.031448313081e-14
   163   -1.087444585962e-01
   164    2.970898255443e-02
   165   -5.302210481396e-02
   166    1.292625285631e-13
   167   -1.257223421861e-01
   168    1.766595594937e-02
   169    3.157464093681e-04
   170    1.019998686362e-14
   171   -1.178078172817e-03
   172   -8.308373042153e-16
   173   -3.305357435974e-15
   174   -2.516671577071e-03
   175   -8.183766339817e-04
   176    5.270256236639e-03
   177    8.738895818697e-03
   178   -2.409209530103e-03
   179   -2.662212540752e-02
   180   -2.131714094729e-14
   181   -2.270141192814e-02
   182   -5.393638703481e-03
   183   -3.802524489221e-02
   184   -1.335388716899e-14
   185   -6.014570902992e-02
   186    1.012529892974e-02
   187   -3.621859609450e-02
   188   -5.532230504762e-14
   189   -2.058989062779e-01
   190    1.840985660146e-02
   191   -3.484401577417e-02
   192    1.992321772249e-13
   193   -2.600788731180e-04
   194   -8.838484965282e-15
   195   -2.912090226903e-15
   196    2.940384473251e-03
   197   -4.303604690577e-04
   198    5.848013145437e-03
   199    1.092465338661e-02
   200    3.543517653175e-03
   201   -7.335257837604e-03
   202   -9.534506297528e-04
   203    2.655238151121e-04
   204   -8.504084589161e-16
Sym=X
Ene= 2.002988
Spin=Alpha
Occup=1
     1    9.865207757752e-14
     2    6.564455916534e-14
     3    7.568162554617e-14
     4    3.988205472179e-14
     5    5.293405598307e-02
     6    4.327216948169e-14
     7    1.495992960147e-13
     8    2.316056326835e-14
     9    9.148290916705e-02
    10   -1.454925103677e-13
    11   -2.811458232172e-14
    12   -8.379994161636e-14
    13    9.347386357954e-02
    14   -4.643447604349e-13
    15   -6.222043575969e-13
    16    3.252949683012e-13
    17    7.656454683871e-03
    18   -3.540507584710e-16
    19    1.863890302824e-02
    20    3.295853883962e-03
    21    5.880812664797e-15
    22    2.091607676100e-14
    23   -5.445506325060e-14
    24    1.416944406934e-13
    25    9.232241298308e-14
    26   -1.355422655568e-13
    27    4.422210350159e-15
    28   -1.134497740058e-16
    29   -5.700147050148e-03
    30   -1.409319523344e-14
    31   -6.256933161266e-14
    32   -6.699357648106e-14
    33   -8.312276223550e-14
    34    7.210247163595e-15
    35   -8.395190551934e-15
    36    3.971196618724e-03
    37   -1.904161501888e-14
    38   -2.305602214811e-13
    39   -2.637399029147e-13
    40    1.883991920071e-13
    41   -5.236897179176e-15
    42    2.281966294123e-14
    43   -8.591902778755e-03
    44   -2.498689612242e-15
    45   -1.689704478599e-16
    46   -2.942096966867e-14
    47   -7.022351035587e-15
    48   -1.057372834101e-01
    49   -8.711106400300e-15
    50   -5.261676177166e-14
    51    5.398426911267e-16
    52   -1.833163193917e-01
    53    1.218382174284e-13
    54   -3.330993648862e-13
    55   -5.046390411006e-13
    56   -8.742288587479e-02
    57   -4.140755617318e-13
    58   -1.876666027715e-13
    59   -5.188303160406e-14
    60   -1.960680586834e-02
    61   -4.446227661873e-16
    62    7.410480702893e-03
    63   -9.177283503796e-03
    64   -1.174736605899e-14
    65   -1.343959205399e-14
    66   -1.314961297837e-14
    67   -1.940404059760e-14
    68    6.174473637534e-15
    69   -2.049413297230e-14
    70   -1.956972478203e-01
    71    7.171441639727e-14
    72    6.014237565041e-15
    73   -2.355594991965e-14
    74   -2.287668599685e-01
    75   -8.724383009072e-15
    76    2.682704913869e-14
    77    6.375520262839e-14
    78   -1.435612907591e-01
    79   -1.629112635368e-13
    80   -2.449522117607e-14
    81    9.108562195788e-14
    82    1.423963643570e-02
    83   -1.044596936084e-15
    84   -1.528233651862e-02
    85    9.196847246461e-03
    86   -7.071305340155e-16
    87   -2.365038746116e-15
    88   -4.444918839090e-14
    89   -5.788414194963e-14
    90    6.532714419153e-14
    91   -8.676307603799e-14
    92    5.904810836704e-02
    93    9.192524565390e-14
    94    7.515727519749e-14
    95   -1.227562665007e-13
    96    1.032471866512e-01
    97    4.525433608390e-13
    98   -9.730221842271e-14
    99   -2.530712996528e-13
   100    7.703091594601e-02
   101    5.938665021251e-13
   102    7.642914996943e-13
   103   -4.596786073749e-13
   104    1.224422128159e-02
   105   -1.162465793089e-14
   106    2.644868850608e-02
   107   -3.719101888334e-03
   108   -1.906379296566e-14
   109    3.189486141078e-14
   110    1.255153884894e-13
   111    1.235625746863e-13
   112   -4.428670110748e-14
   113   -4.052917764136e-14
   114    9.709766271915e-02
   115   -8.764209194153e-14
   116   -5.361371947530e-14
   117   -6.981986288446e-14
   118    1.532326149087e-01
   119   -1.242693094326e-13
   120   -2.563316781814e-14
   121   -6.325641592524e-14
   122    1.345685756627e-01
   123    3.056436348205e-15
   124   -1.270995496251e-13
   125    3.462486472971e-15
   126    2.572245900405e-03
   127   -2.228678650221e-15
   128   -9.755235083504e-03
   129   -6.600227451957e-03
   130   -4.212564665793e-15
   131    5.015603334403e-15
   132   -1.262126790995e-13
   133   -6.062803704904e-14
   134   -2.762324349684e-14
   135    1.063282977535e-14
   136   -9.880668933638e-02
   137   -2.722337556241e-13
   138   -4.533436858525e-14
   139   -3.117952716540e-14
   140   -1.611946326669e-01
   141    1.393897889850e-13
   142   -2.332660610420e-13
   143    4.757716267647e-13
   144   -1.711094074423e-01
   145    9.881260227533e-13
   146   -1.172492354147e-13
   147    1.743011285892e-13
   148   -1.693064173609e-02
   149    2.573369863933e-15
   150    1.144214104748e-02
   151    2.610566804248e-03
   152   -1.165534339113e-14
   153    8.296490182123e-16
   154   -1.230452847810e-13
   155   -7.863078881625e-14
   156    1.415958642703e-14
   157    3.811685922035e-14
   158   -6.098516562488e-02
   159   -1.030711312597e-13
   160   -1.672322828063e-14
   161    5.243394148118e-14
   162   -9.922476191109e-02
   163   -4.524728550748e-13
   164    4.637413658319e-13
   165   -1.645386076735e-14
   166   -1.070804719219e-01
   167   -6.955711023730e-13
   168   -9.762607374892e-14
   169    1.315403849566e-13
   170   -1.361503041778e-02
   171    9.973086317122e-15
   172    3.666092105361e-03
   173   -1.066652507277e-02
   174   -4.596219295014e-15
   175   -6.662161563344e-15
   176    2.611919882323e-13
   177    1.419981204713e-13
   178   -1.715563728384e-14
   179    1.033244184714e-14
   180    8.556263265454e-02
   181    3.822420665024e-13
   182   -3.347208141023e-14
   183    1.589945250712e-14
   184    1.485475845700e-01
   185   -5.873882326630e-15
   186   -9.867784825639e-14
   187   -6.669974242751e-14
   188    1.318298846236e-01
   189    5.161588769976e-13
   190   -6.964759927434e-13
   191   -9.429760146808e-13
   192    1.343777017875e-02
   193   -1.640133646525e-14
   194   -9.823013264030e-03
   195    2.689786086072e-03
   196   -3.182021766193e-15
   197    3.190374076505e-15
   198    6.012033306639e-14
   199    1.102919065806e-13
   200   -8.992440292834e-15
   201   -1.977625479558e-13
   202   -1.597207926285e-14
   203    6.922489049381e-15
   204    7.588243648558e-03
Sym=X
Ene= 2.000952
Spin=Alpha
Occup=1
     1   -2.282364098490e-03
     2   -3.961497675567e-03
     3   -1.319705218913e-02
     4   -8.383102123547e-03
     5   -1.371074307050e-13
     6    1.153340533574e-02
     7   -2.606753043803e-02
     8   -1.367577734633e-02
     9   -2.382940606027e-13
    10   -6.784151604288e-03
    11   -2.909124594313e-02
    12   -2.837608058514e-02
    13   -1.013620192647e-13
    14   -3.414832393027e-01
    15   -8.728155722438e-02
    16   -1.097712442541e-01
    17   -9.293864740053e-14
    18    1.265721081170e-04
    19    3.299914777245e-14
    20   -2.229233515032e-14
    21   -3.345209676825e-03
    22    4.572944510707e-03
    23    1.140020718893e-03
    24    1.928798824969e-03
    25    2.105822428789e-02
    26   -3.989722473522e-03
    27    7.157162862424e-05
    28   -4.066657193712e-04
    29   -2.164905663700e-14
    30    1.179007955858e-02
    31    1.356911733907e-02
    32   -9.120059479158e-04
    33   -4.883852811225e-02
    34   -4.966779970899e-04
    35    4.381846832342e-04
    36   -1.491070651386e-14
    37    9.576929391411e-03
    38    1.312994861657e-02
    39   -4.107393420593e-03
    40   -2.897448519342e-02
    41    2.207370685185e-03
    42   -5.383955266324e-04
    43    2.198224899685e-14
    44   -3.425957636934e-02
    45   -4.130962678402e-02
    46   -6.167488631815e-02
    47    4.519471525264e-02
    48    5.716689751038e-14
    49    7.497125529796e-02
    50   -9.442809125604e-02
    51    7.607396474822e-02
    52    9.506667640348e-14
    53    8.748909760064e-02
    54   -1.437908299746e-03
    55   -1.661032641699e-02
    56    5.350616217398e-14
    57    6.024875605341e-02
    58   -1.184189879784e-03
    59   -3.339951404771e-02
    60    7.944599013673e-14
    61   -4.372257024375e-03
    62    3.063657158568e-14
    63    5.773722053284e-14
    64    2.678863018449e-02
    65   -1.395473516292e-03
    66    2.311154316853e-04
    67    8.299666038274e-04
    68    6.199767430537e-02
    69   -2.115232468180e-01
    70    1.400851298081e-13
    71   -9.679077747933e-03
    72    6.999142163929e-02
    73   -2.437871434540e-01
    74    1.597083042419e-13
    75   -6.899274329187e-02
    76    7.107697018819e-03
    77   -1.538055987672e-01
    78    1.237725349290e-13
    79   -1.140339550501e-02
    80    3.118021825987e-03
    81    1.582583121820e-03
    82   -4.647593848352e-14
    83   -7.386544954074e-03
    84    9.527239118701e-15
    85   -3.674212528618e-15
    86    6.991808250242e-04
    87   -1.359320060040e-02
    88   -1.264243325153e-02
    89   -2.173577559318e-02
    90    1.486408773976e-02
    91    3.423769287393e-03
    92    2.362306825772e-13
    93    6.480732123080e-02
    94    2.670111970611e-02
    95   -4.079533337493e-03
    96    4.342066046846e-13
    97    8.441752439204e-02
    98   -3.590434766777e-02
    99    6.362542086532e-02
   100    2.031354479488e-13
   101   -2.494741709850e-01
   102   -4.364978172677e-02
   103    1.276090289116e-01
   104   -7.897688594335e-14
   105   -1.695215348871e-03
   106   -2.881721005489e-15
   107    4.901157959232e-14
   108   -5.243039717276e-02
   109    3.048033820994e-02
   110    9.072999098244e-03
   111    1.540274200299e-02
   112   -1.455003045048e-01
   113    1.544085557310e-01
   114    2.373795304782e-13
   115   -4.734137182992e-02
   116   -2.227191516572e-01
   117    2.394443861005e-01
   118    3.889859347973e-13
   119   -7.042104193810e-02
   120   -1.925316087092e-01
   121    2.337860354968e-01
   122    2.929350875548e-13
   123   -2.443151437242e-02
   124    3.792932963034e-03
   125    1.476346757504e-02
   126    5.378033747052e-14
   127   -2.103659230526e-03
   128   -3.029648611094e-14
   129   -2.181238603023e-14
   130    1.260640524423e-02
   131   -2.156063288894e-03
   132    1.796508215610e-02
   133    2.987258976632e-02
   134   -3.058637774380e-02
   135    3.231016404674e-02
   136    3.469203968964e-13
   137   -7.933423478460e-02
   138   -4.168341427660e-02
   139    4.775319312914e-02
   140    5.770945732823e-13
   141   -1.473945184406e-01
   142   -8.251977914128e-02
   143    6.489036866591e-02
   144    5.544939137100e-13
   145   -1.188446133528e-01
   146    3.018900840285e-02
   147    4.618603563615e-02
   148    5.906905495448e-14
   149   -3.220326213875e-04
   150    8.723679262017e-15
   151   -1.709439318484e-14
   152    1.808259042038e-03
   153   -5.870371315092e-03
   154    1.655792791201e-02
   155    2.709409006509e-02
   156   -4.088303186678e-03
   157   -3.479695984477e-02
   158   -2.766948825748e-13
   159   -7.026511689370e-02
   160   -5.117296840940e-03
   161   -5.186270941796e-02
   162   -4.495816597108e-13
   163   -1.062122330021e-01
   164   -6.500447666033e-03
   165   -5.535222347418e-02
   166   -5.013265175078e-13
   167   -1.027710354947e-02
   168    1.942007561579e-02
   169    4.091564975018e-02
   170   -5.932473466961e-14
   171    5.439644304122e-04
   172   -1.433242262839e-14
   173    7.279927058935e-15
   174   -1.154537297264e-04
   175   -3.459951581113e-03
   176   -1.040462851099e-02
   177   -1.685092224913e-02
   178   -1.884852619416e-03
   179    4.316773324904e-02
   180   -4.645979958303e-15
   181    4.201338641001e-02
   182   -1.876719161532e-04
   183    5.871411569727e-02
   184   -6.002713322381e-15
   185    1.409245626853e-01
   186   -1.964234322173e-02
   187    8.231554753147e-02
   188   -4.735540660428e-14
   189    6.396328186432e-01
   190   -1.010182683634e-01
   191    6.959207260112e-02
   192    1.030132877841e-13
   193    1.060729076053e-03
   194    1.252876951504e-14
   195    3.044601154485e-14
   196    1.384544566008e-03
   197    2.789571172338e-03
   198   -1.214436808458e-02
   199   -2.387985347618e-02
   200   -4.733111195427e-04
   201    4.228684414942e-02
   202    1.691036669839e-03
   203   -1.920046036212e-03
   204    3.813156435144e-15
Sym=X
Ene= 2.000622
Spin=Alpha
Occup=1
     1   -2.483693703648e-13
     2   -2.292945155925e-14
     3   -1.325692791253e-14
     4   -3.397118225445e-14
     5   -8.808785303732e-02
     6   -9.384016962342e-13
     7   -1.454565272647e-15
     8   -5.569106520338e-14
     9   -1.497925244841e-01
    10   -2.166556351425e-13
    11   -4.387146616480e-14
    12   -1.310530717566e-16
    13   -1.419706691115e-01
    14   -6.395825292893e-12
    15   -1.770672968220e-12
    16   -8.987091197681e-13
    17   -1.675333516919e-02
    18    4.052129246820e-14
    19   -1.276500027553e-02
    20   -9.027543320934e-03
    21   -8.852688519467e-14
    22    1.810384006476e-14
    23   -3.423947049508e-13
    24   -5.585593732038e-13
    25    5.354219958688e-13
    26   -1.404849079685e-13
    27   -7.761027327331e-14
    28   -2.612427714194e-14
    29    7.786534259303e-04
    30   -1.192278017458e-13
    31   -1.671966344544e-13
    32    1.751498657421e-13
    33   -1.939359655513e-13
    34   -7.085678870337e-15
    35   -4.832513361384e-14
    36   -7.074338649430e-03
    37    1.641868617288e-13
    38    3.753075077373e-13
    39   -3.019640803865e-13
    40    1.583108503151e-13
    41   -1.176463464725e-14
    42   -3.940458157459e-14
    43    2.386130849695e-03
    44   -4.175582248303e-14
    45   -5.377972588919e-14
    46    2.173098358740e-13
    47   -8.771969949069e-14
    48    2.388028260662e-02
    49    8.424157549500e-14
    50    3.542934655628e-13
    51   -1.504567180565e-13
    52    4.335228296465e-02
    53   -1.203471360293e-13
    54    2.359277553797e-13
    55    1.137140568339e-13
    56    1.934369254420e-02
    57    6.994934746651e-13
    58    2.407558757884e-14
    59   -4.233385317010e-13
    60   -7.074947147092e-03
    61    1.519901738994e-15
    62   -6.314077459078e-03
    63    3.478329659879e-03
    64   -1.767743124310e-14
    65    4.317281299721e-14
    66   -9.526148625049e-14
    67   -1.384724568107e-13
    68   -3.458466823112e-13
    69    3.474019746843e-13
    70    6.429106294942e-02
    71    4.821822969936e-13
    72   -3.856348649804e-13
    73    3.983202471715e-13
    74    7.492667304641e-02
    75    4.430714122211e-13
    76   -1.845837861560e-13
    77    1.863399789860e-13
    78    4.774821720823e-02
    79    1.566330610398e-13
    80    1.529453805667e-15
    81   -2.000267240903e-15
    82    6.886283704100e-03
    83    1.517871660252e-14
    84    4.056216162779e-03
    85   -2.754131869305e-03
    86   -6.640366203066e-15
    87    2.660353034359e-14
    88    3.196520890496e-13
    89    3.914325549146e-13
    90   -2.461426764707e-13
    91   -3.267126484938e-13
    92    9.110455553895e-02
    93   -7.021277435741e-13
    94   -3.513722641292e-13
    95   -4.972505557199e-13
    96    1.571649328249e-01
    97   -2.209031349708e-13
    98    3.622288492757e-14
    99   -9.570493834667e-14
   100    1.142324947208e-01
   101    2.329263271931e-12
   102    4.661435762100e-13
   103   -1.148454832861e-12
   104    4.084878470906e-02
   105    4.831488198170e-14
   106    3.887317547382e-02
   107    3.740995112410e-02
   108    1.449423944952e-14
   109   -1.051689592339e-13
   110    9.667621091430e-13
   111    9.960642470128e-13
   112    4.569540938223e-13
   113   -3.173028469840e-15
   114    2.109166354651e-01
   115   -9.559865160378e-13
   116    7.020418697670e-13
   117   -4.172792510031e-15
   118    3.310078249465e-01
   119   -5.370419798833e-13
   120    4.585546657370e-13
   121   -9.596482961268e-14
   122    3.049558248540e-01
   123    4.239672664523e-14
   124    1.552843086928e-14
   125    8.903650825825e-15
   126    3.282888525354e-02
   127    3.337982507513e-14
   128   -1.895825902922e-02
   129   -1.155303544652e-02
   130   -4.605446115355e-14
   131   -4.192846573535e-14
   132    1.030741202016e-12
   133    7.746672775981e-13
   134   -1.371724303435e-13
   135    7.672734683702e-14
   136    1.877119535685e-02
   137    5.017803844634e-13
   138   -2.286769501497e-13
   139    1.460966577177e-13
   140    3.469156399125e-02
   141    2.893583933960e-13
   142   -5.415742290940e-14
   143   -1.029297005294e-13
   144    4.490063573911e-03