[Molden Format]
[Atoms] (Angs)
  C      1    6     -0.00714236     -1.70213747     -0.00000000
  H      2    1     -2.06882847     -1.44022412      0.00000000
  H      3    1     -0.12337987     -2.77567521      0.00000000
  H      4    1      0.04651892      1.98813947     -0.00000000
  C      5    6     -1.21953563      0.40211669      0.00000000
  O      6    8     -2.25921553      1.03043814      0.00000000
  C      7    6      1.28797806      0.34644937     -0.00000000
  O      8    8      2.31273661      1.00537216     -0.00000000
  N      9    7      0.03446295      0.97739857     -0.00000000
  N     10    7     -1.17287765     -0.98229824      0.00000000
  C     11    6      1.20107039     -1.10433419     -0.00000000
  H     12    1      2.11220096     -1.67699125     -0.00000000
[GTO]
1    0
S    6    1.000000
   4.56324000E+03    1.96665000E-03 
   6.82024000E+02    1.52306000E-02 
   1.54973000E+02    7.61269000E-02 
   4.44553000E+01    2.60801000E-01 
   1.30290000E+01    6.16462000E-01 
   1.82773000E+00    2.21006000E-01 
SP   3    1.000000
   2.09642000E+01    1.14660000E-01   4.02487000E-02 
   4.80331000E+00    9.19999000E-01   2.37594000E-01 
   1.45933000E+00   -3.03068000E-03   8.15854000E-01 
SP   1    1.000000
   4.83456000E-01    1.00000000E+00   1.00000000E+00 
SP   1    1.000000
   1.45585000E-01    1.00000000E+00   1.00000000E+00 
SP   1    1.000000
   4.38000000E-02    1.00000000E+00   1.00000000E+00 
D    1    1.000000
   6.26000000E-01    1.00000000E+00 

2    0
S    3    1.000000
   3.38650000E+01    2.54938000E-02 
   5.09479000E+00    1.90373000E-01 
   1.15879000E+00    8.52161000E-01 
S    1    1.000000
   3.25840000E-01    1.00000000E+00 
S    1    1.000000
   1.02741000E-01    1.00000000E+00 
S    1    1.000000
   3.60000000E-02    1.00000000E+00 
P    1    1.000000
   7.50000000E-01    1.00000000E+00 

3    0
S    3    1.000000
   3.38650000E+01    2.54938000E-02 
   5.09479000E+00    1.90373000E-01 
   1.15879000E+00    8.52161000E-01 
S    1    1.000000
   3.25840000E-01    1.00000000E+00 
S    1    1.000000
   1.02741000E-01    1.00000000E+00 
S    1    1.000000
   3.60000000E-02    1.00000000E+00 
P    1    1.000000
   7.50000000E-01    1.00000000E+00 

4    0
S    3    1.000000
   3.38650000E+01    2.54938000E-02 
   5.09479000E+00    1.90373000E-01 
   1.15879000E+00    8.52161000E-01 
S    1    1.000000
   3.25840000E-01    1.00000000E+00 
S    1    1.000000
   1.02741000E-01    1.00000000E+00 
S    1    1.000000
   3.60000000E-02    1.00000000E+00 
P    1    1.000000
   7.50000000E-01    1.00000000E+00 

5    0
S    6    1.000000
   4.56324000E+03    1.96665000E-03 
   6.82024000E+02    1.52306000E-02 
   1.54973000E+02    7.61269000E-02 
   4.44553000E+01    2.60801000E-01 
   1.30290000E+01    6.16462000E-01 
   1.82773000E+00    2.21006000E-01 
SP   3    1.000000
   2.09642000E+01    1.14660000E-01   4.02487000E-02 
   4.80331000E+00    9.19999000E-01   2.37594000E-01 
   1.45933000E+00   -3.03068000E-03   8.15854000E-01 
SP   1    1.000000
   4.83456000E-01    1.00000000E+00   1.00000000E+00 
SP   1    1.000000
   1.45585000E-01    1.00000000E+00   1.00000000E+00 
SP   1    1.000000
   4.38000000E-02    1.00000000E+00   1.00000000E+00 
D    1    1.000000
   6.26000000E-01    1.00000000E+00 

6    0
S    6    1.000000
   8.58850000E+03    1.89515000E-03 
   1.29723000E+03    1.43859000E-02 
   2.99296000E+02    7.07320000E-02 
   8.73771000E+01    2.40001000E-01 
   2.56789000E+01    5.94797000E-01 
   3.74004000E+00    2.80802000E-01 
SP   3    1.000000
   4.21175000E+01    1.13889000E-01   3.65114000E-02 
   9.62837000E+00    9.20811000E-01   2.37153000E-01 
   2.85332000E+00   -3.27447000E-03   8.19702000E-01 
SP   1    1.000000
   9.05661000E-01    1.00000000E+00   1.00000000E+00 
SP   1    1.000000
   2.55611000E-01    1.00000000E+00   1.00000000E+00 
SP   1    1.000000
   8.45000000E-02    1.00000000E+00   1.00000000E+00 
D    1    1.000000
   1.29200000E+00    1.00000000E+00 

7    0
S    6    1.000000
   4.56324000E+03    1.96665000E-03 
   6.82024000E+02    1.52306000E-02 
   1.54973000E+02    7.61269000E-02 
   4.44553000E+01    2.60801000E-01 
   1.30290000E+01    6.16462000E-01 
   1.82773000E+00    2.21006000E-01 
SP   3    1.000000
   2.09642000E+01    1.14660000E-01   4.02487000E-02 
   4.80331000E+00    9.19999000E-01   2.37594000E-01 
   1.45933000E+00   -3.03068000E-03   8.15854000E-01 
SP   1    1.000000
   4.83456000E-01    1.00000000E+00   1.00000000E+00 
SP   1    1.000000
   1.45585000E-01    1.00000000E+00   1.00000000E+00 
SP   1    1.000000
   4.38000000E-02    1.00000000E+00   1.00000000E+00 
D    1    1.000000
   6.26000000E-01    1.00000000E+00 

8    0
S    6    1.000000
   8.58850000E+03    1.89515000E-03 
   1.29723000E+03    1.43859000E-02 
   2.99296000E+02    7.07320000E-02 
   8.73771000E+01    2.40001000E-01 
   2.56789000E+01    5.94797000E-01 
   3.74004000E+00    2.80802000E-01 
SP   3    1.000000
   4.21175000E+01    1.13889000E-01   3.65114000E-02 
   9.62837000E+00    9.20811000E-01   2.37153000E-01 
   2.85332000E+00   -3.27447000E-03   8.19702000E-01 
SP   1    1.000000
   9.05661000E-01    1.00000000E+00   1.00000000E+00 
SP   1    1.000000
   2.55611000E-01    1.00000000E+00   1.00000000E+00 
SP   1    1.000000
   8.45000000E-02    1.00000000E+00   1.00000000E+00 
D    1    1.000000
   1.29200000E+00    1.00000000E+00 

9    0
S    6    1.000000
   6.29348000E+03    1.96979000E-03 
   9.49044000E+02    1.49613000E-02 
   2.18776000E+02    7.35006000E-02 
   6.36916000E+01    2.48937000E-01 
   1.88282000E+01    6.02460000E-01 
   2.72023000E+00    2.56202000E-01 
SP   3    1.000000
   3.06331000E+01    1.11906000E-01   3.83119000E-02 
   7.02614000E+00    9.21666000E-01   2.37403000E-01 
   2.11205000E+00   -2.56919000E-03   8.17592000E-01 
SP   1    1.000000
   6.84009000E-01    1.00000000E+00   1.00000000E+00 
SP   1    1.000000
   2.00878000E-01    1.00000000E+00   1.00000000E+00 
SP   1    1.000000
   6.39000000E-02    1.00000000E+00   1.00000000E+00 
D    1    1.000000
   9.13000000E-01    1.00000000E+00 

10    0
S    6    1.000000
   6.29348000E+03    1.96979000E-03 
   9.49044000E+02    1.49613000E-02 
   2.18776000E+02    7.35006000E-02 
   6.36916000E+01    2.48937000E-01 
   1.88282000E+01    6.02460000E-01 
   2.72023000E+00    2.56202000E-01 
SP   3    1.000000
   3.06331000E+01    1.11906000E-01   3.83119000E-02 
   7.02614000E+00    9.21666000E-01   2.37403000E-01 
   2.11205000E+00   -2.56919000E-03   8.17592000E-01 
SP   1    1.000000
   6.84009000E-01    1.00000000E+00   1.00000000E+00 
SP   1    1.000000
   2.00878000E-01    1.00000000E+00   1.00000000E+00 
SP   1    1.000000
   6.39000000E-02    1.00000000E+00   1.00000000E+00 
D    1    1.000000
   9.13000000E-01    1.00000000E+00 

11    0
S    6    1.000000
   4.56324000E+03    1.96665000E-03 
   6.82024000E+02    1.52306000E-02 
   1.54973000E+02    7.61269000E-02 
   4.44553000E+01    2.60801000E-01 
   1.30290000E+01    6.16462000E-01 
   1.82773000E+00    2.21006000E-01 
SP   3    1.000000
   2.09642000E+01    1.14660000E-01   4.02487000E-02 
   4.80331000E+00    9.19999000E-01   2.37594000E-01 
   1.45933000E+00   -3.03068000E-03   8.15854000E-01 
SP   1    1.000000
   4.83456000E-01    1.00000000E+00   1.00000000E+00 
SP   1    1.000000
   1.45585000E-01    1.00000000E+00   1.00000000E+00 
SP   1    1.000000
   4.38000000E-02    1.00000000E+00   1.00000000E+00 
D    1    1.000000
   6.26000000E-01    1.00000000E+00 

12    0
S    3    1.000000
   3.38650000E+01    2.54938000E-02 
   5.09479000E+00    1.90373000E-01 
   1.15879000E+00    8.52161000E-01 
S    1    1.000000
   3.25840000E-01    1.00000000E+00 
S    1    1.000000
   1.02741000E-01    1.00000000E+00 
S    1    1.000000
   3.60000000E-02    1.00000000E+00 
P    1    1.000000
   7.50000000E-01    1.00000000E+00 

[MO]
Sym=X
Ene= 2.006017
Spin=Alpha
Occup=1
     1   -4.858430411127e-14
     2   -2.116243360448e-14
     3   -4.384743667097e-14
     4   -5.062690554040e-14
     5   -9.577632294625e-02
     6   -5.618678994702e-14
     7   -1.024511356204e-13
     8   -3.501663322767e-14
     9   -1.659460918521e-01
    10    2.295205333409e-13
    11    1.968906710866e-14
    12    5.255878307358e-14
    13   -1.392458808815e-01
    14   -3.784422128962e-12
    15   -1.049732526565e-12
    16   -7.009310051804e-13
    17   -1.185364553629e-02
    18   -4.880565779982e-16
    19   -1.208990940619e-02
    20   -1.308041686488e-02
    21   -1.391213065105e-14
    22   -1.165313446797e-14
    23    1.766117771948e-14
    24   -2.914258843447e-13
    25    2.616033673121e-13
    26    6.440597183350e-15
    27   -1.889273150614e-14
    28   -6.083292654271e-15
    29   -1.229253200749e-04
    30    1.979428052948e-14
    31    4.239494684292e-14
    32    1.111568940352e-13
    33   -1.254770979757e-13
    34   -6.189943107040e-15
    35    4.000604143225e-15
    36   -7.012460464586e-03
    37    2.090503884992e-14
    38    3.525276775848e-13
    39    6.667738022297e-14
    40   -1.765043567640e-14
    41    4.759049952140e-15
    42   -2.904669655041e-14
    43    6.381047739274e-03
    44    2.599586337939e-15
    45    7.328702806167e-15
    46    8.807264395825e-15
    47    2.096085960828e-14
    48    1.029931593417e-01
    49   -2.310458671893e-14
    50    1.994544088454e-14
    51    1.644108243952e-14
    52    1.831312773832e-01
    53   -2.280221783337e-13
    54    4.516607146813e-13
    55    6.676117880090e-13
    56    1.022494206093e-01
    57    2.855979456673e-13
    58    6.592278626536e-14
    59   -8.300032129009e-14
    60    1.712580384301e-02
    61    4.709570051289e-15
    62   -1.837819446910e-02
    63    2.276047835550e-02
    64    6.781102659171e-15
    65    9.066190890009e-15
    66   -4.278437274970e-15
    67   -4.911339292555e-15
    68    1.737958142657e-14
    69    5.467614966433e-14
    70    2.390235740822e-01
    71    1.250568304437e-14
    72    2.223293968430e-14
    73    6.441634065405e-14
    74    2.792953195380e-01
    75    5.795756216201e-14
    76   -2.054544214379e-14
    77   -6.550543176732e-14
    78    1.715470039826e-01
    79    2.054522248808e-13
    80    3.678789571723e-14
    81   -9.106102023852e-14
    82   -6.646045419458e-03
    83   -1.489191849371e-16
    84    1.938692216629e-02
    85   -1.160776027274e-02
    86    2.518599094144e-15
    87    1.561577552905e-15
    88    4.119202466632e-14
    89    3.743850452694e-14
    90   -3.428513050525e-14
    91    3.837311056688e-14
    92   -3.780847014509e-02
    93    6.994957108013e-15
    94   -1.868071776913e-14
    95    3.827011987443e-14
    96   -6.625803649417e-02
    97   -4.389473327813e-13
    98    2.406603529203e-13
    99    4.047046791230e-13
   100   -5.061408722195e-02
   101    2.011478915623e-12
   102   -2.790153624928e-13
   103   -5.346799598301e-13
   104   -1.041067352454e-02
   105    8.136061750016e-15
   106   -8.559956539646e-03
   107    1.225683190710e-02
   108   -3.296241694527e-15
   109   -2.009451108156e-14
   110   -4.780157813136e-14
   111   -4.529271655499e-14
   112    5.526220740835e-15
   113    3.960971643768e-14
   114   -3.070122191896e-02
   115    2.023118872800e-14
   116   -8.332393461869e-15
   117    6.938402136227e-14
   118   -4.954023877004e-02
   119   -5.697799910730e-15
   120    2.793155383733e-15
   121    9.370061089363e-14
   122   -3.642528138761e-02
   123   -3.222091993437e-13
   124    1.814119650223e-13
   125    5.664285836016e-14
   126    1.284002266959e-02
   127    1.064265569094e-15
   128    4.439786739467e-03
   129    3.079989538153e-03
   130    2.996110069116e-15
   131   -1.637097096881e-15
   132    7.747496235441e-14
   133    4.102222067613e-14
   134    1.368928020635e-14
   135    2.335109136896e-14
   136    7.012476835687e-02
   137    1.707608528547e-13
   138    2.633277848658e-14
   139    9.370080157445e-14
   140    1.178236439923e-01
   141   -3.738438053285e-13
   142    2.532797971505e-13
   143   -5.765716708763e-13
   144    1.081963375338e-01
   145   -7.189973676875e-13
   146    2.781614210957e-13
   147    2.287780671409e-13
   148    2.520277669303e-03
   149   -1.206955740479e-16
   150   -1.140449205770e-02
   151   -2.338274125876e-03
   152    1.225472011016e-14
   153   -2.751765784931e-15
   154    3.002154499435e-14
   155    3.176166205567e-14
   156   -9.338179079154e-15
   157   -1.497107596842e-14
   158   -1.481357603359e-02
   159   -7.092608505784e-14
   160    3.081086205228e-14
   161   -2.131635218524e-14
   162   -2.347501147271e-02
   163    4.309943477037e-13
   164   -6.008337022517e-13
   165    7.704768565909e-14
   166   -1.696112151736e-02
   167    4.285378183280e-13
   168    5.356537409522e-13
   169    3.614957670340e-13
   170    7.204658322986e-03
   171   -7.017600766788e-15
   172   -8.463697822141e-03
   173    1.167982362518e-02
   174    5.847017639293e-15
   175    7.556239909539e-15
   176   -9.640831488525e-14
   177   -3.668895987562e-14
   178    2.764244539877e-14
   179    2.570824580704e-14
   180   -1.030927589343e-01
   181   -2.317223983116e-13
   182    3.936949107969e-14
   183    4.335861473435e-14
   184   -1.792362483901e-01
   185    2.535784468525e-13
   186    1.065198506464e-13
   187    2.117337443106e-13
   188   -1.556034541992e-01
   189    1.710593177566e-12
   190   -6.334265897291e-13
   191   -8.788090699544e-13
   192   -4.710817163431e-03
   193    1.339231677106e-14
   194    1.767066840180e-02
   195   -3.494780869195e-05
   196   -6.468719537847e-15
   197    1.831168965609e-15
   198   -4.025863928686e-14
   199   -5.422021580438e-14
   200   -1.019669011517e-13
   201    5.468811751146e-14
   202    7.825753909508e-15
   203   -1.139088110003e-16
   204   -8.336124044217e-03
Sym=X
Ene= 2.003766
Spin=Alpha
Occup=1
     1    8.728498783240e-03
     2    1.442659342715e-02
     3    1.372055041126e-02
     4   -3.080133976508e-02
     5   -1.086221337495e-14
     6   -3.842405470340e-02
     7    2.278329870416e-02
     8   -5.108531081245e-02
     9    1.226772429370e-14
    10   -4.000479794178e-02
    11   -9.389294863061e-03
    12   -4.624119457635e-02
    13   -2.825965887772e-14
    14   -9.575672897024e-02
    15    4.813067126969e-04
    16   -1.003659419631e-02
    17    1.197800115306e-13
    18    2.211836171861e-03
    19    5.774582101377e-15
    20   -6.108322405301e-16
    21   -1.124888058276e-02
    22    5.392674703110e-03
    23    2.314662881232e-03
    24   -1.248317234598e-02
    25   -2.693809307343e-02
    26    2.796695036855e-02
    27   -8.009689358859e-04
    28    9.897709915753e-04
    29   -1.392614631974e-14
    30    2.219958675174e-02
    31    3.602395266687e-02
    32    1.570303623340e-02
    33    3.777446498752e-03
    34    6.815143350789e-04
    35    7.003772851642e-04
    36    1.750432124878e-15
    37    5.155640930622e-03
    38    2.123331779300e-02
    39    3.314187342138e-02
    40   -4.541574410205e-02
    41    1.666333687984e-03
    42   -1.673175997329e-03
    43    1.020823146282e-14
    44   -8.814249832047e-03
    45   -1.458225312663e-02
    46   -4.391631254034e-02
    47   -2.186199070335e-02
    48   -2.590781199520e-14
    49    4.283436022014e-02
    50   -7.336842752259e-02
    51   -4.321888589776e-02
    52   -5.214010610088e-14
    53    5.014206066757e-02
    54    3.785126001204e-02
    55    5.829239025110e-02
    56    3.187214533156e-14
    57    3.932425335071e-02
    58    6.060874991587e-02
    59    7.626547115225e-02
    60   -1.144120743456e-13
    61   -2.134815957537e-03
    62    1.032019872701e-14
    63    8.903641129766e-15
    64   -5.570377785033e-02
    65   -3.189483652188e-02
    66   -5.253999855035e-03
    67   -7.509661624574e-03
    68    2.094791970622e-01
    69    2.522919707653e-01
    70   -7.784698831065e-14
    71    2.278555374839e-02
    72    2.411539935605e-01
    73    2.890376474255e-01
    74   -7.721406929882e-14
    75   -1.324375590620e-02
    76    1.496471910967e-01
    77    2.091993073062e-01
    78   -8.046416672193e-14
    79   -1.821725845351e-02
    80   -4.476522716708e-03
    81    4.595245354782e-03
    82    5.751144286783e-14
    83   -2.761823578837e-03
    84   -7.571029649580e-15
    85   -2.501537354342e-15
    86    1.379163943367e-02
    87    1.661649551490e-03
    88   -1.513119896441e-02
    89   -2.511180227410e-02
    90   -3.503697161955e-02
    91    1.016518483601e-04
    92    5.700417662138e-14
    93    6.717139830257e-02
    94   -5.870265586410e-02
    95   -1.698732632866e-03
    96    8.253172854322e-14
    97    6.705441146671e-02
    98   -5.109455845124e-02
    99    5.611755832582e-03
   100    1.323641847364e-13
   101   -1.581135723782e-01
   102   -6.848163888630e-03
   103    9.260638651789e-02
   104    2.270196545732e-13
   105   -1.837480569195e-03
   106    2.720381057332e-15
   107    7.821558998237e-15
   108   -2.930077406914e-02
   109    4.232711369970e-03
   110    3.799148945818e-03
   111    6.436384327284e-03
   112   -4.925863234749e-02
   113    1.014049469174e-01
   114    7.278219292233e-14
   115   -1.953703054233e-02
   116   -7.712883183727e-02
   117    1.559282141580e-01
   118    8.081317116544e-14
   119   -8.384775546692e-03
   120   -7.334449198587e-02
   121    1.393873194788e-01
   122    1.395381025770e-13
   123    3.148796138513e-02
   124   -1.277951552235e-02
   125    1.600312381821e-03
   126   -1.208192939081e-13
   127    2.584706872763e-04
   128   -2.200081673116e-15
   129   -1.314709958298e-14
   130    6.799216827539e-03
   131   -4.551002742013e-03
   132    2.337858092353e-02
   133    3.879980108020e-02
   134    5.808205755417e-02
   135    2.686673816570e-02
   136    7.039786210840e-14
   137   -1.033554734677e-01
   138    8.656010329720e-02
   139    3.164300724547e-02
   140    1.262551220144e-13
   141   -2.047106793071e-01
   142    7.862635080834e-02
   143    4.866744618559e-02
   144    7.773356038402e-14
   145   -1.786322552503e-01
   146   -7.259507953271e-03
   147    3.395957087091e-03
   148   -3.889912893410e-14
   149   -1.451206991069e-03
   150    5.859850712509e-15
   151    2.562243348988e-15
   152   -5.565113613635e-05
   153   -4.280875950783e-03
   154   -1.286859483979e-02
   155   -2.097956220878e-02
   156   -2.844445902327e-02
   157    6.425869526386e-02
   158   -6.849771728627e-14
   159    5.488467281746e-02
   160   -4.870600124985e-02
   161    9.321026605052e-02
   162   -1.103101783168e-13
   163    1.054662731277e-01
   164   -4.125255511465e-02
   165    9.591809000962e-02
   166   -1.435912112777e-13
   167    1.098307586745e-01
   168   -5.806207936898e-03
   169    4.203408205848e-03
   170    2.227591470912e-15
   171    5.658307029163e-04
   172    9.477543784072e-16
   173   -2.296866073880e-15
   174   -3.292749390125e-03
   175   -1.135315003217e-03
   176   -5.353874835615e-03
   177   -8.810892506760e-03
   178    2.481530585464e-03
   179    2.825422901291e-02
   180    2.408886659512e-14
   181    2.245547939757e-02
   182    5.273961456284e-03
   183    4.032850903853e-02
   184    1.934831282455e-14
   185    5.950271418497e-02
   186   -1.274074287211e-02
   187    3.367415940920e-02
   188    5.597985322595e-14
   189    2.482474625731e-01
   190   -2.725792930442e-02
   191    3.943118406408e-02
   192   -1.967920612711e-13
   193   -6.042736624523e-06
   194    7.532043295403e-15
   195    3.898278711293e-15
   196   -5.497128852807e-03
   197    3.849831854640e-04
   198   -6.917677474727e-03
   199   -1.298973786883e-02
   200   -3.782374295788e-03
   201    1.157852627836e-02
   202    1.181173824696e-03
   203    4.073077858258e-05
   204    1.835620486375e-15
Sym=X
Ene= 2.002013
Spin=Alpha
Occup=1
     1    1.277249076950e-13
     2    1.811716996328e-13
     3   -9.603671107153e-14
     4   -3.558676779228e-14
     5   -8.611004070314e-02
     6   -3.900937435754e-13
     7   -1.440901951603e-13
     8   -5.412983566129e-14
     9   -1.478288771233e-01
    10   -1.211291575579e-13
    11   -1.494055961759e-13
    12   -1.099851775572e-13
    13   -9.729378995926e-02
    14   -8.735014568983e-12
    15   -2.835881059962e-12
    16   -1.204983621129e-12
    17   -1.977957671011e-02
    18    1.312829117855e-14
    19    8.304601107692e-03
    20   -1.606493568386e-02
    21   -1.971482215395e-14
    22    6.166808318575e-15
    23   -1.006040945495e-13
    24   -2.216974575711e-13
    25    7.795068315552e-13
    26   -3.414551038780e-13
    27   -2.272835763666e-14
    28   -1.785339505662e-14
    29   -1.090315948588e-02
    30   -3.388034537367e-14
    31   -1.126226711385e-13
    32    1.061195005157e-13
    33   -3.059651259752e-13
    34   -6.457653441402e-15
    35   -2.198642097204e-14
    36   -6.760430196268e-03
    37    1.420693422668e-13
    38    2.585995478440e-13
    39   -5.099543864675e-13
    40    2.253985322646e-13
    41   -4.199241694884e-16
    42   -3.109505865962e-14
    43   -1.614492260327e-03
    44   -9.573732264365e-14
    45   -9.623025351153e-14
    46   -1.210377194508e-13
    47    1.828267010520e-13
    48   -6.052844625665e-02
    49    1.010022115542e-13
    50   -1.738564219571e-13
    51    3.025209972558e-13
    52   -1.060199846046e-01
    53    3.806284473018e-14
    54    7.918813496578e-14
    55    2.006711492976e-15
    56   -4.975721835863e-02
    57    7.630357849763e-13
    58   -1.561253483558e-13
    59   -7.464970479775e-13
    60   -2.210854645173e-02
    61   -3.454199074107e-15
    62   -5.441340105936e-03
    63    1.717738006564e-02
    64    9.287630139114e-14
    65    1.455445230916e-14
    66   -5.567585504239e-14
    67   -7.812125741996e-14
    68    2.918070864913e-14
    69   -5.301496824998e-13
    70    8.777944704662e-04
    71    2.507721961376e-13
    72    3.726596961735e-14
    73   -6.026350296217e-13
    74   -2.418661353196e-03
    75    3.168605024788e-14
    76   -6.077986928373e-14
    77   -4.088764334199e-13
    78    7.745545461344e-03
    79    5.281026114724e-14
    80    2.704392047183e-14
    81    3.880929255046e-14
    82    2.002054631306e-02
    83   -1.746496432676e-14
    84   -4.849066349130e-03
    85    3.127158874948e-03
    86   -5.897758896872e-16
    87   -3.289413357389e-14
    88    2.039765320533e-14
    89   -4.500980752612e-14
    90    8.515546526937e-14
    91   -8.687496543325e-14
    92    7.442641388315e-02
    93    3.349985733824e-13
    94    1.504594120330e-13
    95   -1.498766504276e-13
    96    1.304709802123e-01
    97    4.512307615573e-13
    98   -3.597185641012e-14
    99    1.304290852587e-13
   100    9.682478125966e-02
   101    3.245253980692e-12
   102    4.394765352498e-13
   103   -1.285568822279e-12
   104    1.613837223683e-02
   105   -1.266640395480e-14
   106    3.491103728491e-02
   107    2.569303928553e-02
   108   -1.086731887762e-13
   109    4.283244899049e-14
   110    2.593253469685e-13
   111    2.803326581869e-13
   112   -3.075990247044e-13
   113    1.828828855380e-13
   114    1.653183378932e-01
   115   -3.484929526084e-13
   116   -4.731508102781e-13
   117    2.824466529730e-13
   118    2.594934584475e-01
   119   -4.228780416736e-13
   120   -3.546722876745e-13
   121    3.334573074038e-13
   122    2.360903277429e-01
   123   -3.470301675866e-13
   124    7.260587066473e-14
   125    6.801462401452e-14
   126    2.281671863461e-02
   127   -8.263797038104e-15
   128   -1.547786099481e-02
   129   -9.154161972705e-03
   130    1.692027302166e-14
   131    5.701395302953e-15
   132    5.320963605435e-14
   133    2.556529463045e-14
   134   -1.147661859796e-13
   135    1.746211911313e-13
   136   -3.444155090491e-02
   137    1.082261789653e-13
   138   -1.619261018316e-13
   139    2.735488140172e-13
   140   -5.392548001394e-02
   141   -1.142360053642e-13
   142   -2.561325261317e-13
   143    2.166582985070e-13
   144   -6.832565262551e-02
   145   -1.418391544203e-13
   146    3.150132978725e-13
   147    1.068444046197e-12
   148   -5.352937843273e-03
   149   -4.078354817924e-15
   150    9.769224216098e-03
   151    1.666447464474e-03
   152   -2.302502244011e-15
   153   -1.458867452597e-14
   154   -1.756365431227e-13
   155   -3.202421464017e-14
   156    3.741875094176e-14
   157   -7.852384196177e-14
   158   -1.449151056778e-01
   159   -6.207133717726e-13
   160    5.722546482193e-14
   161   -1.262964825633e-13
   162   -2.389771431544e-01
   163   -5.719288383469e-13
   164   -1.384510841093e-14
   165   -8.487695337505e-14
   166   -2.116808482351e-01
   167   -4.803748747022e-13
   168    1.060043963728e-12
   169    7.880109622672e-13
   170    1.508536344224e-02
   171    1.541267408471e-14
   172   -8.282247622863e-03
   173   -4.543182275470e-03
   174   -4.410570359432e-15
   175   -2.394783780216e-15
   176    4.075485776934e-13
   177    3.146099877352e-13
   178    1.462144675499e-13
   179    1.870249396395e-13
   180   -4.300492769407e-02
   181    1.163826123995e-13
   182    2.125959282607e-13
   183    2.816548777470e-13
   184   -7.150935156833e-02
   185    3.476369788940e-13
   186    1.121528483014e-13
   187    2.540647343060e-13
   188   -8.336131756455e-02
   189    5.476297970196e-12
   190   -2.379373146676e-12
   191   -2.356801355061e-12
   192    1.862213574195e-03
   193    3.770118852344e-15
   194    1.419048942524e-02
   195    1.009193379248e-02
   196   -2.775952704587e-14
   197   -1.189853878520e-14
   198    3.512488286244e-14
   199    5.834406587147e-14
   200   -6.124317762241e-14
   201    7.456401750331e-14
   202   -5.695938264076e-15
   203    9.972283228166e-15
   204   -2.268611374192e-03
Sym=X
Ene= 2.001669
Spin=Alpha
Occup=1
     1    4.837064422714e-03
     2    7.382602453536e-03
     3    3.912359433197e-02
     4   -7.100820240916e-03
     5   -2.122270707677e-13
     6   -1.854394549910e-02
     7    6.586958468048e-02
     8   -1.171390890007e-02
     9   -3.606946476429e-13
    10    9.511751287596e-03
    11    3.218052450668e-02
    12    1.055040686250e-02
    13   -3.523481084565e-13
    14    2.927924726306e-01
    15    8.342545644460e-02
    16    9.779140429387e-02
    17    4.327672544266e-14
    18    1.731345516883e-03
    19   -1.863462154481e-14
    20   -3.507133534919e-14
    21   -1.947341018078e-03
    22    8.500941651092e-04
    23   -8.628437782803e-03
    24   -1.126131417625e-02
    25   -1.989771124117e-02
    26    1.772049637297e-03
    27   -2.375898452018e-03
    28    1.829312772190e-03
    29   -1.125806789029e-14
    30   -4.446019500620e-04
    31    3.402757909548e-03
    32    4.314571401183e-03
    33    4.874176529759e-02
    34    1.591937953854e-03
    35    1.757497454757e-04
    36   -1.066907978813e-14
    37   -1.312748204392e-02
    38   -1.457968680850e-02
    39    8.308327888202e-03
    40    2.661337775847e-02
    41   -2.159170786741e-03
    42    2.037777997273e-03
    43   -1.767524079897e-14
    44    1.417384481515e-02
    45    2.166020374463e-02
    46    7.448312023429e-02
    47   -8.176229044440e-02
    48   -1.503151098710e-13
    49   -6.122729265679e-02
    50    1.145749581506e-01
    51   -1.359764531196e-01
    52   -2.564037089755e-13
    53   -6.922503811949e-02
    54    1.674990674552e-02
    55    1.649929182483e-03
    56   -1.116183617985e-13
    57   -4.553984515700e-02
    58   -1.211235046199e-03
    59    2.757554300227e-02
    60   -1.502453430481e-13
    61    5.126218196580e-03
    62   -7.552884898196e-14
    63   -5.705156353271e-15
    64   -3.566836323649e-02
    65    7.135527547697e-03
    66    2.318885111079e-03
    67    2.870015443634e-03
    68   -9.529763321307e-02
    69    2.315281488977e-01
    70    8.776323044942e-14
    71   -6.967028317718e-04
    72   -1.074891620161e-01
    73    2.639372808921e-01
    74    9.610050370621e-14
    75    8.153288495412e-02
    76   -1.986234191188e-02
    77    1.544217111680e-01
    78    6.181187625763e-14
    79    2.278416731293e-02
    80   -7.114674192906e-04
    81   -1.168767002511e-03
    82    1.211042484380e-13
    83    9.177699236278e-03
    84   -7.955190327598e-15
    85    2.689495843334e-15
    86   -3.208378703308e-03
    87    1.668974117914e-02
    88    1.567273485333e-02
    89    2.567768613025e-02
    90    2.348919544096e-03
    91    6.335847468900e-03
    92    5.814304008298e-14
    93   -7.069271487260e-02
    94    2.481665085770e-03
    95    1.873494376915e-02
    96    7.800107492408e-14
    97   -8.197320381535e-02
    98    4.295016680662e-02
    99   -4.966672006504e-02
   100    1.829180923452e-13
   101    2.173433078414e-01
   102    3.813493391429e-02
   103   -1.117230891868e-01
   104    1.760636274181e-13
   105    2.200388966290e-03
   106    1.340485051149e-13
   107    6.174859145058e-14
   108    4.571932470254e-02
   109   -2.187958811360e-02
   110   -9.544941358153e-03
   111   -1.618824231412e-02
   112    1.113997566407e-01
   113   -1.356803739815e-01
   114    4.163687831131e-13
   115    4.944856130986e-02
   116    1.710147580154e-01
   117   -2.099889621366e-01
   118    6.382549423524e-13
   119    5.551199703225e-02
   120    1.521606168293e-01
   121   -1.997697413581e-01
   122    6.438573373204e-13
   123    1.180559227403e-02
   124   -4.724714962242e-03
   125   -1.024916127037e-02
   126    3.036951215092e-14
   127    1.364538425907e-03
   128   -3.040792564474e-14
   129   -1.403035563691e-14
   130   -1.029576841965e-02
   131    3.277014917596e-03
   132   -6.516769788523e-03
   133   -1.177734293228e-02
   134    2.242152740966e-02
   135   -2.817408566870e-02
   136   -3.971346138332e-13
   137    3.455024133020e-02
   138    3.005670902895e-02
   139   -4.254282024310e-02
   140   -6.483064280792e-13
   141    9.200790797561e-02
   142    6.948331567542e-02
   143   -5.321474022724e-02
   144   -7.105596943883e-13