[Molden Format]
[Atoms] (Angs)
  C      1    6     -0.00714236     -1.70213747     -0.00000000
  H      2    1     -2.06882847     -1.44022412      0.00000000
  H      3    1     -0.12337987     -2.77567521      0.00000000
  H      4    1      0.04651892      1.98813947     -0.00000000
  C      5    6     -1.21953563      0.40211669      0.00000000
  O      6    8     -2.25921553      1.03043814      0.00000000
  C      7    6      1.28797806      0.34644937     -0.00000000
  O      8    8      2.31273661      1.00537216     -0.00000000
  N      9    7      0.03446295      0.97739857     -0.00000000
  N     10    7     -1.17287765     -0.98229824      0.00000000
  C     11    6      1.20107039     -1.10433419     -0.00000000
  H     12    1      2.11220096     -1.67699125     -0.00000000
[GTO]
1    0
S    6    1.000000
   4.56324000E+03    1.96665000E-03 
   6.82024000E+02    1.52306000E-02 
   1.54973000E+02    7.61269000E-02 
   4.44553000E+01    2.60801000E-01 
   1.30290000E+01    6.16462000E-01 
   1.82773000E+00    2.21006000E-01 
SP   3    1.000000
   2.09642000E+01    1.14660000E-01   4.02487000E-02 
   4.80331000E+00    9.19999000E-01   2.37594000E-01 
   1.45933000E+00   -3.03068000E-03   8.15854000E-01 
SP   1    1.000000
   4.83456000E-01    1.00000000E+00   1.00000000E+00 
SP   1    1.000000
   1.45585000E-01    1.00000000E+00   1.00000000E+00 
SP   1    1.000000
   4.38000000E-02    1.00000000E+00   1.00000000E+00 
D    1    1.000000
   6.26000000E-01    1.00000000E+00 

2    0
S    3    1.000000
   3.38650000E+01    2.54938000E-02 
   5.09479000E+00    1.90373000E-01 
   1.15879000E+00    8.52161000E-01 
S    1    1.000000
   3.25840000E-01    1.00000000E+00 
S    1    1.000000
   1.02741000E-01    1.00000000E+00 
S    1    1.000000
   3.60000000E-02    1.00000000E+00 
P    1    1.000000
   7.50000000E-01    1.00000000E+00 

3    0
S    3    1.000000
   3.38650000E+01    2.54938000E-02 
   5.09479000E+00    1.90373000E-01 
   1.15879000E+00    8.52161000E-01 
S    1    1.000000
   3.25840000E-01    1.00000000E+00 
S    1    1.000000
   1.02741000E-01    1.00000000E+00 
S    1    1.000000
   3.60000000E-02    1.00000000E+00 
P    1    1.000000
   7.50000000E-01    1.00000000E+00 

4    0
S    3    1.000000
   3.38650000E+01    2.54938000E-02 
   5.09479000E+00    1.90373000E-01 
   1.15879000E+00    8.52161000E-01 
S    1    1.000000
   3.25840000E-01    1.00000000E+00 
S    1    1.000000
   1.02741000E-01    1.00000000E+00 
S    1    1.000000
   3.60000000E-02    1.00000000E+00 
P    1    1.000000
   7.50000000E-01    1.00000000E+00 

5    0
S    6    1.000000
   4.56324000E+03    1.96665000E-03 
   6.82024000E+02    1.52306000E-02 
   1.54973000E+02    7.61269000E-02 
   4.44553000E+01    2.60801000E-01 
   1.30290000E+01    6.16462000E-01 
   1.82773000E+00    2.21006000E-01 
SP   3    1.000000
   2.09642000E+01    1.14660000E-01   4.02487000E-02 
   4.80331000E+00    9.19999000E-01   2.37594000E-01 
   1.45933000E+00   -3.03068000E-03   8.15854000E-01 
SP   1    1.000000
   4.83456000E-01    1.00000000E+00   1.00000000E+00 
SP   1    1.000000
   1.45585000E-01    1.00000000E+00   1.00000000E+00 
SP   1    1.000000
   4.38000000E-02    1.00000000E+00   1.00000000E+00 
D    1    1.000000
   6.26000000E-01    1.00000000E+00 

6    0
S    6    1.000000
   8.58850000E+03    1.89515000E-03 
   1.29723000E+03    1.43859000E-02 
   2.99296000E+02    7.07320000E-02 
   8.73771000E+01    2.40001000E-01 
   2.56789000E+01    5.94797000E-01 
   3.74004000E+00    2.80802000E-01 
SP   3    1.000000
   4.21175000E+01    1.13889000E-01   3.65114000E-02 
   9.62837000E+00    9.20811000E-01   2.37153000E-01 
   2.85332000E+00   -3.27447000E-03   8.19702000E-01 
SP   1    1.000000
   9.05661000E-01    1.00000000E+00   1.00000000E+00 
SP   1    1.000000
   2.55611000E-01    1.00000000E+00   1.00000000E+00 
SP   1    1.000000
   8.45000000E-02    1.00000000E+00   1.00000000E+00 
D    1    1.000000
   1.29200000E+00    1.00000000E+00 

7    0
S    6    1.000000
   4.56324000E+03    1.96665000E-03 
   6.82024000E+02    1.52306000E-02 
   1.54973000E+02    7.61269000E-02 
   4.44553000E+01    2.60801000E-01 
   1.30290000E+01    6.16462000E-01 
   1.82773000E+00    2.21006000E-01 
SP   3    1.000000
   2.09642000E+01    1.14660000E-01   4.02487000E-02 
   4.80331000E+00    9.19999000E-01   2.37594000E-01 
   1.45933000E+00   -3.03068000E-03   8.15854000E-01 
SP   1    1.000000
   4.83456000E-01    1.00000000E+00   1.00000000E+00 
SP   1    1.000000
   1.45585000E-01    1.00000000E+00   1.00000000E+00 
SP   1    1.000000
   4.38000000E-02    1.00000000E+00   1.00000000E+00 
D    1    1.000000
   6.26000000E-01    1.00000000E+00 

8    0
S    6    1.000000
   8.58850000E+03    1.89515000E-03 
   1.29723000E+03    1.43859000E-02 
   2.99296000E+02    7.07320000E-02 
   8.73771000E+01    2.40001000E-01 
   2.56789000E+01    5.94797000E-01 
   3.74004000E+00    2.80802000E-01 
SP   3    1.000000
   4.21175000E+01    1.13889000E-01   3.65114000E-02 
   9.62837000E+00    9.20811000E-01   2.37153000E-01 
   2.85332000E+00   -3.27447000E-03   8.19702000E-01 
SP   1    1.000000
   9.05661000E-01    1.00000000E+00   1.00000000E+00 
SP   1    1.000000
   2.55611000E-01    1.00000000E+00   1.00000000E+00 
SP   1    1.000000
   8.45000000E-02    1.00000000E+00   1.00000000E+00 
D    1    1.000000
   1.29200000E+00    1.00000000E+00 

9    0
S    6    1.000000
   6.29348000E+03    1.96979000E-03 
   9.49044000E+02    1.49613000E-02 
   2.18776000E+02    7.35006000E-02 
   6.36916000E+01    2.48937000E-01 
   1.88282000E+01    6.02460000E-01 
   2.72023000E+00    2.56202000E-01 
SP   3    1.000000
   3.06331000E+01    1.11906000E-01   3.83119000E-02 
   7.02614000E+00    9.21666000E-01   2.37403000E-01 
   2.11205000E+00   -2.56919000E-03   8.17592000E-01 
SP   1    1.000000
   6.84009000E-01    1.00000000E+00   1.00000000E+00 
SP   1    1.000000
   2.00878000E-01    1.00000000E+00   1.00000000E+00 
SP   1    1.000000
   6.39000000E-02    1.00000000E+00   1.00000000E+00 
D    1    1.000000
   9.13000000E-01    1.00000000E+00 

10    0
S    6    1.000000
   6.29348000E+03    1.96979000E-03 
   9.49044000E+02    1.49613000E-02 
   2.18776000E+02    7.35006000E-02 
   6.36916000E+01    2.48937000E-01 
   1.88282000E+01    6.02460000E-01 
   2.72023000E+00    2.56202000E-01 
SP   3    1.000000
   3.06331000E+01    1.11906000E-01   3.83119000E-02 
   7.02614000E+00    9.21666000E-01   2.37403000E-01 
   2.11205000E+00   -2.56919000E-03   8.17592000E-01 
SP   1    1.000000
   6.84009000E-01    1.00000000E+00   1.00000000E+00 
SP   1    1.000000
   2.00878000E-01    1.00000000E+00   1.00000000E+00 
SP   1    1.000000
   6.39000000E-02    1.00000000E+00   1.00000000E+00 
D    1    1.000000
   9.13000000E-01    1.00000000E+00 

11    0
S    6    1.000000
   4.56324000E+03    1.96665000E-03 
   6.82024000E+02    1.52306000E-02 
   1.54973000E+02    7.61269000E-02 
   4.44553000E+01    2.60801000E-01 
   1.30290000E+01    6.16462000E-01 
   1.82773000E+00    2.21006000E-01 
SP   3    1.000000
   2.09642000E+01    1.14660000E-01   4.02487000E-02 
   4.80331000E+00    9.19999000E-01   2.37594000E-01 
   1.45933000E+00   -3.03068000E-03   8.15854000E-01 
SP   1    1.000000
   4.83456000E-01    1.00000000E+00   1.00000000E+00 
SP   1    1.000000
   1.45585000E-01    1.00000000E+00   1.00000000E+00 
SP   1    1.000000
   4.38000000E-02    1.00000000E+00   1.00000000E+00 
D    1    1.000000
   6.26000000E-01    1.00000000E+00 

12    0
S    3    1.000000
   3.38650000E+01    2.54938000E-02 
   5.09479000E+00    1.90373000E-01 
   1.15879000E+00    8.52161000E-01 
S    1    1.000000
   3.25840000E-01    1.00000000E+00 
S    1    1.000000
   1.02741000E-01    1.00000000E+00 
S    1    1.000000
   3.60000000E-02    1.00000000E+00 
P    1    1.000000
   7.50000000E-01    1.00000000E+00 

[MO]
Sym=X
Ene= 2.007679
Spin=Alpha
Occup=1
     1    1.272444097708e-14
     2    7.542219304579e-15
     3   -2.091307255712e-14
     4    7.546973737192e-16
     5    3.621633465057e-02
     6    1.981495728727e-14
     7   -1.691909581585e-14
     8   -1.813155370892e-14
     9    6.301093516148e-02
    10   -4.261333674527e-13
    11    7.149047968382e-14
    12   -1.383137717218e-13
    13    3.717218151367e-02
    14    5.967188186100e-12
    15    1.608160375091e-12
    16    8.125305175712e-13
    17    2.924369301411e-03
    18    6.540878897221e-15
    19   -1.208897062438e-02
    20    6.984257610842e-03
    21    1.548276262519e-14
    22    1.643028038976e-15
    23    1.539765438869e-14
    24    2.270912914599e-13
    25   -8.476029271962e-14
    26    4.839896517662e-13
    27    1.163404523661e-14
    28    4.358415993431e-15
    29    8.316442713210e-03
    30   -9.454684499077e-15
    31   -1.232438298315e-14
    32   -4.874981908569e-14
    33    1.211267183887e-13
    34    7.087618940328e-16
    35    7.430240607379e-15
    36    2.828235236887e-03
    37    3.081280411796e-15
    38   -1.972433092857e-13
    39    4.829976927388e-13
    40   -3.303431924966e-13
    41   -4.687056549046e-15
    42    1.269229217423e-14
    43   -9.037117630845e-03
    44    3.731950282954e-14
    45    3.913935593358e-14
    46   -2.039251282161e-14
    47   -3.944363772540e-14
    48    1.966330826142e-02
    49   -3.150084026019e-14
    50   -1.912350778050e-14
    51   -3.788088098007e-14
    52    3.442489957034e-02
    53   -1.721578066640e-14
    54   -1.565638921528e-13
    55   -3.674750196574e-13
    56    2.653702264827e-02
    57   -1.318566896780e-12
    58   -3.490650879642e-14
    59    7.152901974768e-13
    60    9.800117909232e-03
    61    2.002501966254e-15
    62   -1.818630860511e-02
    63   -1.383555929151e-02
    64    1.767304832755e-14
    65    1.142184971164e-14
    66    1.337764457850e-14
    67    1.534571314533e-14
    68   -3.985736960115e-14
    69   -4.415347230906e-14
    70    3.686239308811e-02
    71   -1.915690467007e-14
    72   -8.182029668374e-14
    73   -9.733824966228e-14
    74    5.791017469773e-02
    75   -6.279023345955e-14
    76    6.745997104177e-15
    77    4.947485380531e-14
    78    5.154651506642e-02
    79    3.253952189972e-13
    80    4.101449975113e-14
    81   -2.748897080645e-13
    82   -1.518392487768e-03
    83    2.541181519524e-15
    84    3.554488171245e-03
    85   -2.430813110958e-03
    86   -5.113423694330e-15
    87   -1.188517023923e-15
    88   -2.900948091488e-14
    89   -3.457316782569e-14
    90   -2.659790025557e-14
    91    2.239840621288e-14
    92   -1.146922641375e-01
    93    5.054339581135e-14
    94   -5.766472247488e-14
    95    3.851214047086e-14
    96   -2.030211547612e-01
    97    4.033131516478e-13
    98    1.330770730019e-14
    99   -1.813157236044e-13
   100   -1.126598412302e-01
   101    1.609831424948e-12
   102   -1.412101219239e-12
   103    2.345645803286e-13
   104   -3.689647006154e-02
   105   -8.427786047926e-15
   106   -1.289189810312e-02
   107   -2.605500742003e-02
   108    4.263312646281e-14
   109   -1.676466277104e-14
   110   -1.470675183954e-14
   111   -2.212165390470e-14
   112    1.086847996946e-13
   113   -1.583409009854e-13
   114   -2.460931684964e-01
   115    8.120560259485e-14
   116    1.114241163820e-13
   117   -1.688336452588e-13
   118   -2.881918880529e-01
   119    1.557604954516e-14
   120    2.852730135414e-14
   121   -5.188062868946e-14
   122   -1.769008989472e-01
   123    3.560747681867e-14
   124    2.014587830099e-13
   125    1.687143828787e-13
   126    1.332566487204e-02
   127   -1.119458529447e-15
   128    2.093324912062e-02
   129    1.208867087878e-02
   130   -5.808773588447e-15
   131    3.984963476031e-15
   132   -5.017010151203e-14
   133   -5.512153038014e-14
   134    5.679523723152e-14
   135   -2.156818431223e-14
   136   -1.130796879318e-01
   137    6.854611050533e-14
   138    1.073845662079e-13
   139   -6.076741248794e-14
   140   -1.870091767021e-01
   141    3.400194899376e-13
   142    5.018906268552e-14
   143    3.296361375988e-13
   144   -1.781633943266e-01
   145   -1.410268378142e-12
   146   -3.984012835912e-13
   147   -4.685194263168e-13
   148   -5.829081745304e-04
   149   -7.723318360146e-15
   150   -9.771647708527e-03
   151    5.461195474471e-03
   152   -6.142968645131e-15
   153   -8.636745801190e-15
   154    3.232415258056e-14
   155    9.413156428833e-15
   156    7.319794566225e-16
   157   -1.089708447432e-14
   158    9.950227740350e-02
   159    1.008203647359e-13
   160   -4.366480891842e-14
   161   -5.170437190420e-15
   162    1.642805442941e-01
   163   -1.288648604337e-13
   164    4.634666062562e-13
   165   -5.125604419211e-14
   166    1.564270132234e-01
   167    6.735396747752e-13
   168   -6.079383010685e-15
   169   -2.956480844911e-13
   170    7.310848566225e-03
   171    2.103655408441e-15
   172    4.494647027801e-03
   173    1.251378562208e-03
   174   -6.659438066551e-15
   175   -7.446825543440e-15
   176   -1.356748167186e-13
   177   -1.058732523540e-13
   178    7.639083484133e-16
   179   -1.724897391347e-14
   180   -9.464390746616e-03
   181   -3.471634573718e-14
   182    2.724698983122e-15
   183   -3.817688744532e-14
   184   -1.838171999772e-02
   185   -1.877290594409e-14
   186    3.432063059477e-16
   187   -1.084882679321e-13
   188   -1.980888271275e-03
   189   -6.026280734488e-12
   190    2.392041717470e-12
   191    8.104625042569e-13
   192    1.326523669281e-02
   193    3.781264100746e-16
   194   -3.916595046685e-03
   195   -1.229519093987e-02
   196   -1.563609637456e-15
   197   -1.184189981737e-14
   198    3.610249032571e-15
   199    4.753695463569e-15
   200   -1.521369731796e-13
   201   -2.734180189868e-13
   202   -9.973897565110e-16
   203   -1.886894734162e-16
   204   -1.266516654484e-03
Sym=X
Ene= 2.002450
Spin=Alpha
Occup=1
     1    9.745122750852e-03
     2    1.647723095078e-02
     3   -2.462696467610e-02
     4   -2.715572122507e-02
     5    5.917944287942e-14
     6   -4.509583896543e-02
     7   -4.076541682017e-02
     8   -4.525521591470e-02
     9    1.082219052776e-13
    10   -7.264455918446e-02
    11   -2.801474390892e-02
    12   -6.273801056518e-02
    13    9.080879863410e-14
    14   -2.349519316048e-01
    15   -5.467594495290e-02
    16   -5.538193801957e-02
    17   -2.230958606942e-14
    18    1.354404647759e-03
    19    2.771753121166e-14
    20    1.033101433433e-14
    21   -9.096979963168e-03
    22   -1.006559482014e-04
    23   -1.824889454650e-03
    24   -7.592459915573e-03
    25   -3.596637326822e-03
    26    1.459310054999e-02
    27   -6.027017563276e-04
    28   -3.916928479495e-04
    29   -2.459395394418e-15
    30    1.909947214631e-02
    31    2.649881197820e-02
    32    8.574152834832e-03
    33   -2.686475930223e-02
    34   -1.162834390585e-03
    35    8.061703414329e-05
    36    1.062366503063e-14
    37    3.416141913073e-03
    38    1.697514128007e-02
    39    1.612906467998e-02
    40   -4.989673479245e-02
    41   -3.217667745379e-03
    42   -6.492164200217e-04
    43   -5.404369538044e-17
    44   -1.526395382781e-02
    45   -2.510819078674e-02
    46    3.940307729869e-02
    47    1.771616014649e-02
    48    4.382332293312e-14
    49    6.945772358390e-02
    50    6.585877350008e-02
    51    2.756574104600e-02
    52    9.115270947047e-14
    53    6.620161920086e-02
    54    5.987005990175e-02
    55    2.735879709013e-02
    56   -1.709922620465e-14
    57    5.568002587401e-02
    58    3.631824012317e-02
    59    4.869997274517e-02
    60    2.784973549948e-14
    61   -2.169831424583e-03
    62   -9.556981694915e-16
    63    1.006326121157e-14
    64   -1.950941457040e-02
    65    1.698991429833e-03
    66    4.893724394210e-03
    67    8.219228379137e-03
    68    3.079428380281e-02
    69    6.683320762862e-02
    70    1.023755268067e-13
    71   -2.384910539472e-02
    72    4.934172336023e-02
    73    1.026478054114e-01
    74    1.371009739946e-13
    75   -1.468083361092e-02
    76    4.102484205918e-02
    77    8.662301063620e-02
    78    9.366091132231e-14
    79    1.732776902146e-02
    80    5.719078589012e-03
    81    2.270023972645e-03
    82   -1.694141985399e-15
    83    1.425230136787e-04
    84    5.909260482997e-15
    85   -7.266374836540e-15
    86    5.739596520688e-03
    87    3.397179053547e-03
    88   -9.963858691894e-03
    89   -1.661063644494e-02
    90    5.374474056076e-02
    91   -3.750110661454e-02
    92   -2.841379411037e-14
    93    4.794084075128e-02
    94    8.891259631572e-02
    95   -7.344544575473e-02
    96   -4.172957259469e-14
    97    6.022877707842e-02
    98   -4.238965353258e-03
    99    1.914951697538e-02
   100   -9.593192032773e-14
   101   -2.364569382334e-01
   102   -9.337527786382e-03
   103    1.186029286538e-01
   104   -4.431392625265e-14
   105   -2.154525480143e-04
   106   -3.329109907217e-14
   107   -3.874254557453e-14
   108   -5.252856471434e-02
   109    3.551334803129e-02
   110   -1.313309514137e-02
   111   -1.888453672587e-02
   112   -2.198396878384e-01
   113    2.520970114415e-01
   114   -3.259899392761e-13
   115    6.045742948990e-02
   116   -2.528239894190e-01
   117    2.886378935794e-01
   118   -3.461143156331e-13
   119    1.472947252088e-03
   120   -1.626373754560e-01
   121    2.165517862119e-01
   122   -1.681311688630e-13
   123   -2.423639557470e-02
   124    6.081501768084e-03
   125    4.576933571905e-03
   126   -1.438051957694e-14
   127   -3.465044838468e-03
   128    1.906842874464e-14
   129    4.820738251800e-15
   130    1.226855527703e-02
   131   -1.203589756378e-03
   132    2.421899789783e-02
   133    4.003056584186e-02
   134   -8.373223583864e-02
   135    2.757396667772e-02
   136    4.364547458592e-14
   137   -1.071336555722e-01
   138   -1.329011564225e-01
   139    3.465620861774e-02
   140    6.869585852079e-14
   141   -1.939908639481e-01
   142   -9.269590948505e-02
   143    5.275928901622e-02
   144    8.671734194801e-14
   145   -1.451744757785e-01
   146    5.515415965500e-02
   147    2.394677646577e-02
   148    3.241264007594e-14
   149   -1.014653659647e-03
   150   -8.266992899191e-15
   151   -3.431102477899e-15
   152    3.009214939869e-04
   153    5.290534716356e-03
   154   -2.971190825040e-03
   155   -4.894778671645e-03
   156   -1.647087307756e-03
   157    1.218315979364e-02
   158   -3.914303713026e-14
   159    1.274615591283e-02
   160   -3.831502745602e-03
   161    1.646970566801e-02
   162   -5.698869770028e-14
   163    3.667568728425e-02
   164   -1.659191011344e-04
   165    1.747872566353e-02
   166   -4.058935469302e-14
   167    7.744821004024e-02
   168    7.398914778207e-03
   169    3.080232068994e-02
   170   -9.256715147382e-15
   171    4.240851320086e-04
   172    7.318355046845e-15
   173    8.155883349711e-15
   174   -2.881542745869e-03
   175    1.147554039792e-03
   176   -1.705097394942e-02
   177   -2.765123762989e-02
   178    3.926935941386e-02
   179    5.580823808357e-02
   180    7.796168541728e-14
   181    6.946132870782e-02
   182    6.227230726306e-02
   183    7.859383995623e-02
   184    1.226070357195e-13
   185    1.505044402168e-01
   186    1.999369950321e-04
   187    8.026618971109e-02
   188    1.521539619309e-13
   189    4.797063853816e-01
   190   -8.229468809765e-02
   191    4.408843833539e-02
   192    5.447977541050e-14
   193   -7.520459206849e-04
   194    8.498998849000e-15
   195   -6.248236161700e-15
   196   -4.349646612392e-03
   197    2.857229522498e-03
   198    1.443661271768e-02
   199    1.798937007245e-02
   200    3.208314693302e-03
   201    3.649480451991e-02
   202   -1.996863005510e-03
   203    2.317919027999e-03
   204    2.815263086427e-15
Sym=X
Ene= 2.001839
Spin=Alpha
Occup=1
     1    6.072477766882e-04
     2    7.951245961585e-04
     3   -1.845976284077e-02
     4    4.005698684314e-03
     5   -4.697590830033e-13
     6   -3.393833761042e-03
     7   -2.940582778677e-02
     8    6.381328141802e-03
     9   -7.930608645123e-13
    10   -2.208983155444e-03
    11   -2.646703189986e-02
    12   -4.271464077380e-03
    13   -8.657838739111e-13
    14   -8.426348556278e-02
    15   -5.189072684331e-02
    16   -2.616770051033e-02
    17   -1.758943170963e-13
    18   -1.026936694046e-03
    19   -2.084320633182e-13
    20   -4.563957627804e-14
    21   -1.034064959042e-03
    22    6.205430144124e-03
    23    1.531524615725e-02
    24    3.201657049570e-02
    25    2.405829385048e-02
    26   -3.192813213604e-02
    27    3.073901582984e-03
    28    2.892056154219e-03
    29    6.800873433173e-14
    30   -1.365318947896e-04
    31   -1.678670237511e-03
    32    2.940240909923e-03
    33   -2.189505632832e-02
    34   -6.240357450874e-04
    35   -8.959731639030e-04
    36   -2.929877965544e-14
    37   -3.447109235310e-03
    38   -2.166207009534e-03
    39   -2.604231330675e-02
    40    6.769019416749e-03
    41    2.244363431205e-03
    42    2.454688408131e-03
    43   -5.340811458577e-14
    44    1.020758975834e-02
    45    1.631585276812e-02
    46   -6.549491658848e-03
    47   -6.869954039834e-03
    48    1.213661476052e-13
    49   -4.603927885979e-02
    50   -8.616966073913e-03
    51   -6.029132135210e-03
    52    2.350368511070e-13
    53   -2.660799413601e-02
    54   -6.100548273477e-02
    55   -9.631261936850e-02
    56    9.165366271942e-14
    57    8.679504344731e-03
    58   -5.374435526497e-02
    59   -7.790966100788e-02
    60   -5.668332658074e-14
    61    1.659915961514e-03
    62   -1.048389061439e-13
    63   -1.376278142101e-13
    64    5.391617981094e-02
    65    2.894466054728e-02
    66   -6.856059631326e-03
    67   -1.156033700277e-02
    68   -1.176502283970e-01
    69   -1.660350325198e-01
    70    1.679250408332e-13
    71    3.419880912386e-02
    72   -1.815077095535e-01
    73   -2.571637699226e-01
    74    2.568436971826e-13
    75    3.701984390748e-02
    76   -1.596770369467e-01
    77   -2.359240266284e-01
    78    2.079816514939e-13
    79    3.392806616688e-03
    80   -3.318249912956e-03
    81   -1.025734102351e-02
    82    8.269372071426e-15
    83    7.656048834579e-04
    84    1.184319093941e-14
    85   -1.360099722049e-14
    86   -1.287488889383e-02
    87   -5.378610396061e-03
    88    7.560594701296e-03
    89    1.101733516191e-02
    90   -5.881177838383e-02
    91   -9.047052424728e-02
    92   -1.903992110044e-13
    93   -3.165854658068e-02
    94   -9.074163360593e-02
    95   -1.518826310513e-01
    96   -3.740838904451e-13
    97   -2.158743617420e-02
    98   -1.525769813390e-02
    99   -2.815749453154e-02
   100   -1.570974730212e-13
   101   -8.934418391883e-02
   102    1.125527034990e-02
   103    3.129862298453e-02
   104    5.379452115003e-14
   105    5.990719665105e-03
   106    2.618755868196e-13
   107    1.619185745321e-13
   108   -2.601232242846e-02
   109   -5.710687935811e-03
   110    1.230062960056e-03
   111    1.449063904882e-03
   112    8.685668370478e-02
   113    1.920433362003e-01
   114    1.662945242781e-12
   115    1.195665584072e-03
   116    9.910591147641e-02
   117    2.187373970433e-01
   118    1.888138557280e-12
   119    7.543550524698e-02
   120    1.738185468570e-02
   121    1.284861166852e-01
   122    1.369792924512e-12
   123    1.096631088786e-02
   124    3.555780751362e-03
   125    5.804395169345e-03
   126    2.227635309654e-13
   127    7.757279611225e-03
   128   -5.747235550291e-14
   129   -2.939159267006e-14
   130   -4.579686125287e-03
   131   -1.377688888327e-02
   132   -6.634745261249e-03
   133   -1.148368578970e-02
   134   -2.968159460839e-02
   135   -1.699335048550e-02
   136   -7.973494496271e-13
   137    2.934743836464e-02
   138   -3.954757738246e-02
   139   -2.155991871337e-02
   140   -1.300984326523e-12
   141    1.014664619115e-01
   142   -8.515810280323e-02
   143   -2.562786207485e-02
   144   -1.289882545904e-12
   145    1.321476544027e-01
   146    5.933303796979e-03
   147    2.140456151345e-02
   148   -1.665375691573e-13
   149    1.315472729281e-03
   150   -3.072937750678e-14
   151    2.625006349705e-14
   152   -6.754299828399e-03
   153   -6.807338913612e-03
   154    1.181899274598e-02
   155    1.938817442018e-02
   156   -9.761312192784e-03
   157   -4.691859828952e-02
   158    6.636057333119e-13
   159   -5.100681961322e-02
   160   -1.230874944888e-02
   161   -6.711062458345e-02
   162    1.056847300855e-12
   163   -1.349960302286e-01
   164    1.265236173156e-03
   165   -8.667880156775e-02
   166    1.272177879639e-12
   167   -1.440043234859e-01
   168   -2.162970020278e-03
   169    8.347557633442e-03
   170    4.200842230035e-13
   171   -1.920472456235e-03
   172   -2.720006769306e-14
   173    4.603125836953e-14
   174   -5.495539959226e-04
   175   -9.551253379538e-04
   176   -1.253464739760e-02
   177   -2.003878946999e-02
   178   -1.293990929869e-02
   179    6.891759555247e-02
   180   -8.359279242463e-13
   181    4.876392004583e-02
   182   -1.801485486903e-02
   183    1.069370471114e-01
   184   -1.441236699565e-12
   185    7.317730893615e-02
   186   -3.176960926067e-02
   187    7.486316411174e-02
   188   -1.425220795095e-12
   189    2.016205476543e-01
   190   -5.420823541798e-02
   191    8.293557504516e-03
   192   -8.359161152946e-14
   193   -2.065553986772e-03
   194    1.051021075526e-13
   195   -9.297320402232e-15
   196   -7.761596188418e-03
   197   -2.638676261772e-03
   198   -2.844663812130e-02
   199   -4.448742217491e-02
   200    3.939366173068e-04
   201    2.260770441517e-02
   202    4.788913645095e-03
   203   -8.391622628588e-04
   204   -6.108208912574e-14
Sym=X
Ene= 2.001711
Spin=Alpha
Occup=1
     1    1.064058916458e-14
     2    1.012979981052e-13
     3    1.220728645245e-13
     4   -1.651269284440e-13
     5   -7.281805878668e-02
     6   -4.723544132784e-13
     7    1.914003039441e-13
     8   -2.478618673467e-13
     9   -1.243405687524e-01
    10    1.784813783936e-13
    11    3.440743840685e-14
    12    5.658792525528e-14
    13   -1.283802066498e-01
    14   -1.332836663217e-12
    15   -2.726593364789e-13
    16    4.335042548290e-13
    17   -1.797016499468e-02
    18    2.373607927800e-14
    19   -2.904646281928e-02
    20   -6.919767528095e-03
    21   -7.636452607592e-14
    22   -3.197242333816e-14
    23   -2.351068717440e-13
    24   -6.313481338206e-13
    25   -2.027109731040e-13
    26   -3.581577825353e-13
    27   -6.026166426752e-14
    28   -1.688813336407e-14
    29    8.733327307598e-03
    30    5.682849945418e-14
    31    1.601040350739e-13
    32    9.159957834588e-14
    33    4.205220485114e-13
    34    1.855045717207e-15
    35   -6.698051965856e-15
    36   -5.515103609427e-03
    37    1.039433793905e-13
    38    3.577733121884e-13
    39   -3.870862594609e-13
    40    6.454942222953e-13
    41   -1.713458348762e-14
    42   -4.706062122291e-14
    43   -8.382268187833e-03
    44   -1.183826972267e-13
    45   -2.275217184525e-13
    46    1.791485320863e-13
    47   -1.139064474198e-13
    48    1.486967338195e-02
    49    7.113284842230e-13
    50    2.722028731005e-13
    51   -2.433480045824e-13
    52    2.938118929148e-02
    53    4.170901439863e-13
    54    6.705130253902e-13
    55    9.503573667378e-13
    56    1.872266117968e-02
    57    5.926015610311e-13
    58    1.871667660840e-13
    59   -2.808779451454e-13
    60   -1.647204260225e-02
    61   -3.686986911822e-14
    62   -1.852265427860e-02
    63   -1.602991683007e-02
    64   -4.321162636907e-13
    65   -1.934512354384e-13
    66   -1.035967154989e-13
    67   -6.304609589684e-14
    68    7.543547015404e-13
    69    1.255594482577e-12
    70    2.338479893722e-02
    71   -1.551750784547e-13
    72    1.192685199974e-12
    73    1.969308829831e-12
    74    3.686220836484e-02
    75   -8.015834634889e-14
    76    1.002349928674e-12
    77    1.644463635287e-12
    78    2.909795674277e-02
    79   -2.352556535863e-13
    80    1.941559136426e-15
    81    3.868138399918e-13
    82    6.731324968889e-03
    83   -1.869487272184e-15
    84    2.216952696240e-03
    85   -1.918788627294e-03
    86    8.460226424101e-14
    87    4.473733635726e-14
    88   -2.377678908528e-13
    89   -2.890914199494e-13
    90    4.586157092560e-13
    91    4.366850375606e-13
    92   -3.044784059751e-02
    93    5.624680632265e-13
    94    7.300839685456e-13
    95    7.629809851503e-13
    96   -5.757548232062e-02
    97   -1.532099691240e-13
    98    2.653047999461e-13
    99    1.585274633587e-13
   100   -2.465192857842e-02
   101    2.275830519617e-12
   102    1.556708538614e-12
   103   -1.673294013993e-12
   104    1.230426729282e-02
   105   -4.082684019929e-14
   106    3.952777336254e-02
   107    2.414080928251e-02
   108    1.383407576051e-13
   109    6.225469727018e-14
   110   -8.425562070764e-15
   111   -1.001936440772e-14
   112   -6.937411672810e-13
   113   -1.248413120331e-12
   114    2.383757603316e-01
   115   -2.441287078172e-14
   116   -7.839049321648e-13
   117   -1.437850146389e-12
   118    2.700119210912e-01
   119   -5.485376030551e-13
   120   -1.105844761307e-13
   121   -8.706413588531e-13
   122    1.903203969474e-01
   123   -2.735290448916e-13
   124   -3.214016127860e-13
   125   -9.477441849306e-14
   126    3.086452692111e-02
   127   -5.419575697774e-14
   128   -8.029796114155e-03
   129   -4.109690739621e-03
   130    2.682722624851e-14
   131    1.011375605356e-13
   132    3.522134646695e-13
   133    3.018832154568e-13
   134    9.261527750351e-14
   135    1.656036737522e-13
   136   -1.166649602799e-01
   137   -1.909621804350e-14
   138    6.905315839290e-14
   139    2.532899734750e-13
   140   -1.895810211777e-01
   141   -8.616502004708e-13
   142    5.743815656618e-13
   143   -1.573583516042e-13
   144   -1.989938729127e-01