[Molden Format]
[Atoms] (Angs)
  C      1    6     -0.00714236     -1.70213747     -0.00000000
  H      2    1     -2.06882847     -1.44022412      0.00000000
  H      3    1     -0.12337987     -2.77567521      0.00000000
  H      4    1      0.04651892      1.98813947     -0.00000000
  C      5    6     -1.21953563      0.40211669      0.00000000
  O      6    8     -2.25921553      1.03043814      0.00000000
  C      7    6      1.28797806      0.34644937     -0.00000000
  O      8    8      2.31273661      1.00537216     -0.00000000
  N      9    7      0.03446295      0.97739857     -0.00000000
  N     10    7     -1.17287765     -0.98229824      0.00000000
  C     11    6      1.20107039     -1.10433419     -0.00000000
  H     12    1      2.11220096     -1.67699125     -0.00000000
[GTO]
1    0
S    6    1.000000
   4.56324000E+03    1.96665000E-03 
   6.82024000E+02    1.52306000E-02 
   1.54973000E+02    7.61269000E-02 
   4.44553000E+01    2.60801000E-01 
   1.30290000E+01    6.16462000E-01 
   1.82773000E+00    2.21006000E-01 
SP   3    1.000000
   2.09642000E+01    1.14660000E-01   4.02487000E-02 
   4.80331000E+00    9.19999000E-01   2.37594000E-01 
   1.45933000E+00   -3.03068000E-03   8.15854000E-01 
SP   1    1.000000
   4.83456000E-01    1.00000000E+00   1.00000000E+00 
SP   1    1.000000
   1.45585000E-01    1.00000000E+00   1.00000000E+00 
SP   1    1.000000
   4.38000000E-02    1.00000000E+00   1.00000000E+00 
D    1    1.000000
   6.26000000E-01    1.00000000E+00 

2    0
S    3    1.000000
   3.38650000E+01    2.54938000E-02 
   5.09479000E+00    1.90373000E-01 
   1.15879000E+00    8.52161000E-01 
S    1    1.000000
   3.25840000E-01    1.00000000E+00 
S    1    1.000000
   1.02741000E-01    1.00000000E+00 
S    1    1.000000
   3.60000000E-02    1.00000000E+00 
P    1    1.000000
   7.50000000E-01    1.00000000E+00 

3    0
S    3    1.000000
   3.38650000E+01    2.54938000E-02 
   5.09479000E+00    1.90373000E-01 
   1.15879000E+00    8.52161000E-01 
S    1    1.000000
   3.25840000E-01    1.00000000E+00 
S    1    1.000000
   1.02741000E-01    1.00000000E+00 
S    1    1.000000
   3.60000000E-02    1.00000000E+00 
P    1    1.000000
   7.50000000E-01    1.00000000E+00 

4    0
S    3    1.000000
   3.38650000E+01    2.54938000E-02 
   5.09479000E+00    1.90373000E-01 
   1.15879000E+00    8.52161000E-01 
S    1    1.000000
   3.25840000E-01    1.00000000E+00 
S    1    1.000000
   1.02741000E-01    1.00000000E+00 
S    1    1.000000
   3.60000000E-02    1.00000000E+00 
P    1    1.000000
   7.50000000E-01    1.00000000E+00 

5    0
S    6    1.000000
   4.56324000E+03    1.96665000E-03 
   6.82024000E+02    1.52306000E-02 
   1.54973000E+02    7.61269000E-02 
   4.44553000E+01    2.60801000E-01 
   1.30290000E+01    6.16462000E-01 
   1.82773000E+00    2.21006000E-01 
SP   3    1.000000
   2.09642000E+01    1.14660000E-01   4.02487000E-02 
   4.80331000E+00    9.19999000E-01   2.37594000E-01 
   1.45933000E+00   -3.03068000E-03   8.15854000E-01 
SP   1    1.000000
   4.83456000E-01    1.00000000E+00   1.00000000E+00 
SP   1    1.000000
   1.45585000E-01    1.00000000E+00   1.00000000E+00 
SP   1    1.000000
   4.38000000E-02    1.00000000E+00   1.00000000E+00 
D    1    1.000000
   6.26000000E-01    1.00000000E+00 

6    0
S    6    1.000000
   8.58850000E+03    1.89515000E-03 
   1.29723000E+03    1.43859000E-02 
   2.99296000E+02    7.07320000E-02 
   8.73771000E+01    2.40001000E-01 
   2.56789000E+01    5.94797000E-01 
   3.74004000E+00    2.80802000E-01 
SP   3    1.000000
   4.21175000E+01    1.13889000E-01   3.65114000E-02 
   9.62837000E+00    9.20811000E-01   2.37153000E-01 
   2.85332000E+00   -3.27447000E-03   8.19702000E-01 
SP   1    1.000000
   9.05661000E-01    1.00000000E+00   1.00000000E+00 
SP   1    1.000000
   2.55611000E-01    1.00000000E+00   1.00000000E+00 
SP   1    1.000000
   8.45000000E-02    1.00000000E+00   1.00000000E+00 
D    1    1.000000
   1.29200000E+00    1.00000000E+00 

7    0
S    6    1.000000
   4.56324000E+03    1.96665000E-03 
   6.82024000E+02    1.52306000E-02 
   1.54973000E+02    7.61269000E-02 
   4.44553000E+01    2.60801000E-01 
   1.30290000E+01    6.16462000E-01 
   1.82773000E+00    2.21006000E-01 
SP   3    1.000000
   2.09642000E+01    1.14660000E-01   4.02487000E-02 
   4.80331000E+00    9.19999000E-01   2.37594000E-01 
   1.45933000E+00   -3.03068000E-03   8.15854000E-01 
SP   1    1.000000
   4.83456000E-01    1.00000000E+00   1.00000000E+00 
SP   1    1.000000
   1.45585000E-01    1.00000000E+00   1.00000000E+00 
SP   1    1.000000
   4.38000000E-02    1.00000000E+00   1.00000000E+00 
D    1    1.000000
   6.26000000E-01    1.00000000E+00 

8    0
S    6    1.000000
   8.58850000E+03    1.89515000E-03 
   1.29723000E+03    1.43859000E-02 
   2.99296000E+02    7.07320000E-02 
   8.73771000E+01    2.40001000E-01 
   2.56789000E+01    5.94797000E-01 
   3.74004000E+00    2.80802000E-01 
SP   3    1.000000
   4.21175000E+01    1.13889000E-01   3.65114000E-02 
   9.62837000E+00    9.20811000E-01   2.37153000E-01 
   2.85332000E+00   -3.27447000E-03   8.19702000E-01 
SP   1    1.000000
   9.05661000E-01    1.00000000E+00   1.00000000E+00 
SP   1    1.000000
   2.55611000E-01    1.00000000E+00   1.00000000E+00 
SP   1    1.000000
   8.45000000E-02    1.00000000E+00   1.00000000E+00 
D    1    1.000000
   1.29200000E+00    1.00000000E+00 

9    0
S    6    1.000000
   6.29348000E+03    1.96979000E-03 
   9.49044000E+02    1.49613000E-02 
   2.18776000E+02    7.35006000E-02 
   6.36916000E+01    2.48937000E-01 
   1.88282000E+01    6.02460000E-01 
   2.72023000E+00    2.56202000E-01 
SP   3    1.000000
   3.06331000E+01    1.11906000E-01   3.83119000E-02 
   7.02614000E+00    9.21666000E-01   2.37403000E-01 
   2.11205000E+00   -2.56919000E-03   8.17592000E-01 
SP   1    1.000000
   6.84009000E-01    1.00000000E+00   1.00000000E+00 
SP   1    1.000000
   2.00878000E-01    1.00000000E+00   1.00000000E+00 
SP   1    1.000000
   6.39000000E-02    1.00000000E+00   1.00000000E+00 
D    1    1.000000
   9.13000000E-01    1.00000000E+00 

10    0
S    6    1.000000
   6.29348000E+03    1.96979000E-03 
   9.49044000E+02    1.49613000E-02 
   2.18776000E+02    7.35006000E-02 
   6.36916000E+01    2.48937000E-01 
   1.88282000E+01    6.02460000E-01 
   2.72023000E+00    2.56202000E-01 
SP   3    1.000000
   3.06331000E+01    1.11906000E-01   3.83119000E-02 
   7.02614000E+00    9.21666000E-01   2.37403000E-01 
   2.11205000E+00   -2.56919000E-03   8.17592000E-01 
SP   1    1.000000
   6.84009000E-01    1.00000000E+00   1.00000000E+00 
SP   1    1.000000
   2.00878000E-01    1.00000000E+00   1.00000000E+00 
SP   1    1.000000
   6.39000000E-02    1.00000000E+00   1.00000000E+00 
D    1    1.000000
   9.13000000E-01    1.00000000E+00 

11    0
S    6    1.000000
   4.56324000E+03    1.96665000E-03 
   6.82024000E+02    1.52306000E-02 
   1.54973000E+02    7.61269000E-02 
   4.44553000E+01    2.60801000E-01 
   1.30290000E+01    6.16462000E-01 
   1.82773000E+00    2.21006000E-01 
SP   3    1.000000
   2.09642000E+01    1.14660000E-01   4.02487000E-02 
   4.80331000E+00    9.19999000E-01   2.37594000E-01 
   1.45933000E+00   -3.03068000E-03   8.15854000E-01 
SP   1    1.000000
   4.83456000E-01    1.00000000E+00   1.00000000E+00 
SP   1    1.000000
   1.45585000E-01    1.00000000E+00   1.00000000E+00 
SP   1    1.000000
   4.38000000E-02    1.00000000E+00   1.00000000E+00 
D    1    1.000000
   6.26000000E-01    1.00000000E+00 

12    0
S    3    1.000000
   3.38650000E+01    2.54938000E-02 
   5.09479000E+00    1.90373000E-01 
   1.15879000E+00    8.52161000E-01 
S    1    1.000000
   3.25840000E-01    1.00000000E+00 
S    1    1.000000
   1.02741000E-01    1.00000000E+00 
S    1    1.000000
   3.60000000E-02    1.00000000E+00 
P    1    1.000000
   7.50000000E-01    1.00000000E+00 

[MO]
Sym=X
Ene= 2.007898
Spin=Alpha
Occup=1
     1   -8.049157168067e-15
     2   -2.168315838300e-15
     3    2.178114488750e-14
     4    2.389589889216e-15
     5   -3.739664627667e-02
     6   -2.786504147983e-14
     7    1.662286498913e-14
     8    2.408647352835e-14
     9   -6.499210582744e-02
    10    4.223587109840e-13
    11   -7.669238493852e-14
    12    1.464779838690e-13
    13   -3.717655810995e-02
    14   -5.989182370605e-12
    15   -1.664700623022e-12
    16   -7.679040389821e-13
    17   -3.064675725038e-03
    18   -5.738182456295e-15
    19    1.249002175054e-02
    20   -7.304917729972e-03
    21   -1.498150394528e-14
    22   -1.384588054848e-15
    23   -1.711140110817e-14
    24   -2.400191940276e-13
    25    1.029199957455e-13
    26   -4.993271104692e-13
    27   -1.408726041936e-14
    28   -6.323638447495e-15
    29   -8.864372172345e-03
    30    4.907832566800e-15
    31    5.763929662197e-15
    32    5.432976232399e-14
    33   -9.940990071972e-14
    34   -2.552443765915e-16
    35   -8.112845571841e-15
    36   -2.922931901711e-03
    37   -2.701299847554e-15
    38    1.907938768763e-13
    39   -4.881179698189e-13
    40    3.512964081570e-13
    41    5.669417254115e-15
    42   -9.424800612347e-15
    43    8.549706688154e-03
    44   -3.477450908517e-14
    45   -3.582350422961e-14
    46    1.216423843284e-14
    47    3.946496690549e-14
    48   -2.395725365109e-02
    49    2.522649635426e-14
    50    4.848514645141e-15
    51    3.829688589051e-14
    52   -4.202304387126e-02
    53    7.255745215003e-15
    54    1.640118008607e-13
    55    3.622936454740e-13
    56   -2.896318523423e-02
    57    1.277825026459e-12
    58    1.224946413531e-14
    59   -7.276465562858e-13
    60   -1.032505415526e-02
    61   -1.293275171760e-15
    62    1.818541957451e-02
    63    1.398834343419e-02
    64   -1.607351300334e-14
    65   -1.446245038526e-14
    66   -1.813301972904e-14
    67   -2.117469225209e-14
    68    3.977135916116e-14
    69    3.696506769693e-14
    70   -3.989832722539e-02
    71    3.073740598181e-14
    72    8.109016357238e-14
    73    8.697137104849e-14
    74   -6.272542176901e-02
    75    7.581168915475e-14
    76   -7.016704935872e-15
    77   -6.055283095810e-14
    78   -5.545927747056e-02
    79   -3.147676281290e-13
    80   -3.517129113476e-14
    81    2.750789107133e-13
    82    1.667137888313e-03
    83   -2.430614976840e-15
    84   -4.012363029914e-03
    85    2.744062411549e-03
    86    4.975571090015e-15
    87    1.127206240255e-16
    88    2.287850829737e-14
    89    2.846095738218e-14
    90    2.482734299506e-14
    91   -1.959717290848e-14
    92    1.130532514874e-01
    93   -4.473826758836e-14
    94    5.430348362615e-14
    95   -3.195810243678e-14
    96    2.000465793136e-01
    97   -4.026299053318e-13
    98   -4.495728753043e-15
    99    1.835299719791e-13
   100    1.113535313176e-01
   101   -1.389944063426e-12
   102    1.428770475225e-12
   103   -3.032075100834e-13
   104    3.667879482545e-02
   105    8.295142166229e-15
   106    1.358962189428e-02
   107    2.553180800134e-02
   108   -4.318884224940e-14
   109    1.681970292433e-14
   110    1.590387078614e-14
   111    2.424663893105e-14
   112   -1.139168880814e-13
   113    1.619120292192e-13
   114    2.470068856950e-01
   115   -8.789711925668e-14
   116   -1.175640435062e-13
   117    1.728740293039e-13
   118    2.889852663494e-01
   119   -2.299820069767e-14
   120   -2.981448688167e-14
   121    5.532428842327e-14
   122    1.773831341245e-01
   123   -5.226430445326e-14
   124   -2.017624215098e-13
   125   -1.660372812854e-13
   126   -1.332702872106e-02
   127    1.645122243727e-15
   128   -2.044866941880e-02
   129   -1.255807020236e-02
   130    6.423712398864e-15
   131   -3.601742024129e-15
   132    4.796583001314e-14
   133    5.439552838995e-14
   134   -4.925992689071e-14
   135    2.290658150021e-14
   136    1.077276531970e-01
   137   -7.436058724906e-14
   138   -9.527152301798e-14
   139    6.451769653237e-14
   140    1.782784006624e-01
   141   -3.378885044085e-13
   142   -4.180116369078e-14
   143   -3.271921645427e-13
   144    1.698696647165e-01
   145    1.444658553169e-12
   146    4.023364328662e-13
   147    4.760696083008e-13
   148    7.016992651228e-04
   149    6.071543328324e-15
   150    9.780398337776e-03
   151   -5.287507491057e-03
   152    5.718595766474e-15
   153    7.054076130738e-15
   154   -3.149789131629e-14
   155   -7.197199215161e-15
   156    8.004155114106e-16
   157    9.676502742976e-15
   158   -1.046779042719e-01
   159   -1.082138505466e-13
   160    4.551776147673e-14
   161    3.810842263346e-15
   162   -1.726530031672e-01
   163    1.254500275341e-13
   164   -4.718472738608e-13
   165    4.770833377356e-14
   166   -1.646370763628e-01
   167   -7.356537539989e-13
   168    1.793682345274e-14
   169    3.114378704961e-13
   170   -7.460495679005e-03
   171   -3.295526583282e-15
   172   -4.455645392156e-03
   173   -1.583346551459e-03
   174    8.384150482118e-15
   175    6.839198859003e-15
   176    1.310480282234e-13
   177    1.005026337254e-13
   178    3.508462513886e-15
   179    1.425716760297e-14
   180    8.948369574687e-03
   181    4.173012285547e-14
   182    3.192200416433e-15
   183    3.442883241943e-14
   184    1.728256956832e-02
   185    3.338788469307e-14
   186    5.252695632857e-16
   187    1.032396446282e-13
   188    1.711132136312e-03
   189    5.900119369098e-12
   190   -2.396073640829e-12
   191   -9.296928593291e-13
   192   -1.303271491626e-02
   193   -1.536872440123e-15
   194    4.066984449936e-03
   195    1.213591815323e-02
   196    1.475355521847e-15
   197    1.098722205123e-14
   198    2.523570126609e-15
   199    4.417859200009e-15
   200    1.481636018578e-13
   201    2.351537721377e-13
   202    9.236053753459e-16
   203    7.050753674595e-16
   204    1.231314631384e-03
Sym=X
Ene= 2.002635
Spin=Alpha
Occup=1
     1   -1.010661131831e-02
     2   -1.710611810642e-02
     3    2.698265164058e-02
     4    2.514548147326e-02
     5   -6.614695629123e-14
     6    4.704361226074e-02
     7    4.430062965559e-02
     8    4.189504666963e-02
     9   -1.200747511570e-13
    10    7.441650180065e-02
    11    3.158201493000e-02
    12    6.011789016364e-02
    13   -1.026456909773e-13
    14    2.220287824090e-01
    15    5.827627854473e-02
    16    4.280460290594e-02
    17    2.307414801443e-14
    18   -1.261791880285e-03
    19   -2.949327488179e-14
    20   -1.051183299109e-14
    21    8.745987792739e-03
    22   -2.053729308822e-05
    23    1.881920153463e-03
    24    6.713002654752e-03
    25    8.430789793205e-06
    26   -1.421251913709e-02
    27    5.034547049743e-04
    28    2.425629531893e-04
    29    3.909665811430e-15
    30   -1.744226955485e-02
    31   -2.390440567898e-02
    32   -1.014190199818e-02
    33    1.429520369852e-02
    34    1.390779922969e-03
    35    1.883696835144e-04
    36   -1.025088813179e-14
    37   -4.250170086989e-03
    38   -1.778767452000e-02
    39   -1.146576986197e-02
    40    4.980937016475e-02
    41    2.756557198396e-03
    42    6.477223391302e-04
    43   -5.971946986580e-16
    44    1.405807683724e-02
    45    2.329181656254e-02
    46   -3.591952641282e-02
    47   -1.630106745233e-02
    48   -4.375184109414e-14
    49   -6.492643860956e-02
    50   -6.054357531399e-02
    51   -2.582065913607e-02
    52   -9.079685954338e-14
    53   -6.666358527922e-02
    54   -5.378957777063e-02
    55   -1.830888882603e-02
    56    2.379000063457e-14
    57   -4.287966035887e-02
    58   -2.712824843006e-02
    59   -4.331111087766e-02
    60   -3.018198400400e-14
    61    1.946576781575e-03
    62   -1.298420659253e-15
    63   -1.119384197530e-14
    64    1.480291260300e-02
    65   -3.527595865562e-03
    66   -4.227391467691e-03
    67   -7.106803416850e-03
    68   -2.134551554177e-02
    69   -5.005402778541e-02
    70   -1.000494573467e-13
    71    2.059915690892e-02
    72   -3.466858076734e-02
    73   -7.666885132755e-02
    74   -1.323665926047e-13
    75    1.309418819310e-02
    76   -2.725759244647e-02
    77   -6.367959858907e-02
    78   -9.049539319917e-14
    79   -1.744015528211e-02
    80   -6.089475109326e-03
    81   -7.972765741250e-04
    82    2.301167689309e-15
    83   -1.409229162384e-04
    84   -5.460357112559e-15
    85    7.389458340724e-15
    86   -4.532772997392e-03
    87   -2.634095408894e-03
    88    1.007329016402e-02
    89    1.730544795959e-02
    90   -4.807451166884e-02
    91    4.341982267171e-02
    92    2.303349980824e-14
    93   -5.118498955453e-02
    94   -8.209065307229e-02
    95    8.199485154379e-02
    96    3.405442950721e-14
    97   -6.927305680072e-02
    98    6.312912159016e-03
    99   -1.463553375055e-02
   100    8.894353324594e-14
   101    2.016238686765e-01
   102    1.899576573068e-02
   103   -1.113605138339e-01
   104    3.832236090195e-14
   105    1.681916767277e-04
   106    3.587530821126e-14
   107    4.069449305631e-14
   108    5.471917374484e-02
   109   -3.479194628819e-02
   110    3.777048484652e-03
   111    5.262827860400e-03
   112    2.237598738615e-01
   113   -2.629929608772e-01
   114    3.438858484831e-13
   115   -1.382108554022e-02
   116    2.562186886399e-01
   117   -3.014577435491e-01
   118    3.656268380583e-13
   119    1.838409977956e-02
   120    1.678482082143e-01
   121   -2.239984667616e-01
   122    1.777627955865e-13
   123    2.679969637517e-02
   124   -7.734447288150e-03
   125   -6.081392052335e-03
   126    2.184292869667e-14
   127    2.472092149909e-03
   128   -1.861788498217e-14
   129   -5.875093282333e-15
   130   -1.234160905376e-02
   131    1.432242728666e-03
   132   -2.340806731466e-02
   133   -3.861005548922e-02
   134    8.261811763373e-02
   135   -2.755576559279e-02
   136   -5.649346998254e-14
   137    1.034443830044e-01
   138    1.301766799677e-01
   139   -3.506472059936e-02
   140   -8.749295072658e-14
   141    1.844949424103e-01
   142    9.575119432599e-02
   143   -5.389022735779e-02
   144   -1.168198506321e-13
   145    1.383007810817e-01
   146   -5.464584014614e-02
   147   -2.976291788935e-02
   148   -2.745084345590e-14
   149    1.010192785862e-03
   150    8.193635417980e-15
   151    3.868001058978e-15
   152    9.137236765663e-05
   153   -4.374066910122e-03
   154    2.042162003231e-03
   155    3.392904465104e-03
   156    5.875962696382e-04
   157   -8.643119027387e-03
   158    4.508424130327e-14
   159   -9.001782724037e-03
   160    1.836592333436e-03
   161   -1.162099726852e-02
   162    6.638796842395e-14
   163   -2.363123107387e-02
   164   -2.147403124260e-03
   165   -1.021988848259e-02
   166    5.145354256288e-14
   167   -6.144157087671e-02
   168   -9.922768330263e-03
   169   -3.226818574578e-02
   170    1.044682688053e-14
   171   -2.948597456294e-04
   172   -7.926430047572e-15
   173   -7.869493072282e-15
   174    2.958862971193e-03
   175   -8.314011227518e-04
   176    1.895457195158e-02
   177    3.079830631560e-02
   178   -4.031615815189e-02
   179   -6.008306864987e-02
   180   -8.813138070753e-14
   181   -7.724546747584e-02
   182   -6.408438716978e-02
   183   -8.570269883433e-02
   184   -1.402212282822e-13
   185   -1.561071113043e-01
   186   -1.069217271049e-03
   187   -8.155415707330e-02
   188   -1.695208453127e-13
   189   -4.445688272113e-01
   190    7.335845099078e-02
   191   -3.213424256962e-02
   192   -5.451050000228e-14
   193    1.122318385390e-03
   194   -6.056643061016e-15
   195    5.785817951745e-15
   196    4.949947577476e-03
   197   -2.427084828537e-03
   198   -1.511897749371e-02
   199   -1.874763876038e-02
   200   -2.218851455014e-03
   201   -3.267070825801e-02
   202    2.016922057968e-03
   203   -2.574809629803e-03
   204   -4.196967026994e-15
Sym=X
Ene= 2.002039
Spin=Alpha
Occup=1
     1   -1.091978131443e-14
     2   -9.250038554659e-14
     3    8.460782909378e-14
     4    6.450798939361e-14
     5    6.605389509602e-02
     6    4.471112688221e-13
     7    1.422676014273e-13
     8    8.458353913246e-14
     9    1.127580265737e-01
    10   -1.854619497034e-13
    11    2.730553023894e-13
    12   -8.942615635698e-14
    13    1.201748004745e-01
    14    1.661673745659e-12
    15    7.578324469241e-13
    16   -2.914510434260e-13
    17    1.672575452940e-02
    18   -7.708836865426e-15
    19    2.795221830393e-02
    20    6.300253483631e-03
    21    7.006387915258e-14
    22   -3.420546728005e-14
    23    4.837958393808e-14
    24    2.525888272775e-13
    25   -5.582349718458e-14
    26    7.283973235937e-13
    27    2.434873370902e-14
    28   -1.329111694325e-14
    29   -9.242685045343e-03
    30   -1.730876130170e-14
    31   -8.482669372120e-14
    32   -1.164153098683e-13
    33   -2.267013008665e-13
    34    4.995150152888e-15
    35    1.870052228641e-14
    36    4.948461657135e-03
    37   -3.914711241139e-14
    38   -2.828248157550e-13
    39    6.649672635473e-13
    40   -7.311670031327e-13
    41   -1.139842560894e-14
    42    1.083552855689e-14
    43    8.874458628459e-03
    44   -6.172962083587e-15
    45    1.824392389972e-14
    46   -9.961649202507e-14
    47    1.810222225463e-13
    48   -1.340149954792e-02
    49   -9.189260637284e-14
    50   -1.665591360547e-13
    51    2.913650188689e-13
    52   -2.676301916524e-02
    53   -4.303076320277e-14
    54    5.330125879413e-14
    55    1.684359016431e-13
    56   -1.660061928037e-02
    57   -5.422154929817e-13
    58    4.714305736301e-13
    59    1.155557435031e-12
    60    1.640412833003e-02
    61    1.432682498486e-14
    62    2.010489747203e-02
    63    1.664300422984e-02
    64   -2.105550093261e-13
    65   -1.417895255148e-13
    66    1.618794174507e-13
    67    1.812699414295e-13
    68    6.403610626618e-13
    69    7.025781924687e-13
    70   -2.517861785710e-02
    71   -2.569079073239e-13
    72    9.597879481949e-13
    73    1.062161913869e-12
    74   -3.956617394814e-02
    75   -3.793386232137e-13
    76    8.849047970589e-13
    77    1.146775414354e-12
    78   -3.235800934272e-02
    79    1.890055764326e-13
    80    3.363184738636e-14
    81   -2.644146042758e-13
    82   -8.123228900881e-03
    83   -7.950423575392e-15
    84   -2.210945432070e-03
    85    1.956828199710e-03
    86    6.735706778485e-14
    87    1.692922153016e-14
    88    1.275991168390e-13
    89    1.287798869882e-13
    90    2.588078102445e-13
    91    5.822261824163e-13
    92    2.861118082855e-02
    93   -1.161497773563e-13
    94    3.761539464019e-13
    95    9.458093666512e-13
    96    5.402798697080e-02
    97    4.519140295678e-13
    98   -7.746975760629e-14
    99    1.452628447696e-13
   100    2.397182393995e-02
   101   -1.319221855071e-12
   102   -1.646437384193e-12
   103    1.294350499940e-12
   104   -1.157550602890e-02
   105   -2.974696822390e-14
   106   -4.101110527020e-02
   107   -2.304664666914e-02
   108    1.552311817154e-13
   109    1.607524930781e-14
   110   -3.147174362321e-14
   111   -4.454762225605e-14
   112   -3.595278267671e-13
   113   -9.627838591893e-13
   114   -2.448106577888e-01
   115    1.367765036826e-13
   116   -4.214627646662e-13
   117   -1.082703505081e-12
   118   -2.773495287795e-01
   119   -2.860676761103e-13
   120   -1.199119941303e-13
   121   -5.891056947858e-13
   122   -1.949186627440e-01
   123    1.317567784299e-13
   124    2.860667305769e-13
   125    3.963323619114e-14
   126   -3.136389644563e-02
   127   -3.989941754735e-14
   128    8.070562051012e-03
   129    4.886283965569e-03
   130    2.492176070770e-14
   131    6.266161154921e-14
   132   -1.979030738387e-13
   133   -1.019826749352e-13
   134    2.249278870692e-13
   135    6.435565420475e-14
   136    1.243668331658e-01
   137   -3.313435311387e-13
   138    3.454213171224e-13
   139    4.380583865323e-14
   140    2.022488445850e-01
   141   -3.681194896345e-13
   142    3.945743179119e-13
   143    5.053366109830e-13
   144    2.121877446485e-01
   145   -2.740916320986e-12
   146   -3.506272310826e-13
   147   -5.492010830577e-13
   148    1.904455161565e-02
   149   -1.394436041760e-15
   150    3.891306302888e-03
   151   -4.807636605497e-03
   152    3.525717670469e-14
   153    1.836750522954e-14
   154    6.907158359516e-14
   155   -1.206155314374e-14
   156    4.940402466356e-14
   157   -5.526961679060e-14
   158   -9.136006159591e-02
   159    3.853058976460e-13
   160    1.535721173861e-14
   161   -1.145967745393e-13
   162   -1.482653158480e-01
   163    5.015326248623e-13
   164    5.236360753907e-13
   165    1.031539347729e-13
   166   -1.794042380116e-01
   167    1.794743463454e-12
   168    2.896182901295e-13
   169   -8.009619684192e-14
   170   -5.255434115296e-02
   171    1.253603550616e-14
   172    4.403808691651e-03
   173   -5.258276099783e-03
   174    3.229345713373e-14
   175   -1.104556460744e-14
   176    5.326960987324e-14
   177    5.170951643489e-14
   178    4.307866119955e-14
   179   -5.341021766598e-13
   180    1.161847849383e-01
   181   -3.808895659495e-14
   182    2.464070285158e-14
   183   -8.438235724013e-13
   184    1.987878960650e-01
   185   -1.738387675987e-13
   186    3.100717044442e-13
   187   -5.693320328094e-13
   188    2.012567541112e-01
   189    8.279057126206e-13
   190    1.694591495086e-12
   191    1.468859548410e-12
   192    1.685541588741e-02
   193    1.094336522191e-14
   194   -1.537702416610e-02
   195    2.842141127292e-03
   196    8.887283445209e-14
   197    2.409114000639e-15
   198    2.547841764538e-13
   199    4.177173429330e-13
   200   -3.854161869415e-13
   201   -4.409963631126e-15
   202   -5.212058078001e-14
   203    6.164655685381e-15
   204    8.454879499732e-03
Sym=X
Ene= 2.001855
Spin=Alpha
Occup=1
     1   -4.466114900308e-04
     2   -7.022923275067e-04
     3    1.825341082556e-02
     4   -1.109159141782e-02
     5   -3.435886085175e-13
     6    3.569624060545e-03
     7    2.904999605300e-02
     8   -1.774471679918e-02
     9   -5.951703119275e-13
    10    2.894670614768e-03
    11    2.437423632003e-02
    12   -5.712452383575e-03
    13   -5.864357016571e-13
    14    4.040715019290e-02
    15    4.605298372489e-02
    16    9.360757069069e-03
    17   -2.984283091946e-14
    18    1.240432778266e-03
    19   -1.232912781407e-13
    20   -3.110008047805e-14
    21   -1.161137621552e-03
    22   -5.114634668177e-03
    23   -1.754268440766e-02
    24   -3.588345297329e-02
    25   -2.523044295204e-02
    26    3.193365977514e-02
    27   -3.571908898950e-03
    28   -2.750260186114e-03
    29    3.635360911705e-14
    30    6.686254867360e-03
    31    1.167484845321e-02
    32   -2.429570327425e-03
    33    1.267818724464e-02
    34    6.443959575000e-04
    35    1.517901868692e-03
    36   -3.131430341110e-14
    37    5.086525941101e-03
    38    5.654518313105e-03
    39    2.562662686904e-02
    40   -1.030115021700e-02
    41   -2.509934576555e-03
    42   -2.524552993391e-03
    43   -4.632573993790e-14
    44   -1.227126652286e-02
    45   -1.997517246321e-02
    46    5.385117837143e-03
    47    5.800640269301e-03
    48    4.815882609817e-14
    49    5.748438324679e-02
    50    6.563510154302e-03
    51    4.233886322792e-03
    52    1.016562915247e-13
    53    3.991484453308e-02
    54    6.363321971835e-02
    55    9.745199008225e-02
    56    1.153472343860e-13
    57    1.261900333614e-02
    58    5.965456521681e-02
    59    7.677644612305e-02
    60   -1.327632404913e-13
    61   -1.953248441689e-03
    62   -1.178345687173e-13
    63   -5.193332224483e-14
    64   -5.604079174760e-02
    65   -2.933995595263e-02
    66    7.862160756300e-03
    67    1.327641303625e-02
    68    1.227396580706e-01
    69    1.681074409608e-01
    70    1.179037968954e-13
    71   -3.914040624233e-02
    72    1.893484659173e-01
    73    2.603207458870e-01
    74    1.934738759926e-13
    75   -4.528867953840e-02
    76    1.644182060969e-01
    77    2.404492528551e-01
    78    1.502270308812e-13
    79   -6.479567559729e-03
    80    2.772011104757e-03
    81    1.159337000254e-02
    82    7.545231212637e-14
    83   -8.583872785088e-04
    84    1.427204078649e-14
    85   -9.413887000137e-15
    86    1.329294111962e-02
    87    4.998734263697e-03
    88   -9.378024222054e-03
    89   -1.391172857071e-02
    90    6.432583669796e-02
    91    8.455371894028e-02
    92   -1.578099698889e-13
    93    3.962506738163e-02
    94    9.931384643057e-02
    95    1.411094858256e-01
    96   -2.829101423423e-13
    97    2.628624834292e-02
    98    1.614022308204e-02
    99    2.523518568562e-02
   100   -1.353397312904e-13
   101    4.520987137309e-02
   102   -4.579705266054e-03
   103   -1.995050489444e-02
   104    8.191649634311e-14
   105   -5.894879410099e-03
   106    2.030905370560e-13
   107    1.121199925986e-13
   108    2.194275305197e-02
   109    8.796256135124e-03
   110   -4.546198481400e-03
   111   -6.247985598807e-03
   112   -1.010842165045e-01
   113   -1.745184590920e-01
   114    1.123674334667e-12
   115    1.488367931232e-02
   116   -1.156018955072e-01
   117   -1.989071079325e-01
   118    1.271436560519e-12
   119   -6.941125831286e-02
   120   -2.825153063924e-02
   121   -1.123959855658e-01
   122    8.581696595365e-13
   123   -1.229060108334e-02
   124   -3.750196527863e-03
   125   -5.099128035623e-03
   126    1.406495700616e-13
   127   -8.178196047538e-03
   128   -3.506070518053e-14
   129   -2.176891909756e-14
   130    4.795517498725e-03
   131    1.387646903851e-02
   132    9.888752946167e-03
   133    1.682452299240e-02
   134    2.419314986224e-02
   135    2.196230019955e-02
   136   -5.942822325076e-13
   137   -4.353762196830e-02
   138    3.061043499586e-02
   139    2.892839088778e-02
   140   -9.609213922241e-13
   141   -1.209954668378e-01
   142    8.033869241130e-02
   143    3.385325836895e-02
   144   -1.083291318190e-12