[Molden Format]
[Atoms] (Angs)
  C      1    6     -0.00714236     -1.70213747     -0.00000000
  H      2    1     -2.06882847     -1.44022412      0.00000000
  H      3    1     -0.12337987     -2.77567521      0.00000000
  H      4    1      0.04651892      1.98813947     -0.00000000
  C      5    6     -1.21953563      0.40211669      0.00000000
  O      6    8     -2.25921553      1.03043814      0.00000000
  C      7    6      1.28797806      0.34644937     -0.00000000
  O      8    8      2.31273661      1.00537216     -0.00000000
  N      9    7      0.03446295      0.97739857     -0.00000000
  N     10    7     -1.17287765     -0.98229824      0.00000000
  C     11    6      1.20107039     -1.10433419     -0.00000000
  H     12    1      2.11220096     -1.67699125     -0.00000000
[GTO]
1    0
S    6    1.000000
   4.56324000E+03    1.96665000E-03 
   6.82024000E+02    1.52306000E-02 
   1.54973000E+02    7.61269000E-02 
   4.44553000E+01    2.60801000E-01 
   1.30290000E+01    6.16462000E-01 
   1.82773000E+00    2.21006000E-01 
SP   3    1.000000
   2.09642000E+01    1.14660000E-01   4.02487000E-02 
   4.80331000E+00    9.19999000E-01   2.37594000E-01 
   1.45933000E+00   -3.03068000E-03   8.15854000E-01 
SP   1    1.000000
   4.83456000E-01    1.00000000E+00   1.00000000E+00 
SP   1    1.000000
   1.45585000E-01    1.00000000E+00   1.00000000E+00 
SP   1    1.000000
   4.38000000E-02    1.00000000E+00   1.00000000E+00 
D    1    1.000000
   6.26000000E-01    1.00000000E+00 

2    0
S    3    1.000000
   3.38650000E+01    2.54938000E-02 
   5.09479000E+00    1.90373000E-01 
   1.15879000E+00    8.52161000E-01 
S    1    1.000000
   3.25840000E-01    1.00000000E+00 
S    1    1.000000
   1.02741000E-01    1.00000000E+00 
S    1    1.000000
   3.60000000E-02    1.00000000E+00 
P    1    1.000000
   7.50000000E-01    1.00000000E+00 

3    0
S    3    1.000000
   3.38650000E+01    2.54938000E-02 
   5.09479000E+00    1.90373000E-01 
   1.15879000E+00    8.52161000E-01 
S    1    1.000000
   3.25840000E-01    1.00000000E+00 
S    1    1.000000
   1.02741000E-01    1.00000000E+00 
S    1    1.000000
   3.60000000E-02    1.00000000E+00 
P    1    1.000000
   7.50000000E-01    1.00000000E+00 

4    0
S    3    1.000000
   3.38650000E+01    2.54938000E-02 
   5.09479000E+00    1.90373000E-01 
   1.15879000E+00    8.52161000E-01 
S    1    1.000000
   3.25840000E-01    1.00000000E+00 
S    1    1.000000
   1.02741000E-01    1.00000000E+00 
S    1    1.000000
   3.60000000E-02    1.00000000E+00 
P    1    1.000000
   7.50000000E-01    1.00000000E+00 

5    0
S    6    1.000000
   4.56324000E+03    1.96665000E-03 
   6.82024000E+02    1.52306000E-02 
   1.54973000E+02    7.61269000E-02 
   4.44553000E+01    2.60801000E-01 
   1.30290000E+01    6.16462000E-01 
   1.82773000E+00    2.21006000E-01 
SP   3    1.000000
   2.09642000E+01    1.14660000E-01   4.02487000E-02 
   4.80331000E+00    9.19999000E-01   2.37594000E-01 
   1.45933000E+00   -3.03068000E-03   8.15854000E-01 
SP   1    1.000000
   4.83456000E-01    1.00000000E+00   1.00000000E+00 
SP   1    1.000000
   1.45585000E-01    1.00000000E+00   1.00000000E+00 
SP   1    1.000000
   4.38000000E-02    1.00000000E+00   1.00000000E+00 
D    1    1.000000
   6.26000000E-01    1.00000000E+00 

6    0
S    6    1.000000
   8.58850000E+03    1.89515000E-03 
   1.29723000E+03    1.43859000E-02 
   2.99296000E+02    7.07320000E-02 
   8.73771000E+01    2.40001000E-01 
   2.56789000E+01    5.94797000E-01 
   3.74004000E+00    2.80802000E-01 
SP   3    1.000000
   4.21175000E+01    1.13889000E-01   3.65114000E-02 
   9.62837000E+00    9.20811000E-01   2.37153000E-01 
   2.85332000E+00   -3.27447000E-03   8.19702000E-01 
SP   1    1.000000
   9.05661000E-01    1.00000000E+00   1.00000000E+00 
SP   1    1.000000
   2.55611000E-01    1.00000000E+00   1.00000000E+00 
SP   1    1.000000
   8.45000000E-02    1.00000000E+00   1.00000000E+00 
D    1    1.000000
   1.29200000E+00    1.00000000E+00 

7    0
S    6    1.000000
   4.56324000E+03    1.96665000E-03 
   6.82024000E+02    1.52306000E-02 
   1.54973000E+02    7.61269000E-02 
   4.44553000E+01    2.60801000E-01 
   1.30290000E+01    6.16462000E-01 
   1.82773000E+00    2.21006000E-01 
SP   3    1.000000
   2.09642000E+01    1.14660000E-01   4.02487000E-02 
   4.80331000E+00    9.19999000E-01   2.37594000E-01 
   1.45933000E+00   -3.03068000E-03   8.15854000E-01 
SP   1    1.000000
   4.83456000E-01    1.00000000E+00   1.00000000E+00 
SP   1    1.000000
   1.45585000E-01    1.00000000E+00   1.00000000E+00 
SP   1    1.000000
   4.38000000E-02    1.00000000E+00   1.00000000E+00 
D    1    1.000000
   6.26000000E-01    1.00000000E+00 

8    0
S    6    1.000000
   8.58850000E+03    1.89515000E-03 
   1.29723000E+03    1.43859000E-02 
   2.99296000E+02    7.07320000E-02 
   8.73771000E+01    2.40001000E-01 
   2.56789000E+01    5.94797000E-01 
   3.74004000E+00    2.80802000E-01 
SP   3    1.000000
   4.21175000E+01    1.13889000E-01   3.65114000E-02 
   9.62837000E+00    9.20811000E-01   2.37153000E-01 
   2.85332000E+00   -3.27447000E-03   8.19702000E-01 
SP   1    1.000000
   9.05661000E-01    1.00000000E+00   1.00000000E+00 
SP   1    1.000000
   2.55611000E-01    1.00000000E+00   1.00000000E+00 
SP   1    1.000000
   8.45000000E-02    1.00000000E+00   1.00000000E+00 
D    1    1.000000
   1.29200000E+00    1.00000000E+00 

9    0
S    6    1.000000
   6.29348000E+03    1.96979000E-03 
   9.49044000E+02    1.49613000E-02 
   2.18776000E+02    7.35006000E-02 
   6.36916000E+01    2.48937000E-01 
   1.88282000E+01    6.02460000E-01 
   2.72023000E+00    2.56202000E-01 
SP   3    1.000000
   3.06331000E+01    1.11906000E-01   3.83119000E-02 
   7.02614000E+00    9.21666000E-01   2.37403000E-01 
   2.11205000E+00   -2.56919000E-03   8.17592000E-01 
SP   1    1.000000
   6.84009000E-01    1.00000000E+00   1.00000000E+00 
SP   1    1.000000
   2.00878000E-01    1.00000000E+00   1.00000000E+00 
SP   1    1.000000
   6.39000000E-02    1.00000000E+00   1.00000000E+00 
D    1    1.000000
   9.13000000E-01    1.00000000E+00 

10    0
S    6    1.000000
   6.29348000E+03    1.96979000E-03 
   9.49044000E+02    1.49613000E-02 
   2.18776000E+02    7.35006000E-02 
   6.36916000E+01    2.48937000E-01 
   1.88282000E+01    6.02460000E-01 
   2.72023000E+00    2.56202000E-01 
SP   3    1.000000
   3.06331000E+01    1.11906000E-01   3.83119000E-02 
   7.02614000E+00    9.21666000E-01   2.37403000E-01 
   2.11205000E+00   -2.56919000E-03   8.17592000E-01 
SP   1    1.000000
   6.84009000E-01    1.00000000E+00   1.00000000E+00 
SP   1    1.000000
   2.00878000E-01    1.00000000E+00   1.00000000E+00 
SP   1    1.000000
   6.39000000E-02    1.00000000E+00   1.00000000E+00 
D    1    1.000000
   9.13000000E-01    1.00000000E+00 

11    0
S    6    1.000000
   4.56324000E+03    1.96665000E-03 
   6.82024000E+02    1.52306000E-02 
   1.54973000E+02    7.61269000E-02 
   4.44553000E+01    2.60801000E-01 
   1.30290000E+01    6.16462000E-01 
   1.82773000E+00    2.21006000E-01 
SP   3    1.000000
   2.09642000E+01    1.14660000E-01   4.02487000E-02 
   4.80331000E+00    9.19999000E-01   2.37594000E-01 
   1.45933000E+00   -3.03068000E-03   8.15854000E-01 
SP   1    1.000000
   4.83456000E-01    1.00000000E+00   1.00000000E+00 
SP   1    1.000000
   1.45585000E-01    1.00000000E+00   1.00000000E+00 
SP   1    1.000000
   4.38000000E-02    1.00000000E+00   1.00000000E+00 
D    1    1.000000
   6.26000000E-01    1.00000000E+00 

12    0
S    3    1.000000
   3.38650000E+01    2.54938000E-02 
   5.09479000E+00    1.90373000E-01 
   1.15879000E+00    8.52161000E-01 
S    1    1.000000
   3.25840000E-01    1.00000000E+00 
S    1    1.000000
   1.02741000E-01    1.00000000E+00 
S    1    1.000000
   3.60000000E-02    1.00000000E+00 
P    1    1.000000
   7.50000000E-01    1.00000000E+00 

[MO]
Sym=X
Ene= 2.007842
Spin=Alpha
Occup=1
     1    1.173387713802e-14
     2    7.409597178560e-15
     3   -2.442233915089e-14
     4   -4.516399566874e-15
     5    3.436413833042e-02
     6    1.634918880744e-14
     7   -2.154466928349e-14
     8   -2.607922572335e-14
     9    5.972353136934e-02
    10   -4.159959952116e-13
    11    7.029586820597e-14
    12   -1.407833180679e-13
    13    3.298801743795e-02
    14    5.937191053055e-12
    15    1.637547615763e-12
    16    7.833765458644e-13
    17    1.532248585990e-03
    18    6.036911428582e-15
    19   -1.370357968805e-02
    20    6.709951217270e-03
    21    1.493131569587e-14
    22    9.717159879084e-16
    23    2.165252707583e-14
    24    2.351080592843e-13
    25   -9.398266662509e-14
    26    4.807553206463e-13
    27    1.376585894904e-14
    28    5.847185965052e-15
    29    9.235367952037e-03
    30   -5.601317542501e-15
    31   -5.415744708811e-15
    32   -5.049223809866e-14
    33    1.167137728080e-13
    34    4.036473336323e-16
    35    7.822716783693e-15
    36    2.762459457446e-03
    37   -4.304300439775e-15
    38   -1.992968250478e-13
    39    4.789743674227e-13
    40   -3.283502277675e-13
    41   -5.231477067905e-15
    42    1.213252792523e-14
    43   -9.104467294654e-03
    44    3.648254652682e-14
    45    3.712859538711e-14
    46   -1.542617649478e-14
    47   -4.035050141550e-14
    48    2.319505195275e-02
    49   -2.451892275722e-14
    50   -1.090261099500e-14
    51   -4.069702836824e-14
    52    4.079928299546e-02
    53   -1.559624070574e-14
    54   -1.530320346201e-13
    55   -3.556124988965e-13
    56    2.794094465819e-02
    57   -1.267906908825e-12
    58   -2.175593946631e-14
    59    6.991894221890e-13
    60    6.020357743282e-03
    61    1.428387417823e-15
    62   -1.796750527633e-02
    63   -1.421694451701e-02
    64    1.581536526167e-14
    65    1.196481068331e-14
    66    1.458879517622e-14
    67    1.667815657911e-14
    68   -3.864223334594e-14
    69   -3.717609107356e-14
    70    3.830324660838e-02
    71   -2.056838983011e-14
    72   -7.922978783420e-14
    73   -8.613156200601e-14
    74    6.025874059996e-02
    75   -6.300799180483e-14
    76    8.171387774057e-15
    77    5.593764945838e-14
    78    5.297788583326e-02
    79    3.210589395985e-13
    80    3.861949044449e-14
    81   -2.701710170704e-13
    82   -7.140955426805e-04
    83    2.429217603569e-15
    84    3.836639734925e-03
    85   -2.638374080272e-03
    86   -4.880217235988e-15
    87   -6.048006441217e-16
    88   -2.892019986530e-14
    89   -3.425438364545e-14
    90   -2.542053829973e-14
    91    2.008227137156e-14
    92   -1.147194291541e-01
    93    4.993856692598e-14
    94   -5.562040412705e-14
    95    3.451253158814e-14
    96   -2.030066881619e-01
    97    3.969377972574e-13
    98    8.306533167547e-15
    99   -1.778519677360e-13
   100   -1.127040229108e-01
   101    1.522761376693e-12
   102   -1.403924570570e-12
   103    2.447144821478e-13
   104   -3.640185617976e-02
   105   -8.072236424221e-15
   106   -1.269737273486e-02
   107   -2.507912141546e-02
   108    4.482252249890e-14
   109   -1.710758706102e-14
   110   -1.540600173123e-14
   111   -2.317555347155e-14
   112    1.171881917734e-13
   113   -1.708290870435e-13
   114   -2.422821431580e-01
   115    8.470145678734e-14
   116    1.216067231878e-13
   117   -1.831909347974e-13
   118   -2.837812524282e-01
   119    1.886314397778e-14
   120    3.601843759055e-14
   121   -6.495640460634e-14
   122   -1.740858336849e-01
   123    4.370661979904e-14
   124    1.976875929379e-13
   125    1.664691675663e-13
   126    1.380662236306e-02
   127   -1.379799437270e-15
   128    2.042914793781e-02
   129    1.217605047562e-02
   130   -6.511216398678e-15
   131    4.062307563603e-15
   132   -4.340271224924e-14
   133   -4.804812821181e-14
   134    5.347173425534e-14
   135   -2.901773493279e-14
   136   -1.101457807338e-01
   137    6.090490499443e-14
   138    1.015564242326e-13
   139   -7.256434562541e-14
   140   -1.822129512955e-01
   141    3.255051903245e-13
   142    4.756183987158e-14
   143    3.130736648559e-13
   144   -1.725829778779e-01
   145   -1.407204709714e-12
   146   -3.968934056624e-13
   147   -4.669807823430e-13
   148   -1.268269282216e-04
   149   -6.394655154668e-15
   150   -1.015409690738e-02
   151    5.193337584196e-03
   152   -5.123291329243e-15
   153   -7.567807997160e-15
   154    2.863668731249e-14
   155    3.346571986474e-15
   156   -4.419439140507e-15
   157   -1.082512065115e-14
   158    1.060181608042e-01
   159    1.168804834375e-13
   160   -5.079220502062e-14
   161   -5.666340719866e-15
   162    1.748513028370e-01
   163   -1.137313491475e-13
   164    4.519670030909e-13
   165   -4.731440158953e-14
   166    1.674548589417e-01
   167    6.926522428799e-13
   168   -1.291638478221e-14
   169   -3.092995970886e-13
   170    1.017496212026e-02
   171    2.283622210828e-15
   172    4.264053727760e-03
   173    1.331332584295e-03
   174   -7.786119874350e-15
   175   -6.838905249552e-15
   176   -1.316826095681e-13
   177   -9.948168197125e-14
   178    1.010028922847e-15
   179   -1.402093847926e-14
   180   -1.403060077263e-02
   181   -5.005786573895e-14
   182    4.198917143109e-15
   183   -3.273548220552e-14
   184   -2.601667166466e-02
   185   -3.286854630869e-14
   186    2.834436906773e-15
   187   -1.053323126241e-13
   188   -1.083480299322e-02
   189   -5.996599512640e-12
   190    2.376529757778e-12
   191    8.611335465079e-13
   192    1.508839757572e-02
   193    9.656501862483e-16
   194   -3.384921930904e-03
   195   -1.227552089507e-02
   196   -2.613956242215e-15
   197   -1.157617898239e-14
   198   -7.795173994326e-16
   199   -3.668827000458e-15
   200   -1.433400364298e-13
   201   -2.498828162500e-13
   202   -3.747754173672e-16
   203   -5.116520305221e-16
   204   -1.603159134894e-03
Sym=X
Ene= 2.002760
Spin=Alpha
Occup=1
     1    9.359829604733e-03
     2    1.588346320610e-02
     3   -2.405433981133e-02
     4   -2.304394808725e-02
     5    3.645794074595e-14
     6   -4.400798570939e-02
     7   -4.005820708068e-02
     8   -3.871686807865e-02
     9    6.987754924955e-14
    10   -7.189772384449e-02
    11   -2.986143751298e-02
    12   -5.684834555643e-02
    13    4.420225847926e-14
    14   -2.181791575550e-01
    15   -5.732853233146e-02
    16   -4.458816585301e-02
    17   -3.460023938375e-14
    18    1.182421314843e-03
    19    1.436267155997e-14
    20    7.990769293866e-15
    21   -8.591388595194e-03
    22    4.849752594868e-04
    23   -1.497216918807e-03
    24   -5.260636185727e-03
    25   -6.660602981148e-04
    26    1.175875781478e-02
    27   -4.948070929848e-04
    28   -2.124481261687e-04
    29    1.852399304675e-15
    30    1.625619951822e-02
    31    2.245525298594e-02
    32    1.023821425503e-02
    33   -1.835231473731e-02
    34   -1.297180990989e-03
    35   -3.618301915518e-04
    36    8.660841098677e-15
    37    2.366904190704e-03
    38    1.543485780140e-02
    39    1.479947460766e-02
    40   -4.648785349769e-02
    41   -2.738620526675e-03
    42   -3.635897670342e-04
    43   -3.473646957085e-15
    44   -1.382916012136e-02
    45   -2.285117530737e-02
    46    3.738940261276e-02
    47    1.597827618823e-02
    48    5.160021281540e-14
    49    6.331709465019e-02
    50    6.276764319510e-02
    51    2.542197901115e-02
    52    1.061461356987e-13
    53    6.223560715669e-02
    54    5.096332243992e-02
    55    1.620806259930e-02
    56   -1.797005500415e-14
    57    4.746230735200e-02
    58    2.668908476005e-02
    59    4.040692064653e-02
    60    2.467297521871e-14
    61   -1.975804380472e-03
    62   -5.443380189662e-15
    63   -2.973770232014e-16
    64   -1.295958868995e-02
    65    4.303231924151e-03
    66    3.926337585669e-03
    67    6.574423032441e-03
    68    1.720176997628e-02
    69    4.643447390587e-02
    70    1.060527924071e-13
    71   -1.889909734409e-02
    72    2.826012694936e-02
    73    7.109567615031e-02
    74    1.412240013837e-13
    75   -1.053506746999e-02
    76    2.250528655398e-02
    77    5.846877978389e-02
    78    9.614586490683e-14
    79    1.767329658322e-02
    80    6.037429879323e-03
    81    8.571666270527e-04
    82   -3.176533908820e-15
    83    2.489045871535e-04
    84    5.991676877954e-15
    85   -8.046394314122e-15
    86    4.154661900857e-03
    87    2.664065929066e-03
    88   -8.014425308509e-03
    89   -1.378680004052e-02
    90    4.342410686710e-02
    91   -4.065295517639e-02
    92   -4.014195285749e-14
    93    4.079991660917e-02
    94    7.393124894033e-02
    95   -7.860672488456e-02
    96   -6.567209668175e-14
    97    5.627432778480e-02
    98   -6.342090028233e-03
    99    1.541704541638e-02
   100   -1.054825625249e-13
   101   -2.261686322077e-01
   102   -1.823026059730e-02
   103    1.205718527444e-01
   104   -3.953955041449e-14
   105    2.675993651025e-04
   106   -1.826687863025e-14
   107   -3.020795040645e-14
   108   -5.470008149165e-02
   109    3.447962781942e-02
   110   -6.033659826308e-03
   111   -8.580964870618e-03
   112   -2.200632807347e-01
   113    2.751469300384e-01
   114   -2.374611779064e-13
   115    2.550387295909e-02
   116   -2.524298763053e-01
   117    3.156257605820e-01
   118   -2.446397237965e-13
   119   -7.072254731072e-03
   120   -1.686887137787e-01
   121    2.326880319768e-01
   122   -9.167261803439e-14
   123   -2.204775008922e-02
   124    6.394791324936e-03
   125    5.534716321808e-03
   126   -3.230628351161e-15
   127   -2.335762305902e-03
   128    1.565946970008e-14
   129    3.561077559673e-15
   130    1.227886899850e-02
   131   -2.571596176400e-03
   132    2.235498038742e-02
   133    3.686852232097e-02
   134   -8.254681418992e-02
   135    2.375551006571e-02
   136   -1.045373526820e-15
   137   -9.891643338233e-02
   138   -1.300252260048e-01
   139    2.916248669428e-02
   140   -6.131844867677e-15
   141   -1.759229337126e-01
   142   -9.693058107233e-02
   143    4.682071775318e-02
   144    2.299252047707e-14
   145   -1.331790543799e-01
   146    5.457436775295e-02
   147    2.312674397064e-02
   148    1.919524196987e-14
   149   -1.009266321493e-03
   150   -1.044668022493e-14
   151   -1.888397666414e-15
   152   -1.123992880561e-05
   153    4.128222176747e-03
   154   -1.333017521435e-03
   155   -2.209953287582e-03
   156   -1.161755223316e-03
   157    7.864887339539e-03
   158    1.123447994583e-14
   159    5.745551304088e-03
   160   -2.690492685351e-03
   161    1.063698382445e-02
   162    2.321467916196e-14
   163    1.901909967498e-02
   164    1.442507509903e-03
   165    8.625544749546e-03
   166    5.615103155282e-14
   167    5.575455284547e-02
   168    7.315645069437e-03
   169    2.958164399913e-02
   170    1.703375568962e-14
   171    2.610763025135e-04
   172    6.329256087930e-15
   173    1.100949536117e-14
   174   -2.782918222047e-03
   175    1.068297860447e-03
   176   -1.825360008414e-02
   177   -2.950697505088e-02
   178    3.544764691409e-02
   179    5.748065104697e-02
   180    2.981430797282e-14
   181    7.364335644798e-02
   182    5.666228948778e-02
   183    8.093751710940e-02
   184    3.958313808274e-14
   185    1.539349598647e-01
   186   -2.219357456899e-03
   187    8.092951218577e-02
   188    6.982071861570e-14
   189    4.678919112877e-01
   190   -7.090438360970e-02
   191    3.719964265860e-02
   192    5.114810699355e-14
   193   -8.673092311506e-04
   194    1.363735757158e-14
   195   -7.349217025592e-15
   196   -3.766052218917e-03
   197    2.503195031130e-03
   198    1.249052059952e-02
   199    1.496355647721e-02
   200    1.793647774916e-03
   201    2.686952327291e-02
   202   -1.659887934563e-03
   203    2.019661923686e-03
   204   -1.149623660328e-16
Sym=X
Ene= 2.001835
Spin=Alpha
Occup=1
     1    5.617006068444e-04
     2    7.215579870167e-04
     3   -8.211760272752e-03
     4    1.127233477441e-02
     5   -1.059283183724e-13
     6   -3.174731436388e-03
     7   -1.307908220217e-02
     8    1.759396498827e-02
     9   -1.717713007624e-13
    10    1.104952519146e-03
    11   -2.084945667013e-02
    12    8.236175294421e-03
    13   -2.401673742238e-13
    14   -2.747323427784e-02
    15   -3.865719614210e-02
    16   -6.473202725022e-03
    17   -7.802653111422e-14
    18   -9.200808583240e-04
    19   -7.363671080685e-14
    20   -9.800685654046e-15
    21    9.719936781318e-04
    22    7.061052060601e-03
    23    2.035476615921e-02
    24    3.996018371693e-02
    25    2.416084226912e-02
    26   -3.237241305252e-02
    27    3.727784306665e-03
    28    3.096586095343e-03
    29    2.964698102160e-14
    30   -7.377105290539e-03
    31   -1.253369248401e-02
    32    2.424074680087e-03
    33   -1.058039455911e-02
    34   -1.833835185311e-04
    35   -1.675710067974e-03
    36   -2.806167114797e-15
    37   -9.116976140774e-03
    38   -1.012200584466e-02
    39   -2.487609082124e-02
    40    1.124765982412e-02
    41    2.510602226785e-03
    42    3.128148502980e-03
    43   -1.373163664563e-14
    44    1.201125434072e-02
    45    1.945923571695e-02
    46   -5.261704272445e-03
    47   -1.018936768371e-02
    48    5.171410088090e-14
    49   -5.602915165119e-02
    50   -6.808687216076e-03
    51   -1.156962651322e-02
    52    9.504178095067e-14
    53   -3.940933202617e-02
    54   -6.169135195137e-02
    55   -9.363598723321e-02
    56    1.681534708501e-15
    57   -7.635697108832e-03
    58   -5.756183121208e-02
    59   -7.630073435461e-02
    60    2.960500279674e-14
    61    1.880255264812e-03
    62   -1.338392576283e-14
    63   -6.642224283112e-14
    64    5.416450200339e-02
    65    2.871417660625e-02
    66   -8.105957864219e-03
    67   -1.366881180549e-02
    68   -1.213319123126e-01
    69   -1.618531287728e-01
    70    4.196343986744e-14
    71    4.032833334856e-02
    72   -1.870833472770e-01
    73   -2.506694114400e-01
    74    5.990489550116e-14
    75    4.710858032649e-02
    76   -1.622532676086e-01
    77   -2.323835583383e-01
    78    5.336746395239e-14
    79    5.507442015594e-03
    80   -3.669297525753e-03
    81   -1.156779758965e-02
    82   -2.659636918156e-14
    83    9.955467132197e-04
    84    5.677334979440e-16
    85   -3.796151757649e-15
    86   -1.315080191737e-02
    87   -4.727957428521e-03
    88    1.168431789276e-02
    89    1.756052813135e-02
    90   -7.112540762003e-02
    91   -8.170536916659e-02
    92   -2.920798230729e-14
    93   -4.919738660453e-02
    94   -1.104006042642e-01
    95   -1.360791599803e-01
    96   -7.357015649053e-14
    97   -3.552493093430e-02
    98   -1.595949985256e-02
    99   -2.615349294415e-02
   100   -1.974042383566e-14
   101   -6.072753039778e-02
   102    6.987942887075e-03
   103    2.319571705763e-02
   104    1.492435111412e-14
   105    6.457719890606e-03
   106    7.654673589802e-14
   107    4.875339841845e-14
   108   -2.003931216286e-02
   109   -1.014577176635e-02
   110    4.278954568602e-03
   111    5.822277289725e-03
   112    1.139858887760e-01
   113    1.749915333281e-01
   114    5.805879899584e-13
   115   -1.289854605371e-02
   116    1.304629542172e-01
   117    1.996540618005e-01
   118    6.591650488906e-13
   119    7.538983576270e-02
   120    3.608769904735e-02
   121    1.110978485704e-01
   122    4.967055226021e-13
   123    1.691146041630e-02
   124    2.348243383769e-03
   125    4.266665274005e-03
   126    6.828808690966e-14
   127    8.611295074044e-03
   128   -2.203143654889e-14
   129   -1.174428240183e-14
   130   -5.351087465485e-03
   131   -1.463991949502e-02
   132   -9.524039800253e-03
   133   -1.627152963535e-02
   134   -1.931193402989e-02
   135   -2.700996845961e-02
   136   -2.381965918582e-13
   137    4.236147598195e-02
   138   -2.330323711356e-02
   139   -3.688746208312e-02
   140   -3.928532647057e-13
   141    1.202865713874e-01
   142   -7.147060632152e-02
   143   -4.123497618029e-02
   144   -3.338609261167e-13
   145    1.403031291063e-01
   146   -2.268280090081e-03
   147    1.388686702168e-02
   148   -9.247060647936e-14
   149    1.355816990186e-03
   150   -9.507134362000e-15
   151    3.731218189011e-15
   152   -6.096072313782e-03
   153   -7.216196517490e-03
   154    1.103519738212e-02
   155    1.823013917362e-02
   156   -1.525930734157e-02
   157   -4.648320868690e-02
   158    2.782256577018e-13
   159   -4.870263226952e-02
   160   -2.098042442995e-02
   161   -6.643101136258e-02
   162    4.315935661051e-13
   163   -1.317045667626e-01
   164   -6.102885845767e-03
   165   -8.423080836859e-02
   166    4.824187115142e-13
   167   -1.498557898576e-01
   168   -6.863373733224e-03
   169    2.118682671661e-03
   170    1.619310690655e-13
   171   -2.076426363701e-03
   172   -3.473468167019e-15
   173    1.772595855590e-14
   174    1.572843378559e-04
   175    1.470909817956e-04
   176   -1.127594929153e-02
   177   -1.795340348290e-02
   178   -2.153406651366e-02
   179    5.613024507986e-02
   180   -2.301319583689e-13
   181    4.311249502474e-02
   182   -3.091695585858e-02
   183    8.775611990985e-02
   184   -4.047918993734e-13
   185    6.128226986644e-02
   186   -3.475504786796e-02
   187    5.967849316486e-02
   188   -3.755511026769e-13
   189    1.229186854396e-01
   190   -3.312688356288e-02
   191    3.133495470078e-03
   192   -2.484184422253e-14
   193   -1.942403916094e-03
   194    2.116504325220e-14
   195    3.480668094259e-15
   196   -5.735055232684e-03
   197   -3.145929681428e-03
   198   -2.934189522783e-02
   199   -4.611295004920e-02
   200   -3.555363874502e-04
   201    1.300806654331e-02
   202    4.850917322343e-03
   203   -1.535996766916e-03
   204   -1.620815593937e-14
Sym=X
Ene= 2.001396
Spin=Alpha
Occup=1
     1    5.658826426830e-15
     2   -9.962026441989e-14
     3   -4.862805816439e-14
     4    1.752071232580e-13
     5    6.290736303352e-02
     6    5.433295627908e-13
     7   -7.450124654064e-14
     8    2.617827297202e-13
     9    1.072926718142e-01
    10   -1.915895727690e-13
    11    1.125009853858e-13
    12   -3.012461330301e-14
    13    1.177124100320e-01
    14    1.079964088947e-12
    15    3.215610089032e-13
    16   -4.067256059520e-13
    17    1.444620535338e-02
    18   -2.324510949695e-14
    19    2.905260478512e-02
    20    5.024643775207e-03
    21    1.022049897071e-13
    22   -2.689854915782e-15
    23    2.509794740797e-13
    24    6.070100711930e-13
    25    1.332395903293e-13
    26    5.126713610515e-13
    27    6.335602827709e-14
    28    4.347195610209e-15
    29   -9.966944862878e-03
    30   -7.769934943248e-14
    31   -2.009835387692e-13
    32   -1.214299421621e-13
    33   -3.338669124451e-13
    34    8.558059270003e-16
    35    1.111419723671e-14
    36    4.972699522682e-03
    37   -1.083740124803e-13
    38   -3.769089240167e-13
    39    5.099646017368e-13
    40   -6.931287820204e-13
    41    5.545791129917e-15
    42    3.601109553704e-14
    43    8.887063207088e-03
    44    9.950050180283e-14
    45    2.019036093961e-13
    46   -1.391390927004e-13
    47    2.041919597986e-13
    48   -1.391835919095e-02
    49   -6.450297255843e-13
    50   -2.161551671797e-13
    51    3.631200417714e-13
    52   -2.758390076896e-02
    53   -3.784194648999e-13
    54   -3.642354553452e-13
    55   -4.631909535049e-13
    56   -1.502073975593e-02
    57   -6.712644108725e-13
    58    6.558600943243e-14
    59    6.735376002890e-13
    60    1.155871507282e-02
    61    3.656230434800e-14
    62    1.754944221845e-02
    63    1.795018187457e-02
    64    1.738192763950e-13
    65    5.819860302264e-14
    66    1.496701306280e-13
    67    1.215140004674e-13
    68   -1.882426411231e-13
    69   -4.038026550565e-13
    70   -1.841063528890e-02
    71    4.193561597235e-14
    72   -3.184150660072e-13
    73   -6.515140795876e-13
    74   -2.905120026529e-02
    75   -2.967612391534e-14
    76   -2.207470549382e-13
    77   -4.469176390903e-13
    78   -2.229632188834e-02
    79    2.488751968213e-13
    80    1.802603843450e-14
    81   -3.592182873842e-13
    82   -4.808800609647e-03
    83   -1.149418479562e-15
    84   -1.808700470414e-03
    85    1.704747130877e-03
    86   -1.903918621091e-14
    87   -1.351971407087e-14
    88    2.537160701814e-13
    89    2.883333107929e-13
    90   -1.950688815148e-13
    91    2.927486791427e-14
    92    2.375011946306e-02
    93   -4.605841208651e-13
    94   -3.263309741597e-13
    95    1.245825170712e-14
    96    4.611065222758e-02
    97    2.491674809985e-13
    98   -2.031810652396e-13
    99    1.577385637325e-14
   100    1.970857831250e-02
   101   -1.636259743281e-12
   102   -1.671666970750e-12
   103    1.501798164495e-12
   104   -1.652885596376e-02
   105    1.281916739251e-14
   106   -4.073991957705e-02
   107   -2.351023573658e-02
   108   -1.950315843934e-14
   109   -3.482108059929e-14
   110   -2.092448879898e-15
   111   -3.780165122358e-15
   112    2.594435311790e-13
   113    4.003320602262e-13
   114   -2.545957821824e-01
   115    4.485577796745e-14
   116    2.856886610985e-13
   117    4.742490004584e-13
   118   -2.887431280671e-01
   119    2.044866923134e-13
   120    7.888343286998e-15
   121    3.100137304455e-13
   122   -2.019130875479e-01
   123    2.172652858982e-13
   124    3.264586458376e-13
   125    7.272664487662e-14
   126   -2.927278644986e-02
   127    1.725488921235e-14
   128    8.847672642048e-03
   129    4.959463613030e-03
   130   -5.673176402123e-17
   131   -3.903999405903e-14
   132   -3.679017178775e-13
   133   -2.823365692115e-13
   134    5.801762779463e-14
   135   -9.932348077575e-14
   136    1.177058810103e-01
   137   -1.433021347170e-13
   138    1.360335833100e-13
   139   -1.800885763547e-13
   140    1.914810515916e-01
   141    3.589592335436e-13
   142   -1.645559332148e-13
   143    2.739291308653e-13
   144    2.001529814497e-01