[Molden Format]
[Atoms] (Angs)
  C      1    6     -0.00714236     -1.70213747     -0.00000000
  H      2    1     -2.06882847     -1.44022412      0.00000000
  H      3    1     -0.12337987     -2.77567521      0.00000000
  H      4    1      0.04651892      1.98813947     -0.00000000
  C      5    6     -1.21953563      0.40211669      0.00000000
  O      6    8     -2.25921553      1.03043814      0.00000000
  C      7    6      1.28797806      0.34644937     -0.00000000
  O      8    8      2.31273661      1.00537216     -0.00000000
  N      9    7      0.03446295      0.97739857     -0.00000000
  N     10    7     -1.17287765     -0.98229824      0.00000000
  C     11    6      1.20107039     -1.10433419     -0.00000000
  H     12    1      2.11220096     -1.67699125     -0.00000000
[GTO]
1    0
S    6    1.000000
   4.56324000E+03    1.96665000E-03 
   6.82024000E+02    1.52306000E-02 
   1.54973000E+02    7.61269000E-02 
   4.44553000E+01    2.60801000E-01 
   1.30290000E+01    6.16462000E-01 
   1.82773000E+00    2.21006000E-01 
SP   3    1.000000
   2.09642000E+01    1.14660000E-01   4.02487000E-02 
   4.80331000E+00    9.19999000E-01   2.37594000E-01 
   1.45933000E+00   -3.03068000E-03   8.15854000E-01 
SP   1    1.000000
   4.83456000E-01    1.00000000E+00   1.00000000E+00 
SP   1    1.000000
   1.45585000E-01    1.00000000E+00   1.00000000E+00 
SP   1    1.000000
   4.38000000E-02    1.00000000E+00   1.00000000E+00 
D    1    1.000000
   6.26000000E-01    1.00000000E+00 

2    0
S    3    1.000000
   3.38650000E+01    2.54938000E-02 
   5.09479000E+00    1.90373000E-01 
   1.15879000E+00    8.52161000E-01 
S    1    1.000000
   3.25840000E-01    1.00000000E+00 
S    1    1.000000
   1.02741000E-01    1.00000000E+00 
S    1    1.000000
   3.60000000E-02    1.00000000E+00 
P    1    1.000000
   7.50000000E-01    1.00000000E+00 

3    0
S    3    1.000000
   3.38650000E+01    2.54938000E-02 
   5.09479000E+00    1.90373000E-01 
   1.15879000E+00    8.52161000E-01 
S    1    1.000000
   3.25840000E-01    1.00000000E+00 
S    1    1.000000
   1.02741000E-01    1.00000000E+00 
S    1    1.000000
   3.60000000E-02    1.00000000E+00 
P    1    1.000000
   7.50000000E-01    1.00000000E+00 

4    0
S    3    1.000000
   3.38650000E+01    2.54938000E-02 
   5.09479000E+00    1.90373000E-01 
   1.15879000E+00    8.52161000E-01 
S    1    1.000000
   3.25840000E-01    1.00000000E+00 
S    1    1.000000
   1.02741000E-01    1.00000000E+00 
S    1    1.000000
   3.60000000E-02    1.00000000E+00 
P    1    1.000000
   7.50000000E-01    1.00000000E+00 

5    0
S    6    1.000000
   4.56324000E+03    1.96665000E-03 
   6.82024000E+02    1.52306000E-02 
   1.54973000E+02    7.61269000E-02 
   4.44553000E+01    2.60801000E-01 
   1.30290000E+01    6.16462000E-01 
   1.82773000E+00    2.21006000E-01 
SP   3    1.000000
   2.09642000E+01    1.14660000E-01   4.02487000E-02 
   4.80331000E+00    9.19999000E-01   2.37594000E-01 
   1.45933000E+00   -3.03068000E-03   8.15854000E-01 
SP   1    1.000000
   4.83456000E-01    1.00000000E+00   1.00000000E+00 
SP   1    1.000000
   1.45585000E-01    1.00000000E+00   1.00000000E+00 
SP   1    1.000000
   4.38000000E-02    1.00000000E+00   1.00000000E+00 
D    1    1.000000
   6.26000000E-01    1.00000000E+00 

6    0
S    6    1.000000
   8.58850000E+03    1.89515000E-03 
   1.29723000E+03    1.43859000E-02 
   2.99296000E+02    7.07320000E-02 
   8.73771000E+01    2.40001000E-01 
   2.56789000E+01    5.94797000E-01 
   3.74004000E+00    2.80802000E-01 
SP   3    1.000000
   4.21175000E+01    1.13889000E-01   3.65114000E-02 
   9.62837000E+00    9.20811000E-01   2.37153000E-01 
   2.85332000E+00   -3.27447000E-03   8.19702000E-01 
SP   1    1.000000
   9.05661000E-01    1.00000000E+00   1.00000000E+00 
SP   1    1.000000
   2.55611000E-01    1.00000000E+00   1.00000000E+00 
SP   1    1.000000
   8.45000000E-02    1.00000000E+00   1.00000000E+00 
D    1    1.000000
   1.29200000E+00    1.00000000E+00 

7    0
S    6    1.000000
   4.56324000E+03    1.96665000E-03 
   6.82024000E+02    1.52306000E-02 
   1.54973000E+02    7.61269000E-02 
   4.44553000E+01    2.60801000E-01 
   1.30290000E+01    6.16462000E-01 
   1.82773000E+00    2.21006000E-01 
SP   3    1.000000
   2.09642000E+01    1.14660000E-01   4.02487000E-02 
   4.80331000E+00    9.19999000E-01   2.37594000E-01 
   1.45933000E+00   -3.03068000E-03   8.15854000E-01 
SP   1    1.000000
   4.83456000E-01    1.00000000E+00   1.00000000E+00 
SP   1    1.000000
   1.45585000E-01    1.00000000E+00   1.00000000E+00 
SP   1    1.000000
   4.38000000E-02    1.00000000E+00   1.00000000E+00 
D    1    1.000000
   6.26000000E-01    1.00000000E+00 

8    0
S    6    1.000000
   8.58850000E+03    1.89515000E-03 
   1.29723000E+03    1.43859000E-02 
   2.99296000E+02    7.07320000E-02 
   8.73771000E+01    2.40001000E-01 
   2.56789000E+01    5.94797000E-01 
   3.74004000E+00    2.80802000E-01 
SP   3    1.000000
   4.21175000E+01    1.13889000E-01   3.65114000E-02 
   9.62837000E+00    9.20811000E-01   2.37153000E-01 
   2.85332000E+00   -3.27447000E-03   8.19702000E-01 
SP   1    1.000000
   9.05661000E-01    1.00000000E+00   1.00000000E+00 
SP   1    1.000000
   2.55611000E-01    1.00000000E+00   1.00000000E+00 
SP   1    1.000000
   8.45000000E-02    1.00000000E+00   1.00000000E+00 
D    1    1.000000
   1.29200000E+00    1.00000000E+00 

9    0
S    6    1.000000
   6.29348000E+03    1.96979000E-03 
   9.49044000E+02    1.49613000E-02 
   2.18776000E+02    7.35006000E-02 
   6.36916000E+01    2.48937000E-01 
   1.88282000E+01    6.02460000E-01 
   2.72023000E+00    2.56202000E-01 
SP   3    1.000000
   3.06331000E+01    1.11906000E-01   3.83119000E-02 
   7.02614000E+00    9.21666000E-01   2.37403000E-01 
   2.11205000E+00   -2.56919000E-03   8.17592000E-01 
SP   1    1.000000
   6.84009000E-01    1.00000000E+00   1.00000000E+00 
SP   1    1.000000
   2.00878000E-01    1.00000000E+00   1.00000000E+00 
SP   1    1.000000
   6.39000000E-02    1.00000000E+00   1.00000000E+00 
D    1    1.000000
   9.13000000E-01    1.00000000E+00 

10    0
S    6    1.000000
   6.29348000E+03    1.96979000E-03 
   9.49044000E+02    1.49613000E-02 
   2.18776000E+02    7.35006000E-02 
   6.36916000E+01    2.48937000E-01 
   1.88282000E+01    6.02460000E-01 
   2.72023000E+00    2.56202000E-01 
SP   3    1.000000
   3.06331000E+01    1.11906000E-01   3.83119000E-02 
   7.02614000E+00    9.21666000E-01   2.37403000E-01 
   2.11205000E+00   -2.56919000E-03   8.17592000E-01 
SP   1    1.000000
   6.84009000E-01    1.00000000E+00   1.00000000E+00 
SP   1    1.000000
   2.00878000E-01    1.00000000E+00   1.00000000E+00 
SP   1    1.000000
   6.39000000E-02    1.00000000E+00   1.00000000E+00 
D    1    1.000000
   9.13000000E-01    1.00000000E+00 

11    0
S    6    1.000000
   4.56324000E+03    1.96665000E-03 
   6.82024000E+02    1.52306000E-02 
   1.54973000E+02    7.61269000E-02 
   4.44553000E+01    2.60801000E-01 
   1.30290000E+01    6.16462000E-01 
   1.82773000E+00    2.21006000E-01 
SP   3    1.000000
   2.09642000E+01    1.14660000E-01   4.02487000E-02 
   4.80331000E+00    9.19999000E-01   2.37594000E-01 
   1.45933000E+00   -3.03068000E-03   8.15854000E-01 
SP   1    1.000000
   4.83456000E-01    1.00000000E+00   1.00000000E+00 
SP   1    1.000000
   1.45585000E-01    1.00000000E+00   1.00000000E+00 
SP   1    1.000000
   4.38000000E-02    1.00000000E+00   1.00000000E+00 
D    1    1.000000
   6.26000000E-01    1.00000000E+00 

12    0
S    3    1.000000
   3.38650000E+01    2.54938000E-02 
   5.09479000E+00    1.90373000E-01 
   1.15879000E+00    8.52161000E-01 
S    1    1.000000
   3.25840000E-01    1.00000000E+00 
S    1    1.000000
   1.02741000E-01    1.00000000E+00 
S    1    1.000000
   3.60000000E-02    1.00000000E+00 
P    1    1.000000
   7.50000000E-01    1.00000000E+00 

[MO]
Sym=X
Ene= 2.004752
Spin=Alpha
Occup=1
     1   -6.378157117503e-14
     2   -2.897862561639e-14
     3   -5.443684537603e-14
     4   -4.049442359565e-14
     5   -8.940698928279e-02
     6   -8.264387558687e-14
     7   -1.153868440124e-13
     8   -2.289728210311e-14
     9   -1.524143349789e-01
    10    1.546005982078e-13
    11    3.608037301590e-15
    12    4.285012653467e-14
    13   -1.380791317444e-01
    14   -3.384909109453e-12
    15   -9.176622629656e-13
    16   -6.943454725988e-13
    17   -1.726172948648e-02
    18    6.823057113514e-16
    19   -1.110136734480e-02
    20   -1.060367267204e-02
    21   -1.145309989755e-14
    22   -1.510574941196e-14
    23    2.322702320880e-14
    24   -2.576554936952e-13
    25    2.044467320476e-13
    26    2.319354364158e-14
    27   -1.574126297602e-14
    28   -4.788632775066e-15
    29    1.672997002733e-04
    30    8.496088541271e-15
    31    3.406281439428e-14
    32    7.870079801605e-14
    33   -1.815798397041e-13
    34   -6.778642594407e-15
    35    2.503935125853e-15
    36   -7.137277954276e-03
    37    2.903630137733e-14
    38    3.322919499623e-13
    39    3.224834939972e-14
    40   -1.641780947678e-14
    41    5.309906402995e-15
    42   -2.893936583693e-14
    43    6.397692635436e-03
    44    1.863740189216e-14
    45    1.900660896084e-14
    46    2.417691521431e-15
    47    7.756154805312e-15
    48    1.035287357171e-01
    49   -1.391782126233e-14
    50    1.102423105192e-14
    51   -4.744678855677e-15
    52    1.829727274254e-01
    53   -2.192516599409e-13
    54    3.912211544555e-13
    55    6.118858627287e-13
    56    1.063915112043e-01
    57    2.448500098714e-13
    58    5.469170341186e-14
    59   -8.034992029393e-14
    60    2.019458425856e-02
    61    3.149208475757e-15
    62   -1.839918165215e-02
    63    2.251127813818e-02
    64    1.962674362001e-15
    65    6.180301695337e-15
    66   -4.056861296549e-15
    67   -4.981249925135e-15
    68    2.394153583378e-14
    69    5.992762270996e-14
    70    2.304800240830e-01
    71    1.257803164366e-14
    72    3.019671276840e-14
    73    7.026752839780e-14
    74    2.707069654838e-01
    75    5.557152113082e-14
    76   -1.250968982011e-14
    77   -5.023953907261e-14
    78    1.707329266493e-01
    79    1.445410641564e-13
    80    2.292982453483e-14
    81   -6.471863768820e-14
    82   -6.913196643769e-03
    83   -2.782745477549e-16
    84    1.881685541730e-02
    85   -1.122616522754e-02
    86    2.317127907398e-15
    87    1.144066984858e-15
    88    5.150397268188e-14
    89    4.114245831644e-14
    90   -4.415534144215e-14
    91    5.218294669136e-14
    92   -5.232275247967e-02
    93    3.204966509653e-14
    94   -3.789402392180e-14
    95    6.291155699860e-14
    96   -9.108829637468e-02
    97   -4.196715704054e-13
    98    2.172949240794e-13
    99    3.675599507039e-13
   100   -7.019411506397e-02
   101    1.633424348630e-12
   102   -1.968817304596e-13
   103   -4.494936936784e-13
   104   -1.459895444906e-02
   105    6.425180735228e-15
   106   -1.131005239111e-02
   107    8.158736141515e-03
   108   -4.341734663803e-15
   109   -2.199759478251e-14
   110   -3.601936421609e-14
   111   -3.587097797658e-14
   112   -8.386791720865e-15
   113    5.299959280998e-14
   114   -5.495846353252e-02
   115    2.245079349575e-14
   116   -2.935572700631e-14
   117    9.020808767490e-14
   118   -8.755602944638e-02
   119   -2.571675475509e-15
   120   -1.686722566376e-14
   121    1.102538365736e-13
   122   -7.115176250552e-02
   123   -2.799813164680e-13
   124    1.494843931014e-13
   125    4.308074425835e-14
   126    9.084068479477e-03
   127    6.928078675209e-16
   128    6.657028406522e-03
   129    4.278335372630e-03
   130    5.316574922149e-15
   131   -1.950471033905e-15
   132    5.682787613904e-14
   133    1.720805570123e-14
   134    3.479855989355e-14
   135    2.460008004138e-14
   136    6.579489934044e-02
   137    2.006122265872e-13
   138    5.935412442159e-14
   139    8.944667481517e-14
   140    1.098884538326e-01
   141   -2.912970775471e-13
   142    2.518863966431e-13
   143   -5.261178511935e-13
   144    1.047504601350e-01
   145   -5.511880920942e-13
   146    2.428404462327e-13
   147    2.175928813318e-13
   148    7.558284990630e-03
   149   -1.542608570513e-15
   150   -1.287841860338e-02
   151   -1.246249412855e-03
   152    1.132068012727e-14
   153   -4.444414389714e-15
   154    4.476106139507e-14
   155    3.320840608813e-14
   156   -7.620694547508e-15
   157   -1.000058154908e-14
   158   -1.013825788414e-02
   159   -1.001326301466e-14
   160    2.985546272821e-14
   161   -1.220502328583e-14
   162   -1.561508919778e-02
   163    4.579795374867e-13
   164   -5.435168187281e-13
   165    7.098225102289e-14
   166   -1.112875123926e-02
   167    4.334170525103e-13
   168    4.601506013866e-13
   169    3.388187540919e-13
   170    6.690394111288e-03
   171   -7.944903390010e-15
   172   -7.808014783309e-03
   173    1.132904414128e-02
   174    4.775569987654e-15
   175    6.811432169742e-15
   176   -1.538742759546e-13
   177   -7.982849079609e-14
   178    3.329581518654e-14
   179    2.601258437256e-14
   180   -9.873778825160e-02
   181   -2.508479157993e-13
   182    4.934324351014e-14
   183    4.147387476577e-14
   184   -1.698148684160e-01
   185    2.188856841122e-13
   186    8.324162312711e-14
   187    1.956686146749e-13
   188   -1.476826617254e-01
   189    1.650874826454e-12
   190   -6.482793551039e-13
   191   -7.191385951654e-13
   192   -4.731860743525e-03
   193    1.359258057448e-14
   194    1.497792533989e-02
   195   -8.484499145622e-04
   196   -5.706990601210e-15
   197   -9.401719366793e-16
   198   -3.939347645465e-14
   199   -5.249170011803e-14
   200   -5.996861542998e-14
   201    1.031586100181e-13
   202    8.485258081898e-15
   203   -4.394794793978e-16
   204   -8.540199827839e-03
Sym=X
Ene= 2.003040
Spin=Alpha
Occup=1
     1    1.000595395007e-02
     2    1.598308180296e-02
     3    1.782312904171e-02
     4   -2.459604181098e-02
     5    5.364818490722e-15
     6   -4.008217376918e-02
     7    2.825838918286e-02
     8   -4.134121140438e-02
     9    3.890630680177e-14
    10   -4.238508936978e-02
    11   -6.312536852149e-03
    12   -3.906004173080e-02
    13   -1.673193525403e-15
    14   -1.103898393160e-01
    15    7.038226598092e-04
    16   -1.385154079002e-02
    17    1.165610387553e-13
    18    2.368530552167e-03
    19    5.336985159824e-15
    20    2.527633613712e-15
    21   -9.641873981484e-03
    22    5.160479524128e-03
    23    8.981231187079e-03
    24   -3.167022300861e-03
    25   -2.806973815553e-02
    26    2.604886592594e-02
    27    2.157989548552e-04
    28    1.764635417434e-03
    29   -1.200884048001e-14
    30    1.647055008027e-02
    31    2.784513537258e-02
    32    1.702308022933e-02
    33    3.995446345318e-03
    34    7.934170859142e-04
    35   -1.475616746544e-04
    36    2.412056396722e-15
    37   -2.396829262479e-04
    38    1.449392229450e-02
    39    3.483844972378e-02
    40   -4.568857052148e-02
    41    2.781649053290e-03
    42   -8.301761224296e-04
    43    9.663987387313e-15
    44   -6.571038736600e-03
    45   -1.079846398492e-02
    46   -5.236894935300e-02
    47   -2.577719366056e-02
    48   -2.190962859064e-14
    49    3.171880027538e-02
    50   -8.711333444583e-02
    51   -4.966500254149e-02
    52   -4.642359197244e-14
    53    4.365796563680e-02
    54    3.070920317847e-02
    55    5.570315048836e-02
    56    3.400452039593e-14
    57    3.687082160006e-02
    58    5.590288973278e-02
    59    7.140578858277e-02
    60   -9.480540876823e-14
    61   -1.811228221554e-03
    62    1.281643557760e-14
    63    7.015222546586e-15
    64   -5.195849581075e-02
    65   -3.185910023978e-02
    66   -5.776153062767e-03
    67   -8.273002696153e-03
    68    2.021768315108e-01
    69    2.310025573864e-01
    70   -8.629336940259e-14
    71    2.545406407260e-02
    72    2.336347169200e-01
    73    2.660762126293e-01
    74   -8.925359459481e-14
    75   -1.446711256930e-02
    76    1.473351990008e-01
    77    1.992172689681e-01
    78   -8.405497563187e-14
    79   -1.922276924524e-02
    80   -2.255714851893e-03
    81    7.221901527754e-03
    82    4.437823980587e-14
    83   -2.883936987502e-03
    84   -7.403483914801e-15
    85   -2.137277799462e-15
    86    1.207840786310e-02
    87    5.214462224009e-04
    88   -1.604823817847e-02
    89   -2.548910580816e-02
    90   -4.355740131323e-02
    91    1.300118080141e-02
    92    5.287433728016e-14
    93    6.383235444445e-02
    94   -7.197185291273e-02
    95    1.877575415149e-02
    96    7.492597247603e-14
    97    5.892971312831e-02
    98   -5.271276857095e-02
    99    1.340329061004e-02
   100    1.292057585592e-13
   101   -1.926370733290e-01
   102   -1.146617559453e-02
   103    1.074600818237e-01
   104    1.955625323949e-13
   105   -2.252344749655e-03
   106   -1.169108604876e-15
   107    4.674148279584e-15
   108   -2.868677581070e-02
   109    3.257524654524e-03
   110    5.588903764870e-03
   111    9.391058851205e-03
   112   -5.634795850877e-02
   113    1.111249530190e-01
   114    5.868739851820e-14
   115   -2.778958682213e-02
   116   -8.806245139084e-02
   117    1.711624199500e-01
   118    6.212791404855e-14
   119   -1.561348317151e-02
   120   -8.511209178268e-02
   121    1.554106281172e-01
   122    1.108736422597e-13
   123    3.372332159166e-02
   124   -1.425659471994e-02
   125    3.678749448014e-03
   126   -1.060410405285e-13
   127    2.119945741801e-04
   128   -1.071704337902e-15
   129   -1.204786320819e-14
   130    7.910027130773e-03
   131   -5.181579239638e-03
   132    2.368808166091e-02
   133    3.915530530863e-02
   134    7.113646181395e-02
   135    2.014493021175e-02
   136    7.366580059846e-14
   137   -1.032792906764e-01
   138    1.077269459563e-01
   139    2.096565490562e-02
   140    1.303807215961e-13
   141   -1.998978993858e-01
   142    9.251574526078e-02
   143    3.723724300987e-02
   144    8.596557978245e-14
   145   -1.755062043295e-01
   146   -8.654536531013e-03
   147   -8.887308556389e-04
   148   -3.338470980084e-14
   149   -1.183743911116e-03
   150    4.728047594109e-15
   151    2.256076750224e-15
   152    2.528118489896e-04
   153   -5.555630892297e-03
   154   -1.488739609335e-02
   155   -2.394116833582e-02
   156   -3.423540273481e-02
   157    6.122349138661e-02
   158   -5.139650403253e-14
   159    6.114703414973e-02
   160   -5.795116777488e-02
   161    8.896446205922e-02
   162   -8.032467169734e-14
   163    1.088370479595e-01
   164   -4.898114303320e-02
   165    9.460374015990e-02
   166   -1.230426108940e-13
   167    1.081334158472e-01
   168   -8.594378913240e-03
   169    2.160391013526e-03
   170   -1.122972944888e-14
   171    3.065121618320e-04
   172    2.893416948530e-15
   173   -2.707953448029e-15
   174   -2.525999514587e-03
   175   -8.775408221322e-04
   176   -3.065416499444e-03
   177   -5.060923053373e-03
   178   -3.292973310144e-03
   179    2.108127876257e-02
   180    3.637459262053e-14
   181    1.267693137215e-02
   182   -3.223882841776e-03
   183    2.786016675263e-02
   184    4.146604197948e-14
   185    5.690315616413e-02
   186   -1.625935797738e-02
   187    3.034242414714e-02
   188    7.267370803545e-14
   189    2.955774348304e-01
   190   -3.086814653979e-02
   191    5.280573418382e-02
   192   -1.754681461039e-13
   193    5.704907900170e-04
   194    4.275966451954e-15
   195    2.958783339758e-15
   196   -3.127537191456e-03
   197   -4.870708484520e-05
   198   -9.138698443439e-03
   199   -1.654954419747e-02
   200   -2.649160610416e-03
   201    1.528388800262e-02
   202    1.605212205059e-03
   203   -9.361894217841e-04
   204    2.708305552359e-15
Sym=X
Ene= 2.000918
Spin=Alpha
Occup=1
     1   -7.842449501650e-03
     2   -1.134480563861e-02
     3   -2.675189060467e-02
     4    1.465794412560e-02
     5   -1.379411506250e-13
     6    2.657057391197e-02
     7   -4.678786588363e-02
     8    2.356118088709e-02
     9   -2.403864317868e-13
    10    7.861385108049e-03
    11   -2.143237553853e-02
    12    1.035391422157e-02
    13   -5.606643195135e-14
    14   -2.865861674105e-01
    15   -7.907238532727e-02
    16   -9.580679137448e-02
    17   -1.165724087531e-13
    18   -1.392415096293e-03
    19    4.283609906866e-14
    20   -2.679329012719e-14
    21    5.244884832424e-03
    22   -5.502857787081e-04
    23    1.185247363412e-02
    24    1.818439699666e-02
    25    2.149885792380e-02
    26   -2.679569699309e-03
    27    2.475848413886e-03
    28   -2.218721827003e-03
    29   -3.204639520027e-14
    30   -7.208402309279e-03
    31   -1.495452950594e-02
    32   -7.190934491014e-03
    33   -4.575107656563e-02
    34   -1.075132853309e-03
    35   -5.082974197984e-04
    36   -1.713500999036e-14
    37    2.513344868229e-02
    38    2.639623907418e-02
    39   -1.074375320669e-02
    40   -2.208936934525e-02
    41    2.709511080828e-03
    42   -4.353021435875e-03
    43    7.717250510814e-15
    44   -4.570639417409e-03
    45   -3.888841983799e-03
    46   -7.934973098360e-02
    47    8.575985751568e-02
    48   -8.017146475121e-14
    49    5.608383875879e-03
    50   -1.220089308240e-01
    51    1.428699346704e-01
    52   -1.468789230087e-13
    53    3.972843161680e-02
    54   -2.052440017575e-02
    55   -4.213301726011e-04
    56   -7.290261376793e-14
    57    2.797458765391e-02
    58   -5.241952914753e-03
    59   -2.919419782263e-02
    60    6.925077333454e-14
    61   -2.507617807448e-03
    62    4.157946820778e-14
    63    7.119654233271e-14
    64    3.798027046370e-02
    65   -6.252462911594e-03
    66    2.098584535820e-03
    67    3.540414076364e-03
    68    8.319414272712e-02
    69   -2.372247877021e-01
    70   -2.650358901381e-14
    71   -1.972092887041e-02
    72    9.319764465092e-02
    73   -2.712844356539e-01
    74   -4.119362450088e-14
    75   -8.607801830380e-02
    76    1.530874601510e-02
    77   -1.657020391040e-01
    78    1.116695950832e-14
    79   -1.882453907330e-02
    80    2.274591445555e-03
    81   -1.463013238035e-03
    82   -4.088718735870e-14
    83   -8.458246690590e-03
    84   -7.184869163734e-15
    85    8.455130569397e-15
    86    2.352672941414e-03
    87   -1.542775078347e-02
    88   -1.257493757168e-02
    89   -1.836201934833e-02
    90   -4.727672840796e-03
    91    2.044815446982e-02
    92    2.065408195392e-13
    93    4.425784485962e-02
    94   -6.726064629998e-03
    95    2.574454734598e-02
    96    3.809626839816e-13
    97    6.459544792547e-02
    98   -3.821379508401e-02
    99    5.572068033904e-02
   100    1.703164140782e-13
   101   -2.238549434366e-01
   102   -4.233598973508e-02
   103    1.114900147167e-01
   104   -1.211277546658e-13
   105   -2.216879168197e-03
   106    1.040135852881e-14
   107    3.869533730323e-14
   108   -3.789367737652e-02
   109    1.699118870491e-02
   110    1.231269021176e-02
   111    2.071037050550e-02
   112   -1.104801434312e-01
   113    1.204803451845e-01
   114    2.355410267847e-13
   115   -6.160340201856e-02
   116   -1.695638128218e-01
   117    1.867520339957e-01
   118    3.860159351429e-13
   119   -7.004386203604e-02
   120   -1.511400510063e-01
   121    1.804611781206e-01
   122    2.956550923927e-13
   123   -1.086050116515e-02
   124    2.485124407642e-03
   125    1.008053879993e-02
   126    8.193660403157e-14
   127   -1.743690719288e-03
   128   -2.826477867179e-14
   129   -1.839154546436e-14
   130    1.051659897109e-02
   131   -2.859111542059e-03
   132   -1.166195490862e-03
   133   -1.984458603880e-04
   134   -5.447258207068e-03
   135    3.797914996226e-02
   136    2.093185566530e-13
   137   -4.058196861586e-03
   138   -2.905817640233e-03
   139    5.903897089431e-02
   140    3.474566961585e-13
   141   -5.234023717523e-02
   142   -5.202248343179e-02
   143    5.966725436485e-02
   144    3.614344180098e-13
   145   -9.125734052213e-02
   146    1.888842233501e-02
   147    4.026699132636e-02
   148    6.819873327993e-14
   149   -1.199798385784e-03
   150    1.100965156003e-14
   151   -1.081368016246e-14
   152    2.018610544708e-03
   153   -9.424437890357e-03
   154    1.878403805100e-02
   155    2.958894980855e-02
   156    7.943098956690e-03
   157   -8.522436023799e-02
   158   -4.071867515244e-13
   159   -7.285807514006e-02
   160    1.404488917094e-02
   161   -1.312942290777e-01
   162   -6.656228066586e-13
   163   -9.864162212871e-02
   164    7.268145339705e-03
   165   -1.053393367055e-01
   166   -7.089396538442e-13
   167   -1.170648543519e-03
   168    1.530666961300e-02
   169    4.310139363642e-02
   170   -5.942721435644e-14
   171    1.328745518468e-03
   172   -1.084549077066e-14
   173   -1.499658656431e-14
   174    7.547964047842e-03
   175   -3.925329470098e-03
   176   -2.055733017132e-03
   177   -3.158971463940e-03
   178   -5.398065911302e-03
   179    2.444150506779e-02
   180    1.426025823031e-14
   181    7.482095000162e-03
   182   -5.904880562620e-03
   183    3.031175335028e-02
   184    2.964405793792e-14
   185    7.730623285179e-02
   186   -5.750723566541e-03
   187    5.197129710940e-02
   188   -1.163575089661e-14
   189    5.622244132427e-01
   190   -8.530285697999e-02
   191    6.606858769284e-02
   192    1.510228580116e-13
   193    1.746338464894e-03
   194    1.076993523817e-14
   195    2.900937114517e-14
   196    5.364019612902e-03
   197   -1.095232623025e-03
   198   -1.138256421767e-02
   199   -2.205532517080e-02
   200    2.084200183540e-03
   201    3.915672559785e-02
   202    2.490503559850e-03
   203   -3.036889450410e-03
   204    6.460841434920e-15
Sym=X
Ene= 2.000614
Spin=Alpha
Occup=1
     1   -3.108532514139e-13
     2   -4.071810556750e-13
     3   -4.679435379426e-14
     4    1.732988767564e-13
     5    9.481819052350e-02
     6    7.570325964568e-13
     7   -1.065381599414e-13
     8    2.715462763358e-13
     9    1.602146593955e-01
    10    2.198095062931e-13
    11    8.894402814142e-14
    12    1.267669155813e-13
    13    1.155317047171e-01
    14    6.897599614711e-12
    15    2.568574855018e-12
    16    6.110705976369e-13
    17    2.366457216763e-02
    18   -3.863252145449e-14
    19   -6.693142896845e-03
    20    1.548513355767e-02
    21    5.368767558563e-14
    22   -1.599467626266e-14
    23    2.692996512372e-13
    24    5.120712766754e-13
    25   -8.352253896532e-13
    26    2.825275018340e-13
    27    6.242956759571e-14
    28    1.977113186346e-14
    29    1.180544041468e-02
    30    3.556556320651e-15
    31    3.395446355783e-14
    32   -2.078104146947e-13
    33    7.607917312852e-14
    34    1.757548117043e-15
    35    2.217337730572e-14
    36    8.011487699085e-03
    37   -3.047073033386e-13
    38   -5.084927961962e-13
    39    4.992007175193e-13
    40   -3.431550228034e-13
    41    1.212490385671e-14
    42    6.537603318703e-14
    43    3.358518838449e-03
    44    2.156515641277e-13
    45    1.722374570482e-13
    46   -1.166718901003e-13
    47    1.505378284502e-13
    48    6.051286131514e-02
    49    4.562618800636e-14
    50   -2.023735421407e-13
    51    2.635477998960e-13
    52    1.063747422978e-01
    53    2.563300036454e-13
    54   -2.379407201441e-13
    55   -1.447183826190e-14
    56    4.894859380848e-02
    57   -1.246493208086e-13
    58    2.749822978159e-13
    59    5.862493144828e-13
    60    1.925798325659e-02
    61   -1.459165763478e-14
    62    1.023027782352e-02
    63   -1.746967309499e-02
    64    7.416087551207e-14
    65   -4.444983508128e-14
    66    1.160213026067e-13
    67    1.679193990929e-13
    68    2.872640085506e-13
    69   -4.786689966328e-13
    70   -2.811445506409e-02
    71   -5.870761663704e-13
    72    3.101352460994e-13
    73   -5.426745807681e-13
    74   -2.842187534731e-02
    75   -5.273005103983e-13
    76    1.032395055581e-13
    77   -2.851154486393e-13
    78   -2.912207234477e-02
    79   -2.689671156820e-13
    80   -6.235016475388e-14
    81   -8.393790001737e-15
    82   -2.056936778867e-02
    83   -1.292754943196e-14
    84    3.726302902256e-03
    85   -2.386399090648e-03
    86    7.827091765385e-15
    87   -2.676103169657e-14
    88   -2.050826243570e-13
    89   -1.172846408885e-13
    90   -1.831345455836e-13
    91    3.532781502073e-14
    92   -5.387862973588e-02
    93   -2.851954528648e-13
    94   -2.965526443134e-13
    95    2.490066334846e-14
    96   -9.294196390210e-02
    97   -3.779671234133e-13
    98   -2.164222051559e-13
    99    6.686249127368e-14
   100   -7.864166060487e-02
   101   -5.950961792765e-12
   102   -3.139868459659e-13
   103    2.147477870694e-12
   104   -1.156312905085e-02
   105    1.260065040075e-14
   106   -3.247307815985e-02
   107   -2.357713766215e-02
   108   -5.621402221880e-14
   109    4.774881352882e-14
   110   -5.257048603491e-13
   111   -4.932482473415e-13
   112    2.811181889478e-15
   113    4.173461736030e-13
   114   -1.487908198548e-01
   115    2.538602565101e-13
   116    6.705758368330e-15
   117    6.459863132814e-13
   118   -2.326354504153e-01
   119    4.212478907330e-13
   120   -1.278131084934e-13
   121    4.970073813046e-13
   122   -2.187112874154e-01
   123    4.943554363924e-13
   124   -1.179116068603e-13
   125   -7.293132304327e-14
   126   -3.018666321231e-02
   127    1.253243549917e-14
   128    1.251640586588e-02
   129    7.114316430523e-03
   130    1.657481004146e-14
   131   -3.303429596937e-14
   132   -8.653278187290e-14
   133    2.264719238518e-14
   134    5.823382799869e-15
   135   -2.764664173150e-13
   136    5.489157891147e-02
   137   -5.275031398665e-13
   138    9.317197828189e-15
   139   -4.439214271803e-13
   140    8.766310730541e-02
   141   -3.436108562410e-13
   142   -4.581061943310e-14
   143   -2.199045057387e-13
   144    9.975063426354e-02