[Molden Format]
[Atoms] (Angs)
  C      1    6     -0.00714236     -1.70213747     -0.00000000
  H      2    1     -2.06882847     -1.44022412      0.00000000
  H      3    1     -0.12337987     -2.77567521      0.00000000
  H      4    1      0.04651892      1.98813947     -0.00000000
  C      5    6     -1.21953563      0.40211669      0.00000000
  O      6    8     -2.25921553      1.03043814      0.00000000
  C      7    6      1.28797806      0.34644937     -0.00000000
  O      8    8      2.31273661      1.00537216     -0.00000000
  N      9    7      0.03446295      0.97739857     -0.00000000
  N     10    7     -1.17287765     -0.98229824      0.00000000
  C     11    6      1.20107039     -1.10433419     -0.00000000
  H     12    1      2.11220096     -1.67699125     -0.00000000
[GTO]
1    0
S    6    1.000000
   4.56324000E+03    1.96665000E-03 
   6.82024000E+02    1.52306000E-02 
   1.54973000E+02    7.61269000E-02 
   4.44553000E+01    2.60801000E-01 
   1.30290000E+01    6.16462000E-01 
   1.82773000E+00    2.21006000E-01 
SP   3    1.000000
   2.09642000E+01    1.14660000E-01   4.02487000E-02 
   4.80331000E+00    9.19999000E-01   2.37594000E-01 
   1.45933000E+00   -3.03068000E-03   8.15854000E-01 
SP   1    1.000000
   4.83456000E-01    1.00000000E+00   1.00000000E+00 
SP   1    1.000000
   1.45585000E-01    1.00000000E+00   1.00000000E+00 
SP   1    1.000000
   4.38000000E-02    1.00000000E+00   1.00000000E+00 
D    1    1.000000
   6.26000000E-01    1.00000000E+00 

2    0
S    3    1.000000
   3.38650000E+01    2.54938000E-02 
   5.09479000E+00    1.90373000E-01 
   1.15879000E+00    8.52161000E-01 
S    1    1.000000
   3.25840000E-01    1.00000000E+00 
S    1    1.000000
   1.02741000E-01    1.00000000E+00 
S    1    1.000000
   3.60000000E-02    1.00000000E+00 
P    1    1.000000
   7.50000000E-01    1.00000000E+00 

3    0
S    3    1.000000
   3.38650000E+01    2.54938000E-02 
   5.09479000E+00    1.90373000E-01 
   1.15879000E+00    8.52161000E-01 
S    1    1.000000
   3.25840000E-01    1.00000000E+00 
S    1    1.000000
   1.02741000E-01    1.00000000E+00 
S    1    1.000000
   3.60000000E-02    1.00000000E+00 
P    1    1.000000
   7.50000000E-01    1.00000000E+00 

4    0
S    3    1.000000
   3.38650000E+01    2.54938000E-02 
   5.09479000E+00    1.90373000E-01 
   1.15879000E+00    8.52161000E-01 
S    1    1.000000
   3.25840000E-01    1.00000000E+00 
S    1    1.000000
   1.02741000E-01    1.00000000E+00 
S    1    1.000000
   3.60000000E-02    1.00000000E+00 
P    1    1.000000
   7.50000000E-01    1.00000000E+00 

5    0
S    6    1.000000
   4.56324000E+03    1.96665000E-03 
   6.82024000E+02    1.52306000E-02 
   1.54973000E+02    7.61269000E-02 
   4.44553000E+01    2.60801000E-01 
   1.30290000E+01    6.16462000E-01 
   1.82773000E+00    2.21006000E-01 
SP   3    1.000000
   2.09642000E+01    1.14660000E-01   4.02487000E-02 
   4.80331000E+00    9.19999000E-01   2.37594000E-01 
   1.45933000E+00   -3.03068000E-03   8.15854000E-01 
SP   1    1.000000
   4.83456000E-01    1.00000000E+00   1.00000000E+00 
SP   1    1.000000
   1.45585000E-01    1.00000000E+00   1.00000000E+00 
SP   1    1.000000
   4.38000000E-02    1.00000000E+00   1.00000000E+00 
D    1    1.000000
   6.26000000E-01    1.00000000E+00 

6    0
S    6    1.000000
   8.58850000E+03    1.89515000E-03 
   1.29723000E+03    1.43859000E-02 
   2.99296000E+02    7.07320000E-02 
   8.73771000E+01    2.40001000E-01 
   2.56789000E+01    5.94797000E-01 
   3.74004000E+00    2.80802000E-01 
SP   3    1.000000
   4.21175000E+01    1.13889000E-01   3.65114000E-02 
   9.62837000E+00    9.20811000E-01   2.37153000E-01 
   2.85332000E+00   -3.27447000E-03   8.19702000E-01 
SP   1    1.000000
   9.05661000E-01    1.00000000E+00   1.00000000E+00 
SP   1    1.000000
   2.55611000E-01    1.00000000E+00   1.00000000E+00 
SP   1    1.000000
   8.45000000E-02    1.00000000E+00   1.00000000E+00 
D    1    1.000000
   1.29200000E+00    1.00000000E+00 

7    0
S    6    1.000000
   4.56324000E+03    1.96665000E-03 
   6.82024000E+02    1.52306000E-02 
   1.54973000E+02    7.61269000E-02 
   4.44553000E+01    2.60801000E-01 
   1.30290000E+01    6.16462000E-01 
   1.82773000E+00    2.21006000E-01 
SP   3    1.000000
   2.09642000E+01    1.14660000E-01   4.02487000E-02 
   4.80331000E+00    9.19999000E-01   2.37594000E-01 
   1.45933000E+00   -3.03068000E-03   8.15854000E-01 
SP   1    1.000000
   4.83456000E-01    1.00000000E+00   1.00000000E+00 
SP   1    1.000000
   1.45585000E-01    1.00000000E+00   1.00000000E+00 
SP   1    1.000000
   4.38000000E-02    1.00000000E+00   1.00000000E+00 
D    1    1.000000
   6.26000000E-01    1.00000000E+00 

8    0
S    6    1.000000
   8.58850000E+03    1.89515000E-03 
   1.29723000E+03    1.43859000E-02 
   2.99296000E+02    7.07320000E-02 
   8.73771000E+01    2.40001000E-01 
   2.56789000E+01    5.94797000E-01 
   3.74004000E+00    2.80802000E-01 
SP   3    1.000000
   4.21175000E+01    1.13889000E-01   3.65114000E-02 
   9.62837000E+00    9.20811000E-01   2.37153000E-01 
   2.85332000E+00   -3.27447000E-03   8.19702000E-01 
SP   1    1.000000
   9.05661000E-01    1.00000000E+00   1.00000000E+00 
SP   1    1.000000
   2.55611000E-01    1.00000000E+00   1.00000000E+00 
SP   1    1.000000
   8.45000000E-02    1.00000000E+00   1.00000000E+00 
D    1    1.000000
   1.29200000E+00    1.00000000E+00 

9    0
S    6    1.000000
   6.29348000E+03    1.96979000E-03 
   9.49044000E+02    1.49613000E-02 
   2.18776000E+02    7.35006000E-02 
   6.36916000E+01    2.48937000E-01 
   1.88282000E+01    6.02460000E-01 
   2.72023000E+00    2.56202000E-01 
SP   3    1.000000
   3.06331000E+01    1.11906000E-01   3.83119000E-02 
   7.02614000E+00    9.21666000E-01   2.37403000E-01 
   2.11205000E+00   -2.56919000E-03   8.17592000E-01 
SP   1    1.000000
   6.84009000E-01    1.00000000E+00   1.00000000E+00 
SP   1    1.000000
   2.00878000E-01    1.00000000E+00   1.00000000E+00 
SP   1    1.000000
   6.39000000E-02    1.00000000E+00   1.00000000E+00 
D    1    1.000000
   9.13000000E-01    1.00000000E+00 

10    0
S    6    1.000000
   6.29348000E+03    1.96979000E-03 
   9.49044000E+02    1.49613000E-02 
   2.18776000E+02    7.35006000E-02 
   6.36916000E+01    2.48937000E-01 
   1.88282000E+01    6.02460000E-01 
   2.72023000E+00    2.56202000E-01 
SP   3    1.000000
   3.06331000E+01    1.11906000E-01   3.83119000E-02 
   7.02614000E+00    9.21666000E-01   2.37403000E-01 
   2.11205000E+00   -2.56919000E-03   8.17592000E-01 
SP   1    1.000000
   6.84009000E-01    1.00000000E+00   1.00000000E+00 
SP   1    1.000000
   2.00878000E-01    1.00000000E+00   1.00000000E+00 
SP   1    1.000000
   6.39000000E-02    1.00000000E+00   1.00000000E+00 
D    1    1.000000
   9.13000000E-01    1.00000000E+00 

11    0
S    6    1.000000
   4.56324000E+03    1.96665000E-03 
   6.82024000E+02    1.52306000E-02 
   1.54973000E+02    7.61269000E-02 
   4.44553000E+01    2.60801000E-01 
   1.30290000E+01    6.16462000E-01 
   1.82773000E+00    2.21006000E-01 
SP   3    1.000000
   2.09642000E+01    1.14660000E-01   4.02487000E-02 
   4.80331000E+00    9.19999000E-01   2.37594000E-01 
   1.45933000E+00   -3.03068000E-03   8.15854000E-01 
SP   1    1.000000
   4.83456000E-01    1.00000000E+00   1.00000000E+00 
SP   1    1.000000
   1.45585000E-01    1.00000000E+00   1.00000000E+00 
SP   1    1.000000
   4.38000000E-02    1.00000000E+00   1.00000000E+00 
D    1    1.000000
   6.26000000E-01    1.00000000E+00 

12    0
S    3    1.000000
   3.38650000E+01    2.54938000E-02 
   5.09479000E+00    1.90373000E-01 
   1.15879000E+00    8.52161000E-01 
S    1    1.000000
   3.25840000E-01    1.00000000E+00 
S    1    1.000000
   1.02741000E-01    1.00000000E+00 
S    1    1.000000
   3.60000000E-02    1.00000000E+00 
P    1    1.000000
   7.50000000E-01    1.00000000E+00 

[MO]
Sym=X
Ene= 2.007750
Spin=Alpha
Occup=1
     1    1.171868393170e-14
     2    5.241371710343e-15
     3   -2.348729098271e-14
     4    1.038615434832e-15
     5    4.571177969327e-02
     6    2.749515800506e-14
     7   -1.801005399547e-14
     8   -1.989436234366e-14
     9    7.932764625826e-02
    10   -4.533340269926e-13
    11    7.738086359238e-14
    12   -1.553935323073e-13
    13    5.175306976719e-02
    14    6.127525167159e-12
    15    1.683322321229e-12
    16    7.652791691705e-13
    17    1.297113182699e-03
    18    6.162249388978e-15
    19   -9.201535857928e-03
    20    8.071991374557e-03
    21    1.777281796295e-14
    22    1.172697146606e-15
    23    2.252803043635e-14
    24    2.613927823544e-13
    25   -8.741174811042e-14
    26    5.545049681379e-13
    27    1.569235326362e-14
    28    6.122653373174e-15
    29    7.934608481841e-03
    30   -9.634263785454e-15
    31   -1.771002984013e-14
    32   -5.361759154745e-14
    33    7.238778459633e-14
    34    3.960211295765e-16
    35    7.849310410691e-15
    36    3.577082527704e-03
    37   -3.181848649985e-15
    38   -2.163946183758e-13
    39    5.328534512449e-13
    40   -4.120489353644e-13
    41   -5.698244284064e-15
    42    1.193367136005e-14
    43   -8.651266528465e-03
    44    3.678450337781e-14
    45    3.889798799154e-14
    46   -1.959939530595e-14
    47   -3.492473434711e-14
    48    1.746257664998e-02
    49   -3.222082979699e-14
    50   -1.666521111571e-14
    51   -3.013844792777e-14
    52    3.025833573303e-02
    53   -2.328206117255e-14
    54   -1.657067951058e-13
    55   -3.887933077341e-13
    56    2.340120855798e-02
    57   -1.348517462700e-12
    58    3.210632485224e-15
    59    8.062594851230e-13
    60    9.055552400303e-03
    61    2.192611560598e-15
    62   -1.670752844383e-02
    63   -1.278354016572e-02
    64    1.790946464695e-14
    65    1.300855506967e-14
    66    1.748306375952e-14
    67    1.936287513464e-14
    68   -3.658199522769e-14
    69   -4.027684254792e-14
    70    3.447898037961e-02
    71   -2.248226144287e-14
    72   -7.842059781656e-14
    73   -9.422629822434e-14
    74    5.414120171860e-02
    75   -7.030422647963e-14
    76    1.579778320321e-14
    77    6.487091896272e-14
    78    4.876830610371e-02
    79    3.482090502249e-13
    80    4.176843371609e-14
    81   -3.025765951224e-13
    82   -1.133415374838e-03
    83    2.233084084742e-15
    84    3.262550293681e-03
    85   -2.204454990766e-03
    86   -4.699727767202e-15
    87   -8.860490205685e-16
    88   -2.666737996724e-14
    89   -3.110519541817e-14
    90   -2.450602197129e-14
    91    2.596003271054e-14
    92   -1.098971601575e-01
    93    4.145073800425e-14
    94   -5.585960695173e-14
    95    4.234130968622e-14
    96   -1.943785735617e-01
    97    4.485129198641e-13
    98    1.558733026466e-16
    99   -1.871808662283e-13
   100   -1.066221790807e-01
   101    1.342087249721e-12
   102   -1.549785087215e-12
   103    3.936370850468e-13
   104   -3.261753906925e-02
   105   -8.919850288475e-15
   106   -1.599814702981e-02
   107   -2.833206725919e-02
   108    4.518032318213e-14
   109   -1.665792631075e-14
   110   -1.643977999196e-14
   111   -2.467064156817e-14
   112    1.106342831834e-13
   113   -1.659144997790e-13
   114   -2.649587538105e-01
   115    9.040508097832e-14
   116    1.128263411020e-13
   117   -1.765308122275e-13
   118   -3.084198349605e-01
   119    1.904848029054e-14
   120    2.397698829478e-14
   121   -5.170457766801e-14
   122   -1.913492333949e-01
   123    5.314222537708e-14
   124    2.280011583336e-13
   125    1.740970342778e-13
   126    9.402924958991e-03
   127   -1.949722906709e-15
   128    2.091328059658e-02
   129    1.261096637879e-02
   130   -5.994111662480e-15
   131    4.035141289897e-15
   132   -5.515992028668e-14
   133   -5.724985390293e-14
   134    5.451393345907e-14
   135   -2.655128341512e-14
   136   -1.044892741663e-01
   137    5.763198289747e-14
   138    1.054846117980e-13
   139   -7.266640182204e-14
   140   -1.731079468587e-01
   141    3.384053925165e-13
   142    4.141311636008e-14
   143    3.571755142096e-13
   144   -1.633949585392e-01
   145   -1.617297420218e-12
   146   -4.162977725076e-13
   147   -5.088069749026e-13
   148    1.039797552384e-04
   149   -6.317022701139e-15
   150   -9.157918923582e-03
   151    4.904610169477e-03
   152   -5.270081912997e-15
   153   -7.846015650492e-15
   154    3.213772422155e-14
   155    6.737302426993e-15
   156   -2.129705582266e-15
   157   -1.867541843117e-14
   158    9.350365686198e-02
   159    1.151538469268e-13
   160   -5.181610554612e-14
   161   -1.705051962562e-14
   162    1.545768415688e-01
   163   -1.400557477580e-13
   164    5.059174554973e-13
   165   -5.783104079935e-14
   166    1.429542846270e-01
   167    7.941605948794e-13
   168    7.527390184550e-15
   169   -2.981912752977e-13
   170    3.575967123243e-03
   171    3.529281119362e-15
   172    4.972028219793e-03
   173    5.339613990406e-04
   174   -7.679503125759e-15
   175   -7.653133600733e-15
   176   -1.310711734139e-13
   177   -1.019152691893e-13
   178    8.878399002475e-16
   179   -2.168614998435e-14
   180    5.104339152382e-03
   181   -3.506871368628e-14
   182    1.264042042612e-15
   183   -4.550914890633e-14
   184    6.853378780473e-03
   185   -1.774020972457e-14
   186    1.269969184835e-14
   187   -1.201599433411e-13
   188    2.219215915999e-02
   189   -5.839625837684e-12
   190    2.511066363655e-12
   191    9.997701275053e-13
   192    1.312905067488e-02
   193    1.572734002687e-15
   194   -6.017442093237e-03
   195   -1.191286683628e-02
   196   -3.700133007957e-16
   197   -1.213533689124e-14
   198    5.429059679717e-15
   199    9.289023836439e-15
   200   -1.826568016196e-13
   201   -2.304298037063e-13
   202   -2.667189311238e-15
   203   -1.148028459162e-16
   204   -1.641471637680e-04
Sym=X
Ene= 2.002662
Spin=Alpha
Occup=1
     1    1.004791602299e-02
     2    1.690669126253e-02
     3   -2.730359000550e-02
     4   -2.468201529636e-02
     5    1.564926818995e-13
     6   -4.629886480549e-02
     7   -4.479900395795e-02
     8   -4.119463784460e-02
     9    2.745057974521e-13
    10   -7.142111344647e-02
    11   -3.147163476126e-02
    12   -5.850744245096e-02
    13    2.814857520132e-13
    14   -2.151068797596e-01
    15   -6.036837136492e-02
    16   -4.320722688025e-02
    17   -1.410329418017e-14
    18    1.191364301885e-03
    19    8.372547318300e-14
    20    1.583386509154e-14
    21   -8.764425315571e-03
    22    3.541865406063e-04
    23   -7.837028917826e-04
    24   -4.875738663979e-03
    25    8.424662826314e-04
    26    1.130756788714e-02
    27   -3.232780330953e-04
    28   -1.622422783504e-04
    29   -2.482121144787e-14
    30    1.733663251551e-02
    31    2.402326740408e-02
    32    1.035722711549e-02
    33   -1.888636532241e-02
    34   -1.387816069899e-03
    35   -2.244570185119e-04
    36    1.807028148759e-14
    37    4.070018783429e-03
    38    1.795251578797e-02
    39    1.353122717976e-02
    40   -4.555344033271e-02
    41   -2.835293133291e-03
    42   -5.634441465452e-04
    43    1.964497090066e-14
    44   -1.377321440127e-02
    45   -2.268414617870e-02
    46    3.715178539079e-02
    47    1.663387463429e-02
    48    9.363768891746e-15
    49    6.250345255349e-02
    50    6.249478031064e-02
    51    2.648832045890e-02
    52    2.449103123382e-14
    53    6.298771520221e-02
    54    5.064307873449e-02
    55    1.472844271473e-02
    56   -6.609417114329e-14
    57    4.350262662902e-02
    58    2.482619489286e-02
    59    3.883242682741e-02
    60    5.118240136925e-14
    61   -1.957530347061e-03
    62    3.912733947971e-14
    63    4.807471947141e-14
    64   -1.248918513902e-02
    65    5.009732159480e-03
    66    3.919204037596e-03
    67    6.579256608220e-03
    68    1.616852049722e-02
    69    4.458847769197e-02
    70    5.602397029463e-14
    71   -1.902764774622e-02
    72    2.669551894479e-02
    73    6.818429742147e-02
    74    6.225036694228e-14
    75   -1.064820906513e-02
    76    2.089839286141e-02
    77    5.563900204567e-02
    78    3.775962403102e-14
    79    1.808907461915e-02
    80    5.976948308367e-03
    81    6.328424144725e-04
    82   -1.328629235794e-14
    83    1.970227067809e-04
    84    6.790683470841e-16
    85   -3.216400627202e-15
    86    4.029812161647e-03
    87    2.594213835791e-03
    88   -8.791866102415e-03
    89   -1.523650760834e-02
    90    4.366144122989e-02
    91   -4.773143552190e-02
    92    4.155418457663e-14
    93    4.509562258963e-02
    94    7.479623807152e-02
    95   -8.970957839991e-02
    96    8.725849727499e-14
    97    6.447880831424e-02
    98   -6.352413659325e-03
    99    1.231970972730e-02
   100   -3.528201304155e-14
   101   -2.008281051340e-01
   102   -1.807794456119e-02
   103    1.126823819726e-01
   104   -5.340965909586e-14
   105    3.692272517064e-04
   106   -1.084408920153e-13
   107   -7.686745339782e-14
   108   -5.539566329479e-02
   109    3.388789375199e-02
   110   -5.613588173079e-03
   111   -7.967494844325e-03
   112   -2.133249750663e-01
   113    2.737837047644e-01
   114   -7.571454731197e-13
   115    2.366773332722e-02
   116   -2.446146293467e-01
   117    3.137685884957e-01
   118   -8.303635763153e-13
   119   -7.714007891483e-03
   120   -1.645207489962e-01
   121    2.320951049446e-01
   122   -5.042391730064e-13
   123   -2.483618254375e-02
   124    7.036186260084e-03
   125    6.769022252687e-03
   126   -7.454006881318e-14
   127   -2.034225943112e-03
   128    3.056886782396e-14
   129    1.264665202309e-14
   130    1.175677722478e-02
   131   -2.523445480824e-03
   132    2.226661838129e-02
   133    3.680351662652e-02
   134   -8.479327012837e-02
   135    2.574846865833e-02
   136    2.975912219644e-13
   137   -9.917598157726e-02
   138   -1.334956487677e-01
   139    3.238891990640e-02
   140    4.803626750516e-13
   141   -1.761064627356e-01
   142   -1.000695352911e-01
   143    4.976388182253e-02
   144    5.291905146742e-13
   145   -1.320215408046e-01
   146    5.383330260010e-02
   147    2.656172093615e-02
   148    7.044978946386e-14
   149   -1.019313101604e-03
   150    6.885666978846e-16
   151   -1.209271869457e-14
   152   -4.624954942328e-04
   153    4.053060580510e-03
   154   -1.513590657559e-03
   155   -2.507247869122e-03
   156   -1.290541404155e-03
   157    6.060561943917e-03
   158   -2.626977984442e-13
   159    6.567153218043e-03
   160   -2.823390364496e-03
   161    7.764675107390e-03
   162   -4.226757927171e-13
   163    1.815691004055e-02
   164    1.225565923519e-03
   165    6.028910510480e-03
   166   -4.561945022394e-13
   167    5.230774949630e-02
   168    8.872998969724e-03
   169    3.158665104159e-02
   170   -9.994147986190e-14
   171    1.962562517424e-04
   172    1.285156825081e-14
   173   -1.597150565285e-15
   174   -2.851556619972e-03
   175    9.010958470082e-04
   176   -1.897344047503e-02
   177   -3.078696727867e-02
   178    3.862047078012e-02
   179    6.299143167285e-02
   180    2.872907132086e-13
   181    7.716604143556e-02
   182    6.168381730740e-02
   183    9.008283841727e-02
   184    4.799195363715e-13
   185    1.553220120362e-01
   186    3.252046435528e-04
   187    8.451480026119e-02
   188    5.207074993704e-13
   189    4.481729912815e-01
   190   -7.025453447485e-02
   191    2.876561956286e-02
   192    8.828786529868e-14
   193   -1.204223402169e-03
   194   -1.691421268177e-14
   195    1.998510793983e-15
   196   -5.078568178387e-03
   197    2.399724672908e-03
   198    1.268760648681e-02
   199    1.506024495682e-02
   200    7.291884666082e-04
   201    2.503359567953e-02
   202   -1.570667744266e-03
   203    2.442489488206e-03
   204    1.969014250801e-14
Sym=X
Ene= 2.002414
Spin=Alpha
Occup=1
     1    9.671008033650e-15
     2    7.458152246407e-14
     3   -7.286870273028e-14
     4   -1.114771864635e-13
     5   -5.241774434186e-02
     6   -3.579730463551e-13
     7   -1.285358903007e-13
     8   -1.634640332049e-13
     9   -8.924416670227e-02
    10    1.519363521066e-13
    11   -2.385891254784e-13
    12    1.663855554519e-14
    13   -1.029732568438e-01
    14   -8.224555135637e-13
    15   -4.038544622773e-13
    16    4.057689292587e-13
    17   -1.029306136851e-02
    18    6.248555875142e-15
    19   -2.947858231819e-02
    20   -3.655449723040e-03
    21   -8.015603758930e-14
    22    2.063128146932e-14
    23   -8.237217788895e-14
    24   -3.243529463163e-13
    25   -1.023073705178e-13
    26   -5.962473051043e-13
    27   -2.974872982226e-14
    28    5.691374419687e-15
    29    1.118544593316e-02
    30    7.352293054651e-14
    31    1.759930164481e-13
    32    1.189857997748e-13
    33    2.820169324997e-13
    34   -4.338028143584e-15
    35   -9.762564471096e-15
    36   -4.080865729840e-03
    37    4.585177225373e-14
    38    2.977123136044e-13
    39   -4.827012642942e-13
    40    5.992982250281e-13
    41   -1.119153900821e-15
    42   -1.495542452159e-14
    43   -1.015953096231e-02
    44   -4.274494534870e-14
    45   -9.839756060183e-14
    46    1.671991951378e-13
    47   -1.214566264162e-13
    48    1.561554983815e-02
    49    3.229283517247e-13
    50    2.728643681678e-13
    51   -2.074418053315e-13
    52    3.045550409112e-02
    53    2.765478413782e-13
    54    1.851883549607e-13
    55    1.253667027747e-13
    56    1.911622768718e-02
    57    5.800162069367e-13
    58   -2.414814145964e-13
    59   -7.955503395590e-13
    60   -1.148653548318e-02
    61   -2.132938247080e-14
    62   -1.983381001709e-02
    63   -2.044349287935e-02
    64    3.302749695662e-14
    65    6.508513508126e-14
    66   -8.957583328950e-14
    67   -8.852727976431e-14
    68   -2.540376654338e-13
    69   -1.619295486327e-13
    70    2.206578106138e-02
    71    7.178818965012e-14
    72   -3.635117668751e-13
    73   -2.276058471590e-13
    74    3.485605492285e-02
    75    1.756414809517e-13
    76   -3.755426534221e-13
    77   -3.784412858967e-13
    78    2.719232995309e-02
    79   -1.814238852275e-13
    80   -1.833293167617e-14
    81    2.823279088017e-13
    82    5.189699629867e-03
    83    5.459305109113e-15
    84    2.138433191862e-03
    85   -1.942097334937e-03
    86   -2.250406121097e-14
    87    1.097178201008e-15
    88   -1.543534403517e-13
    89   -1.772256561561e-13
    90   -8.868471946519e-15
    91   -4.296458670422e-13
    92   -3.354474837887e-02
    93    2.804542199313e-13
    94    2.205125608666e-14
    95   -7.117062434054e-13
    96   -6.335622764027e-02
    97   -2.713595872538e-13
    98    1.063745622134e-13
    99   -6.692204273448e-14
   100   -2.739206685516e-02
   101    7.523259382053e-13
   102    1.495676277180e-12
   103   -9.830613930677e-13
   104    7.032211545470e-03
   105    1.507279191847e-14
   106    4.009865207234e-02
   107    2.036178085630e-02
   108   -1.898661709509e-13
   109    7.055040415596e-14
   110    9.887585590642e-15
   111    1.400411863326e-14
   112   -2.768301185203e-13
   113    9.501069020771e-13
   114    2.326665877314e-01
   115   -5.616410668589e-14
   116   -3.077787598383e-13
   117    1.071902427652e-12
   118    2.624061240240e-01
   119    8.736212236111e-14
   120   -2.400248689080e-13
   121    6.782892483872e-13
   122    1.846498842758e-01
   123   -1.733836439394e-13
   124   -2.857160210286e-13
   125   -3.863288235912e-14
   126    3.055082828960e-02
   127    1.380484535783e-14
   128   -6.990016473649e-03
   129   -4.114073962250e-03
   130    7.656632515949e-15
   131   -2.936920861478e-14
   132    2.154538234733e-13
   133    1.825371169466e-13
   134   -3.001279227383e-13
   135    3.427922399536e-14
   136   -1.330960756981e-01
   137   -2.031460542770e-14
   138   -4.839824239550e-13
   139    8.141799448653e-14
   140   -2.167607582404e-01
   141   -3.059300045683e-13
   142   -3.390063879520e-13
   143   -3.189964194515e-13
   144   -2.258414657541e-01
   145    2.079802222647e-12
   146    3.981837974494e-13
   147    3.984128596583e-13
   148   -2.274844707723e-02
   149   -2.548670530147e-15
   150   -4.517499560944e-03
   151    4.552972867954e-03
   152   -1.802659882090e-14
   153    6.411043276882e-15
   154   -7.805215716716e-14
   155   -3.623875104528e-14
   156   -1.350435993993e-14
   157    1.739154162939e-13
   158    1.136625468486e-01
   159   -1.670876587357e-13
   160    3.216134190293e-14
   161    2.789633162717e-13
   162    1.849851891300e-01
   163   -5.605948232480e-14
   164   -5.073885056168e-13
   165    1.211248547171e-13
   166    2.124595578668e-01
   167   -1.287351772307e-12
   168   -3.979725449097e-13
   169    8.300251380079e-15
   170    5.117480339224e-02
   171   -8.467830059095e-15
   172   -2.965315789261e-03
   173    5.181456806471e-03
   174   -3.188341263101e-14
   175    1.101487323671e-14
   176   -8.741734360657e-14
   177   -9.251982596951e-14
   178    1.953554718674e-14
   179    4.593047112463e-13
   180   -1.097998120816e-01
   181    1.037105996947e-13
   182    7.312353707111e-14
   183    7.131423223929e-13
   184   -1.878215414161e-01
   185    2.619842795642e-13
   186   -2.444220958907e-13
   187    5.110663760695e-13
   188   -1.918800033377e-01
   189   -1.077589650183e-12
   190   -1.351758833847e-12
   191   -1.140929376350e-12
   192   -1.626816833290e-02
   193   -8.915472435858e-15
   194    1.297984718128e-02
   195   -3.686601860893e-03
   196   -7.243924931423e-14
   197    1.672585241326e-14
   198   -1.741881248179e-13
   199   -3.087164009564e-13
   200    3.578458898723e-13
   201   -4.606243408005e-14
   202    3.706039574413e-14
   203   -1.068960284095e-15
   204   -8.405486324354e-03
Sym=X
Ene= 2.001858
Spin=Alpha
Occup=1
     1   -8.327076711402e-04
     2   -1.585474884449e-03
     3   -1.898218551692e-02
     4    7.957739959815e-03
     5    1.228652150178e-13
     6    3.061356111250e-03
     7   -2.982934134553e-02
     8    1.309750383427e-02
     9    2.171306172725e-13
    10    5.820775051784e-03
    11   -2.556330583421e-02
    12    3.781734598296e-03
    13    2.088110819899e-13
    14   -4.841801260009e-02
    15   -4.717182081881e-02
    16   -1.568488044122e-02
    17   -2.854819503325e-14
    18   -1.346929610775e-03
    19    5.039816200873e-14
    20    6.346232323245e-15
    21   -1.125929848158e-05
    22    5.750533152841e-03
    23    1.476378510851e-02
    24    3.223312420569e-02
    25    2.662232461373e-02
    26   -3.299786040782e-02
    27    3.146737823932e-03
    28    2.613360431270e-03
    29   -1.642097506836e-14
    30   -2.540619146667e-03
    31   -5.054950083091e-03
    32    2.349102496276e-03
    33   -1.615272246434e-02
    34   -5.893433157825e-04
    35   -9.181771782699e-04
    36    1.486379339211e-14
    37   -5.071002593660e-03
    38   -5.859240739676e-03
    39   -2.813425009614e-02
    40    1.351641268537e-02
    41    2.697128266738e-03
    42    2.650248184028e-03
    43    2.504044829997e-14
    44    1.267788353749e-02
    45    2.033210245848e-02
    46   -1.232341314284e-02
    47   -6.161437138844e-03
    48   -1.873485646876e-14
    49   -5.685241821635e-02
    50   -1.831561328029e-02
    51   -4.439394726254e-03
    52   -4.103663278027e-14
    53   -3.444153222028e-02
    54   -6.857530597776e-02
    55   -9.646972804900e-02
    56   -7.244208091286e-14
    57   -3.171665918231e-03
    58   -5.874273956530e-02
    59   -8.215984988004e-02
    60    7.394070610551e-14
    61    2.046227017305e-03
    62    6.039189256955e-14
    63    1.784156876445e-14
    64    5.675677059584e-02
    65    2.790806264503e-02
    66   -7.287801517128e-03
    67   -1.229128584212e-02
    68   -1.189563702007e-01
    69   -1.742800863275e-01
    70   -4.169862449993e-14
    71    3.630069791105e-02
    72   -1.838843719094e-01
    73   -2.696491794144e-01
    74   -7.194484743036e-14
    75    3.628895417055e-02
    76   -1.629905553588e-01
    77   -2.470873709510e-01
    78   -4.664073646424e-14
    79   -2.139229671184e-04
    80   -4.577510773193e-03
    81   -1.148163182290e-02
    82   -4.341431727012e-14
    83    6.750997642856e-04
    84   -7.829345902971e-15
    85    4.116513057940e-15
    86   -1.325968398110e-02
    87   -5.830945445676e-03
    88    6.054832903615e-03
    89    8.317735019196e-03
    90   -6.511271152731e-02
    91   -8.494817314484e-02
    92    8.540241163239e-14
    93   -2.338989070262e-02
    94   -1.007263161044e-01
    95   -1.408681301434e-01
    96    1.468858579286e-13
    97   -1.717768097862e-02
    98   -1.480845847736e-02
    99   -3.150718920169e-02
   100    7.480037486033e-14
   101   -3.946332693927e-02
   102    7.788865229102e-03
   103    1.261758577042e-02
   104   -4.259843929115e-14
   105    5.341482469681e-03
   106   -8.915835071073e-14
   107   -4.206768717095e-14
   108   -1.895740485335e-02
   109   -9.647567421969e-03
   110    3.818254737197e-03
   111    5.213115480324e-03
   112    1.078768478906e-01
   113    1.564264865562e-01
   114   -4.320525566604e-13
   115   -1.183928613519e-02
   116    1.233324062512e-01
   117    1.780120877551e-01
   118   -4.863555638216e-13
   119    6.897661284337e-02
   120    3.511343728514e-02
   121    9.972477740254e-02
   122   -3.106106981386e-13
   123    1.160384189770e-02
   124    3.467277285022e-03
   125    5.900304439330e-03
   126   -5.318078026098e-14
   127    7.895143750592e-03
   128    1.106105096103e-14
   129    7.430760053801e-15
   130   -5.519410892594e-03
   131   -1.299782441560e-02
   132   -1.003779405744e-02
   133   -1.713057752511e-02
   134   -1.742617937898e-02
   135   -2.223938557586e-02
   136    2.720125277075e-13
   137    4.455658433749e-02
   138   -1.995670604726e-02
   139   -2.885902562650e-02
   140    4.379186817206e-13
   141    1.248407775628e-01
   142   -7.187782598125e-02
   143   -3.397726820907e-02
   144    5.292808266933e-13