[Molden Format]
[Atoms] (Angs)
  C      1    6     -0.00714236     -1.70213747     -0.00000000
  H      2    1     -2.06882847     -1.44022412      0.00000000
  H      3    1     -0.12337987     -2.77567521      0.00000000
  H      4    1      0.04651892      1.98813947     -0.00000000
  C      5    6     -1.21953563      0.40211669      0.00000000
  O      6    8     -2.25921553      1.03043814      0.00000000
  C      7    6      1.28797806      0.34644937     -0.00000000
  O      8    8      2.31273661      1.00537216     -0.00000000
  N      9    7      0.03446295      0.97739857     -0.00000000
  N     10    7     -1.17287765     -0.98229824      0.00000000
  C     11    6      1.20107039     -1.10433419     -0.00000000
  H     12    1      2.11220096     -1.67699125     -0.00000000
[GTO]
1    0
S    6    1.000000
   4.56324000E+03    1.96665000E-03 
   6.82024000E+02    1.52306000E-02 
   1.54973000E+02    7.61269000E-02 
   4.44553000E+01    2.60801000E-01 
   1.30290000E+01    6.16462000E-01 
   1.82773000E+00    2.21006000E-01 
SP   3    1.000000
   2.09642000E+01    1.14660000E-01   4.02487000E-02 
   4.80331000E+00    9.19999000E-01   2.37594000E-01 
   1.45933000E+00   -3.03068000E-03   8.15854000E-01 
SP   1    1.000000
   4.83456000E-01    1.00000000E+00   1.00000000E+00 
SP   1    1.000000
   1.45585000E-01    1.00000000E+00   1.00000000E+00 
SP   1    1.000000
   4.38000000E-02    1.00000000E+00   1.00000000E+00 
D    1    1.000000
   6.26000000E-01    1.00000000E+00 

2    0
S    3    1.000000
   3.38650000E+01    2.54938000E-02 
   5.09479000E+00    1.90373000E-01 
   1.15879000E+00    8.52161000E-01 
S    1    1.000000
   3.25840000E-01    1.00000000E+00 
S    1    1.000000
   1.02741000E-01    1.00000000E+00 
S    1    1.000000
   3.60000000E-02    1.00000000E+00 
P    1    1.000000
   7.50000000E-01    1.00000000E+00 

3    0
S    3    1.000000
   3.38650000E+01    2.54938000E-02 
   5.09479000E+00    1.90373000E-01 
   1.15879000E+00    8.52161000E-01 
S    1    1.000000
   3.25840000E-01    1.00000000E+00 
S    1    1.000000
   1.02741000E-01    1.00000000E+00 
S    1    1.000000
   3.60000000E-02    1.00000000E+00 
P    1    1.000000
   7.50000000E-01    1.00000000E+00 

4    0
S    3    1.000000
   3.38650000E+01    2.54938000E-02 
   5.09479000E+00    1.90373000E-01 
   1.15879000E+00    8.52161000E-01 
S    1    1.000000
   3.25840000E-01    1.00000000E+00 
S    1    1.000000
   1.02741000E-01    1.00000000E+00 
S    1    1.000000
   3.60000000E-02    1.00000000E+00 
P    1    1.000000
   7.50000000E-01    1.00000000E+00 

5    0
S    6    1.000000
   4.56324000E+03    1.96665000E-03 
   6.82024000E+02    1.52306000E-02 
   1.54973000E+02    7.61269000E-02 
   4.44553000E+01    2.60801000E-01 
   1.30290000E+01    6.16462000E-01 
   1.82773000E+00    2.21006000E-01 
SP   3    1.000000
   2.09642000E+01    1.14660000E-01   4.02487000E-02 
   4.80331000E+00    9.19999000E-01   2.37594000E-01 
   1.45933000E+00   -3.03068000E-03   8.15854000E-01 
SP   1    1.000000
   4.83456000E-01    1.00000000E+00   1.00000000E+00 
SP   1    1.000000
   1.45585000E-01    1.00000000E+00   1.00000000E+00 
SP   1    1.000000
   4.38000000E-02    1.00000000E+00   1.00000000E+00 
D    1    1.000000
   6.26000000E-01    1.00000000E+00 

6    0
S    6    1.000000
   8.58850000E+03    1.89515000E-03 
   1.29723000E+03    1.43859000E-02 
   2.99296000E+02    7.07320000E-02 
   8.73771000E+01    2.40001000E-01 
   2.56789000E+01    5.94797000E-01 
   3.74004000E+00    2.80802000E-01 
SP   3    1.000000
   4.21175000E+01    1.13889000E-01   3.65114000E-02 
   9.62837000E+00    9.20811000E-01   2.37153000E-01 
   2.85332000E+00   -3.27447000E-03   8.19702000E-01 
SP   1    1.000000
   9.05661000E-01    1.00000000E+00   1.00000000E+00 
SP   1    1.000000
   2.55611000E-01    1.00000000E+00   1.00000000E+00 
SP   1    1.000000
   8.45000000E-02    1.00000000E+00   1.00000000E+00 
D    1    1.000000
   1.29200000E+00    1.00000000E+00 

7    0
S    6    1.000000
   4.56324000E+03    1.96665000E-03 
   6.82024000E+02    1.52306000E-02 
   1.54973000E+02    7.61269000E-02 
   4.44553000E+01    2.60801000E-01 
   1.30290000E+01    6.16462000E-01 
   1.82773000E+00    2.21006000E-01 
SP   3    1.000000
   2.09642000E+01    1.14660000E-01   4.02487000E-02 
   4.80331000E+00    9.19999000E-01   2.37594000E-01 
   1.45933000E+00   -3.03068000E-03   8.15854000E-01 
SP   1    1.000000
   4.83456000E-01    1.00000000E+00   1.00000000E+00 
SP   1    1.000000
   1.45585000E-01    1.00000000E+00   1.00000000E+00 
SP   1    1.000000
   4.38000000E-02    1.00000000E+00   1.00000000E+00 
D    1    1.000000
   6.26000000E-01    1.00000000E+00 

8    0
S    6    1.000000
   8.58850000E+03    1.89515000E-03 
   1.29723000E+03    1.43859000E-02 
   2.99296000E+02    7.07320000E-02 
   8.73771000E+01    2.40001000E-01 
   2.56789000E+01    5.94797000E-01 
   3.74004000E+00    2.80802000E-01 
SP   3    1.000000
   4.21175000E+01    1.13889000E-01   3.65114000E-02 
   9.62837000E+00    9.20811000E-01   2.37153000E-01 
   2.85332000E+00   -3.27447000E-03   8.19702000E-01 
SP   1    1.000000
   9.05661000E-01    1.00000000E+00   1.00000000E+00 
SP   1    1.000000
   2.55611000E-01    1.00000000E+00   1.00000000E+00 
SP   1    1.000000
   8.45000000E-02    1.00000000E+00   1.00000000E+00 
D    1    1.000000
   1.29200000E+00    1.00000000E+00 

9    0
S    6    1.000000
   6.29348000E+03    1.96979000E-03 
   9.49044000E+02    1.49613000E-02 
   2.18776000E+02    7.35006000E-02 
   6.36916000E+01    2.48937000E-01 
   1.88282000E+01    6.02460000E-01 
   2.72023000E+00    2.56202000E-01 
SP   3    1.000000
   3.06331000E+01    1.11906000E-01   3.83119000E-02 
   7.02614000E+00    9.21666000E-01   2.37403000E-01 
   2.11205000E+00   -2.56919000E-03   8.17592000E-01 
SP   1    1.000000
   6.84009000E-01    1.00000000E+00   1.00000000E+00 
SP   1    1.000000
   2.00878000E-01    1.00000000E+00   1.00000000E+00 
SP   1    1.000000
   6.39000000E-02    1.00000000E+00   1.00000000E+00 
D    1    1.000000
   9.13000000E-01    1.00000000E+00 

10    0
S    6    1.000000
   6.29348000E+03    1.96979000E-03 
   9.49044000E+02    1.49613000E-02 
   2.18776000E+02    7.35006000E-02 
   6.36916000E+01    2.48937000E-01 
   1.88282000E+01    6.02460000E-01 
   2.72023000E+00    2.56202000E-01 
SP   3    1.000000
   3.06331000E+01    1.11906000E-01   3.83119000E-02 
   7.02614000E+00    9.21666000E-01   2.37403000E-01 
   2.11205000E+00   -2.56919000E-03   8.17592000E-01 
SP   1    1.000000
   6.84009000E-01    1.00000000E+00   1.00000000E+00 
SP   1    1.000000
   2.00878000E-01    1.00000000E+00   1.00000000E+00 
SP   1    1.000000
   6.39000000E-02    1.00000000E+00   1.00000000E+00 
D    1    1.000000
   9.13000000E-01    1.00000000E+00 

11    0
S    6    1.000000
   4.56324000E+03    1.96665000E-03 
   6.82024000E+02    1.52306000E-02 
   1.54973000E+02    7.61269000E-02 
   4.44553000E+01    2.60801000E-01 
   1.30290000E+01    6.16462000E-01 
   1.82773000E+00    2.21006000E-01 
SP   3    1.000000
   2.09642000E+01    1.14660000E-01   4.02487000E-02 
   4.80331000E+00    9.19999000E-01   2.37594000E-01 
   1.45933000E+00   -3.03068000E-03   8.15854000E-01 
SP   1    1.000000
   4.83456000E-01    1.00000000E+00   1.00000000E+00 
SP   1    1.000000
   1.45585000E-01    1.00000000E+00   1.00000000E+00 
SP   1    1.000000
   4.38000000E-02    1.00000000E+00   1.00000000E+00 
D    1    1.000000
   6.26000000E-01    1.00000000E+00 

12    0
S    3    1.000000
   3.38650000E+01    2.54938000E-02 
   5.09479000E+00    1.90373000E-01 
   1.15879000E+00    8.52161000E-01 
S    1    1.000000
   3.25840000E-01    1.00000000E+00 
S    1    1.000000
   1.02741000E-01    1.00000000E+00 
S    1    1.000000
   3.60000000E-02    1.00000000E+00 
P    1    1.000000
   7.50000000E-01    1.00000000E+00 

[MO]
Sym=X
Ene= 2.005877
Spin=Alpha
Occup=1
     1   -4.698864805743e-14
     2   -2.345652799419e-14
     3   -5.100369724243e-14
     4   -3.845743643447e-14
     5   -8.756448854022e-02
     6   -3.899755319559e-14
     7   -1.127048143916e-13
     8   -1.911242009943e-14
     9   -1.515260568649e-01
    10    1.807528123248e-13
    11    1.787124483160e-14
    12    4.257740412672e-14
    13   -1.329664159166e-01
    14   -2.895421630064e-12
    15   -7.746354848739e-13
    16   -6.220605975390e-13
    17   -1.396044692494e-02
    18   -8.998776558677e-16
    19   -1.276005031880e-02
    20   -1.071591054380e-02
    21   -1.096252115417e-14
    22   -1.516443056820e-14
    23    1.986706346926e-14
    24   -2.620861241969e-13
    25    1.882366727469e-13
    26    6.844205745825e-14
    27   -1.575619687798e-14
    28   -4.501046942590e-15
    29    5.940343753976e-04
    30    1.360298401146e-14
    31    3.533228960528e-14
    32    8.528136779013e-14
    33   -1.622164351824e-13
    34   -6.469917602167e-15
    35    4.420764109531e-15
    36   -6.448210028447e-03
    37    2.528562370244e-14
    38    3.350366079273e-13
    39    8.319677567845e-14
    40   -5.671803402817e-14
    41    5.215196760043e-15
    42   -2.859666155468e-14
    43    6.968428144176e-03
    44    4.970411213993e-15
    45    7.302254282151e-15
    46    7.150607081375e-15
    47    8.679259356197e-15
    48    1.079758933032e-01
    49   -1.214431208256e-14
    50    1.625482006681e-14
    51   -2.659622922315e-15
    52    1.915806788683e-01
    53   -2.168165742349e-13
    54    4.059384773634e-13
    55    6.356162935173e-13
    56    1.077489943639e-01
    57    1.621327291737e-13
    58    6.937358227069e-14
    59   -4.880663911377e-15
    60    2.022769924686e-02
    61    3.256218728750e-15
    62   -1.580051831273e-02
    63    2.103952821640e-02
    64    3.894409866709e-15
    65    7.624658308272e-15
    66   -1.466558449041e-15
    67   -1.033077541842e-15
    68    1.628833107994e-14
    69    5.033260155624e-14
    70    2.281782985431e-01
    71    2.160053502395e-17
    72    2.089198889151e-14
    73    5.859272705923e-14
    74    2.674076598296e-01
    75    4.261506436776e-14
    76   -2.113493285614e-14
    77   -5.964337793644e-14
    78    1.632848482518e-01
    79    1.733268837733e-13
    80    2.949680658869e-14
    81   -8.463218741787e-14
    82   -1.008921941904e-02
    83    1.770269075640e-17
    84    1.929678619984e-02
    85   -1.155358824990e-02
    86    1.855924965359e-15
    87    1.281398327879e-15
    88    3.183618493123e-14
    89    2.615404773390e-14
    90   -3.793779495762e-14
    91    4.897979196950e-14
    92   -4.876519606490e-02
    93    2.713502984341e-14
    94   -2.756988572305e-14
    95    5.653341482700e-14
    96   -8.596970810337e-02
    97   -4.369383165511e-13
    98    2.345263759421e-13
    99    3.854478923977e-13
   100   -6.288285025991e-02
   101    1.598428905073e-12
   102   -3.131165926648e-13
   103   -3.781211563899e-13
   104   -9.715881006166e-03
   105    6.629001063336e-15
   106   -1.442292019436e-02
   107    8.092868357392e-03
   108   -1.751450198732e-15
   109   -2.081083637105e-14
   110   -5.555681357074e-14
   111   -5.213657395619e-14
   112   -3.110327037091e-15
   113    3.857098279791e-14
   114   -5.754840265491e-02
   115    2.084556174083e-14
   116   -2.074495406987e-14
   117    6.763656865438e-14
   118   -9.166830231325e-02
   119   -8.098587391470e-15
   120   -8.595158405925e-15
   121    8.966739620515e-14
   122   -7.512017274786e-02
   123   -2.913260997986e-13
   124    1.703301042146e-13
   125    5.085144030725e-14
   126    6.916319334965e-03
   127    5.117592255729e-16
   128    6.855467910473e-03
   129    4.541449876616e-03
   130    4.407184213388e-15
   131   -1.150478798197e-15
   132    6.522050714450e-14
   133    2.614633709710e-14
   134    2.650033470379e-14
   135    2.201405367512e-14
   136    7.797508990132e-02
   137    1.921823944779e-13
   138    4.566570932130e-14
   139    8.760554626662e-14
   140    1.303332594796e-01
   141   -3.116634543024e-13
   142    2.563753721921e-13
   143   -5.464113475956e-13
   144    1.224357183580e-01
   145   -6.767203076517e-13
   146    2.417512621157e-13
   147    1.574611190593e-13
   148    5.540494711977e-03
   149   -1.325917878073e-15
   150   -1.293529432540e-02
   151   -2.578475432116e-03
   152    1.153177010875e-14
   153   -3.598550337283e-15
   154    3.095040935392e-14
   155    2.038380070302e-14
   156    3.765041753619e-17
   157   -1.299439145101e-14
   158   -1.900496372299e-03
   159   -3.682914584417e-15
   160    4.350556614793e-14
   161   -1.651871555688e-14
   162   -2.352529870032e-03
   163    4.703067072678e-13
   164   -5.413722258991e-13
   165    7.189352454609e-14
   166    2.598639391139e-03
   167    4.968888932998e-13
   168    4.351899785986e-13
   169    3.170456542825e-13
   170    4.195920009376e-03
   171   -8.181815929822e-15
   172   -7.440355684206e-03
   173    1.207139175612e-02
   174    5.236827176741e-15
   175    5.799406856314e-15
   176   -1.204978597429e-13
   177   -5.767655567260e-14
   178    2.726901013911e-14
   179    1.924167156865e-14
   180   -9.715053725455e-02
   181   -2.249283169632e-13
   182    3.869661490271e-14
   183    3.241602687706e-14
   184   -1.695417686512e-01
   185    2.517177430980e-13
   186    8.612736493917e-14
   187    2.005057954531e-13
   188   -1.412344035332e-01
   189    1.291180110263e-12
   190   -4.416633367021e-13
   191   -6.055366541140e-13
   192   -3.612077480689e-03
   193    1.240672137732e-14
   194    1.618545752910e-02
   195   -6.204169642888e-04
   196   -4.169703134606e-15
   197    8.908451662093e-16
   198   -3.491356163392e-14
   199   -4.289535241588e-14
   200   -8.311050664575e-14
   201    8.677045927567e-14
   202    7.445408484659e-15
   203   -1.253425836770e-16
   204   -8.051401950407e-03
Sym=X
Ene= 2.003792
Spin=Alpha
Occup=1
     1    7.522469390636e-03
     2    1.256615377229e-02
     3    1.145008985706e-02
     4   -2.959704689229e-02
     5   -8.117909185943e-15
     6   -3.405062914447e-02
     7    1.891976228129e-02
     8   -4.897190168392e-02
     9    1.643536432499e-14
    10   -4.082009399479e-02
    11   -1.175394603493e-02
    12   -4.659133735702e-02
    13   -2.231727772429e-14
    14   -1.185696993526e-01
    15   -6.483423349750e-03
    16   -1.724223033277e-02
    17    1.181139098990e-13
    18    1.925232521105e-03
    19    5.771649987110e-15
    20   -2.573754768311e-18
    21   -1.155148461560e-02
    22    5.274400108102e-03
    23    1.726794428459e-03
    24   -1.273895657050e-02
    25   -2.637827140141e-02
    26    2.710520710905e-02
    27   -7.500360499824e-04
    28    7.980269167776e-04
    29   -1.310030889435e-14
    30    2.266049980572e-02
    31    3.701372854561e-02
    32    1.652167067367e-02
    33    4.759685420951e-04
    34    5.761621120134e-04
    35    7.366391628100e-04
    36    1.609965096338e-15
    37    4.851272580058e-03
    38    2.074124370695e-02
    39    3.280487834705e-02
    40   -4.712990749396e-02
    41    1.976469369739e-03
    42   -1.613473563185e-03
    43    9.434181359853e-15
    44   -7.668089089899e-03
    45   -1.267679038883e-02
    46   -4.895056230360e-02
    47   -1.886282461747e-02
    48   -2.081206136604e-14
    49    3.770457824594e-02
    50   -8.148363985696e-02
    51   -3.804868280339e-02
    52   -4.379697228954e-14
    53    4.685707063524e-02
    54    3.436405958656e-02
    55    5.881312663655e-02
    56    3.865549881643e-14
    57    3.701430187199e-02
    58    5.859354980679e-02
    59    7.471282554340e-02
    60   -1.059141189877e-13
    61   -1.974964257392e-03
    62    9.478665114607e-15
    63    8.591099740431e-15
    64   -5.348730854685e-02
    65   -3.255146490774e-02
    66   -5.352526246978e-03
    67   -7.635154351663e-03
    68    2.116206635880e-01
    69    2.391070285688e-01
    70   -6.714946981803e-14
    71    2.317343615821e-02
    72    2.434339787448e-01
    73    2.741077798918e-01
    74   -6.483541128871e-14
    75   -1.690022566039e-02
    76    1.491026745242e-01
    77    2.005951323426e-01
    78   -7.133756802041e-14
    79   -2.074415273514e-02
    80   -4.381700089674e-03
    81    5.011690308135e-03
    82    5.198239008596e-14
    83   -3.013952974178e-03
    84   -6.649763734027e-15
    85   -2.965263487688e-15
    86    1.362151571000e-02
    87    8.090808016871e-04
    88   -1.630705146179e-02
    89   -2.701402848696e-02
    90   -3.751820841341e-02
    91    2.167474344277e-03
    92    5.191459455061e-14
    93    7.222202727351e-02
    94   -6.270942127112e-02
    95    1.362499964594e-03
    96    7.456150262773e-14
    97    6.683970486835e-02
    98   -5.397689010919e-02
    99    9.173252315613e-03
   100    1.235283732464e-13
   101   -1.757527964287e-01
   102   -1.001934131145e-02
   103    1.026859937006e-01
   104    2.159920827467e-13
   105   -2.135485328614e-03
   106    1.114402250976e-15
   107    6.151424483998e-15
   108   -3.122061612496e-02
   109    5.462898959014e-03
   110    4.216945409366e-03
   111    7.147352869371e-03
   112   -5.544159075511e-02
   113    1.094713802402e-01
   114    6.390247825543e-14
   115   -2.167217037786e-02
   116   -8.660017377709e-02
   117    1.683981931320e-01
   118    6.797522430435e-14
   119   -1.015983831057e-02
   120   -8.173402577983e-02
   121    1.505046910723e-01
   122    1.251306784658e-13
   123    3.198966566458e-02
   124   -1.264102780057e-02
   125    1.333314073191e-03
   126   -1.150547109653e-13
   127    2.684985642918e-04
   128   -1.418505504105e-15
   129   -1.262828353931e-14
   130    7.564168733255e-03
   131   -4.788626064453e-03
   132    2.373530057598e-02
   133    3.934883896804e-02
   134    6.062904639388e-02
   135    2.688752981625e-02
   136    6.752964542281e-14
   137   -1.046494012091e-01
   138    9.102006625149e-02
   139    3.169548473868e-02
   140    1.211396692206e-13
   141   -2.059811220189e-01
   142    7.885386972092e-02
   143    4.866996072902e-02
   144    7.633942219625e-14
   145   -1.822023065450e-01
   146   -8.352916485319e-03
   147    4.376082138076e-03
   148   -4.118855638875e-14
   149   -1.383212808504e-03
   150    4.929738870334e-15
   151    2.150975825712e-15
   152    9.535011915841e-05
   153   -5.231727637973e-03
   154   -1.226498109659e-02
   155   -2.002258484828e-02
   156   -2.600743380939e-02
   157    5.998971984654e-02
   158   -6.319112659514e-14
   159    5.260796916763e-02
   160   -4.471349065079e-02
   161    8.664363487211e-02
   162   -1.013197440047e-13
   163    1.025442213678e-01
   164   -3.816104082372e-02
   165    9.210317297385e-02
   166   -1.393791916317e-13
   167    1.104449923615e-01
   168   -5.602325216980e-03
   169    8.078359775420e-03
   170    3.491498055980e-16
   171    6.826665242684e-04
   172    1.042938157479e-15
   173   -1.883218515139e-15
   174   -2.773315707649e-03
   175   -1.546418068940e-03
   176   -4.755998135439e-03
   177   -7.845736421376e-03
   178    8.510519914410e-05
   179    3.107474580031e-02
   180    2.536376320068e-14
   181    2.022705694581e-02
   182    1.518347303164e-03
   183    4.435682179856e-02
   184    2.169647507918e-14
   185    6.402124512857e-02
   186   -1.676558498446e-02
   187    3.900808535814e-02
   188    5.850812211358e-14
   189    2.955463251527e-01
   190   -3.467034209778e-02
   191    4.487600379728e-02
   192   -1.901747487599e-13
   193    2.537203407850e-04
   194    6.509216613798e-15
   195    3.426337801615e-15
   196   -5.138116784357e-03
   197    2.604267907687e-04
   198   -1.004854909954e-02
   199   -1.715241190598e-02
   200   -3.394018837832e-03
   201    1.466576194724e-02
   202    1.685428112350e-03
   203   -2.628688716929e-04
   204    2.086861448822e-15
Sym=X
Ene= 2.001670
Spin=Alpha
Occup=1
     1    7.659151961638e-03
     2    1.217253091696e-02
     3    2.586437989887e-02
     4   -1.379175425591e-02
     5    3.037661407425e-13
     6   -3.174089617139e-02
     7    4.607640376638e-02
     8   -2.211709705724e-02
     9    5.267116399393e-13
    10   -3.741558638858e-03
    11    2.467582805098e-02
    12   -2.892573544791e-04
    13    2.528780261943e-13
    14    2.926365327890e-01
    15    7.850063794674e-02
    16    9.966047590288e-02
    17    1.627758570176e-13
    18    1.702912754173e-03
    19   -5.793428012808e-14
    20    5.750245805200e-14
    21   -3.552457052756e-03
    22   -3.934776703065e-04
    23   -1.022872552372e-02
    24   -1.543075896772e-02
    25   -1.897739582596e-02
    26    4.379406896920e-03
    27   -2.432104388493e-03
    28    1.542831745010e-03
    29    4.742623860665e-14
    30    4.093065802299e-03
    31    1.086476815444e-02
    32    7.317236623149e-03
    33    4.743077786779e-02
    34    9.913421918208e-04
    35    4.831196670286e-04
    36    2.968118153558e-14
    37   -1.416413443147e-02
    38   -1.334380763336e-02
    39    8.524872792219e-03
    40    2.375522553283e-02
    41   -2.126756451675e-03
    42    2.315546334227e-03
    43   -3.835042257314e-15
    44    1.608839668479e-02
    45    2.474673240749e-02
    46    7.468069027893e-02
    47   -8.152523746065e-02
    48    1.664284539404e-13
    49   -6.970051699842e-02
    50    1.146628371737e-01
    51   -1.357719101011e-01
    52    2.983003156134e-13
    53   -7.180730681819e-02
    54    1.904765851168e-02
    55    4.499954187415e-03
    56    1.289037036742e-13
    57   -4.593065413693e-02
    58    2.129445790890e-03
    59    3.255412350551e-02
    60   -3.320931637136e-14
    61    5.573594838611e-03
    62   -3.095651836451e-14
    63   -9.913400649791e-14
    64   -3.859714165351e-02
    65    5.384192099414e-03
    66    2.207742091634e-03
    67    2.697626636777e-03
    68   -8.876732860585e-02
    69    2.478976663156e-01
    70    1.368857154170e-14
    71    2.857457339969e-04
    72   -1.001491977867e-01
    73    2.829159054267e-01
    74    2.952995126452e-14
    75    8.324382605430e-02
    76   -1.431809156253e-02
    77    1.671112396128e-01
    78   -3.313739592075e-14
    79    2.391562686567e-02
    80   -6.183814350616e-04
    81   -1.362064254647e-03
    82    1.521241323206e-14
    83    9.402130220123e-03
    84    1.406967674221e-14
    85   -1.172721434850e-14
    86   -2.559389831078e-03
    87    1.731107526240e-02
    88    1.184952594998e-02
    89    1.939399425328e-02
    90   -2.457141463323e-03
    91   -9.330094501110e-03
    92   -2.536149962337e-13
    93   -5.449031849445e-02
    94   -5.388443349925e-03
    95   -7.356388595221e-03
    96   -4.696569506927e-13
    97   -6.693050219214e-02
    98    3.658491713257e-02
    99   -5.940362577738e-02
   100   -2.415992941920e-13
   101    2.342740722261e-01
   102    4.079002680460e-02
   103   -1.161051264808e-01
   104    1.143507642933e-13
   105    2.058768825954e-03
   106   -4.673153565250e-14
   107   -6.775349197218e-14
   108    4.168565808783e-02
   109   -2.246790575893e-02
   110   -1.002377729452e-02
   111   -1.697408616876e-02
   112    1.156747231812e-01
   113   -1.251084278880e-01
   114   -3.792977121605e-13
   115    5.159766538011e-02
   116    1.771167618539e-01
   117   -1.939911633560e-01
   118   -6.119812232833e-13
   119    6.382713660745e-02
   120    1.532052644240e-01
   121   -1.850023529488e-01
   122   -4.999741589616e-13
   123    1.397922260221e-02
   124   -5.552830569004e-03
   125   -7.286916957954e-03
   126   -1.005409119879e-13
   127    1.697276463849e-03
   128    4.105384296506e-14
   129    2.793886912501e-14
   130   -1.079000994593e-02
   131    2.522341394684e-03
   132   -3.821994443020e-03
   133   -7.361376583583e-03
   134    2.333716005007e-02
   135   -2.792747276226e-02
   136   -1.464786528499e-13
   137    2.273690342339e-02
   138    3.115860657296e-02
   139   -4.297918475059e-02
   140   -2.508422433609e-13
   141    7.431534647277e-02
   142    6.961103995180e-02
   143   -5.124246585938e-02
   144   -2.454719764852e-13
   145    9.785442632172e-02
   146   -2.165766476623e-02
   147   -3.951270881547e-02
   148   -6.622933410870e-14
   149    1.189693268578e-03
   150   -2.158524886969e-14
   151    8.272115471072e-15
   152   -3.570167573536e-03
   153    7.544946149406e-03
   154   -1.370244412937e-02
   155   -2.222428585050e-02
   156   -7.839652650609e-03
   157    7.336229002463e-02
   158    6.520289025714e-13
   159    5.697681903290e-02
   160   -1.377104683906e-02
   161    1.120748892521e-01
   162    1.073538436225e-12
   163    9.190827664751e-02
   164   -6.872359575737e-03
   165    9.403821784255e-02
   166    1.054650007956e-12
   167    1.130492690199e-02
   168   -1.151864687378e-02
   169   -4.035024795234e-02
   170    1.367208917358e-14
   171   -4.042576209862e-04
   172    3.094498579123e-14
   173    1.789678321564e-14
   174   -5.298900945263e-03
   175    4.408471456198e-03
   176    5.927900274171e-03
   177    9.635036471718e-03
   178    7.430335895995e-03
   179   -3.425116357894e-02
   180    8.400044739481e-14
   181   -2.425134319126e-02
   182    9.381511270591e-03
   183   -4.637814186680e-02
   184    1.393789128716e-13
   185   -1.021834039452e-01
   186    1.566660513879e-02
   187   -6.509207651211e-02
   188    1.673622959253e-13
   189   -5.758263467655e-01
   190    8.857285068098e-02
   191   -6.817558129957e-02
   192   -1.706016133998e-13
   193   -1.095176779035e-03
   194   -3.663931009124e-14
   195   -4.053205033705e-14
   196   -3.883181011979e-03
   197   -1.806783518521e-04
   198    1.387501384839e-02
   199    2.472434062830e-02
   200   -1.946996757573e-03
   201   -3.968126348058e-02
   202   -2.403986841746e-03
   203    2.646385834502e-03
   204   -2.140138109280e-16
Sym=X
Ene= 2.001459
Spin=Alpha
Occup=1
     1    3.398428505736e-13
     2    4.427444524371e-13
     3    1.015668098225e-14
     4   -1.813437274887e-13
     5   -1.058611494948e-01
     6   -8.390356059400e-13
     7    5.673154464051e-14
     8   -2.850213632369e-13
     9   -1.817540813108e-01
    10   -3.200904209048e-13
    11   -5.817853119151e-14
    12   -1.649694837947e-13
    13   -1.231353187522e-01
    14   -7.652517198280e-12
    15   -2.623113303544e-12
    16   -7.215385490664e-13
    17   -2.442874717020e-02
    18    3.740731541662e-14
    19    9.262077890639e-03
    20   -1.885227551482e-02
    21   -4.071013055873e-14
    22   -8.497861610191e-16
    23   -1.304178077392e-13
    24   -2.941527516696e-13
    25    7.592482693846e-13
    26   -2.976893942162e-13
    27   -3.499812758808e-14
    28   -5.698651997173e-15
    29   -1.317474054345e-02
    30   -1.483332414420e-14
    31   -5.456631871452e-14
    32    1.552225622852e-13
    33   -1.028595421473e-13
    34   -3.053292948843e-15
    35   -2.202576163724e-14
    36   -8.177375968675e-03
    37    1.372093771908e-13
    38    2.709443126547e-13
    39   -5.435269135132e-13
    40    3.900873812784e-13
    41   -1.062291122450e-14
    42   -3.046652773140e-14
    43   -1.163157075473e-03
    44    2.007347622817e-16
    45    5.585389019691e-14
    46    2.193035210853e-13
    47   -2.649068121317e-13
    48   -6.331312526038e-02
    49   -3.317267292288e-13
    50    3.531305487530e-13
    51   -4.467813558128e-13
    52   -1.112887839729e-01
    53   -4.073463348955e-13
    54    1.760388985767e-13
    55    8.487107684447e-15
    56   -4.720016984182e-02
    57    3.418490654943e-13
    58   -2.329343898782e-13
    59   -6.186968040575e-13
    60   -2.330798334551e-02
    61    3.123005328763e-14
    62   -4.823994964096e-03
    63    2.139693963970e-02
    64   -1.156709994409e-13
    65    5.004664345895e-14
    66   -6.387763800190e-14
    67   -9.187683450901e-14
    68   -4.579319646359e-13
    69    7.583501819335e-13
    70    2.817608140286e-03
    71    3.492984988784e-13
    72   -5.086602989544e-13
    73    8.646039145658e-13
    74   -2.393916397052e-04
    75    5.247671288504e-13
    76   -1.480682560873e-13
    77    4.571444006684e-13
    78    9.303875240619e-03
    79    2.045002312887e-13
    80    3.857110664525e-14
    81    3.509864610058e-14
    82    1.863684908927e-02
    83    3.021930468651e-14
    84   -4.876316119523e-03
    85    3.287441499393e-03
    86   -1.680700172989e-14
    87    5.516399757974e-14
    88    1.213474823990e-13
    89    7.225912496500e-14
    90    1.415574426325e-13
    91   -5.044345981904e-14
    92    4.415963967748e-02
    93    1.491059717328e-13
    94    2.259046626728e-13
    95   -4.314805534603e-14
    96    7.754443673976e-02
    97    1.542831915188e-13
    98    1.911927519062e-13
    99   -1.748403590161e-13
   100    6.220391314310e-02
   101    5.224687687548e-12
   102    6.644988543707e-13
   103   -2.134785929633e-12
   104    7.334236548202e-03
   105   -6.451633783029e-15
   106    2.614270225784e-02
   107    2.111904507163e-02
   108    1.253485989766e-13
   109   -8.322946917820e-14
   110    1.709658484024e-13
   111    1.466704167553e-13
   112    2.304586170850e-13
   113   -5.533890359180e-13
   114    1.156650759024e-01
   115   -1.109511323245e-15
   116    3.479688702607e-13
   117   -8.583767749535e-13
   118    1.812091632264e-01
   119   -9.685308149825e-14
   120    4.062803814370e-13
   121   -7.208040887578e-13
   122    1.662154384251e-01
   123   -3.615798854843e-13
   124    5.747481219681e-14
   125    3.677949350260e-14
   126    1.843823339278e-02
   127   -7.052689483987e-15
   128   -1.023826697198e-02
   129   -6.071781043124e-03
   130   -3.391197637139e-14
   131    3.131472820763e-14
   132   -1.210226418874e-14
   133   -6.336902618819e-14
   134    5.915440651878e-14
   135    1.101068001907e-13
   136   -3.129989340653e-02
   137    2.988190428250e-13
   138    8.595143176002e-14
   139    1.783240711059e-13
   140   -4.935932177792e-02
   141    3.535541381453e-13
   142    1.584055155744e-13
   143    3.954886911552e-14
   144   -5.574804001191e-02