[Molden Format]
[Atoms] (Angs)
  C      1    6     -0.00714236     -1.70213747     -0.00000000
  H      2    1     -2.06882847     -1.44022412      0.00000000
  H      3    1     -0.12337987     -2.77567521      0.00000000
  H      4    1      0.04651892      1.98813947     -0.00000000
  C      5    6     -1.21953563      0.40211669      0.00000000
  O      6    8     -2.25921553      1.03043814      0.00000000
  C      7    6      1.28797806      0.34644937     -0.00000000
  O      8    8      2.31273661      1.00537216     -0.00000000
  N      9    7      0.03446295      0.97739857     -0.00000000
  N     10    7     -1.17287765     -0.98229824      0.00000000
  C     11    6      1.20107039     -1.10433419     -0.00000000
  H     12    1      2.11220096     -1.67699125     -0.00000000
[GTO]
1    0
S    6    1.000000
   4.56324000E+03    1.96665000E-03 
   6.82024000E+02    1.52306000E-02 
   1.54973000E+02    7.61269000E-02 
   4.44553000E+01    2.60801000E-01 
   1.30290000E+01    6.16462000E-01 
   1.82773000E+00    2.21006000E-01 
SP   3    1.000000
   2.09642000E+01    1.14660000E-01   4.02487000E-02 
   4.80331000E+00    9.19999000E-01   2.37594000E-01 
   1.45933000E+00   -3.03068000E-03   8.15854000E-01 
SP   1    1.000000
   4.83456000E-01    1.00000000E+00   1.00000000E+00 
SP   1    1.000000
   1.45585000E-01    1.00000000E+00   1.00000000E+00 
SP   1    1.000000
   4.38000000E-02    1.00000000E+00   1.00000000E+00 
D    1    1.000000
   6.26000000E-01    1.00000000E+00 

2    0
S    3    1.000000
   3.38650000E+01    2.54938000E-02 
   5.09479000E+00    1.90373000E-01 
   1.15879000E+00    8.52161000E-01 
S    1    1.000000
   3.25840000E-01    1.00000000E+00 
S    1    1.000000
   1.02741000E-01    1.00000000E+00 
S    1    1.000000
   3.60000000E-02    1.00000000E+00 
P    1    1.000000
   7.50000000E-01    1.00000000E+00 

3    0
S    3    1.000000
   3.38650000E+01    2.54938000E-02 
   5.09479000E+00    1.90373000E-01 
   1.15879000E+00    8.52161000E-01 
S    1    1.000000
   3.25840000E-01    1.00000000E+00 
S    1    1.000000
   1.02741000E-01    1.00000000E+00 
S    1    1.000000
   3.60000000E-02    1.00000000E+00 
P    1    1.000000
   7.50000000E-01    1.00000000E+00 

4    0
S    3    1.000000
   3.38650000E+01    2.54938000E-02 
   5.09479000E+00    1.90373000E-01 
   1.15879000E+00    8.52161000E-01 
S    1    1.000000
   3.25840000E-01    1.00000000E+00 
S    1    1.000000
   1.02741000E-01    1.00000000E+00 
S    1    1.000000
   3.60000000E-02    1.00000000E+00 
P    1    1.000000
   7.50000000E-01    1.00000000E+00 

5    0
S    6    1.000000
   4.56324000E+03    1.96665000E-03 
   6.82024000E+02    1.52306000E-02 
   1.54973000E+02    7.61269000E-02 
   4.44553000E+01    2.60801000E-01 
   1.30290000E+01    6.16462000E-01 
   1.82773000E+00    2.21006000E-01 
SP   3    1.000000
   2.09642000E+01    1.14660000E-01   4.02487000E-02 
   4.80331000E+00    9.19999000E-01   2.37594000E-01 
   1.45933000E+00   -3.03068000E-03   8.15854000E-01 
SP   1    1.000000
   4.83456000E-01    1.00000000E+00   1.00000000E+00 
SP   1    1.000000
   1.45585000E-01    1.00000000E+00   1.00000000E+00 
SP   1    1.000000
   4.38000000E-02    1.00000000E+00   1.00000000E+00 
D    1    1.000000
   6.26000000E-01    1.00000000E+00 

6    0
S    6    1.000000
   8.58850000E+03    1.89515000E-03 
   1.29723000E+03    1.43859000E-02 
   2.99296000E+02    7.07320000E-02 
   8.73771000E+01    2.40001000E-01 
   2.56789000E+01    5.94797000E-01 
   3.74004000E+00    2.80802000E-01 
SP   3    1.000000
   4.21175000E+01    1.13889000E-01   3.65114000E-02 
   9.62837000E+00    9.20811000E-01   2.37153000E-01 
   2.85332000E+00   -3.27447000E-03   8.19702000E-01 
SP   1    1.000000
   9.05661000E-01    1.00000000E+00   1.00000000E+00 
SP   1    1.000000
   2.55611000E-01    1.00000000E+00   1.00000000E+00 
SP   1    1.000000
   8.45000000E-02    1.00000000E+00   1.00000000E+00 
D    1    1.000000
   1.29200000E+00    1.00000000E+00 

7    0
S    6    1.000000
   4.56324000E+03    1.96665000E-03 
   6.82024000E+02    1.52306000E-02 
   1.54973000E+02    7.61269000E-02 
   4.44553000E+01    2.60801000E-01 
   1.30290000E+01    6.16462000E-01 
   1.82773000E+00    2.21006000E-01 
SP   3    1.000000
   2.09642000E+01    1.14660000E-01   4.02487000E-02 
   4.80331000E+00    9.19999000E-01   2.37594000E-01 
   1.45933000E+00   -3.03068000E-03   8.15854000E-01 
SP   1    1.000000
   4.83456000E-01    1.00000000E+00   1.00000000E+00 
SP   1    1.000000
   1.45585000E-01    1.00000000E+00   1.00000000E+00 
SP   1    1.000000
   4.38000000E-02    1.00000000E+00   1.00000000E+00 
D    1    1.000000
   6.26000000E-01    1.00000000E+00 

8    0
S    6    1.000000
   8.58850000E+03    1.89515000E-03 
   1.29723000E+03    1.43859000E-02 
   2.99296000E+02    7.07320000E-02 
   8.73771000E+01    2.40001000E-01 
   2.56789000E+01    5.94797000E-01 
   3.74004000E+00    2.80802000E-01 
SP   3    1.000000
   4.21175000E+01    1.13889000E-01   3.65114000E-02 
   9.62837000E+00    9.20811000E-01   2.37153000E-01 
   2.85332000E+00   -3.27447000E-03   8.19702000E-01 
SP   1    1.000000
   9.05661000E-01    1.00000000E+00   1.00000000E+00 
SP   1    1.000000
   2.55611000E-01    1.00000000E+00   1.00000000E+00 
SP   1    1.000000
   8.45000000E-02    1.00000000E+00   1.00000000E+00 
D    1    1.000000
   1.29200000E+00    1.00000000E+00 

9    0
S    6    1.000000
   6.29348000E+03    1.96979000E-03 
   9.49044000E+02    1.49613000E-02 
   2.18776000E+02    7.35006000E-02 
   6.36916000E+01    2.48937000E-01 
   1.88282000E+01    6.02460000E-01 
   2.72023000E+00    2.56202000E-01 
SP   3    1.000000
   3.06331000E+01    1.11906000E-01   3.83119000E-02 
   7.02614000E+00    9.21666000E-01   2.37403000E-01 
   2.11205000E+00   -2.56919000E-03   8.17592000E-01 
SP   1    1.000000
   6.84009000E-01    1.00000000E+00   1.00000000E+00 
SP   1    1.000000
   2.00878000E-01    1.00000000E+00   1.00000000E+00 
SP   1    1.000000
   6.39000000E-02    1.00000000E+00   1.00000000E+00 
D    1    1.000000
   9.13000000E-01    1.00000000E+00 

10    0
S    6    1.000000
   6.29348000E+03    1.96979000E-03 
   9.49044000E+02    1.49613000E-02 
   2.18776000E+02    7.35006000E-02 
   6.36916000E+01    2.48937000E-01 
   1.88282000E+01    6.02460000E-01 
   2.72023000E+00    2.56202000E-01 
SP   3    1.000000
   3.06331000E+01    1.11906000E-01   3.83119000E-02 
   7.02614000E+00    9.21666000E-01   2.37403000E-01 
   2.11205000E+00   -2.56919000E-03   8.17592000E-01 
SP   1    1.000000
   6.84009000E-01    1.00000000E+00   1.00000000E+00 
SP   1    1.000000
   2.00878000E-01    1.00000000E+00   1.00000000E+00 
SP   1    1.000000
   6.39000000E-02    1.00000000E+00   1.00000000E+00 
D    1    1.000000
   9.13000000E-01    1.00000000E+00 

11    0
S    6    1.000000
   4.56324000E+03    1.96665000E-03 
   6.82024000E+02    1.52306000E-02 
   1.54973000E+02    7.61269000E-02 
   4.44553000E+01    2.60801000E-01 
   1.30290000E+01    6.16462000E-01 
   1.82773000E+00    2.21006000E-01 
SP   3    1.000000
   2.09642000E+01    1.14660000E-01   4.02487000E-02 
   4.80331000E+00    9.19999000E-01   2.37594000E-01 
   1.45933000E+00   -3.03068000E-03   8.15854000E-01 
SP   1    1.000000
   4.83456000E-01    1.00000000E+00   1.00000000E+00 
SP   1    1.000000
   1.45585000E-01    1.00000000E+00   1.00000000E+00 
SP   1    1.000000
   4.38000000E-02    1.00000000E+00   1.00000000E+00 
D    1    1.000000
   6.26000000E-01    1.00000000E+00 

12    0
S    3    1.000000
   3.38650000E+01    2.54938000E-02 
   5.09479000E+00    1.90373000E-01 
   1.15879000E+00    8.52161000E-01 
S    1    1.000000
   3.25840000E-01    1.00000000E+00 
S    1    1.000000
   1.02741000E-01    1.00000000E+00 
S    1    1.000000
   3.60000000E-02    1.00000000E+00 
P    1    1.000000
   7.50000000E-01    1.00000000E+00 

[MO]
Sym=X
Ene= 2.007864
Spin=Alpha
Occup=1
     1    1.233407983091e-14
     2    6.788148646453e-15
     3   -2.415711415368e-14
     4   -7.157555261426e-16
     5    4.033653897962e-02
     6    2.261303059003e-14
     7   -1.968755846861e-14
     8   -2.262079255191e-14
     9    7.000782975300e-02
    10   -4.474407653422e-13
    11    7.657085314224e-14
    12   -1.528530641317e-13
    13    4.477880164910e-02
    14    5.986685256971e-12
    15    1.633161914947e-12
    16    7.745343138906e-13
    17    3.630763230187e-03
    18    6.479809128183e-15
    19   -1.022005503473e-02
    20    7.210732222076e-03
    21    1.734746036866e-14
    22    9.604872457831e-16
    23    2.030325470261e-14
    24    2.511108001122e-13
    25   -8.063379467719e-14
    26    5.171006126771e-13
    27    1.439834412785e-14
    28    5.522022643894e-15
    29    7.676597695753e-03
    30   -8.446070147787e-15
    31   -1.516760180102e-14
    32   -5.207537383214e-14
    33    9.554414380281e-14
    34    4.170272124610e-16
    35    7.847183870391e-15
    36    3.158594418769e-03
    37   -1.006548812969e-15
    38   -2.093561203848e-13
    39    5.088036399790e-13
    40   -3.736114619314e-13
    41   -5.494677929793e-15
    42    1.193038489365e-14
    43   -8.739303680417e-03
    44    3.693748344433e-14
    45    3.923714436569e-14
    46   -2.004589216020e-14
    47   -3.419702729163e-14
    48    1.869089521085e-02
    49   -3.334249247355e-14
    50   -1.732560431828e-14
    51   -2.780322214986e-14
    52    3.249063492744e-02
    53   -2.020398885962e-14
    54   -1.655243342622e-13
    55   -3.809704461627e-13
    56    2.518326695434e-02
    57   -1.329332681854e-12
    58   -1.487736808791e-14
    59    7.615208375599e-13
    60    1.048361160925e-02
    61    2.325966462264e-15
    62   -1.751004790117e-02
    63   -1.256419309617e-02
    64    1.764332033366e-14
    65    1.278892633599e-14
    66    1.603948094315e-14
    67    1.798154266777e-14
    68   -3.472958088568e-14
    69   -3.903049255467e-14
    70    3.673150499085e-02
    71   -2.242389799965e-14
    72   -7.510254469809e-14
    73   -9.138286214209e-14
    74    5.766442100802e-02
    75   -7.102574487783e-14
    76    1.638705815909e-14
    77    6.417944293526e-14
    78    5.182096758862e-02
    79    3.383971188997e-13
    80    4.082469779478e-14
    81   -2.925098405829e-13
    82   -1.345601791915e-03
    83    2.266359787649e-15
    84    3.490667568539e-03
    85   -2.360215782476e-03
    86   -4.486948105731e-15
    87   -8.486249599518e-16
    88   -2.695906783219e-14
    89   -3.186699716224e-14
    90   -2.487373364998e-14
    91    2.749270713762e-14
    92   -1.128007704868e-01
    93    4.438068074553e-14
    94   -5.487550965792e-14
    95    4.541808292631e-14
    96   -1.994941541645e-01
    97    4.363859327555e-13
    98    2.965051675941e-15
    99   -1.875345557121e-13
   100   -1.109946318288e-01
   101    1.502276471668e-12
   102   -1.498313924216e-12
   103    3.113001468192e-13
   104   -3.744295034231e-02
   105   -8.978237653797e-15
   106   -1.529059323487e-02
   107   -2.740367725992e-02
   108    4.485609867085e-14
   109   -1.680251791538e-14
   110   -1.565275766615e-14
   111   -2.375271099018e-14
   112    1.076278295730e-13
   113   -1.652858740312e-13
   114   -2.603032839245e-01
   115    8.667877888584e-14
   116    1.092814245937e-13
   117   -1.759638160502e-13
   118   -3.034269255061e-01
   119    1.683703070528e-14
   120    2.428858243745e-14
   121   -5.200774818871e-14
   122   -1.873892275491e-01
   123    4.625749750250e-14
   124    2.183448603645e-13
   125    1.734120745252e-13
   126    1.166867197035e-02
   127   -1.737783256280e-15
   128    2.137731249224e-02
   129    1.281223273010e-02
   130   -5.997477809720e-15
   131    4.063392209397e-15
   132   -5.247606812177e-14
   133   -5.622587704305e-14
   134    5.558621301768e-14
   135   -2.452493904108e-14
   136   -1.069087501279e-01
   137    6.348673260999e-14
   138    1.067386180563e-13
   139   -6.874947586231e-14
   140   -1.769943257179e-01
   141    3.413837879296e-13
   142    4.519863803853e-14
   143    3.499446519985e-13
   144   -1.670759442345e-01
   145   -1.541354849810e-12
   146   -4.119887988979e-13
   147   -4.839535530279e-13
   148    1.993907030012e-04
   149   -6.669385182154e-15
   150   -9.441746232764e-03
   151    5.180026759446e-03
   152   -5.654319492054e-15
   153   -8.107068234721e-15
   154    3.176966562388e-14
   155    7.805126752186e-15
   156   -1.992799868329e-15
   157   -1.772917250129e-14
   158    9.283498229228e-02
   159    1.068964504551e-13
   160   -5.087233444668e-14
   161   -1.616594909192e-14
   162    1.534869866364e-01
   163   -1.368976313477e-13
   164    4.942913006736e-13
   165   -5.643768913246e-14
   166    1.435759914557e-01
   167    7.531907430839e-13
   168    1.496724171512e-14
   169   -2.961948979960e-13
   170    3.959070557541e-03
   171    3.236722777248e-15
   172    4.657619423319e-03
   173    8.327131816384e-04
   174   -7.269695400896e-15
   175   -7.252366466635e-15
   176   -1.295906163668e-13
   177   -9.939830324861e-14
   178    2.284236428990e-15
   179   -2.112092793909e-14
   180   -1.865012903330e-03
   181   -4.193560193126e-14
   182    3.508369504930e-15
   183   -4.538848408375e-14
   184   -5.250976164543e-03
   185   -2.630091480301e-14
   186    1.004794237582e-14
   187   -1.175266352002e-13
   188    1.110275812285e-02
   189   -5.890778186838e-12
   190    2.453048568070e-12
   191    9.001983083261e-13
   192    1.467173600497e-02
   193    1.514352991635e-15
   194   -4.885888174679e-03
   195   -1.211397903252e-02
   196   -4.626928692438e-16
   197   -1.254411227802e-14
   198    4.419464790098e-15
   199    8.136297731543e-15
   200   -1.728814526713e-13
   201   -2.540755410664e-13
   202   -2.008451332225e-15
   203   -2.643665169462e-16
   204   -6.827312628434e-04
Sym=X
Ene= 2.002665
Spin=Alpha
Occup=1
     1    9.646463909430e-03
     2    1.628758991334e-02
     3   -2.627690339733e-02
     4   -2.558502748600e-02
     5    1.156600776706e-13
     6   -4.478713665424e-02
     7   -4.338303051056e-02
     8   -4.267333299397e-02
     9    2.048472519356e-13
    10   -7.223051159910e-02
    11   -3.049807162459e-02
    12   -6.133981796299e-02
    13    1.985606927932e-13
    14   -2.294213439704e-01
    15   -6.199894110539e-02
    16   -4.768410224772e-02
    17   -1.330071312126e-14
    18    1.216499539549e-03
    19    5.806980492463e-14
    20    1.312794496540e-14
    21   -9.023984478896e-03
    22    4.620821079608e-04
    23   -8.339856729335e-04
    24   -4.752166573878e-03
    25    1.089449674191e-03
    26    1.292633468132e-02
    27   -3.758755212865e-04
    28   -1.371924833870e-04
    29   -1.352122079809e-14
    30    1.832573937472e-02
    31    2.515407763125e-02
    32    9.869406024764e-03
    33   -2.013191560891e-02
    34   -1.280148829518e-03
    35   -1.106903938313e-04
    36    1.496422831677e-14
    37    4.066904128577e-03
    38    1.798339543872e-02
    39    1.408314555589e-02
    40   -4.689960938824e-02
    41   -2.779540304612e-03
    42   -6.531867153366e-04
    43    9.515643003545e-15
    44   -1.386933362722e-02
    45   -2.285412244333e-02
    46    3.726119301538e-02
    47    1.641452935594e-02
    48    2.510853587490e-14
    49    6.305141320609e-02
    50    6.261950768480e-02
    51    2.608644012195e-02
    52    5.525895341460e-14
    53    6.196588856377e-02
    54    5.154479530812e-02
    55    1.567347301630e-02
    56   -4.378386200531e-14
    57    4.461233597056e-02
    58    2.633642292857e-02
    59    4.036938897922e-02
    60    4.568247566175e-14
    61   -1.949755663462e-03
    62    1.942792750866e-14
    63    2.872501871057e-14
    64   -1.312992784263e-02
    65    4.673319621961e-03
    66    3.964376264851e-03
    67    6.663699632191e-03
    68    1.743246684848e-02
    69    4.670756386656e-02
    70    8.085827267114e-14
    71   -1.930295160246e-02
    72    2.868312149948e-02
    73    7.149735929189e-02
    74    1.011057813168e-13
    75   -1.055055856092e-02
    76    2.266701684193e-02
    77    5.844229433001e-02
    78    6.791851354019e-14
    79    1.790835302215e-02
    80    5.930993666143e-03
    81    7.802679559219e-04
    82   -8.650122031420e-15
    83    2.058984731496e-04
    84    3.064255742367e-15
    85   -5.225609540678e-15
    86    4.187093325778e-03
    87    2.673724895952e-03
    88   -8.752040464098e-03
    89   -1.507834064095e-02
    90    4.439801066990e-02
    91   -4.493758146553e-02
    92    7.344200667809e-15
    93    4.453035581062e-02
    94    7.545039021184e-02
    95   -8.526204585644e-02
    96    2.317727158664e-14
    97    6.052177188126e-02
    98   -8.516563360648e-03
    99    1.972071130179e-02
   100   -6.576502893340e-14
   101   -2.160142872886e-01
   102   -1.762577432222e-02
   103    1.189759287934e-01
   104   -5.583022512827e-14
   105    2.450757482702e-04
   106   -7.251464399631e-14
   107   -6.039534837437e-14
   108   -5.538717929244e-02
   109    3.428349377395e-02
   110   -7.376314872133e-03
   111   -1.053028409295e-02
   112   -2.150572618052e-01
   113    2.733603406085e-01
   114   -5.514661143158e-13
   115    3.245184569351e-02
   116   -2.467179835459e-01
   117    3.131336994007e-01
   118   -5.990153977962e-13
   119   -4.619574484583e-03
   120   -1.638048594516e-01
   121    2.304729212488e-01
   122   -3.400270671135e-13
   123   -2.434972402015e-02
   124    7.544812169770e-03
   125    5.138539978132e-03
   126   -4.761434598588e-14
   127   -2.265790493046e-03
   128    2.575883039396e-14
   129    9.543562105958e-15
   130    1.255709296089e-02
   131   -2.681847637320e-03
   132    2.233463824308e-02
   133    3.686747978585e-02
   134   -8.400621800282e-02
   135    2.586702905382e-02
   136    1.683488696582e-13
   137   -9.894241573459e-02
   138   -1.322068037679e-01
   139    3.244370834434e-02
   140    2.699952405549e-13
   141   -1.796214006975e-01
   142   -1.003061266680e-01
   143    4.990036597514e-02
   144    3.086216921914e-13
   145   -1.363887103706e-01
   146    5.326152976325e-02
   147    2.599694163773e-02
   148    4.848446838328e-14
   149   -1.004269147176e-03
   150   -3.790944257230e-15
   151   -7.989479091495e-15
   152   -3.244965796453e-04
   153    4.160311876413e-03
   154   -1.477659769934e-03
   155   -2.450466530851e-03
   156   -1.752237235810e-03
   157    7.114049335920e-03
   158   -1.549983875718e-13
   159    6.341773285197e-03
   160   -3.630532632054e-03
   161    9.348187263079e-03
   162   -2.465962795996e-13
   163    1.999641783612e-02
   164    1.427146080008e-03
   165    7.859061915819e-03
   166   -2.604566370632e-13
   167    5.727524954419e-02
   168    9.670265300601e-03
   169    3.259528786149e-02
   170   -5.815647717849e-14
   171    2.295003905908e-04
   172    1.029868819553e-14
   173    3.136430191123e-15
   174   -2.901344805519e-03
   175    9.539767502758e-04
   176   -1.850414550744e-02
   177   -3.007132098647e-02
   178    3.782207520572e-02
   179    6.145181775922e-02
   180    1.931652004313e-13
   181    7.550724048160e-02
   182    6.034464332899e-02
   183    8.753117603197e-02
   184    3.186633213859e-13
   185    1.607590516465e-01
   186   -7.824092068771e-04
   187    8.708539617238e-02
   188    3.569166774690e-13
   189    4.754177129502e-01
   190   -7.438202043167e-02
   191    3.339061943871e-02
   192    7.751451103036e-14
   193   -1.052390569328e-03
   194   -6.308376921528e-15
   195   -2.474287772168e-15
   196   -4.769271953376e-03
   197    2.518633201505e-03
   198    1.242745832744e-02
   199    1.475348396236e-02
   200    1.307464474494e-03
   201    2.632454208945e-02
   202   -1.631650063257e-03
   203    2.266041313765e-03
   204    1.207000905134e-14
Sym=X
Ene= 2.002309
Spin=Alpha
Occup=1
     1    3.394504898505e-14
     2    9.679028905511e-14
     3   -4.997542703771e-14
     4   -1.108580811255e-13
     5   -6.023362188643e-02
     6   -3.674377517631e-13
     7   -9.001634412372e-14
     8   -1.607855727394e-13
     9   -1.026020393411e-01
    10    1.924615870309e-13
    11   -2.086447272503e-13
    12    3.840592586348e-14
    13   -1.134871029797e-01
    14   -1.080788839476e-12
    15   -4.832288678971e-13
    16    3.587108774754e-13
    17   -1.555866128125e-02
    18    7.903585428949e-15
    19   -3.015047910414e-02
    20   -4.523758969930e-03
    21   -7.509558062363e-14
    22    2.208020293264e-14
    23   -6.904610572630e-14
    24   -3.034054819922e-13
    25   -6.459887708424e-14
    26   -6.105235954657e-13
    27   -2.762718617273e-14
    28    7.445721497327e-15
    29    1.018977907512e-02
    30    6.522573424543e-14
    31    1.613197016869e-13
    32    1.124746881325e-13
    33    2.612176892702e-13
    34   -3.153086115931e-15
    35   -9.695181364831e-15
    36   -4.658020368460e-03
    37    5.166508479111e-14
    38    2.963982848677e-13
    39   -5.230387865181e-13
    40    6.465532133357e-13
    41    1.628107039607e-15
    42   -1.691542650384e-14
    43   -9.354811132782e-03
    44   -4.832262205455e-14
    45   -9.034743822134e-14
    46    1.385909140382e-13
    47   -1.401772448794e-13
    48    1.518135453283e-02
    49    2.518218693632e-13
    50    2.248248224706e-13
    51   -2.383732345616e-13
    52    2.975182101411e-02
    53    2.062857647718e-13
    54    1.468118963865e-13
    55    9.525477584068e-14
    56    1.774458653802e-02
    57    5.500199054909e-13
    58   -2.788258588320e-13
    59   -8.619697236120e-13
    60   -1.561147388424e-02
    61   -1.862672085975e-14
    62   -1.869225367431e-02
    63   -1.933601913844e-02
    64    4.894240761547e-14
    65    6.828574333598e-14
    66   -2.891147020877e-13
    67   -2.638651701917e-13
    68   -2.912313763288e-13
    69   -2.132134013152e-13
    70    2.021174799930e-02
    71    9.671952406705e-14
    72   -4.202130159242e-13
    73   -3.069119634056e-13
    74    3.196365929439e-02
    75    2.070108992456e-13
    76   -4.179517637254e-13
    77   -4.476952736979e-13
    78    2.439350903680e-02
    79   -1.832127072326e-13
    80   -2.030416662714e-14
    81    2.804828994867e-13
    82    5.820620884913e-03
    83    5.802175594154e-15
    84    2.006508668019e-03
    85   -1.844772613646e-03
    86   -2.794625176425e-14
    87   -9.330745785629e-16
    88   -2.153425543860e-13
    89   -2.174269563037e-13
    90   -4.740266054847e-14
    91   -3.868942498142e-13
    92   -3.259907448438e-02
    93    2.210060721900e-13
    94   -4.463470955881e-14
    95   -6.307428843737e-13
    96   -6.155320158960e-02
    97   -3.489201129243e-13
    98    9.976012920859e-14
    99   -6.047514145030e-14
   100   -2.589381458797e-02
   101    1.130279901609e-12
   102    1.502215581968e-12
   103   -1.153968619700e-12
   104    1.275243241017e-02
   105    1.607091793314e-14
   106    3.983555140723e-02
   107    2.198402968744e-02
   108   -1.431386418517e-13
   109    3.884930126502e-14
   110    1.851033063307e-14
   111    2.604076648231e-14
   112   -9.285724834866e-14
   113    7.211269756799e-13
   114    2.336784841141e-01
   115   -9.426406729985e-14
   116   -9.715624600922e-14
   117    8.092975053682e-13
   118    2.636995295206e-01
   119    9.304965062781e-14
   120   -1.009960594136e-13
   121    4.767173319271e-13
   122    1.854137061520e-01
   123   -1.523783223659e-13
   124   -2.851120787956e-13
   125   -4.408566211188e-14
   126    3.080111811926e-02
   127    1.604279416377e-14
   128   -7.572783046936e-03
   129   -4.319044221665e-03
   130   -1.446375855331e-15
   131   -2.860376475029e-14
   132    3.329719920832e-13
   133    2.613541175105e-13
   134   -2.301607601514e-13
   135    1.940033962714e-14
   136   -1.257179577909e-01
   137    9.008914559938e-14
   138   -3.730680501721e-13
   139    6.479722135700e-14
   140   -2.046030004127e-01
   141   -1.349533671257e-13
   142   -2.658184525500e-13
   143   -3.520982376827e-13
   144   -2.134570181326e-01
   145    2.174573594432e-12
   146    3.582540860938e-13
   147    4.315606899013e-13
   148   -2.069334960275e-02
   149   -1.023122035716e-15
   150   -4.362085170962e-03
   151    4.577481443653e-03
   152   -1.888744925932e-14
   153    3.278376876132e-15
   154    9.772019315933e-14
   155    1.170252104619e-13
   156   -3.596546442921e-14
   157    1.680548694426e-13
   158    1.071748414581e-01
   159   -1.955853912791e-13
   160   -3.149392253852e-15
   161    2.720232855152e-13
   162    1.741430887406e-01
   163   -1.017781863054e-13
   164   -5.266022223065e-13
   165    1.095765016581e-13
   166    2.050666341730e-01
   167   -1.318888001557e-12
   168   -3.420058457875e-13
   169    2.014250623256e-14
   170    5.398033849714e-02
   171   -7.622527325969e-15
   172   -3.361699701389e-03
   173    5.326256023331e-03
   174   -3.127814709609e-14
   175    1.282675166219e-14
   176    1.470763725822e-14
   177    1.183772891303e-14
   178   -2.405577496082e-15
   179    4.078656105368e-13
   180   -1.164772899010e-01
   181    4.472243620288e-15
   182    3.510535789972e-14
   183    6.385772418015e-13
   184   -1.990577242874e-01
   185    1.324712315024e-13
   186   -2.356545129985e-13
   187    4.636022361221e-13
   188   -2.035134658581e-01
   189   -1.221350538723e-12
   190   -1.411069811550e-12
   191   -1.268298144340e-12
   192   -1.955180939243e-02
   193   -6.081844081736e-15
   194    1.445170797939e-02
   195   -3.003673689371e-03
   196   -6.971815003926e-14
   197    1.342773940622e-14
   198   -1.863316339836e-13
   199   -3.205798891612e-13
   200    3.584258025189e-13
   201   -4.230380792611e-14
   202    3.889819694687e-14
   203   -3.061284061805e-15
   204   -8.743655822213e-03
Sym=X
Ene= 2.001803
Spin=Alpha
Occup=1
     1   -5.274703280174e-04
     2   -1.176321218758e-03
     3   -1.293640859456e-02
     4    9.278478881585e-03
     5    1.565760395605e-13
     6    2.199131272908e-03
     7   -2.057660605183e-02
     8    1.491132079282e-02
     9    2.750081136028e-13
    10    5.160051499179e-03
    11   -2.179721354422e-02
    12    4.471223542138e-03
    13    2.564383351174e-13
    14   -4.869824167259e-02
    15   -4.524160642514e-02
    16   -1.588307748243e-02
    17   -1.681670926353e-14
    18   -1.096774323506e-03
    19    5.409850420343e-14
    20    1.024854540231e-14
    21    3.655445532572e-04
    22    6.390015798169e-03
    23    1.562395915660e-02
    24    3.346557288275e-02
    25    2.410858067872e-02
    26   -3.494961134020e-02
    27    3.148111351448e-03
    28    3.042486447835e-03
    29   -1.482778848011e-14
    30   -4.272839028725e-03
    31   -7.940967608302e-03
    32    1.224977797664e-03
    33   -1.534252395327e-02
    34   -4.110068906559e-04
    35   -1.172890311874e-03
    36    1.646959558049e-14
    37   -4.210726454252e-03
    38   -4.895242527352e-03
    39   -2.702629920130e-02
    40    1.364499623610e-02
    41    2.689173289678e-03
    42    2.560367440436e-03
    43    2.295722413995e-14
    44    1.255667309652e-02
    45    2.017678261720e-02
    46   -9.385420827771e-03
    47   -1.092918684293e-02
    48   -1.845180881698e-14
    49   -5.715748396906e-02
    50   -1.317631142262e-02
    51   -1.247999195540e-02
    52   -4.122705350467e-14
    53   -3.640853187707e-02
    54   -6.681584503458e-02
    55   -1.001785341106e-01
    56   -7.307296544164e-14
    57   -4.325275725673e-03
    58   -6.124562738401e-02
    59   -8.297232218315e-02
    60    8.782129743410e-14
    61    2.017260253625e-03
    62    5.878488414428e-14
    63    1.508964696065e-14
    64    5.611115518775e-02
    65    2.910662586593e-02
    66   -8.386389335950e-03
    67   -1.419870663068e-02
    68   -1.251280574556e-01
    69   -1.724020140259e-01
    70   -4.023752608608e-14
    71    4.212853159802e-02
    72   -1.930570306789e-01
    73   -2.670166813758e-01
    74   -7.226859374391e-14
    75    4.586759959249e-02
    76   -1.683332380521e-01
    77   -2.450684329391e-01
    78   -4.461984521902e-14
    79    2.891042343109e-03
    80   -3.428500607995e-03
    81   -1.079040003732e-02
    82   -4.783274309545e-14
    83    9.409628687353e-04
    84   -7.772179681497e-15
    85    4.031484799230e-15
    86   -1.377916928301e-02
    87   -5.451871564915e-03
    88    9.028645335651e-03
    89    1.327664431211e-02
    90   -6.546731738274e-02
    91   -8.287978929252e-02
    92    8.812577503747e-14
    93   -3.733426196885e-02
    94   -1.006670164049e-01
    95   -1.374856317102e-01
    96    1.515767343732e-13
    97   -2.813996209331e-02
    98   -1.746293223159e-02
    99   -2.735824421858e-02
   100    7.570551494223e-14
   101   -4.769255495349e-02
   102    2.537322174301e-03
   103    1.710006158691e-02
   104   -5.196548902580e-14
   105    5.905733567791e-03
   106   -9.010358252874e-14
   107   -4.920977439071e-14
   108   -2.034696788096e-02
   109   -9.197504208864e-03
   110    1.021885333690e-02
   111    1.452770131750e-02
   112    1.001525568397e-01
   113    1.618920512747e-01
   114   -4.508642434647e-13
   115   -4.383459281754e-02
   116    1.151970771799e-01
   117    1.847891894078e-01
   118   -5.083709844925e-13
   119    5.605247782789e-02
   120    2.749854140087e-02
   121    1.022365541433e-01
   122   -3.240529559419e-13
   123    1.434418355018e-02
   124    3.387541571717e-03
   125    4.654189280794e-03
   126   -5.655844613038e-14
   127    8.202991123791e-03
   128    1.252624857588e-14
   129    7.866090614290e-15
   130   -5.172292410421e-03
   131   -1.379830729714e-02
   132   -9.616714821092e-03
   133   -1.646405108791e-02
   134   -1.933628387165e-02
   135   -2.090167102392e-02
   136    2.608279313876e-13
   137    4.289661115509e-02
   138   -2.280463480802e-02
   139   -2.686658737561e-02
   140    4.182521977715e-13
   141    1.225975596893e-01
   142   -7.455477848547e-02
   143   -3.187723961889e-02
   144    5.143214672987e-13