[Molden Format]
[Atoms] (Angs)
  C      1    6     -0.00714236     -1.70213747     -0.00000000
  H      2    1     -2.06882847     -1.44022412      0.00000000
  H      3    1     -0.12337987     -2.77567521      0.00000000
  H      4    1      0.04651892      1.98813947     -0.00000000
  C      5    6     -1.21953563      0.40211669      0.00000000
  O      6    8     -2.25921553      1.03043814      0.00000000
  C      7    6      1.28797806      0.34644937     -0.00000000
  O      8    8      2.31273661      1.00537216     -0.00000000
  N      9    7      0.03446295      0.97739857     -0.00000000
  N     10    7     -1.17287765     -0.98229824      0.00000000
  C     11    6      1.20107039     -1.10433419     -0.00000000
  H     12    1      2.11220096     -1.67699125     -0.00000000
[GTO]
1    0
S    6    1.000000
   4.56324000E+03    1.96665000E-03 
   6.82024000E+02    1.52306000E-02 
   1.54973000E+02    7.61269000E-02 
   4.44553000E+01    2.60801000E-01 
   1.30290000E+01    6.16462000E-01 
   1.82773000E+00    2.21006000E-01 
SP   3    1.000000
   2.09642000E+01    1.14660000E-01   4.02487000E-02 
   4.80331000E+00    9.19999000E-01   2.37594000E-01 
   1.45933000E+00   -3.03068000E-03   8.15854000E-01 
SP   1    1.000000
   4.83456000E-01    1.00000000E+00   1.00000000E+00 
SP   1    1.000000
   1.45585000E-01    1.00000000E+00   1.00000000E+00 
SP   1    1.000000
   4.38000000E-02    1.00000000E+00   1.00000000E+00 
D    1    1.000000
   6.26000000E-01    1.00000000E+00 

2    0
S    3    1.000000
   3.38650000E+01    2.54938000E-02 
   5.09479000E+00    1.90373000E-01 
   1.15879000E+00    8.52161000E-01 
S    1    1.000000
   3.25840000E-01    1.00000000E+00 
S    1    1.000000
   1.02741000E-01    1.00000000E+00 
S    1    1.000000
   3.60000000E-02    1.00000000E+00 
P    1    1.000000
   7.50000000E-01    1.00000000E+00 

3    0
S    3    1.000000
   3.38650000E+01    2.54938000E-02 
   5.09479000E+00    1.90373000E-01 
   1.15879000E+00    8.52161000E-01 
S    1    1.000000
   3.25840000E-01    1.00000000E+00 
S    1    1.000000
   1.02741000E-01    1.00000000E+00 
S    1    1.000000
   3.60000000E-02    1.00000000E+00 
P    1    1.000000
   7.50000000E-01    1.00000000E+00 

4    0
S    3    1.000000
   3.38650000E+01    2.54938000E-02 
   5.09479000E+00    1.90373000E-01 
   1.15879000E+00    8.52161000E-01 
S    1    1.000000
   3.25840000E-01    1.00000000E+00 
S    1    1.000000
   1.02741000E-01    1.00000000E+00 
S    1    1.000000
   3.60000000E-02    1.00000000E+00 
P    1    1.000000
   7.50000000E-01    1.00000000E+00 

5    0
S    6    1.000000
   4.56324000E+03    1.96665000E-03 
   6.82024000E+02    1.52306000E-02 
   1.54973000E+02    7.61269000E-02 
   4.44553000E+01    2.60801000E-01 
   1.30290000E+01    6.16462000E-01 
   1.82773000E+00    2.21006000E-01 
SP   3    1.000000
   2.09642000E+01    1.14660000E-01   4.02487000E-02 
   4.80331000E+00    9.19999000E-01   2.37594000E-01 
   1.45933000E+00   -3.03068000E-03   8.15854000E-01 
SP   1    1.000000
   4.83456000E-01    1.00000000E+00   1.00000000E+00 
SP   1    1.000000
   1.45585000E-01    1.00000000E+00   1.00000000E+00 
SP   1    1.000000
   4.38000000E-02    1.00000000E+00   1.00000000E+00 
D    1    1.000000
   6.26000000E-01    1.00000000E+00 

6    0
S    6    1.000000
   8.58850000E+03    1.89515000E-03 
   1.29723000E+03    1.43859000E-02 
   2.99296000E+02    7.07320000E-02 
   8.73771000E+01    2.40001000E-01 
   2.56789000E+01    5.94797000E-01 
   3.74004000E+00    2.80802000E-01 
SP   3    1.000000
   4.21175000E+01    1.13889000E-01   3.65114000E-02 
   9.62837000E+00    9.20811000E-01   2.37153000E-01 
   2.85332000E+00   -3.27447000E-03   8.19702000E-01 
SP   1    1.000000
   9.05661000E-01    1.00000000E+00   1.00000000E+00 
SP   1    1.000000
   2.55611000E-01    1.00000000E+00   1.00000000E+00 
SP   1    1.000000
   8.45000000E-02    1.00000000E+00   1.00000000E+00 
D    1    1.000000
   1.29200000E+00    1.00000000E+00 

7    0
S    6    1.000000
   4.56324000E+03    1.96665000E-03 
   6.82024000E+02    1.52306000E-02 
   1.54973000E+02    7.61269000E-02 
   4.44553000E+01    2.60801000E-01 
   1.30290000E+01    6.16462000E-01 
   1.82773000E+00    2.21006000E-01 
SP   3    1.000000
   2.09642000E+01    1.14660000E-01   4.02487000E-02 
   4.80331000E+00    9.19999000E-01   2.37594000E-01 
   1.45933000E+00   -3.03068000E-03   8.15854000E-01 
SP   1    1.000000
   4.83456000E-01    1.00000000E+00   1.00000000E+00 
SP   1    1.000000
   1.45585000E-01    1.00000000E+00   1.00000000E+00 
SP   1    1.000000
   4.38000000E-02    1.00000000E+00   1.00000000E+00 
D    1    1.000000
   6.26000000E-01    1.00000000E+00 

8    0
S    6    1.000000
   8.58850000E+03    1.89515000E-03 
   1.29723000E+03    1.43859000E-02 
   2.99296000E+02    7.07320000E-02 
   8.73771000E+01    2.40001000E-01 
   2.56789000E+01    5.94797000E-01 
   3.74004000E+00    2.80802000E-01 
SP   3    1.000000
   4.21175000E+01    1.13889000E-01   3.65114000E-02 
   9.62837000E+00    9.20811000E-01   2.37153000E-01 
   2.85332000E+00   -3.27447000E-03   8.19702000E-01 
SP   1    1.000000
   9.05661000E-01    1.00000000E+00   1.00000000E+00 
SP   1    1.000000
   2.55611000E-01    1.00000000E+00   1.00000000E+00 
SP   1    1.000000
   8.45000000E-02    1.00000000E+00   1.00000000E+00 
D    1    1.000000
   1.29200000E+00    1.00000000E+00 

9    0
S    6    1.000000
   6.29348000E+03    1.96979000E-03 
   9.49044000E+02    1.49613000E-02 
   2.18776000E+02    7.35006000E-02 
   6.36916000E+01    2.48937000E-01 
   1.88282000E+01    6.02460000E-01 
   2.72023000E+00    2.56202000E-01 
SP   3    1.000000
   3.06331000E+01    1.11906000E-01   3.83119000E-02 
   7.02614000E+00    9.21666000E-01   2.37403000E-01 
   2.11205000E+00   -2.56919000E-03   8.17592000E-01 
SP   1    1.000000
   6.84009000E-01    1.00000000E+00   1.00000000E+00 
SP   1    1.000000
   2.00878000E-01    1.00000000E+00   1.00000000E+00 
SP   1    1.000000
   6.39000000E-02    1.00000000E+00   1.00000000E+00 
D    1    1.000000
   9.13000000E-01    1.00000000E+00 

10    0
S    6    1.000000
   6.29348000E+03    1.96979000E-03 
   9.49044000E+02    1.49613000E-02 
   2.18776000E+02    7.35006000E-02 
   6.36916000E+01    2.48937000E-01 
   1.88282000E+01    6.02460000E-01 
   2.72023000E+00    2.56202000E-01 
SP   3    1.000000
   3.06331000E+01    1.11906000E-01   3.83119000E-02 
   7.02614000E+00    9.21666000E-01   2.37403000E-01 
   2.11205000E+00   -2.56919000E-03   8.17592000E-01 
SP   1    1.000000
   6.84009000E-01    1.00000000E+00   1.00000000E+00 
SP   1    1.000000
   2.00878000E-01    1.00000000E+00   1.00000000E+00 
SP   1    1.000000
   6.39000000E-02    1.00000000E+00   1.00000000E+00 
D    1    1.000000
   9.13000000E-01    1.00000000E+00 

11    0
S    6    1.000000
   4.56324000E+03    1.96665000E-03 
   6.82024000E+02    1.52306000E-02 
   1.54973000E+02    7.61269000E-02 
   4.44553000E+01    2.60801000E-01 
   1.30290000E+01    6.16462000E-01 
   1.82773000E+00    2.21006000E-01 
SP   3    1.000000
   2.09642000E+01    1.14660000E-01   4.02487000E-02 
   4.80331000E+00    9.19999000E-01   2.37594000E-01 
   1.45933000E+00   -3.03068000E-03   8.15854000E-01 
SP   1    1.000000
   4.83456000E-01    1.00000000E+00   1.00000000E+00 
SP   1    1.000000
   1.45585000E-01    1.00000000E+00   1.00000000E+00 
SP   1    1.000000
   4.38000000E-02    1.00000000E+00   1.00000000E+00 
D    1    1.000000
   6.26000000E-01    1.00000000E+00 

12    0
S    3    1.000000
   3.38650000E+01    2.54938000E-02 
   5.09479000E+00    1.90373000E-01 
   1.15879000E+00    8.52161000E-01 
S    1    1.000000
   3.25840000E-01    1.00000000E+00 
S    1    1.000000
   1.02741000E-01    1.00000000E+00 
S    1    1.000000
   3.60000000E-02    1.00000000E+00 
P    1    1.000000
   7.50000000E-01    1.00000000E+00 

[MO]
Sym=X
Ene= 2.008114
Spin=Alpha
Occup=1
     1    1.063240221654e-14
     2    7.385441520101e-15
     3   -2.579168824390e-14
     4   -3.284226506723e-15
     5    3.574074273656e-02
     6    1.234729773016e-14
     7   -2.104205310975e-14
     8   -2.614506389858e-14
     9    6.211480885164e-02
    10   -4.549294582434e-13
    11    8.186805177800e-14
    12   -1.669762454048e-13
    13    3.651701527778e-02
    14    5.690775589189e-12
    15    1.612552326950e-12
    16    6.850844582799e-13
    17    2.922225183639e-03
    18    6.281153031400e-15
    19   -1.176252534888e-02
    20    6.490942255233e-03
    21    1.630547229572e-14
    22    1.044421028178e-15
    23    2.114064688812e-14
    24    2.593533628457e-13
    25   -7.475114275436e-14
    26    5.121064405287e-13
    27    1.632272930307e-14
    28    7.012138205795e-15
    29    8.472416754159e-03
    30   -7.959399378044e-15
    31   -1.631347916890e-14
    32   -5.685607646903e-14
    33    8.377096393325e-14
    34   -2.291221674518e-16
    35    7.548205454457e-15
    36    2.878770651143e-03
    37   -4.289630344428e-15
    38   -2.038303727610e-13
    39    4.901698100504e-13
    40   -3.750153590726e-13
    41   -6.298577661874e-15
    42    1.044378625043e-14
    43   -8.054084273138e-03
    44    3.478504677163e-14
    45    3.618711844891e-14
    46   -1.421125913742e-14
    47   -3.528688855287e-14
    48    2.592898511238e-02
    49   -2.602311214969e-14
    50   -7.306767026722e-15
    51   -3.171587898520e-14
    52    4.548116882386e-02
    53   -1.473756347572e-14
    54   -1.737921891059e-13
    55   -3.734084445365e-13
    56    2.915186445558e-02
    57   -1.235213518378e-12
    58   -8.404118024315e-16
    59    7.268576784816e-13
    60    1.083787036581e-02
    61    1.707122088185e-15
    62   -1.875647035083e-02
    63   -1.210812469385e-02
    64    1.650824575822e-14
    65    1.467080795360e-14
    66    1.726059390402e-14
    67    1.973234101332e-14
    68   -3.684518124264e-14
    69   -3.586415079792e-14
    70    4.487936172319e-02
    71   -2.587290634040e-14
    72   -7.738118395264e-14
    73   -8.651976201158e-14
    74    7.041389450080e-02
    75   -7.484450736035e-14
    76    1.304906017147e-14
    77    6.801107248402e-14
    78    6.311159317335e-02
    79    3.227911978766e-13
    80    3.472264259821e-14
    81   -2.869472753772e-13
    82   -5.884567842020e-04
    83    2.058257766619e-15
    84    4.432180454931e-03
    85   -3.025100882028e-03
    86   -4.699188362918e-15
    87   -2.854316942471e-16
    88   -2.325122484168e-14
    89   -2.788141442318e-14
    90   -2.099225264590e-14
    91    1.878105178203e-14
    92   -1.131911790379e-01
    93    3.952168572075e-14
    94   -4.801941332644e-14
    95    2.939974411451e-14
    96   -1.997489116538e-01
    97    4.289612674413e-13
    98   -7.498261994613e-15
    99   -1.852585204810e-13
   100   -1.111829314771e-01
   101    1.381122744333e-12
   102   -1.491560351278e-12
   103    3.282179133272e-13
   104   -3.964437011537e-02
   105   -8.323683801270e-15
   106   -1.550029774738e-02
   107   -2.528710319497e-02
   108    4.425737104668e-14
   109   -1.638204403179e-14
   110   -1.619897283794e-14
   111   -2.446152232036e-14
   112    1.129602637319e-13
   113   -1.665590899417e-13
   114   -2.585344762266e-01
   115    8.890652935871e-14
   116    1.159699659265e-13
   117   -1.771765099262e-13
   118   -3.016014142300e-01
   119    2.368751625100e-14
   120    2.463798591447e-14
   121   -5.495515164488e-14
   122   -1.847184547646e-01
   123    5.772623823947e-14
   124    2.179445845956e-13
   125    1.705599856557e-13
   126    1.260225379060e-02
   127   -2.134370398741e-15
   128    2.088372590331e-02
   129    1.313437952474e-02
   130   -6.937370089484e-15
   131    3.890910464313e-15
   132   -4.239267641037e-14
   133   -4.581996782299e-14
   134    4.622726780729e-14
   135   -2.677957312553e-14
   136   -1.009647445261e-01
   137    5.314133798882e-14
   138    9.179741719382e-14
   139   -7.338331724288e-14
   140   -1.671428686652e-01
   141    3.294286338067e-13
   142    3.194320793165e-14
   143    3.434946132250e-13
   144   -1.581772437758e-01
   145   -1.556624714791e-12
   146   -4.079032814333e-13
   147   -4.518700846360e-13
   148    6.869730250723e-04
   149   -5.150543374015e-15
   150   -9.557472700333e-03
   151    5.288027831309e-03
   152   -5.310605596597e-15
   153   -6.679062817561e-15
   154    3.163391799193e-14
   155    7.488824440975e-15
   156   -4.184331937262e-15
   157   -1.425809115350e-14
   158    9.781965290859e-02
   159    1.081832879722e-13
   160   -5.414259704177e-14
   161   -1.147347142749e-14
   162    1.614937879473e-01
   163   -1.362056102572e-13
   164    5.024708726231e-13
   165   -4.873621584045e-14
   166    1.527250751340e-01
   167    8.071648432640e-13
   168    4.156316634213e-14
   169   -2.984975930899e-13
   170    6.246137615743e-03
   171    4.230569200106e-15
   172    4.058141713766e-03
   173    1.361581544817e-03
   174   -9.043458597000e-15
   175   -6.791219274806e-15
   176   -1.309262021666e-13
   177   -1.003858695864e-13
   178    4.118548076556e-15
   179   -1.505188759288e-14
   180   -8.831344460148e-03
   181   -4.126956198316e-14
   182    6.471622946744e-15
   183   -3.639964251711e-14
   184   -1.693087091887e-02
   185   -2.711686843309e-14
   186    1.175427086694e-14
   187   -1.016431782505e-13
   188   -1.335030341267e-03
   189   -5.610693699749e-12
   190    2.375012127881e-12
   191    9.529935742457e-13
   192    1.460963441688e-02
   193    2.130335855212e-15
   194   -3.830022594928e-03
   195   -1.219274157068e-02
   196   -1.603844484098e-15
   197   -1.185681300205e-14
   198    2.988727755438e-15
   199    6.430591810655e-15
   200   -1.605896481113e-13
   201   -2.145313988150e-13
   202   -2.719034291473e-15
   203   -1.408647265907e-16
   204   -1.168154075546e-03
Sym=X
Ene= 2.002784
Spin=Alpha
Occup=1
     1    8.390408713185e-03
     2    1.425768658535e-02
     3   -2.125431680460e-02
     4   -2.095239193630e-02
     5    6.399474248029e-14
     6   -3.942652880808e-02
     7   -3.590951203816e-02
     8   -3.536644936878e-02
     9    1.154518011226e-13
    10   -7.107891209518e-02
    11   -2.883078415631e-02
    12   -5.582490796208e-02
    13    1.097776392592e-13
    14   -2.367602535490e-01
    15   -6.253880107541e-02
    16   -5.030974990410e-02
    17   -2.081524113237e-14
    18    1.127482683778e-03
    19    3.667107717669e-14
    20    8.641911281796e-15
    21   -8.473451230335e-03
    22    3.301600459750e-04
    23   -3.236323257584e-03
    24   -7.817929234467e-03
    25   -1.593664735937e-03
    26    1.166108790966e-02
    27   -7.183927330351e-04
    28   -2.578440259929e-04
    29   -7.829592755077e-15
    30    1.523266142559e-02
    31    2.088629083615e-02
    32    8.998325001260e-03
    33   -2.036832189313e-02
    34   -1.163535313815e-03
    35   -4.226739102041e-04
    36    9.732325880560e-15
    37    3.650500163996e-03
    38    1.650129030833e-02
    39    1.406829543914e-02
    40   -4.963773220770e-02
    41   -2.134669109051e-03
    42   -7.402239984143e-04
    43    2.419552372217e-15
    44   -1.293486072037e-02
    45   -2.156040215596e-02
    46    3.076744390139e-02
    47    1.377775477659e-02
    48    4.580005606584e-14
    49    6.080883798216e-02
    50    5.205079626551e-02
    51    2.183642955443e-02
    52    9.453002739070e-14
    53    6.435724864859e-02
    54    5.075098633519e-02
    55    2.107294452218e-02
    56   -1.908597187194e-14
    57    3.892317154728e-02
    58    2.441112076260e-02
    59    4.283884689025e-02
    60    2.962381538619e-14
    61   -1.714831754458e-03
    62    2.510482878006e-15
    63    1.888044198574e-14
    64   -1.553902388057e-02
    65    1.793515771724e-03
    66    3.589297231586e-03
    67    6.052066529758e-03
    68    2.327057360161e-02
    69    4.987361961275e-02
    70    1.101381043445e-13
    71   -1.758539098766e-02
    72    3.748801575027e-02
    73    7.647386878729e-02
    74    1.474867292762e-13
    75   -1.269874425554e-02
    76    2.915140103348e-02
    77    6.467585599902e-02
    78    1.020190951956e-13
    79    1.322872267571e-02
    80    5.939047946914e-03
    81    1.984284465745e-03
    82    2.238335910306e-15
    83    8.717106109999e-05
    84    6.286170356218e-15
    85   -7.969970644480e-15
    86    4.453365705998e-03
    87    2.360845034309e-03
    88   -9.197056345401e-03
    89   -1.598636810031e-02
    90    4.116791107873e-02
    91   -2.925963845781e-02
    92   -2.023962393179e-14
    93    4.833951771583e-02
    94    7.108582850601e-02
    95   -5.827728571596e-02
    96   -2.887242560857e-14
    97    6.367447451384e-02
    98   -1.199127372584e-02
    99    2.575922258793e-02
   100   -9.005613763466e-14
   101   -2.194329578850e-01
   102   -2.763900307306e-02
   103    1.259466190176e-01
   104   -3.517661370352e-14
   105   -6.515531739545e-04
   106   -4.267126218947e-14
   107   -4.313457864698e-14
   108   -5.515050387853e-02
   109    3.495390017375e-02
   110   -4.078746479427e-04
   111   -3.566431811956e-04
   112   -2.368211563743e-01
   113    2.723752245259e-01
   114   -3.834382432245e-13
   115   -2.825771859985e-03
   116   -2.705142789304e-01
   117    3.123522834769e-01
   118   -4.082734044549e-13
   119   -2.785225798566e-02
   120   -1.749549208490e-01
   121    2.290057019639e-01
   122   -2.038738584594e-13
   123   -2.397211232155e-02
   124    8.013850437562e-03
   125    3.402407741486e-03
   126   -3.127611264028e-14
   127   -2.396596848969e-03
   128    1.992352749548e-14
   129    7.173343247081e-15
   130    1.427126090885e-02
   131   -1.834894864937e-03
   132    2.279357684822e-02
   133    3.761662209699e-02
   134   -7.167312341605e-02
   135    2.652354073291e-02
   136    8.368461407738e-14
   137   -1.008986226137e-01
   138   -1.124718881372e-01
   139    3.328526442920e-02
   140    1.314243582036e-13
   141   -1.852534249005e-01
   142   -8.503430289579e-02
   143    5.231848938497e-02
   144    1.636811389270e-13
   145   -1.481160472091e-01
   146    4.976278553937e-02
   147    2.603018597448e-02
   148    3.189737862242e-14
   149   -1.218211964412e-03
   150   -8.372986879999e-15
   151   -4.722083763300e-15
   152    7.442617094188e-04
   153    3.453428550481e-03
   154   -2.023997040593e-03
   155   -3.360410881352e-03
   156    3.729834228761e-05
   157    1.131456225714e-02
   158   -8.430361263466e-14
   159    8.915574167293e-03
   160   -8.366714851301e-04
   161    1.584293060001e-02
   162   -1.288893088342e-13
   163    2.520232195266e-02
   164    2.646983767004e-03
   165    1.477722818613e-02
   166   -1.186981700879e-13
   167    6.714300791475e-02
   168    8.975366264189e-03
   169    3.274960705216e-02
   170   -2.283353043630e-14
   171    3.345580347518e-04
   172    7.299219308171e-15
   173    7.946188735352e-15
   174   -2.674133610492e-03
   175    7.116333236573e-04
   176   -1.695986549394e-02
   177   -2.760913246934e-02
   178    3.213149323979e-02
   179    5.269700749510e-02
   180    9.939612097933e-14
   181    6.987150297924e-02
   182    5.163086212625e-02
   183    7.347945536389e-02
   184    1.595451820500e-13
   185    1.548553593093e-01
   186   -3.963741287960e-03
   187    7.746610913194e-02
   188    1.916853099718e-13
   189    4.965030708901e-01
   190   -7.216266067622e-02
   191    3.780716323411e-02
   192    5.649136283479e-14
   193   -5.540247257106e-04
   194    5.823865638409e-15
   195   -6.440174185911e-15
   196   -2.709735539246e-03
   197    2.694575778920e-03
   198    1.159863361495e-02
   199    1.382188462938e-02
   200    6.683185246695e-04
   201    2.502990426306e-02
   202   -1.644498269271e-03
   203    1.630638027146e-03
   204    5.503130002853e-15
Sym=X
Ene= 2.002034
Spin=Alpha
Occup=1
     1    3.375102136649e-15
     2   -7.087577131734e-14
     3    2.780203525009e-14
     4    3.779226473072e-14
     5    5.399513651349e-02
     6    4.008318987544e-13
     7    5.808356815898e-14
     8    4.676854208968e-14
     9    9.149217920697e-02
    10   -2.218750693665e-13
    11    2.618639121314e-13
    12   -1.067819934973e-13
    13    1.088774448682e-01
    14    1.095290219876e-12
    15    5.298019734042e-13
    16   -2.946651162797e-13
    17    1.531658452894e-02
    18   -6.673223090973e-15
    19    2.980795385327e-02
    20    3.466778065161e-03
    21    7.469493408305e-14
    22   -5.626721035538e-14
    23    3.318117061638e-14
    24    1.971527459794e-13
    25   -1.876109297913e-14
    26    7.190488114452e-13
    27    2.339772464562e-14
    28   -1.873195913449e-14
    29   -1.114847671780e-02
    30   -8.307875071733e-15
    31   -7.430083857697e-14
    32   -1.185034060115e-13
    33   -2.034604261189e-13
    34    2.427896132015e-15
    35    2.134757486369e-14
    36    4.212591533783e-03
    37   -2.126618249896e-14
    38   -2.536201936940e-13
    39    6.144736171857e-13
    40   -6.602499060421e-13
    41   -1.246111642088e-14
    42    3.959978117739e-15
    43    9.180475449676e-03
    44    8.350775129869e-15
    45    4.139217164531e-14
    46   -1.336505664219e-13
    47    2.123375938419e-13
    48   -1.567153962878e-02
    49   -1.428390657272e-13
    50   -2.299644377549e-13
    51    3.361555893692e-13
    52   -3.058682856003e-02
    53   -4.117191448221e-14
    54    9.237446222235e-14
    55    3.113668811910e-13
    56   -1.406678899575e-02
    57   -5.744228885808e-13
    58    4.971291303666e-13
    59    1.175068921373e-12
    60    1.567764299010e-02
    61    1.946896544134e-14
    62    1.971112324035e-02
    63    1.996098170282e-02
    64   -2.761385908484e-13
    65   -1.859144534203e-13
    66    1.692872193623e-13
    67    2.081808551742e-13
    68    8.191106460797e-13
    69    8.975109820987e-13
    70   -2.199867828918e-02
    71   -3.730618119854e-13
    72    1.233557775797e-12
    73    1.366450725605e-12
    74   -3.460765519240e-02
    75   -5.155837874318e-13
    76    1.115030647773e-12
    77    1.431256382192e-12
    78   -2.778592284962e-02
    79    1.481054164812e-13
    80    3.688119367422e-14
    81   -2.316949332967e-13
    82   -7.242212530719e-03
    83   -8.834224621046e-15
    84   -2.110745682939e-03
    85    1.974013752749e-03
    86    8.415292951812e-14
    87    2.065557752263e-14
    88    3.023926407963e-14
    89   -3.639401352810e-15
    90    3.781089507019e-13
    91    7.040237138318e-13
    92    2.431947818253e-02
    93    1.821213969162e-13
    94    5.570015372424e-13
    95    1.148428136083e-12
    96    4.655820558595e-02
    97    6.299629113248e-13
    98   -1.655042234779e-14
    99    1.161162782078e-13
   100    1.573326864094e-02
   101   -5.696438420577e-13
   102   -1.518000714779e-12
   103    9.676005971735e-13
   104   -1.419716941616e-02
   105   -4.913946462137e-14
   106   -4.152395578017e-02
   107   -2.187229574191e-02
   108    2.090826577154e-13
   109    1.671246928615e-14
   110   -7.779626018914e-14
   111   -1.105682473704e-13
   112   -5.030677664614e-13
   113   -1.372149826866e-12
   114   -2.438432953175e-01
   115    3.478167877038e-13
   116   -5.909192198724e-13
   117   -1.554577131324e-12
   118   -2.766691605579e-01
   119   -3.474368888816e-13
   120   -1.240489297400e-13
   121   -8.428832820380e-13
   122   -1.931331127501e-01
   123    3.859157786378e-14
   124    2.826965929043e-13
   125    4.635100481700e-14
   126   -3.006503980712e-02
   127   -5.855533769647e-14
   128    8.412770337366e-03
   129    5.416709186094e-03
   130    2.860405317695e-14
   131    9.678017557499e-14
   132   -1.951681341238e-13
   133   -9.453244485905e-14
   134    3.170085801989e-13
   135    1.042658409168e-13
   136    1.259963947110e-01
   137   -3.553376616242e-13
   138    4.814460402980e-13
   139    1.018566440031e-13
   140    2.049783947986e-01
   141   -4.575421685698e-13
   142    5.654183198557e-13
   143    5.468263360058e-13
   144    2.159637062956e-01
   145   -2.708906861163e-12
   146   -3.232098530824e-13
   147   -4.804987588165e-13
   148    2.284797058479e-02
   149   -6.669691227962e-16
   150    3.393073437628e-03
   151   -4.683298108739e-03
   152    4.399846017048e-14
   153    1.977767787032e-14
   154    2.840022151670e-14
   155   -6.077845843589e-14
   156    8.352147026653e-14
   157   -5.169401366286e-14
   158   -1.140428230454e-01
   159    4.660169371041e-13
   160    6.367879909105e-14
   161   -1.197480421898e-13
   162   -1.852161094229e-01
   163    7.022039918693e-13
   164    5.453152035542e-13
   165    1.552933802348e-13
   166   -2.160771320636e-01
   167    1.903356800881e-12
   168    3.927541976102e-13
   169    8.046434182009e-15
   170   -5.515373820782e-02
   171    1.658239198610e-14
   172    3.125436968947e-03
   173   -4.855132143941e-03
   174    3.568340619535e-14
   175   -1.569948266617e-14
   176    6.409388194229e-14
   177    8.141067455582e-14
   178    1.337744625362e-13
   179   -5.927657069170e-13
   180    1.083467264186e-01
   181   -1.446451635652e-13
   182    1.554677421309e-13
   183   -9.279774742361e-13
   184    1.846743101157e-01
   185   -3.650779066118e-13
   186    3.947352972587e-13
   187   -7.018652581424e-13
   188    1.913179200009e-01
   189    6.513780782712e-13
   190    1.549096198505e-12
   191    1.059286261270e-12
   192    1.971637448402e-02
   193    1.319978461624e-14
   194   -1.363914517086e-02
   195    1.935847177538e-03
   196    8.306593416142e-14
   197   -1.575975956702e-15
   198    3.215875527914e-13
   199    5.354349261616e-13
   200   -3.819231768475e-13
   201   -8.998112821982e-14
   202   -6.186077063399e-14
   203    1.199297389347e-14
   204    8.214924737695e-03
Sym=X
Ene= 2.001873
Spin=Alpha
Occup=1
     1   -7.220688764896e-05
     2   -2.505584262543e-04
     3   -7.775503872763e-03
     4    1.540767686903e-02
     5    3.770872147061e-13
     6   -8.913000310098e-04
     7   -1.295592548638e-02
     8    2.369234046124e-02
     9    6.484469227896e-13
    10   -1.634097036970e-03
    11   -1.924396091116e-02
    12    8.774197540419e-03
    13    7.091925241682e-13
    14   -3.438798704043e-02
    15   -4.163156611391e-02
    16   -6.244670984373e-03
    17    5.362628069989e-14
    18   -1.104798301258e-03
    19    1.770976305394e-13
    20    2.342722196351e-14
    21    1.455074324699e-03
    22    6.336350606212e-03
    23    1.801418065999e-02
    24    3.779006680510e-02
    25    2.398092072832e-02
    26   -3.197915720915e-02
    27    3.452780680173e-03
    28    2.894609579277e-03
    29   -6.193344498547e-14
    30   -1.021553857401e-02
    31   -1.765829572709e-02
    32    1.683843848008e-03
    33   -1.039106401489e-02
    34   -2.860927667188e-04
    35   -2.101230807013e-03
    36    3.455537007769e-14
    37   -5.029586179813e-03
    38   -4.635585067470e-03
    39   -2.260940693940e-02
    40    8.653853537674e-03
    41    2.283673515610e-03
    42    2.302024203151e-03
    43    6.303056428775e-14
    44    1.052455097402e-02
    45    1.743690156297e-02
    46    2.295303169665e-03
    47   -9.684004854352e-03
    48   -7.074798217267e-14
    49   -5.237748075361e-02
    50    6.141345478090e-03
    51   -1.076890122006e-02
    52   -1.461851703461e-13
    53   -4.177821128763e-02
    54   -5.625201660590e-02
    55   -9.372973121420e-02
    56   -1.156494949460e-13
    57   -1.398086841878e-02
    58   -5.783618412848e-02
    59   -7.227272974413e-02
    60    1.546644469293e-13
    61    1.545570206190e-03
    62    1.484312513068e-13
    63    9.756571202304e-14
    64    5.298305978288e-02
    65    2.995479351326e-02
    66   -7.725425437564e-03
    67   -1.307505347686e-02
    68   -1.246631865519e-01
    69   -1.574919752501e-01
    70   -1.291760912124e-13
    71    3.861692469337e-02
    72   -1.919118607842e-01
    73   -2.440668892896e-01
    74   -2.106448070295e-13
    75    5.118332100643e-02
    76   -1.637677601007e-01
    77   -2.282658054780e-01
    78   -1.623800874013e-13
    79    1.157363655120e-02
    80   -2.341091601059e-03
    81   -1.209406734713e-02
    82   -8.200123111879e-14
    83    1.101574309190e-03
    84   -1.589013173844e-14
    85    1.190020520365e-14
    86   -1.308489502101e-02
    87   -3.918605976149e-03
    88    1.673264380484e-02
    89    2.585296446922e-02
    90   -6.870288005843e-02
    91   -8.203182776475e-02
    92    1.743161287825e-13
    93   -7.258899352544e-02
    94   -1.056953503232e-01
    95   -1.366533966624e-01
    96    3.174549286135e-13
    97   -4.741930743847e-02
    98   -1.820552137050e-02
    99   -1.546692588126e-02
   100    1.185971211492e-13
   101   -5.762177224254e-02
   102    1.708159116594e-03
   103    2.735987450234e-02
   104   -1.041264642580e-13
   105    7.197007005112e-03
   106   -2.743801144660e-13
   107   -1.421689314151e-13
   108   -2.331661347084e-02
   109   -8.565184887803e-03
   110    9.377236719622e-03
   111    1.322838975681e-02
   112    1.063946101994e-01
   113    1.874668422805e-01
   114   -1.519545365791e-12
   115   -3.788380386740e-02
   116    1.222028092270e-01
   117    2.141844191745e-01
   118   -1.722103585247e-12
   119    6.473004242906e-02
   120    2.840074990023e-02
   121    1.181645181280e-01
   122   -1.162173496554e-12
   123    1.664260953993e-02
   124    3.265084260670e-03
   125    3.246741714181e-03
   126   -1.884754930010e-13
   127    9.104719802864e-03
   128    5.069471366624e-14
   129    3.338913821642e-14
   130   -4.627916383781e-03
   131   -1.565147844330e-02
   132   -1.020263282372e-02
   133   -1.719562394307e-02
   134   -2.851129809760e-02
   135   -2.212108063528e-02
   136    8.118924383651e-13
   137    4.407029498597e-02
   138   -3.762353363641e-02
   139   -2.957055502620e-02
   140    1.314945906725e-12
   141    1.160547701081e-01
   142   -8.298610299459e-02
   143   -3.509954859179e-02
   144    1.464678712231e-12