[Molden Format]
[Atoms] (Angs)
  C      1    6     -0.00714236     -1.70213747     -0.00000000
  H      2    1     -2.06882847     -1.44022412      0.00000000
  H      3    1     -0.12337987     -2.77567521      0.00000000
  H      4    1      0.04651892      1.98813947     -0.00000000
  C      5    6     -1.21953563      0.40211669      0.00000000
  O      6    8     -2.25921553      1.03043814      0.00000000
  C      7    6      1.28797806      0.34644937     -0.00000000
  O      8    8      2.31273661      1.00537216     -0.00000000
  N      9    7      0.03446295      0.97739857     -0.00000000
  N     10    7     -1.17287765     -0.98229824      0.00000000
  C     11    6      1.20107039     -1.10433419     -0.00000000
  H     12    1      2.11220096     -1.67699125     -0.00000000
[GTO]
1    0
S    6    1.000000
   4.56324000E+03    1.96665000E-03 
   6.82024000E+02    1.52306000E-02 
   1.54973000E+02    7.61269000E-02 
   4.44553000E+01    2.60801000E-01 
   1.30290000E+01    6.16462000E-01 
   1.82773000E+00    2.21006000E-01 
SP   3    1.000000
   2.09642000E+01    1.14660000E-01   4.02487000E-02 
   4.80331000E+00    9.19999000E-01   2.37594000E-01 
   1.45933000E+00   -3.03068000E-03   8.15854000E-01 
SP   1    1.000000
   4.83456000E-01    1.00000000E+00   1.00000000E+00 
SP   1    1.000000
   1.45585000E-01    1.00000000E+00   1.00000000E+00 
SP   1    1.000000
   4.38000000E-02    1.00000000E+00   1.00000000E+00 
D    1    1.000000
   6.26000000E-01    1.00000000E+00 

2    0
S    3    1.000000
   3.38650000E+01    2.54938000E-02 
   5.09479000E+00    1.90373000E-01 
   1.15879000E+00    8.52161000E-01 
S    1    1.000000
   3.25840000E-01    1.00000000E+00 
S    1    1.000000
   1.02741000E-01    1.00000000E+00 
S    1    1.000000
   3.60000000E-02    1.00000000E+00 
P    1    1.000000
   7.50000000E-01    1.00000000E+00 

3    0
S    3    1.000000
   3.38650000E+01    2.54938000E-02 
   5.09479000E+00    1.90373000E-01 
   1.15879000E+00    8.52161000E-01 
S    1    1.000000
   3.25840000E-01    1.00000000E+00 
S    1    1.000000
   1.02741000E-01    1.00000000E+00 
S    1    1.000000
   3.60000000E-02    1.00000000E+00 
P    1    1.000000
   7.50000000E-01    1.00000000E+00 

4    0
S    3    1.000000
   3.38650000E+01    2.54938000E-02 
   5.09479000E+00    1.90373000E-01 
   1.15879000E+00    8.52161000E-01 
S    1    1.000000
   3.25840000E-01    1.00000000E+00 
S    1    1.000000
   1.02741000E-01    1.00000000E+00 
S    1    1.000000
   3.60000000E-02    1.00000000E+00 
P    1    1.000000
   7.50000000E-01    1.00000000E+00 

5    0
S    6    1.000000
   4.56324000E+03    1.96665000E-03 
   6.82024000E+02    1.52306000E-02 
   1.54973000E+02    7.61269000E-02 
   4.44553000E+01    2.60801000E-01 
   1.30290000E+01    6.16462000E-01 
   1.82773000E+00    2.21006000E-01 
SP   3    1.000000
   2.09642000E+01    1.14660000E-01   4.02487000E-02 
   4.80331000E+00    9.19999000E-01   2.37594000E-01 
   1.45933000E+00   -3.03068000E-03   8.15854000E-01 
SP   1    1.000000
   4.83456000E-01    1.00000000E+00   1.00000000E+00 
SP   1    1.000000
   1.45585000E-01    1.00000000E+00   1.00000000E+00 
SP   1    1.000000
   4.38000000E-02    1.00000000E+00   1.00000000E+00 
D    1    1.000000
   6.26000000E-01    1.00000000E+00 

6    0
S    6    1.000000
   8.58850000E+03    1.89515000E-03 
   1.29723000E+03    1.43859000E-02 
   2.99296000E+02    7.07320000E-02 
   8.73771000E+01    2.40001000E-01 
   2.56789000E+01    5.94797000E-01 
   3.74004000E+00    2.80802000E-01 
SP   3    1.000000
   4.21175000E+01    1.13889000E-01   3.65114000E-02 
   9.62837000E+00    9.20811000E-01   2.37153000E-01 
   2.85332000E+00   -3.27447000E-03   8.19702000E-01 
SP   1    1.000000
   9.05661000E-01    1.00000000E+00   1.00000000E+00 
SP   1    1.000000
   2.55611000E-01    1.00000000E+00   1.00000000E+00 
SP   1    1.000000
   8.45000000E-02    1.00000000E+00   1.00000000E+00 
D    1    1.000000
   1.29200000E+00    1.00000000E+00 

7    0
S    6    1.000000
   4.56324000E+03    1.96665000E-03 
   6.82024000E+02    1.52306000E-02 
   1.54973000E+02    7.61269000E-02 
   4.44553000E+01    2.60801000E-01 
   1.30290000E+01    6.16462000E-01 
   1.82773000E+00    2.21006000E-01 
SP   3    1.000000
   2.09642000E+01    1.14660000E-01   4.02487000E-02 
   4.80331000E+00    9.19999000E-01   2.37594000E-01 
   1.45933000E+00   -3.03068000E-03   8.15854000E-01 
SP   1    1.000000
   4.83456000E-01    1.00000000E+00   1.00000000E+00 
SP   1    1.000000
   1.45585000E-01    1.00000000E+00   1.00000000E+00 
SP   1    1.000000
   4.38000000E-02    1.00000000E+00   1.00000000E+00 
D    1    1.000000
   6.26000000E-01    1.00000000E+00 

8    0
S    6    1.000000
   8.58850000E+03    1.89515000E-03 
   1.29723000E+03    1.43859000E-02 
   2.99296000E+02    7.07320000E-02 
   8.73771000E+01    2.40001000E-01 
   2.56789000E+01    5.94797000E-01 
   3.74004000E+00    2.80802000E-01 
SP   3    1.000000
   4.21175000E+01    1.13889000E-01   3.65114000E-02 
   9.62837000E+00    9.20811000E-01   2.37153000E-01 
   2.85332000E+00   -3.27447000E-03   8.19702000E-01 
SP   1    1.000000
   9.05661000E-01    1.00000000E+00   1.00000000E+00 
SP   1    1.000000
   2.55611000E-01    1.00000000E+00   1.00000000E+00 
SP   1    1.000000
   8.45000000E-02    1.00000000E+00   1.00000000E+00 
D    1    1.000000
   1.29200000E+00    1.00000000E+00 

9    0
S    6    1.000000
   6.29348000E+03    1.96979000E-03 
   9.49044000E+02    1.49613000E-02 
   2.18776000E+02    7.35006000E-02 
   6.36916000E+01    2.48937000E-01 
   1.88282000E+01    6.02460000E-01 
   2.72023000E+00    2.56202000E-01 
SP   3    1.000000
   3.06331000E+01    1.11906000E-01   3.83119000E-02 
   7.02614000E+00    9.21666000E-01   2.37403000E-01 
   2.11205000E+00   -2.56919000E-03   8.17592000E-01 
SP   1    1.000000
   6.84009000E-01    1.00000000E+00   1.00000000E+00 
SP   1    1.000000
   2.00878000E-01    1.00000000E+00   1.00000000E+00 
SP   1    1.000000
   6.39000000E-02    1.00000000E+00   1.00000000E+00 
D    1    1.000000
   9.13000000E-01    1.00000000E+00 

10    0
S    6    1.000000
   6.29348000E+03    1.96979000E-03 
   9.49044000E+02    1.49613000E-02 
   2.18776000E+02    7.35006000E-02 
   6.36916000E+01    2.48937000E-01 
   1.88282000E+01    6.02460000E-01 
   2.72023000E+00    2.56202000E-01 
SP   3    1.000000
   3.06331000E+01    1.11906000E-01   3.83119000E-02 
   7.02614000E+00    9.21666000E-01   2.37403000E-01 
   2.11205000E+00   -2.56919000E-03   8.17592000E-01 
SP   1    1.000000
   6.84009000E-01    1.00000000E+00   1.00000000E+00 
SP   1    1.000000
   2.00878000E-01    1.00000000E+00   1.00000000E+00 
SP   1    1.000000
   6.39000000E-02    1.00000000E+00   1.00000000E+00 
D    1    1.000000
   9.13000000E-01    1.00000000E+00 

11    0
S    6    1.000000
   4.56324000E+03    1.96665000E-03 
   6.82024000E+02    1.52306000E-02 
   1.54973000E+02    7.61269000E-02 
   4.44553000E+01    2.60801000E-01 
   1.30290000E+01    6.16462000E-01 
   1.82773000E+00    2.21006000E-01 
SP   3    1.000000
   2.09642000E+01    1.14660000E-01   4.02487000E-02 
   4.80331000E+00    9.19999000E-01   2.37594000E-01 
   1.45933000E+00   -3.03068000E-03   8.15854000E-01 
SP   1    1.000000
   4.83456000E-01    1.00000000E+00   1.00000000E+00 
SP   1    1.000000
   1.45585000E-01    1.00000000E+00   1.00000000E+00 
SP   1    1.000000
   4.38000000E-02    1.00000000E+00   1.00000000E+00 
D    1    1.000000
   6.26000000E-01    1.00000000E+00 

12    0
S    3    1.000000
   3.38650000E+01    2.54938000E-02 
   5.09479000E+00    1.90373000E-01 
   1.15879000E+00    8.52161000E-01 
S    1    1.000000
   3.25840000E-01    1.00000000E+00 
S    1    1.000000
   1.02741000E-01    1.00000000E+00 
S    1    1.000000
   3.60000000E-02    1.00000000E+00 
P    1    1.000000
   7.50000000E-01    1.00000000E+00 

[MO]
Sym=X
Ene= 2.006543
Spin=Alpha
Occup=1
     1    1.278366570693e-14
     2    6.793170545742e-15
     3   -2.356641418438e-14
     4   -1.748276041215e-15
     5    3.481085189679e-02
     6    2.541232648521e-14
     7   -2.022962013236e-14
     8   -2.009220616353e-14
     9    5.960872457256e-02
    10   -4.517925513959e-13
    11    8.432986440769e-14
    12   -1.603008484478e-13
    13    3.522228984143e-02
    14    5.441895707288e-12
    15    1.597937223175e-12
    16    6.459373370086e-13
    17    5.018230501931e-03
    18    6.034105256854e-15
    19   -1.251778224471e-02
    20    6.228028930759e-03
    21    1.676062911002e-14
    22    1.777319224459e-15
    23    2.994164684806e-14
    24    2.582311288154e-13
    25   -1.157520621717e-13
    26    4.948516017490e-13
    27    1.536897773948e-14
    28    6.697607866515e-15
    29    9.242600325137e-03
    30   -7.145041337852e-15
    31   -9.083256934271e-15
    32   -6.667256721998e-14
    33    7.211158179676e-14
    34    4.924577407073e-16
    35    8.513231630473e-15
    36    2.965965401068e-03
    37    4.421399893435e-16
    38   -1.965103155556e-13
    39    4.655081804039e-13
    40   -3.670128507773e-13
    41   -5.278084216343e-15
    42    1.212153696070e-14
    43   -8.656879289266e-03
    44    4.539060656409e-14
    45    4.601741161729e-14
    46   -2.106624472697e-14
    47   -4.050460210604e-14
    48    2.654295114947e-02
    49   -3.341076885450e-14
    50   -2.101498822066e-14
    51   -3.908530750546e-14
    52    4.626694574543e-02
    53    6.227368031079e-15
    54   -1.719647678583e-13
    55   -3.646597237155e-13
    56    3.276340360375e-02
    57   -1.148513595490e-12
    58    8.893500831655e-15
    59    6.997634742489e-13
    60    9.931794754824e-03
    61    1.719951064486e-15
    62   -1.654104197375e-02
    63   -1.298318253290e-02
    64    1.811167732735e-14
    65    1.341971264807e-14
    66    2.123101657452e-14
    67    2.387386587862e-14
    68   -4.044412547083e-14
    69   -4.819061593555e-14
    70    4.085936663713e-02
    71   -3.149532872832e-14
    72   -8.266209872629e-14
    73   -1.036887670512e-13
    74    6.429499862860e-02
    75   -8.189810682074e-14
    76    1.323417059684e-15
    77    4.442538089239e-14
    78    5.659624489275e-02
    79    2.919312598019e-13
    80    2.847852146278e-14
    81   -2.708037402829e-13
    82   -1.056830128448e-03
    83    2.433641513203e-15
    84    4.090987030708e-03
    85   -2.745531712540e-03
    86   -5.447077818042e-15
    87   -1.507796624043e-15
    88   -3.361783996050e-14
    89   -3.752245532201e-14
    90   -2.626719298128e-14
    91    2.018898159954e-14
    92   -1.129157519850e-01
    93    4.663769217222e-14
    94   -5.471451668486e-14
    95    3.582525632404e-14
    96   -1.987812946130e-01
    97    3.918333816109e-13
    98    1.211785709469e-14
    99   -1.793554600945e-13
   100   -1.101099682947e-01
   101    1.060834136433e-12
   102   -1.361249592648e-12
   103    3.647443617710e-13
   104   -3.394044792354e-02
   105   -7.451061403552e-15
   106   -1.490714439677e-02
   107   -2.607015919899e-02
   108    4.622227856908e-14
   109   -1.806714142841e-14
   110   -1.785446040517e-14
   111   -2.723312413431e-14
   112    1.303136930044e-13
   113   -1.807190958281e-13
   114   -2.532682781205e-01
   115    9.847551583866e-14
   116    1.363555091929e-13
   117   -1.944425870476e-13
   118   -2.959682151238e-01
   119    2.357566978663e-14
   120    4.835955609372e-14
   121   -7.118941170781e-14
   122   -1.862008234349e-01
   123    5.414514162272e-14
   124    1.995309249127e-13
   125    1.554049648617e-13
   126    1.062896651690e-02
   127   -1.246206823364e-15
   128    2.025927538439e-02
   129    1.190632740258e-02
   130   -6.985675434414e-15
   131    4.369408744919e-15
   132   -5.276752206931e-14
   133   -5.729316902692e-14
   134    5.662896619756e-14
   135   -2.443797935544e-14
   136   -1.005346684875e-01
   137    6.898008310737e-14
   138    1.071832942319e-13
   139   -6.506663211032e-14
   140   -1.657034948167e-01
   141    3.490814460973e-13
   142    5.486897958687e-14
   143    3.252289070201e-13
   144   -1.592642285984e-01
   145   -1.405797690361e-12
   146   -3.961858315923e-13
   147   -4.447575554672e-13
   148   -3.147460959460e-03
   149   -6.633277214966e-15
   150   -1.028705857416e-02
   151    4.024561552436e-03
   152   -6.220019119038e-15
   153   -8.133350361329e-15
   154    3.896938028340e-14
   155    9.260572831359e-15
   156   -9.098125191041e-15
   157   -1.688650970060e-14
   158    1.026342898960e-01
   159    1.323561012424e-13
   160   -5.970876547654e-14
   161   -1.429011287344e-14
   162    1.686159794539e-01
   163   -1.015501863006e-13
   164    4.731417885146e-13
   165   -6.027953201768e-14
   166    1.619727063769e-01
   167    7.858708110415e-13
   168   -1.046737426941e-14
   169   -3.273607139182e-13
   170    9.420162873971e-03
   171    1.446829237307e-15
   172    3.562325572763e-03
   173    1.466250337388e-03
   174   -6.868760961171e-15
   175   -7.033343391377e-15
   176   -1.613135268946e-13
   177   -1.241274621115e-13
   178   -3.747048084815e-15
   179   -1.509053827245e-14
   180   -1.134749842107e-02
   181   -4.914687585755e-14
   182   -5.196509764028e-15
   183   -3.408367222753e-14
   184   -2.136013126790e-02
   185   -3.333749334073e-14
   186   -1.922377256044e-14
   187   -9.497833037784e-14
   188   -6.342866326004e-03
   189   -5.211348281414e-12
   190    2.203007466473e-12
   191    9.971526496711e-13
   192    8.614973817705e-03
   193    1.077995044813e-15
   194   -3.692844670151e-03
   195   -1.158094971747e-02
   196   -2.608249897391e-15
   197   -1.118568650893e-14
   198   -4.178816460544e-15
   199   -2.180479836625e-15
   200   -1.352694431068e-13
   201   -1.674340680922e-13
   202   -1.223622598959e-15
   203   -5.939468674550e-16
   204   -1.524039052413e-03
Sym=X
Ene= 2.002001
Spin=Alpha
Occup=1
     1    1.092360088287e-02
     2    1.786488040889e-02
     3   -1.843648699624e-02
     4   -1.450004609575e-02
     5    3.692363239195e-14
     6   -4.649566948953e-02
     7   -3.144082890847e-02
     8   -2.562956497911e-02
     9    6.920035095901e-14
    10   -7.678903243807e-02
    11   -2.336417754973e-02
    12   -4.540448908299e-02
    13    5.177165003690e-14
    14   -1.999780122682e-01
    15   -4.683156318782e-02
    16   -3.617568415354e-02
    17   -2.502279516237e-14
    18    1.369588950256e-03
    19    1.972275474153e-14
    20    7.459548597730e-15
    21   -6.084207861006e-03
    22   -5.956049095784e-04
    23   -1.056533647271e-03
    24   -5.745194968347e-03
    25   -5.403875228125e-03
    26    1.616757859582e-02
    27   -6.075474006230e-04
    28   -9.667991655769e-04
    29   -1.058291383297e-15
    30    7.429407787500e-03
    31    9.459339551140e-03
    32    9.204351697704e-03
    33   -1.246658815299e-02
    34   -1.182167409648e-03
    35   -1.362025836824e-03
    36    8.290577318439e-15
    37   -6.479768430071e-03
    38    4.251638773484e-03
    39    2.153663727580e-02
    40   -4.973867045966e-02
    41   -2.939409588206e-03
    42    6.774246275481e-04
    43    3.642990298754e-16
    44   -1.439518500842e-02
    45   -2.286288302346e-02
    46    3.766460418906e-02
    47    2.163919035950e-02
    48    6.367655971894e-14
    49    6.054701867866e-02
    50    6.211148289208e-02
    51    3.407502433543e-02
    52    1.244611801938e-13
    53    6.212310506487e-02
    54    5.703763629303e-02
    55    3.440994031577e-02
    56   -8.011964519082e-16
    57    4.330963580329e-02
    58    3.435060875965e-02
    59    5.428373064425e-02
    60    3.793050591745e-14
    61   -1.741982719991e-03
    62   -2.350936949073e-15
    63    9.046614109679e-15
    64   -1.868157351682e-02
    65   -4.074798305919e-04
    66    5.152545721659e-03
    67    8.609317123578e-03
    68    3.580390542187e-02
    69    7.005226987735e-02
    70    1.169614842086e-13
    71   -2.468795849837e-02
    72    5.666997504430e-02
    73    1.079230424103e-01
    74    1.583772169088e-13
    75   -1.883269144396e-02
    76    4.784444956023e-02
    77    9.364980889513e-02
    78    1.150242780581e-13
    79    1.560495546022e-02
    80    7.067738841793e-03
    81    3.280083989910e-03
    82   -7.210070837555e-15
    83    1.032787322380e-04
    84    7.825029085413e-15
    85   -8.546016276684e-15
    86    6.098272237470e-03
    87    3.467404583054e-03
    88   -7.531817841272e-03
    89   -1.265334844554e-02
    90    4.201379037462e-02
    91   -2.349381936593e-02
    92   -4.166359866426e-14
    93    3.672315164422e-02
    94    7.059864406929e-02
    95   -5.088474229723e-02
    96   -6.503609085189e-14
    97    5.238800987762e-02
    98   -7.576382334800e-03
    99    2.301178896297e-02
   100   -1.117618145474e-13
   101   -2.271463935118e-01
   102   -2.101809162428e-02
   103    1.249762792199e-01
   104   -5.475620340165e-14
   105   -4.347106113207e-04
   106   -3.253726901474e-14
   107   -3.359985614160e-14
   108   -5.062502452165e-02
   109    3.379316494206e-02
   110   -6.938850710723e-03
   111   -9.887720638832e-03
   112   -2.257112202772e-01
   113    2.624940499739e-01
   114   -3.293404099683e-13
   115    2.960271565274e-02
   116   -2.599419937572e-01
   117    3.025189339868e-01
   118   -3.490380100023e-13
   119   -9.138325088108e-03
   120   -1.734192709447e-01
   121    2.275888509983e-01
   122   -1.748335605646e-13
   123   -1.975206586087e-02
   124    4.322920284784e-03
   125    5.035447833402e-03
   126   -4.753497476133e-15
   127   -2.939473848032e-03
   128    1.909362808220e-14
   129    5.447164197192e-15
   130    1.258620379576e-02
   131   -1.912624886833e-03
   132    2.450778623883e-02
   133    4.046046890530e-02
   134   -7.498337989404e-02
   135    1.576395774649e-02
   136    5.274553591147e-14
   137   -1.080969766109e-01
   138   -1.189178662851e-01
   139    1.549858470743e-02
   140    8.180862478187e-14
   141   -1.931025378295e-01
   142   -8.441178135768e-02
   143    3.596543073806e-02
   144    1.099731851084e-13
   145   -1.560952650491e-01
   146    5.143095533345e-02
   147    1.484993486482e-02
   148    3.133921983537e-14
   149   -1.125755330963e-03
   150   -1.074161943418e-14
   151   -3.076256851140e-15
   152    2.109277483399e-03
   153    4.097063873014e-03
   154   -2.227293038817e-03
   155   -3.673093576904e-03
   156   -6.898983786196e-05
   157    7.868114571209e-03
   158   -1.793501706334e-14
   159    9.424578911839e-03
   160   -1.690607085211e-03
   161    9.500670001634e-03
   162   -2.369229606682e-14
   163    3.759816974159e-02
   164    4.254158223389e-05
   165    1.356934623972e-02
   166    5.369885606030e-15
   167    7.961923843350e-02
   168    4.436589305990e-03
   169    2.566919919165e-02
   170   -7.055950115650e-15
   171    6.519588432473e-04
   172    5.980508896058e-15
   173    1.095362035554e-14
   174   -1.407451603165e-03
   175    1.605166430818e-03
   176   -1.903128512500e-02
   177   -3.013324282655e-02
   178    3.561917779217e-02
   179    4.169822500861e-02
   180    4.168767027537e-14
   181    7.256862821696e-02
   182    5.690956788458e-02
   183    5.593062493478e-02
   184    5.817387655214e-14
   185    1.492140682537e-01
   186    5.829107949022e-03
   187    6.617066731392e-02
   188    9.974395612694e-14
   189    4.485089100953e-01
   190   -6.031811045379e-02
   191    4.053721118614e-02
   192    5.300070941434e-14
   193   -7.509440106610e-04
   194    1.281187766589e-14
   195   -7.412021554133e-15
   196   -7.530989410605e-04
   197    1.525924870701e-03
   198    2.084763063265e-02
   199    2.724086162634e-02
   200    3.533621960237e-03
   201    2.371812096810e-02
   202   -2.635454585070e-03
   203    1.902597868530e-03
   204    7.600690331491e-16
Sym=X
Ene= 2.001225
Spin=Alpha
Occup=1
     1    3.294904994401e-04
     2    1.970048794850e-04
     3   -1.264248594428e-02
     4    8.716151379605e-03
     5   -1.550690623500e-14
     6   -1.660859213823e-03
     7   -2.084921405276e-02
     8    1.319487786999e-02
     9   -1.613230558277e-14
    10   -4.448694915510e-03
    11   -2.507398383185e-02
    12   -1.161160434559e-03
    13   -9.551006702575e-14
    14   -5.642963914801e-02
    15   -4.733717254682e-02
    16   -1.559052306614e-02
    17   -6.059385250301e-14
    18   -1.040254874989e-03
    19   -4.396782101871e-14
    20   -9.237898413832e-17
    21   -7.801984775079e-04
    22    5.282994709168e-03
    23    1.114295064933e-02
    24    2.840160170783e-02
    25    2.459738507173e-02
    26   -3.262290521784e-02
    27    2.523202925465e-03
    28    2.888434100532e-03
    29    2.458842924011e-14
    30   -4.051021562355e-03
    31   -8.346393290232e-03
    32    1.824565151609e-03
    33   -1.414274670604e-02
    34   -5.919728014556e-04
    35   -1.453831329780e-03
    36    4.687132515940e-15
    37   -1.670861195072e-02
    38   -1.918163072835e-02
    39   -2.101121522842e-02
    40    5.610191338173e-03
    41    2.813492847503e-03
    42    4.503035177399e-03
    43   -1.320283751660e-14
    44    8.866663824108e-03
    45    1.358416145678e-02
    46   -4.832521648828e-03
    47   -1.680489705063e-02
    48    5.052543997394e-14
    49   -3.711995641059e-02
    50   -6.029975750394e-03
    51   -2.190102144053e-02
    52    9.205119609676e-14
    53   -2.841421371100e-02
    54   -5.935732181646e-02
    55   -9.202053091730e-02
    56    2.936416559839e-15
    57    2.178429707379e-04
    58   -5.684897620592e-02
    59   -7.318947496376e-02
    60    2.446831406543e-14
    61    1.146271391974e-03
    62   -1.664512101337e-14
    63   -5.228593445305e-14
    64    5.231578397685e-02
    65    2.629041177703e-02
    66   -8.190013115974e-03
    67   -1.380019500318e-02
    68   -1.216196752049e-01
    69   -1.649094390795e-01
    70    7.836666318592e-14
    71    4.057567927517e-02
    72   -1.877475516409e-01
    73   -2.552778559982e-01
    74    1.129037946897e-13
    75    4.493965024620e-02
    76   -1.667781153752e-01
    77   -2.393810215247e-01
    78    1.004860968519e-13
    79    5.757612325372e-03
    80   -5.028756668111e-03
    81   -1.486774975329e-02
    82   -6.855855186760e-15
    83    1.061018468790e-03
    84    2.459687177522e-15
    85   -5.144563782602e-15
    86   -1.307107557350e-02
    87   -5.007555947719e-03
    88    9.732020250624e-03
    89    1.255844974082e-02
    90   -6.585744350021e-02
    91   -7.300498623299e-02
    92   -2.540109645067e-15
    93   -2.917881341643e-02
    94   -1.016820817664e-01
    95   -1.236508137267e-01
    96   -2.259202241832e-14
    97   -2.472234311863e-02
    98   -1.561090431627e-02
    99   -1.877948748715e-02
   100   -1.116050586231e-15
   101   -9.894927502795e-02
   102    1.283240712091e-03
   103    4.339370984911e-02
   104    3.021046695599e-14
   105    5.210453975826e-03
   106    5.807885900407e-14
   107    2.120955658810e-14
   108   -2.455144096028e-02
   109   -5.150501975082e-03
   110    2.072601838932e-03
   111    2.659130612513e-03
   112    7.108153741906e-02
   113    2.041708004933e-01
   114    4.307640220584e-13
   115   -3.806546841346e-03
   116    8.112643274668e-02
   117    2.339935547765e-01
   118    4.960543512726e-13
   119    7.059676769571e-02
   120    8.533300313085e-03
   121    1.412277581297e-01
   122    3.939174894322e-13
   123    1.055844387955e-02
   124    4.648853906009e-03
   125    5.060923294663e-03
   126    3.919143776298e-14
   127    7.346438435383e-03
   128   -1.661605427370e-14
   129   -9.956741271151e-15
   130   -2.575636968826e-03
   131   -1.369012320488e-02
   132   -4.712688716636e-03
   133   -8.678950222983e-03
   134   -2.000776201600e-02
   135   -3.229594949709e-02
   136   -2.136063202748e-13
   137    2.292830353727e-02
   138   -2.420587817743e-02
   139   -4.591203135891e-02
   140   -3.518432813579e-13
   141    9.592373728365e-02
   142   -7.486830383618e-02
   143   -4.508122416411e-02
   144   -3.058122076079e-13
   145    1.235652525635e-01
   146    5.737185286023e-03
   147    1.254726035743e-02
   148   -1.002133099839e-13
   149    1.396546062479e-03
   150   -7.817654089103e-15
   151    4.262948897554e-16
   152   -4.766829178545e-03
   153   -7.286547024906e-03
   154    9.761430190184e-03
   155    1.612444708802e-02
   156   -5.970260434694e-03
   157   -3.664808357056e-02
   158    2.241298296546e-13
   159   -4.306954852061e-02
   160   -6.196463972503e-03
   161   -5.028597572480e-02
   162    3.476134197092e-13
   163   -1.259043352080e-01
   164    7.520276701813e-03
   165   -7.403233510749e-02
   166    3.667912445490e-13
   167   -1.477250709814e-01
   168   -4.339110561382e-03
   169    5.947719036894e-03
   170    1.258973570340e-13
   171   -2.290347786339e-03
   172    1.606584612502e-15
   173    1.358389739408e-14
   174   -1.489663210718e-03
   175   -6.476363030703e-04
   176   -1.207411432409e-02
   177   -1.861253485419e-02
   178   -1.591545542541e-02
   179    5.651070300479e-02
   180   -9.948418102217e-14
   181    4.280512414220e-02
   182   -2.216652886426e-02
   183    8.619441517398e-02
   184   -1.785046401191e-13
   185    7.401444858015e-02
   186   -3.211087495353e-02
   187    6.502184529915e-02
   188   -1.614610578899e-13
   189    1.985086861616e-01
   190   -3.988651157909e-02
   191    1.232570184373e-02
   192   -1.209132337969e-14
   193   -1.867785312356e-03
   194    6.105336248714e-15
   195    3.793842593546e-15
   196   -4.959512703235e-03
   197   -2.771080075111e-03
   198   -2.584900424204e-02
   199   -4.106926064470e-02
   200   -7.722165643142e-04
   201    1.589810855424e-02
   202    4.333535968005e-03
   203   -1.363681527739e-03
   204   -6.789695719113e-15
Sym=X
Ene= 2.000611
Spin=Alpha
Occup=1
     1    3.133319347758e-14
     2    9.326851628635e-14
     3    1.074885058184e-13
     4   -4.966301561155e-15
     5   -2.035141387900e-02
     6   -3.381765705970e-13
     7    1.645576207674e-13
     8    1.110572174472e-15
     9   -3.364301099491e-02
    10    2.805755859942e-13
    11   -8.509574731686e-14
    12    1.991141539335e-13
    13   -5.819759515262e-02
    14   -3.951975242741e-13
    15   -8.288960718793e-14
    16    5.081418279967e-13
    17   -8.532592810504e-03
    18    1.396211884810e-14
    19   -2.194173246285e-02
    20    2.207955659576e-04
    21   -9.409959606775e-14
    22    1.077494104573e-14
    23   -4.900850957965e-13
    24   -8.819969136690e-13
    25   -2.122682185457e-13
    26   -4.887685839847e-13
    27   -1.060683819789e-13
    28   -3.113570522562e-14
    29    1.106592912533e-02
    30   -1.983758833270e-14
    31    5.688541412937e-14
    32    1.069099587525e-13
    33    3.392611657341e-13
    34    4.646630903002e-16
    35   -2.361626807530e-14
    36   -1.785341733703e-03
    37    6.518458877367e-14
    38    3.238669137812e-13
    39   -4.826457728631e-13
    40    5.545180876838e-13
    41   -9.881263582551e-15
    42   -3.514633058111e-14
    43   -1.216848502189e-02
    44    2.212886097117e-14
    45   -1.005921283067e-13
    46    2.726338033426e-13
    47   -9.367656915906e-14
    48    1.701727496510e-02
    49    6.168392788536e-13
    50    4.347133075822e-13
    51   -1.792608883427e-13
    52    3.145063839718e-02
    53    3.740246653866e-13
    54    3.685257835573e-13
    55    4.476429763126e-13
    56    2.462302728032e-02
    57    6.991743964913e-13
    58   -1.600379051402e-15
    59   -5.187055476009e-13
    60   -7.071462500840e-03
    61   -3.923870681954e-14
    62   -2.567914323108e-02
    63   -1.738882746131e-02
    64   -1.161102335423e-13
    65   -6.013249797260e-14
    66    3.548874076853e-13
    67    2.582130125268e-13
    68    1.177406405343e-13
    69    4.617562893094e-13
    70    4.472435405767e-02
    71    2.644148420353e-13
    72    2.072769719924e-13
    73    7.441532950936e-13
    74    7.016568292327e-02
    75    3.430069336092e-13
    76    1.454193992771e-13
    77    5.050796221806e-13
    78    6.240008706216e-02
    79   -2.816648468603e-13
    80   -4.025958380229e-14
    81    3.643514451853e-13
    82    1.246528641175e-02
    83    5.317096329094e-15
    84    3.529853733230e-03
    85   -2.749361807752e-03
    86    2.291852371643e-14
    87    2.420930839812e-14
    88   -2.590832634207e-14
    89   -7.235251966812e-14
    90    8.895524555097e-14
    91   -7.271057435043e-14
    92   -1.129016601240e-02
    93    2.986216207346e-13
    94    1.718086208295e-13
    95   -8.295164893842e-14
    96   -2.382225790459e-02
    97   -3.700900187264e-13
    98    1.810561826125e-13
    99   -1.288700367752e-14
   100   -4.169308938389e-03
   101    3.943925918312e-13
   102    1.735820560742e-12
   103   -1.061707322431e-12
   104    2.094775246219e-02
   105   -7.207758989557e-15
   106    4.467538919556e-02
   107    1.467752800264e-02
   108    5.195600958759e-15
   109    3.547368640930e-14
   110    6.688860368405e-14
   111    9.820243576137e-14
   112   -1.953267387734e-13
   113   -2.060853180425e-13
   114    2.685963532256e-01
   115   -3.580664929685e-13
   116   -2.020866781153e-13
   117   -2.490192458195e-13
   118    3.058378167096e-01
   119   -2.676901715392e-13
   120   -1.531981793613e-14
   121   -1.924038295589e-13
   122    2.136624740617e-01
   123   -1.263663992857e-13
   124   -3.605031542832e-13
   125   -1.201834168833e-13
   126    2.911811272230e-02
   127   -5.529389886686e-15
   128   -9.784132713084e-03
   129   -5.842796614906e-03
   130   -1.565811233616e-15
   131    1.774987754414e-14
   132    9.106141865378e-13
   133    6.947781115795e-13
   134   -1.562879712489e-13
   135   -1.243290246114e-14
   136   -1.502512315034e-01
   137    3.787335243677e-13
   138   -2.880675307667e-13
   139    4.997078342935e-15
   140   -2.436106103844e-01
   141   -1.573063173952e-13
   142    4.844848907089e-14
   143   -4.310261817509e-13
   144   -2.640043850403e-01