[Molden Format]
[Atoms] (Angs)
  C      1    6     -0.00714236     -1.70213747     -0.00000000
  H      2    1     -2.06882847     -1.44022412      0.00000000
  H      3    1     -0.12337987     -2.77567521      0.00000000
  H      4    1      0.04651892      1.98813947     -0.00000000
  C      5    6     -1.21953563      0.40211669      0.00000000
  O      6    8     -2.25921553      1.03043814      0.00000000
  C      7    6      1.28797806      0.34644937     -0.00000000
  O      8    8      2.31273661      1.00537216     -0.00000000
  N      9    7      0.03446295      0.97739857     -0.00000000
  N     10    7     -1.17287765     -0.98229824      0.00000000
  C     11    6      1.20107039     -1.10433419     -0.00000000
  H     12    1      2.11220096     -1.67699125     -0.00000000
[GTO]
1    0
S    6    1.000000
   4.56324000E+03    1.96665000E-03 
   6.82024000E+02    1.52306000E-02 
   1.54973000E+02    7.61269000E-02 
   4.44553000E+01    2.60801000E-01 
   1.30290000E+01    6.16462000E-01 
   1.82773000E+00    2.21006000E-01 
SP   3    1.000000
   2.09642000E+01    1.14660000E-01   4.02487000E-02 
   4.80331000E+00    9.19999000E-01   2.37594000E-01 
   1.45933000E+00   -3.03068000E-03   8.15854000E-01 
SP   1    1.000000
   4.83456000E-01    1.00000000E+00   1.00000000E+00 
SP   1    1.000000
   1.45585000E-01    1.00000000E+00   1.00000000E+00 
SP   1    1.000000
   4.38000000E-02    1.00000000E+00   1.00000000E+00 
D    1    1.000000
   6.26000000E-01    1.00000000E+00 

2    0
S    3    1.000000
   3.38650000E+01    2.54938000E-02 
   5.09479000E+00    1.90373000E-01 
   1.15879000E+00    8.52161000E-01 
S    1    1.000000
   3.25840000E-01    1.00000000E+00 
S    1    1.000000
   1.02741000E-01    1.00000000E+00 
S    1    1.000000
   3.60000000E-02    1.00000000E+00 
P    1    1.000000
   7.50000000E-01    1.00000000E+00 

3    0
S    3    1.000000
   3.38650000E+01    2.54938000E-02 
   5.09479000E+00    1.90373000E-01 
   1.15879000E+00    8.52161000E-01 
S    1    1.000000
   3.25840000E-01    1.00000000E+00 
S    1    1.000000
   1.02741000E-01    1.00000000E+00 
S    1    1.000000
   3.60000000E-02    1.00000000E+00 
P    1    1.000000
   7.50000000E-01    1.00000000E+00 

4    0
S    3    1.000000
   3.38650000E+01    2.54938000E-02 
   5.09479000E+00    1.90373000E-01 
   1.15879000E+00    8.52161000E-01 
S    1    1.000000
   3.25840000E-01    1.00000000E+00 
S    1    1.000000
   1.02741000E-01    1.00000000E+00 
S    1    1.000000
   3.60000000E-02    1.00000000E+00 
P    1    1.000000
   7.50000000E-01    1.00000000E+00 

5    0
S    6    1.000000
   4.56324000E+03    1.96665000E-03 
   6.82024000E+02    1.52306000E-02 
   1.54973000E+02    7.61269000E-02 
   4.44553000E+01    2.60801000E-01 
   1.30290000E+01    6.16462000E-01 
   1.82773000E+00    2.21006000E-01 
SP   3    1.000000
   2.09642000E+01    1.14660000E-01   4.02487000E-02 
   4.80331000E+00    9.19999000E-01   2.37594000E-01 
   1.45933000E+00   -3.03068000E-03   8.15854000E-01 
SP   1    1.000000
   4.83456000E-01    1.00000000E+00   1.00000000E+00 
SP   1    1.000000
   1.45585000E-01    1.00000000E+00   1.00000000E+00 
SP   1    1.000000
   4.38000000E-02    1.00000000E+00   1.00000000E+00 
D    1    1.000000
   6.26000000E-01    1.00000000E+00 

6    0
S    6    1.000000
   8.58850000E+03    1.89515000E-03 
   1.29723000E+03    1.43859000E-02 
   2.99296000E+02    7.07320000E-02 
   8.73771000E+01    2.40001000E-01 
   2.56789000E+01    5.94797000E-01 
   3.74004000E+00    2.80802000E-01 
SP   3    1.000000
   4.21175000E+01    1.13889000E-01   3.65114000E-02 
   9.62837000E+00    9.20811000E-01   2.37153000E-01 
   2.85332000E+00   -3.27447000E-03   8.19702000E-01 
SP   1    1.000000
   9.05661000E-01    1.00000000E+00   1.00000000E+00 
SP   1    1.000000
   2.55611000E-01    1.00000000E+00   1.00000000E+00 
SP   1    1.000000
   8.45000000E-02    1.00000000E+00   1.00000000E+00 
D    1    1.000000
   1.29200000E+00    1.00000000E+00 

7    0
S    6    1.000000
   4.56324000E+03    1.96665000E-03 
   6.82024000E+02    1.52306000E-02 
   1.54973000E+02    7.61269000E-02 
   4.44553000E+01    2.60801000E-01 
   1.30290000E+01    6.16462000E-01 
   1.82773000E+00    2.21006000E-01 
SP   3    1.000000
   2.09642000E+01    1.14660000E-01   4.02487000E-02 
   4.80331000E+00    9.19999000E-01   2.37594000E-01 
   1.45933000E+00   -3.03068000E-03   8.15854000E-01 
SP   1    1.000000
   4.83456000E-01    1.00000000E+00   1.00000000E+00 
SP   1    1.000000
   1.45585000E-01    1.00000000E+00   1.00000000E+00 
SP   1    1.000000
   4.38000000E-02    1.00000000E+00   1.00000000E+00 
D    1    1.000000
   6.26000000E-01    1.00000000E+00 

8    0
S    6    1.000000
   8.58850000E+03    1.89515000E-03 
   1.29723000E+03    1.43859000E-02 
   2.99296000E+02    7.07320000E-02 
   8.73771000E+01    2.40001000E-01 
   2.56789000E+01    5.94797000E-01 
   3.74004000E+00    2.80802000E-01 
SP   3    1.000000
   4.21175000E+01    1.13889000E-01   3.65114000E-02 
   9.62837000E+00    9.20811000E-01   2.37153000E-01 
   2.85332000E+00   -3.27447000E-03   8.19702000E-01 
SP   1    1.000000
   9.05661000E-01    1.00000000E+00   1.00000000E+00 
SP   1    1.000000
   2.55611000E-01    1.00000000E+00   1.00000000E+00 
SP   1    1.000000
   8.45000000E-02    1.00000000E+00   1.00000000E+00 
D    1    1.000000
   1.29200000E+00    1.00000000E+00 

9    0
S    6    1.000000
   6.29348000E+03    1.96979000E-03 
   9.49044000E+02    1.49613000E-02 
   2.18776000E+02    7.35006000E-02 
   6.36916000E+01    2.48937000E-01 
   1.88282000E+01    6.02460000E-01 
   2.72023000E+00    2.56202000E-01 
SP   3    1.000000
   3.06331000E+01    1.11906000E-01   3.83119000E-02 
   7.02614000E+00    9.21666000E-01   2.37403000E-01 
   2.11205000E+00   -2.56919000E-03   8.17592000E-01 
SP   1    1.000000
   6.84009000E-01    1.00000000E+00   1.00000000E+00 
SP   1    1.000000
   2.00878000E-01    1.00000000E+00   1.00000000E+00 
SP   1    1.000000
   6.39000000E-02    1.00000000E+00   1.00000000E+00 
D    1    1.000000
   9.13000000E-01    1.00000000E+00 

10    0
S    6    1.000000
   6.29348000E+03    1.96979000E-03 
   9.49044000E+02    1.49613000E-02 
   2.18776000E+02    7.35006000E-02 
   6.36916000E+01    2.48937000E-01 
   1.88282000E+01    6.02460000E-01 
   2.72023000E+00    2.56202000E-01 
SP   3    1.000000
   3.06331000E+01    1.11906000E-01   3.83119000E-02 
   7.02614000E+00    9.21666000E-01   2.37403000E-01 
   2.11205000E+00   -2.56919000E-03   8.17592000E-01 
SP   1    1.000000
   6.84009000E-01    1.00000000E+00   1.00000000E+00 
SP   1    1.000000
   2.00878000E-01    1.00000000E+00   1.00000000E+00 
SP   1    1.000000
   6.39000000E-02    1.00000000E+00   1.00000000E+00 
D    1    1.000000
   9.13000000E-01    1.00000000E+00 

11    0
S    6    1.000000
   4.56324000E+03    1.96665000E-03 
   6.82024000E+02    1.52306000E-02 
   1.54973000E+02    7.61269000E-02 
   4.44553000E+01    2.60801000E-01 
   1.30290000E+01    6.16462000E-01 
   1.82773000E+00    2.21006000E-01 
SP   3    1.000000
   2.09642000E+01    1.14660000E-01   4.02487000E-02 
   4.80331000E+00    9.19999000E-01   2.37594000E-01 
   1.45933000E+00   -3.03068000E-03   8.15854000E-01 
SP   1    1.000000
   4.83456000E-01    1.00000000E+00   1.00000000E+00 
SP   1    1.000000
   1.45585000E-01    1.00000000E+00   1.00000000E+00 
SP   1    1.000000
   4.38000000E-02    1.00000000E+00   1.00000000E+00 
D    1    1.000000
   6.26000000E-01    1.00000000E+00 

12    0
S    3    1.000000
   3.38650000E+01    2.54938000E-02 
   5.09479000E+00    1.90373000E-01 
   1.15879000E+00    8.52161000E-01 
S    1    1.000000
   3.25840000E-01    1.00000000E+00 
S    1    1.000000
   1.02741000E-01    1.00000000E+00 
S    1    1.000000
   3.60000000E-02    1.00000000E+00 
P    1    1.000000
   7.50000000E-01    1.00000000E+00 

[MO]
Sym=X
Ene= 2.004066
Spin=Alpha
Occup=1
     1    4.451244088603e-15
     2   -4.378509277426e-16
     3   -3.927200254269e-14
     4    3.064515207935e-15
     5    2.305510780387e-02
     6    2.971511438886e-14
     7   -4.656664531793e-14
     8   -2.950410234119e-15
     9    4.019530488135e-02
    10   -3.784267877572e-13
    11    1.051165265131e-13
    12   -1.480039194455e-13
    13    1.421080574145e-02
    14    2.185877811214e-12
    15    1.039871795338e-12
    16   -1.238836690274e-13
    17   -3.370618543827e-03
    18    2.280962819380e-15
    19   -1.380149141921e-02
    20    4.614109678822e-03
    21    1.501462726849e-14
    22   -3.285800906801e-15
    23    2.063860943343e-14
    24    2.067476618311e-13
    25   -5.472567742776e-14
    26    4.222402625234e-13
    27    1.322065606253e-14
    28    8.838038372333e-15
    29    9.803174524826e-03
    30   -8.046431669197e-15
    31    2.401839677857e-16
    32   -1.071033317342e-13
    33   -1.637496610704e-13
    34   -1.160139847369e-15
    35    8.146024520000e-15
    36    1.873120149505e-03
    37    3.585875692515e-14
    38   -1.088674922280e-13
    39    2.742457487244e-13
    40   -2.933546457132e-13
    41   -3.395034191676e-15
    42    4.581923222469e-15
    43   -1.254159834876e-02
    44    6.976595063201e-14
    45    7.773456932188e-14
    46   -1.623695351169e-14
    47   -9.853633383248e-14
    48    2.470773464885e-02
    49   -1.048261247301e-13
    50   -1.618082351360e-14
    51   -1.356330020137e-13
    52    4.293200127885e-02
    53   -5.583071621643e-14
    54   -2.195259721902e-13
    55   -3.690966777300e-13
    56    3.197527729867e-02
    57   -3.083177168212e-13
    58    9.013933805616e-14
    59    3.073452831734e-13
    60    1.051085580385e-02
    61    2.846539641854e-15
    62   -3.013606292911e-02
    63   -1.321352653434e-02
    64    3.253242583239e-14
    65    2.770335075818e-14
    66    1.867648167271e-14
    67    2.422897897194e-14
    68   -1.365964330135e-13
    69   -1.211438394463e-13
    70    6.852913813422e-02
    71   -4.255791477603e-14
    72   -2.262949678253e-13
    73   -2.124160909905e-13
    74    1.070974763372e-01
    75   -5.298889116465e-14
    76   -1.184087136116e-13
    77   -8.390615477499e-14
    78    9.962422181873e-02
    79    2.137164176061e-13
    80   -2.316524188845e-15
    81   -2.221343905344e-13
    82    7.889417281611e-03
    83    5.102673954222e-15
    84    5.665261304208e-03
    85   -3.984031038039e-03
    86   -1.669369619153e-14
    87   -1.178208350247e-15
    88   -3.589353383198e-14
    89   -4.071612356560e-14
    90   -3.040031494004e-14
    91   -1.015946956163e-14
    92   -1.013453925383e-01
    93    4.725738526427e-14
    94   -5.988878929047e-14
    95   -1.618743414007e-15
    96   -1.757210594955e-01
    97    2.919132632531e-13
    98    7.065182799786e-14
    99   -1.773487746851e-13
   100   -8.678220823438e-02
   101    3.251137170137e-13
   102   -9.333173326256e-13
   103    1.979554374338e-13
   104   -3.056658107020e-02
   105   -5.957825385425e-15
   106   -3.452730973038e-03
   107   -1.968156061112e-02
   108    8.904547800019e-14
   109   -4.907801430004e-14
   110   -1.804339124030e-14
   111   -2.692451271014e-14
   112    3.674991561458e-13
   113   -4.728646753678e-13
   114   -2.022683528768e-01
   115    9.958719238856e-14
   116    4.144904904080e-13
   117   -5.385726398995e-13
   118   -2.361283123196e-01
   119    2.573557287642e-14
   120    2.612966271300e-13
   121   -3.435650180587e-13
   122   -1.504912043915e-01
   123    5.494489175979e-14
   124    1.637672492833e-13
   125    1.394570674784e-13
   126    1.603152735570e-02
   127    9.194385284865e-16
   128    1.553914643794e-02
   129    8.992359422882e-03
   130   -2.319951440279e-14
   131    8.726376089985e-15
   132   -9.125982134675e-14
   133   -1.159838373665e-13
   134    9.062283902067e-14
   135   -1.333504849408e-14
   136   -1.453182988322e-01
   137    2.096387865113e-13
   138    1.573159993382e-13
   139   -2.994663884997e-14
   140   -2.368149222331e-01
   141    5.731199566829e-13
   142    9.589727603181e-14
   143    2.308829532782e-13
   144   -2.443859770584e-01
   145   -1.005370880457e-12
   146   -3.460230690400e-13
   147   -1.748353353416e-13
   148   -2.017580187936e-02
   149   -4.671871064383e-15
   150   -7.114550502546e-03
   151    4.614257208424e-03
   152   -1.387480708788e-14
   153   -7.261271902748e-15
   154    4.857790400949e-14
   155    1.030740235188e-14
   156    7.731601511897e-15
   157   -3.232835586583e-15
   158    1.026119109471e-01
   159    1.710661394566e-13
   160   -2.113091395988e-14
   161    8.666328808429e-15
   162    1.687022536208e-01
   163   -6.131684427000e-14
   164    4.239090637111e-13
   165   -5.801201946466e-14
   166    1.667287575000e-01
   167    7.237707911112e-13
   168    1.795306250414e-13
   169   -3.258061555198e-13
   170    1.796582226488e-02
   171   -1.918901930775e-15
   172    2.033100517224e-03
   173    1.822323062902e-03
   174   -9.162894056999e-15
   175   -7.728206459817e-15
   176   -2.322089371875e-13
   177   -1.692056888410e-13
   178   -9.692852523433e-15
   179   -9.566557694636e-15
   180   -2.091794221005e-02
   181   -1.182847895499e-13
   182   -1.299540441878e-14
   183   -1.385721371743e-14
   184   -3.696780847863e-02
   185   -1.825268969868e-13
   186   -5.148109202201e-14
   187   -7.340328335856e-14
   188   -2.681744329545e-02
   189   -2.330650952191e-12
   190    1.099948839925e-12
   191    9.927315053356e-13
   192    1.233611615723e-02
   193    1.726879741025e-15
   194   -1.576718666026e-03
   195   -1.109584121151e-02
   196   -1.160897450006e-14
   197   -1.144568916993e-14
   198   -2.739696816073e-14
   199   -2.344745618010e-14
   200   -5.160447387229e-14
   201    1.794603931652e-13
   202    1.640023724245e-15
   203    8.781293587953e-16
   204   -1.927936806699e-03
Sym=X
Ene= 2.002381
Spin=Alpha
Occup=1
     1    7.078626572662e-03
     2    1.174131821032e-02
     3   -4.421673201608e-03
     4   -5.689959412501e-03
     5    4.049954220031e-14
     6   -3.108805155609e-02
     7   -1.039425253010e-02
     8   -1.211094035507e-02
     9    7.739449907653e-14
    10   -6.590660499564e-02
    11   -1.679693056335e-02
    12   -3.219056167670e-02
    13    2.802083533955e-14
    14   -2.214057277624e-01
    15   -4.694650608178e-02
    16   -4.343582746124e-02
    17   -3.684169750273e-14
    18    1.143975066202e-03
    19   -6.189338411959e-16
    20    9.185314766491e-15
    21   -4.217965492550e-03
    22   -3.478923565833e-04
    23   -1.426343885569e-04
    24   -3.778933366823e-03
    25   -1.016467030641e-02
    26    1.398518015328e-02
    27   -4.752468639446e-04
    28   -6.755671470185e-04
    29    1.202494350089e-14
    30    1.639084385948e-03
    31    5.400455573082e-04
    32    6.207560971696e-03
    33   -1.222200393735e-02
    34   -5.842262828969e-04
    35   -1.694299153333e-03
    36    8.561711789304e-15
    37   -1.507423773236e-02
    38   -8.678310625887e-03
    39    2.590865889324e-02
    40   -5.621953305676e-02
    41   -2.456481695340e-04
    42    1.471956953191e-03
    43   -2.109659112660e-14
    44   -8.911295046358e-03
    45   -1.501613284705e-02
    46    1.584289722373e-02
    47    1.216132524760e-02
    48    1.191207031817e-13
    49    4.352798958413e-02
    50    2.626668131819e-02
    51    1.875207456477e-02
    52    2.199716543542e-13
    53    5.192288799625e-02
    54    4.622237108130e-02
    55    4.100808861122e-02
    56    7.422993312644e-14
    57    3.406330533589e-02
    58    2.924057183135e-02
    59    5.738486872039e-02
    60    5.269201755954e-14
    61   -9.580624340643e-04
    62   -6.769678927601e-14
    63   -2.311904383374e-15
    64   -1.941855336397e-02
    65   -6.731459800487e-03
    66    1.814072269677e-03
    67    3.099200107872e-03
    68    4.173343880096e-02
    69    6.423539235792e-02
    70    2.949572038229e-13
    71   -9.414890405206e-03
    72    6.511583934885e-02
    73    9.933915837868e-02
    74    4.346840146770e-13
    75   -1.252859868770e-02
    76    5.303552072058e-02
    77    8.892749826129e-02
    78    3.729107457238e-13
    79    5.067382114585e-03
    80    6.990255320580e-03
    81    4.780527564055e-03
    82    2.572317584898e-14
    83   -2.607697331593e-04
    84    2.202834087374e-14
    85   -1.855185926702e-14
    86    5.552407719834e-03
    87    2.208834853703e-03
    88   -7.990280784562e-03
    89   -1.149500655837e-02
    90    6.685570739883e-03
    91    1.398651460244e-02
    92   -1.458677670730e-13
    93    2.657146964513e-02
    94    1.270206028902e-02
    95    1.150163112777e-02
    96   -2.480024017680e-13
    97    3.994273374138e-02
    98   -2.198609413769e-02
    99    3.844619184965e-02
   100   -1.872842446964e-13
   101   -3.045879389113e-01
   102   -3.267443368143e-02
   103    1.679033125179e-01
   104   -6.856657893047e-14
   105   -1.193734346156e-03
   106   -6.256279846109e-15
   107   -4.550592432611e-14
   108   -4.816469164482e-02
   109    2.773426518154e-02
   110   -4.168076237576e-03
   111   -5.884621997767e-03
   112   -2.252865439927e-01
   113    2.942370507591e-01
   114   -3.735518110688e-13
   115    1.750908544271e-02
   116   -2.613667572629e-01
   117    3.417455012326e-01
   118   -4.027008398350e-13
   119   -7.104118209601e-03
   120   -1.820724984240e-01
   121    2.550416560330e-01
   122   -2.009935075283e-13
   123   -8.236393804597e-03
   124    5.057463517223e-03
   125   -3.291390140994e-03
   126    2.462501141717e-14
   127   -1.902840349629e-03
   128    2.749316401275e-14
   129    1.027010330131e-14
   130    1.547404048868e-02
   131   -4.681956648055e-03
   132    2.274899831661e-02
   133    3.735451532468e-02
   134   -3.034311369645e-02
   135    3.924684101973e-03
   136   -2.075085934832e-13
   137   -9.876736841685e-02
   138   -4.765463141784e-02
   139   -3.382256613319e-03
   140   -3.399437235304e-13
   141   -1.852051073589e-01
   142   -3.667230519312e-02
   143    2.028892135521e-02
   144   -3.400726748324e-13
   145   -1.691468031241e-01
   146    4.113749456550e-02
   147    3.488419810983e-03
   148   -3.178428004850e-14
   149   -1.398347181491e-03
   150   -2.010911663598e-14
   151    3.267955576483e-15
   152    4.472438976365e-03
   153    1.405739368650e-04
   154   -3.456045323175e-03
   155   -5.691443952344e-03
   156   -2.688637277202e-03
   157    1.301265937334e-02
   158    1.051431715618e-13
   159    1.465266050218e-02
   160   -6.048369901395e-03
   161    1.783464795495e-02
   162    1.781499842765e-13
   163    4.448182149719e-02
   164   -4.072265648481e-03
   165    2.345919683212e-02
   166    2.025227181979e-13
   167    8.863417095512e-02
   168   -2.041729993531e-03
   169    2.389245030374e-02
   170    2.386114234419e-14
   171    5.848962440764e-04
   172    5.858451331506e-15
   173    1.629775384717e-14
   174   -7.016622167229e-04
   175    1.239287506439e-03
   176   -1.230903421533e-02
   177   -2.037184174927e-02
   178    1.834178931058e-02
   179    1.917242706896e-02
   180   -8.399889496424e-15
   181    5.194654927316e-02
   182    3.087319274855e-02
   183    1.878990616597e-02
   184   -2.783099729608e-14
   185    1.277562193275e-01
   186   -4.440265423452e-03
   187    4.354888711236e-02
   188    2.315878607762e-14
   189    5.592177228104e-01
   190   -6.568606517735e-02
   191    7.077937111356e-02
   192    6.084587416145e-14
   193    4.219337726069e-04
   194    1.518845225962e-14
   195   -1.935867078256e-14
   196    4.635007828510e-03
   197    2.475729426312e-04
   198    1.641757118218e-02
   199    2.112389225837e-02
   200    5.558645567278e-03
   201    3.111253344791e-02
   202   -1.866779805737e-03
   203   -2.944005385675e-04
   204   -3.058639787903e-15
Sym=X
Ene= 2.001260
Spin=Alpha
Occup=1
     1   -5.718395897516e-03
     2   -9.416250869910e-03
     3   -9.259744898712e-03
     4    2.167195755783e-02
     5    2.119277786177e-14
     6    2.284983685515e-02
     7   -1.738980111571e-02
     8    3.316849689210e-02
     9    4.298075415286e-14
    10    1.245169067385e-02
    11   -1.859899381049e-02
    12    1.275985120259e-02
    13   -4.780428572378e-15
    14   -7.653177962394e-02
    15   -5.093425721946e-02
    16   -1.984983419717e-02
    17   -3.750845284770e-14
    18   -1.900833543209e-03
    19   -1.407757098500e-14
    20    2.486758095101e-15
    21    1.647328958962e-03
    22    4.256290066723e-03
    23    4.623411647167e-03
    24    2.357912719224e-02
    25    2.924819673416e-02
    26   -3.562164569200e-02
    27    1.589651322255e-03
    28    1.776249871211e-03
    29    1.049011039100e-14
    30   -1.094820135873e-02
    31   -2.051477683495e-02
    32   -2.358659447731e-03
    33   -1.450920870409e-02
    34   -4.907581469081e-04
    35   -1.910597033671e-03
    36    6.622538248036e-15
    37   -6.766803457216e-03
    38   -9.598103811177e-03
    39   -2.455592457140e-02
    40    9.758507141173e-03
    41    2.020264449802e-03
    42    2.546205426420e-03
    43    6.714933541990e-15
    44    7.366385116820e-03
    45    1.228825014890e-02
    46    9.663487478196e-03
    47   -6.277106212299e-03
    48    4.865032965518e-14
    49   -3.804052852698e-02
    50    1.843951703667e-02
    51   -3.678301372610e-03
    52    8.683106479306e-14
    53   -3.249989651626e-02
    54   -5.926442255070e-02
    55   -9.752416523952e-02
    56   -1.015385359298e-14
    57   -4.780841996794e-04
    58   -6.040268339471e-02
    59   -7.964348294039e-02
    60    2.598158225995e-14
    61    9.382527499650e-04
    62    2.002710052849e-14
    63   -2.494135886245e-14
    64    5.933026910224e-02
    65    3.197927222830e-02
    66   -6.432758552951e-03
    67   -1.085669963460e-02
    68   -1.357023160974e-01
    69   -1.775181971474e-01
    70    2.307263302028e-14
    71    3.210230236761e-02
    72   -2.092879349543e-01
    73   -2.747494245790e-01
    74    2.788461987338e-14
    75    4.357327400120e-02
    76   -1.822021338184e-01
    77   -2.591263848739e-01
    78    2.071334490164e-14
    79    1.171546913980e-02
    80   -4.369713125281e-03
    81   -1.591335124826e-02
    82   -1.737531527395e-14
    83    1.220343973105e-03
    84    3.056705672937e-16
    85   -2.141682221475e-15
    86   -1.372751422897e-02
    87   -4.330389509043e-03
    88    2.503308809893e-02
    89    3.286576316057e-02
    90   -4.880916251428e-02
    91   -5.595918928085e-02
    92    3.141745017772e-14
    93   -6.899174438433e-02
    94   -7.421595654938e-02
    95   -9.631840398240e-02
    96    4.327872002579e-14
    97   -5.533189454678e-02
    98   -6.094950352902e-03
    99   -2.381560436256e-03
   100    1.905330910091e-14
   101   -1.130209918556e-01
   102    3.431363496687e-03
   103    4.230330681600e-02
   104    2.218005170826e-14
   105    5.940526500191e-03
   106   -3.759949055377e-15
   107    4.823385436885e-15
   108   -2.057413888249e-02
   109   -1.025385860019e-03
   110    2.633199241243e-03
   111    3.444588762137e-03
   112    6.019102721814e-02
   113    1.795606241647e-01
   114    9.257819400708e-14
   115   -6.846269983062e-03
   116    6.929012174422e-02
   117    2.073359367353e-01
   118    1.118158400224e-13
   119    5.980735961308e-02
   120    6.669005976808e-03
   121    1.294910104123e-01
   122    1.188068832001e-13
   123    7.194636461875e-03
   124    4.802332611471e-03
   125    2.713439833478e-03
   126   -1.111613183467e-14
   127    6.681727959692e-03
   128   -5.713825752975e-15
   129   -2.889875988638e-15
   130   -2.085663291627e-03
   131   -1.185552029910e-02
   132   -1.210684305939e-02
   133   -2.000926357217e-02
   134   -4.066501662840e-02
   135   -2.430677705656e-02
   136    3.675752059792e-14
   137    4.998685661086e-02
   138   -5.566107947138e-02
   139   -3.178990575956e-02
   140    5.528115600282e-14
   141    1.287709367685e-01
   142   -1.014358633270e-01
   143   -3.890550114551e-02
   144    1.155863216019e-13
   145    1.358778690057e-01
   146    8.118927984980e-03
   147    1.347690233291e-02
   148   -4.354637742112e-14
   149    8.693984701074e-04
   150   -3.498626986789e-15
   151   -5.360148931971e-15
   152   -4.555485682071e-03
   153   -4.552941435185e-03
   154    1.419996437524e-02
   155    2.321290426746e-02
   156    6.228832447820e-03
   157   -4.728009381686e-02
   158    9.267577268254e-14
   159   -6.134587936580e-02
   160    1.364887305593e-02
   161   -6.649401527494e-02
   162    1.382664450098e-13
   163   -1.490520804744e-01
   164    2.059854624344e-02
   165   -8.813414021054e-02
   166    1.220502296633e-13
   167   -1.574592921347e-01
   168   -4.703235640707e-03
   169    5.598542319795e-03
   170    6.070664734848e-14
   171   -2.177822599169e-03
   172    4.350265825596e-15
   173    9.400292611913e-15
   174   -1.002116824920e-05
   175   -6.346030888457e-04
   176   -7.076272861629e-03
   177   -1.188337200289e-02
   178   -2.738471528771e-02
   179    4.316608172551e-02
   180   -2.185652409527e-15
   181    3.025305735135e-02
   182   -3.979333907764e-02
   183    6.472415479958e-02
   184   -1.222806837336e-14
   185    6.945888379800e-02
   186   -3.724463141646e-02
   187    6.302011981522e-02
   188    1.210999494436e-14
   189    2.231195431291e-01
   190   -4.960992202654e-02
   191    1.725792678321e-02
   192    4.650442167816e-16
   193   -8.822026039732e-04
   194   -4.390179804456e-15
   195    6.430662367027e-15
   196   -5.353945403416e-05
   197   -6.692117752391e-04
   198   -3.051302656949e-02
   199   -4.849823584295e-02
   200    6.384027985599e-04
   201    2.048190820019e-02
   202    4.649216750195e-03
   203   -2.683481082346e-03
   204    5.492039137383e-16
Sym=X
Ene= 2.000257
Spin=Alpha
Occup=1
     1    2.110337847760e-12
     2    1.677754731357e-12
     3    7.228760623523e-13
     4    3.599576173958e-13
     5    3.250885047955e-02
     6    3.340335809142e-13
     7    1.137070471315e-12
     8    5.264156075958e-13
     9    5.586981284863e-02
    10   -3.241057296901e-13
    11    3.457854832561e-13
    12    3.115243287049e-13
    13    3.871884110685e-02
    14    1.229491553274e-11
    15    2.241810444852e-12
    16    3.018393984996e-12
    17   -1.573464079447e-03
    18   -1.008950512796e-14
    19   -5.334121887208e-03
    20    5.134107758615e-03
    21    1.058686833325e-13
    22    7.722928601785e-14
    23    3.627438296291e-13
    24    5.806926367561e-13
    25   -3.218337985498e-13
    26    6.730898464208e-14
    27    5.110079775335e-14
    28    4.500065189293e-14
    29    4.001545798087e-03
    30   -2.972127393278e-13
    31   -4.745124061248e-13
    32   -5.204337459913e-14
    33    9.627320556469e-13
    34    3.317124466572e-14
    35   -2.770097917330e-14
    36    2.449632360250e-03
    37   -7.579049984993e-13
    38   -9.829138987675e-13
    39    7.665940901924e-13
    40   -6.990712739294e-14
    41   -1.120334543446e-14
    42    1.549092040222e-13
    43   -4.755280749905e-03
    44    7.812404790611e-13
    45    7.516487743626e-13
    46    4.742314689125e-13
    47   -5.696787251970e-13
    48   -1.235150823746e-01
    49   -6.224232853796e-13
    50    7.178852606370e-13
    51   -9.076295358943e-13
    52   -2.138101345078e-01
    53   -6.372080608570e-13
    54    3.544365429825e-13
    55   -1.046259882227e-13
    56   -1.410352208257e-01
    57   -2.542835278137e-12
    58   -4.991908368196e-13
    59    8.518730174976e-13
    60   -3.993429093592e-02
    61    3.157487233454e-14
    62    3.623479162165e-02
    63   -3.383574383273e-02
    64   -1.365076447645e-13
    65    5.507834688205e-14
    66   -1.112750468119e-12
    67   -9.687472313405e-13
    68   -6.810837270294e-13
    69    5.100960913340e-13
    70   -2.261437263514e-01
    71    1.308852556463e-13
    72   -1.029027836603e-12
    73    7.632669077621e-13
    74   -3.556055211907e-01
    75    7.115631961242e-13
    76   -5.582449182294e-13
    77    5.427757409566e-13
    78   -3.177624230414e-01
    79    7.020990934622e-13
    80    1.633456155641e-13
    81   -1.749687535892e-13
    82   -2.178094640320e-02
    83    5.233322338500e-14
    84   -2.220596701927e-02
    85    1.332725916223e-02
    86   -4.854829920612e-14
    87    7.879197529094e-14
    88   -7.247165809872e-13
    89   -5.793045364258e-13
    90   -1.773910892911e-14
    91   -2.306980779706e-13
    92   -1.268437632950e-02
    93   -1.262336308073e-13
    94   -7.089969262007e-15
    95   -3.974033320335e-13
    96   -2.269487421404e-02
    97   -1.829530750352e-13
    98    2.155377630164e-13
    99    2.801591532286e-13
   100   -5.844862639857e-03
   101    5.297676836999e-12
   102   -1.313645631940e-12
   103   -5.011293950380e-13
   104    3.640573445120e-03
   105    8.006225566942e-15
   106    1.034300153352e-03
   107   -4.918565648099e-03
   108   -4.202753474357e-14
   109    5.361734325102e-14
   110    7.041442551269e-14
   111    1.003614008482e-13
   112    1.324382890264e-13
   113    8.509344407151e-14
   114   -2.682736302967e-02
   115   -3.261391686255e-13
   116    1.584913209614e-13
   117    1.124161935010e-13
   118   -3.141246344013e-02
   119   -1.601296040264e-13
   120    6.769873397817e-14
   121    3.984908252514e-14
   122   -1.972445925789e-02
   123   -2.615187403925e-13
   124    7.295159123894e-14
   125    1.689607528627e-13
   126   -6.771617583239e-03
   127    1.371839350259e-14
   128    1.899708525403e-03
   129    1.131202862970e-03
   130   -1.871941181694e-14
   131   -1.438928257221e-14
   132   -2.121051208234e-12
   133   -1.473723735745e-12
   134   -7.817456614742e-14
   135   -6.270552477665e-13
   136   -5.068339539335e-02
   137   -1.675654816422e-12
   138   -1.276328715725e-13
   139   -9.943920693827e-13
   140   -8.686198334712e-02
   141   -1.224067252376e-12
   142   -4.509340539857e-14
   143   -7.227069648550e-13
   144   -5.519122211496e-02