[Molden Format]
[Atoms] (Angs)
  C      1    6     -0.00714236     -1.70213747     -0.00000000
  H      2    1     -2.06882847     -1.44022412      0.00000000
  H      3    1     -0.12337987     -2.77567521      0.00000000
  H      4    1      0.04651892      1.98813947     -0.00000000
  C      5    6     -1.21953563      0.40211669      0.00000000
  O      6    8     -2.25921553      1.03043814      0.00000000
  C      7    6      1.28797806      0.34644937     -0.00000000
  O      8    8      2.31273661      1.00537216     -0.00000000
  N      9    7      0.03446295      0.97739857     -0.00000000
  N     10    7     -1.17287765     -0.98229824      0.00000000
  C     11    6      1.20107039     -1.10433419     -0.00000000
  H     12    1      2.11220096     -1.67699125     -0.00000000
[GTO]
1    0
S    6    1.000000
   4.56324000E+03    1.96665000E-03 
   6.82024000E+02    1.52306000E-02 
   1.54973000E+02    7.61269000E-02 
   4.44553000E+01    2.60801000E-01 
   1.30290000E+01    6.16462000E-01 
   1.82773000E+00    2.21006000E-01 
SP   3    1.000000
   2.09642000E+01    1.14660000E-01   4.02487000E-02 
   4.80331000E+00    9.19999000E-01   2.37594000E-01 
   1.45933000E+00   -3.03068000E-03   8.15854000E-01 
SP   1    1.000000
   4.83456000E-01    1.00000000E+00   1.00000000E+00 
SP   1    1.000000
   1.45585000E-01    1.00000000E+00   1.00000000E+00 
SP   1    1.000000
   4.38000000E-02    1.00000000E+00   1.00000000E+00 
D    1    1.000000
   6.26000000E-01    1.00000000E+00 

2    0
S    3    1.000000
   3.38650000E+01    2.54938000E-02 
   5.09479000E+00    1.90373000E-01 
   1.15879000E+00    8.52161000E-01 
S    1    1.000000
   3.25840000E-01    1.00000000E+00 
S    1    1.000000
   1.02741000E-01    1.00000000E+00 
S    1    1.000000
   3.60000000E-02    1.00000000E+00 
P    1    1.000000
   7.50000000E-01    1.00000000E+00 

3    0
S    3    1.000000
   3.38650000E+01    2.54938000E-02 
   5.09479000E+00    1.90373000E-01 
   1.15879000E+00    8.52161000E-01 
S    1    1.000000
   3.25840000E-01    1.00000000E+00 
S    1    1.000000
   1.02741000E-01    1.00000000E+00 
S    1    1.000000
   3.60000000E-02    1.00000000E+00 
P    1    1.000000
   7.50000000E-01    1.00000000E+00 

4    0
S    3    1.000000
   3.38650000E+01    2.54938000E-02 
   5.09479000E+00    1.90373000E-01 
   1.15879000E+00    8.52161000E-01 
S    1    1.000000
   3.25840000E-01    1.00000000E+00 
S    1    1.000000
   1.02741000E-01    1.00000000E+00 
S    1    1.000000
   3.60000000E-02    1.00000000E+00 
P    1    1.000000
   7.50000000E-01    1.00000000E+00 

5    0
S    6    1.000000
   4.56324000E+03    1.96665000E-03 
   6.82024000E+02    1.52306000E-02 
   1.54973000E+02    7.61269000E-02 
   4.44553000E+01    2.60801000E-01 
   1.30290000E+01    6.16462000E-01 
   1.82773000E+00    2.21006000E-01 
SP   3    1.000000
   2.09642000E+01    1.14660000E-01   4.02487000E-02 
   4.80331000E+00    9.19999000E-01   2.37594000E-01 
   1.45933000E+00   -3.03068000E-03   8.15854000E-01 
SP   1    1.000000
   4.83456000E-01    1.00000000E+00   1.00000000E+00 
SP   1    1.000000
   1.45585000E-01    1.00000000E+00   1.00000000E+00 
SP   1    1.000000
   4.38000000E-02    1.00000000E+00   1.00000000E+00 
D    1    1.000000
   6.26000000E-01    1.00000000E+00 

6    0
S    6    1.000000
   8.58850000E+03    1.89515000E-03 
   1.29723000E+03    1.43859000E-02 
   2.99296000E+02    7.07320000E-02 
   8.73771000E+01    2.40001000E-01 
   2.56789000E+01    5.94797000E-01 
   3.74004000E+00    2.80802000E-01 
SP   3    1.000000
   4.21175000E+01    1.13889000E-01   3.65114000E-02 
   9.62837000E+00    9.20811000E-01   2.37153000E-01 
   2.85332000E+00   -3.27447000E-03   8.19702000E-01 
SP   1    1.000000
   9.05661000E-01    1.00000000E+00   1.00000000E+00 
SP   1    1.000000
   2.55611000E-01    1.00000000E+00   1.00000000E+00 
SP   1    1.000000
   8.45000000E-02    1.00000000E+00   1.00000000E+00 
D    1    1.000000
   1.29200000E+00    1.00000000E+00 

7    0
S    6    1.000000
   4.56324000E+03    1.96665000E-03 
   6.82024000E+02    1.52306000E-02 
   1.54973000E+02    7.61269000E-02 
   4.44553000E+01    2.60801000E-01 
   1.30290000E+01    6.16462000E-01 
   1.82773000E+00    2.21006000E-01 
SP   3    1.000000
   2.09642000E+01    1.14660000E-01   4.02487000E-02 
   4.80331000E+00    9.19999000E-01   2.37594000E-01 
   1.45933000E+00   -3.03068000E-03   8.15854000E-01 
SP   1    1.000000
   4.83456000E-01    1.00000000E+00   1.00000000E+00 
SP   1    1.000000
   1.45585000E-01    1.00000000E+00   1.00000000E+00 
SP   1    1.000000
   4.38000000E-02    1.00000000E+00   1.00000000E+00 
D    1    1.000000
   6.26000000E-01    1.00000000E+00 

8    0
S    6    1.000000
   8.58850000E+03    1.89515000E-03 
   1.29723000E+03    1.43859000E-02 
   2.99296000E+02    7.07320000E-02 
   8.73771000E+01    2.40001000E-01 
   2.56789000E+01    5.94797000E-01 
   3.74004000E+00    2.80802000E-01 
SP   3    1.000000
   4.21175000E+01    1.13889000E-01   3.65114000E-02 
   9.62837000E+00    9.20811000E-01   2.37153000E-01 
   2.85332000E+00   -3.27447000E-03   8.19702000E-01 
SP   1    1.000000
   9.05661000E-01    1.00000000E+00   1.00000000E+00 
SP   1    1.000000
   2.55611000E-01    1.00000000E+00   1.00000000E+00 
SP   1    1.000000
   8.45000000E-02    1.00000000E+00   1.00000000E+00 
D    1    1.000000
   1.29200000E+00    1.00000000E+00 

9    0
S    6    1.000000
   6.29348000E+03    1.96979000E-03 
   9.49044000E+02    1.49613000E-02 
   2.18776000E+02    7.35006000E-02 
   6.36916000E+01    2.48937000E-01 
   1.88282000E+01    6.02460000E-01 
   2.72023000E+00    2.56202000E-01 
SP   3    1.000000
   3.06331000E+01    1.11906000E-01   3.83119000E-02 
   7.02614000E+00    9.21666000E-01   2.37403000E-01 
   2.11205000E+00   -2.56919000E-03   8.17592000E-01 
SP   1    1.000000
   6.84009000E-01    1.00000000E+00   1.00000000E+00 
SP   1    1.000000
   2.00878000E-01    1.00000000E+00   1.00000000E+00 
SP   1    1.000000
   6.39000000E-02    1.00000000E+00   1.00000000E+00 
D    1    1.000000
   9.13000000E-01    1.00000000E+00 

10    0
S    6    1.000000
   6.29348000E+03    1.96979000E-03 
   9.49044000E+02    1.49613000E-02 
   2.18776000E+02    7.35006000E-02 
   6.36916000E+01    2.48937000E-01 
   1.88282000E+01    6.02460000E-01 
   2.72023000E+00    2.56202000E-01 
SP   3    1.000000
   3.06331000E+01    1.11906000E-01   3.83119000E-02 
   7.02614000E+00    9.21666000E-01   2.37403000E-01 
   2.11205000E+00   -2.56919000E-03   8.17592000E-01 
SP   1    1.000000
   6.84009000E-01    1.00000000E+00   1.00000000E+00 
SP   1    1.000000
   2.00878000E-01    1.00000000E+00   1.00000000E+00 
SP   1    1.000000
   6.39000000E-02    1.00000000E+00   1.00000000E+00 
D    1    1.000000
   9.13000000E-01    1.00000000E+00 

11    0
S    6    1.000000
   4.56324000E+03    1.96665000E-03 
   6.82024000E+02    1.52306000E-02 
   1.54973000E+02    7.61269000E-02 
   4.44553000E+01    2.60801000E-01 
   1.30290000E+01    6.16462000E-01 
   1.82773000E+00    2.21006000E-01 
SP   3    1.000000
   2.09642000E+01    1.14660000E-01   4.02487000E-02 
   4.80331000E+00    9.19999000E-01   2.37594000E-01 
   1.45933000E+00   -3.03068000E-03   8.15854000E-01 
SP   1    1.000000
   4.83456000E-01    1.00000000E+00   1.00000000E+00 
SP   1    1.000000
   1.45585000E-01    1.00000000E+00   1.00000000E+00 
SP   1    1.000000
   4.38000000E-02    1.00000000E+00   1.00000000E+00 
D    1    1.000000
   6.26000000E-01    1.00000000E+00 

12    0
S    3    1.000000
   3.38650000E+01    2.54938000E-02 
   5.09479000E+00    1.90373000E-01 
   1.15879000E+00    8.52161000E-01 
S    1    1.000000
   3.25840000E-01    1.00000000E+00 
S    1    1.000000
   1.02741000E-01    1.00000000E+00 
S    1    1.000000
   3.60000000E-02    1.00000000E+00 
P    1    1.000000
   7.50000000E-01    1.00000000E+00 

[MO]
Sym=X
Ene= 2.006069
Spin=Alpha
Occup=1
     1   -4.148115450554e-14
     2   -1.292531469531e-14
     3   -5.102371274797e-14
     4   -3.803430700569e-14
     5   -9.393817435471e-02
     6   -6.793760751414e-14
     7   -1.120860453067e-13
     8   -1.706379101224e-14
     9   -1.626473779648e-01
    10    1.979742862498e-13
    11    1.348652152543e-14
    12    5.429367597724e-14
    13   -1.386702716714e-01
    14   -3.554795427026e-12
    15   -9.876118155086e-13
    16   -6.834438802154e-13
    17   -1.514071098215e-02
    18   -6.491930673509e-16
    19   -1.238460190838e-02
    20   -1.273231716273e-02
    21   -1.214217147056e-14
    22   -1.610471689973e-14
    23    1.362475102737e-14
    24   -2.867400815810e-13
    25    2.507499676623e-13
    26    1.591998491947e-14
    27   -1.710115110780e-14
    28   -4.407870549648e-15
    29   -4.235842237037e-05
    30    7.674022048261e-15
    31    2.338105976805e-14
    32    1.022680717608e-13
    33   -1.363027177984e-13
    34   -7.072833482215e-15
    35    2.267793099814e-15
    36   -6.653972268903e-03
    37    2.457417040850e-14
    38    3.580729786712e-13
    39    6.412722667188e-14
    40   -2.045206045912e-14
    41    5.066248924719e-15
    42   -3.188163515115e-14
    43    6.045399316889e-03
    44    1.635852688167e-15
    45    5.177694551208e-15
    46    8.948527423179e-15
    47    9.989810604429e-15
    48    1.024697341131e-01
    49   -1.615363814113e-14
    50    1.969494132333e-14
    51   -9.400651726174e-16
    52    1.819472633789e-01
    53   -2.365908663948e-13
    54    4.357545889596e-13
    55    6.618750807147e-13
    56    1.032806357569e-01
    57    2.471412724137e-13
    58    5.306683508009e-14
    59   -8.208724385763e-14
    60    2.003584456549e-02
    61    3.856208827889e-15
    62   -1.811976630741e-02
    63    2.231661301860e-02
    64    6.297180439715e-15
    65    1.017312165512e-14
    66   -3.980601158136e-15
    67   -4.491992848335e-15
    68    4.542852482119e-15
    69    4.226736170297e-14
    70    2.366505609295e-01
    71    1.193495524353e-14
    72    7.290943101623e-15
    73    4.998348619272e-14
    74    2.765877963492e-01
    75    5.639516766274e-14
    76   -2.906741306210e-14
    77   -7.434947639653e-14
    78    1.695440605176e-01
    79    1.979597404701e-13
    80    3.587470590871e-14
    81   -8.815166641847e-14
    82   -7.465154819419e-03
    83    1.136566480817e-16
    84    1.958030640086e-02
    85   -1.117486873939e-02
    86    9.569272570990e-16
    87    1.461366348627e-15
    88    3.504297913479e-14
    89    2.821300332210e-14
    90   -3.400073696968e-14
    91    4.728588934624e-14
    92   -4.353135575413e-02
    93    2.961123216779e-14
    94   -1.811743480665e-14
    95    5.245579468696e-14
    96   -7.636660097944e-02
    97   -4.269631379781e-13
    98    2.456506565713e-13
    99    4.056114454874e-13
   100   -5.630548787120e-02
   101    2.011085720907e-12
   102   -3.007028588801e-13
   103   -5.251529724376e-13
   104   -1.335861269208e-02
   105    6.220670396583e-15
   106   -1.027448076237e-02
   107    1.078624027044e-02
   108   -1.651085663514e-15
   109   -2.122756834844e-14
   110   -5.115504832605e-14
   111   -4.770836021382e-14
   112   -3.100337358845e-15
   113    3.279288075122e-14
   114   -4.060283478623e-02
   115    1.717881728585e-14
   116   -2.156916748546e-14
   117    5.892971382896e-14
   118   -6.509162090412e-02
   119   -1.825971688037e-14
   120   -3.313662415153e-15
   121    8.629622153245e-14
   122   -5.052871426842e-02
   123   -3.277005537170e-13
   124    1.823426425019e-13
   125    5.747201352621e-14
   126    1.213349692276e-02
   127    3.310951936173e-16
   128    5.448387045767e-03
   129    3.720225075216e-03
   130    3.912729500357e-15
   131   -6.222285832782e-16
   132    6.705914960576e-14
   133    2.830306930737e-14
   134    2.226658953753e-14
   135    2.341310080430e-14
   136    6.820706482494e-02
   137    1.915082071174e-13
   138    3.993746842714e-14
   139    9.301420554979e-14
   140    1.144348667489e-01
   141   -3.449480538977e-13
   142    2.579007787037e-13
   143   -5.777052910429e-13
   144    1.065648743391e-01
   145   -7.003476565801e-13
   146    2.672687006618e-13
   147    2.221102910986e-13
   148    3.429864762056e-03
   149    4.998539137010e-16
   150   -1.164762253042e-02
   151   -2.257368138624e-03
   152    1.253784171841e-14
   153   -2.779819221461e-15
   154    2.839933120663e-14
   155    2.484362403733e-14
   156    6.618871724877e-16
   157   -9.586838014666e-15
   158   -1.265794820073e-02
   159   -4.102181531672e-14
   160    4.692577453739e-14
   161   -1.157993188096e-14
   162   -1.989737618254e-02
   163    4.528994498065e-13
   164   -5.740934774872e-13
   165    8.443748214352e-14
   166   -1.343094488789e-02
   167    4.421028707999e-13
   168    5.266109820736e-13
   169    3.568144487929e-13
   170    6.030035280693e-03
   171   -6.422641712171e-15
   172   -8.168188380029e-03
   173    1.162432931857e-02
   174    4.039654471880e-15
   175    7.252763881166e-15
   176   -1.004886165057e-13
   177   -3.944350127455e-14
   178    3.268555861118e-14
   179    2.329660765383e-14
   180   -1.025897952090e-01
   181   -2.343429547497e-13
   182    4.648612642738e-14
   183    3.988353507176e-14
   184   -1.783792860467e-01
   185    2.582127732929e-13
   186    1.048976800036e-13
   187    2.020204405528e-13
   188   -1.539222635952e-01
   189    1.513368810678e-12
   190   -5.684397877090e-13
   191   -8.349663041338e-13
   192   -2.702132258436e-03
   193    1.354590064690e-14
   194    1.745385013748e-02
   195   -5.229847970150e-04
   196   -4.984104381586e-15
   197    4.093883893966e-16
   198   -3.513245701360e-14
   199   -4.575223155085e-14
   200   -9.550011743086e-14
   201    5.483079418954e-14
   202    7.123990839762e-15
   203    1.660249832108e-16
   204   -8.153784794452e-03
Sym=X
Ene= 2.003527
Spin=Alpha
Occup=1
     1    8.097893286665e-03
     2    1.346424535771e-02
     3    1.162760758456e-02
     4   -3.006232387566e-02
     5   -2.054540987799e-14
     6   -3.600588327250e-02
     7    1.956066988891e-02
     8   -5.003752881270e-02
     9   -2.713549397894e-15
    10   -4.123298781479e-02
    11   -1.142562611888e-02
    12   -4.864878395950e-02
    13   -3.842503549197e-14
    14   -8.854195338561e-02
    15   -2.100638936532e-03
    16   -1.687169458565e-02
    17    1.200084464407e-13
    18    2.043050890501e-03
    19    5.774860243137e-15
    20   -2.288695553179e-15
    21   -1.124209539927e-02
    22    5.107821151945e-03
    23    7.094904770156e-04
    24   -1.447001330515e-02
    25   -2.427642983304e-02
    26    2.983904988324e-02
    27   -9.850275447405e-04
    28    6.133717622278e-04
    29   -1.406933170746e-14
    30    2.203752880374e-02
    31    3.516686168337e-02
    32    1.372568887203e-02
    33   -6.996060107592e-03
    34    6.089796632873e-04
    35    7.475147555379e-04
    36    1.228268018527e-15
    37    4.228037831524e-03
    38    2.004597584508e-02
    39    3.223701219658e-02
    40   -4.928197496918e-02
    41    1.731593289599e-03
    42   -1.542925227066e-03
    43    1.118490454843e-14
    44   -8.953922608736e-03
    45   -1.449536206966e-02
    46   -4.610226669058e-02
    47   -1.908987448295e-02
    48   -2.378992029856e-14
    49    4.168068048693e-02
    50   -7.537403129440e-02
    51   -3.901290122936e-02
    52   -4.877781032695e-14
    53    4.522739683667e-02
    54    3.758402115184e-02
    55    6.297527887887e-02
    56    3.623575782205e-14
    57    3.111547239067e-02
    58    5.429936428551e-02
    59    7.861422497119e-02
    60   -1.163531025252e-13
    61   -2.052567239373e-03
    62    9.374417191584e-15
    63    1.105968216888e-14
    64   -5.518905662169e-02
    65   -3.270478696589e-02
    66   -1.070941617362e-02
    67   -1.544180613297e-02
    68    2.079012654553e-01
    69    2.502681819128e-01
    70   -6.304073126062e-14
    71    4.991171266841e-02
    72    2.398411164342e-01
    73    2.863581307906e-01
    74   -6.000172049453e-14
    75   -7.088330573921e-04
    76    1.466548822216e-01
    77    2.066579602211e-01
    78   -6.943247500541e-14
    79   -1.987314103848e-02
    80   -4.750244893925e-03
    81    3.710718371468e-03
    82    5.790179012852e-14
    83   -3.307447459381e-03
    84   -7.138599221845e-15
    85   -3.204643788275e-15
    86    1.401831824533e-02
    87    1.916952725585e-03
    88   -1.549914088537e-02
    89   -2.578108602001e-02
    90   -3.536196640815e-02
    91   -1.277131448788e-05
    92    5.776144237107e-14
    93    6.925080265684e-02
    94   -5.904462847460e-02
    95   -1.927825262735e-03
    96    8.583823944696e-14
    97    6.940526916265e-02
    98   -5.287455546482e-02
    99    8.149433095282e-03
   100    1.326448462515e-13
   101   -1.447496788955e-01
   102   -1.286401486324e-02
   103    9.387126014128e-02
   104    2.292743249730e-13
   105   -1.898075023472e-03
   106    2.881194448171e-15
   107    9.748645382761e-15
   108   -3.027154124438e-02
   109    4.828141612563e-03
   110    3.932055210032e-03
   111    6.664425944056e-03
   112   -5.141162415566e-02
   113    1.041096736099e-01
   114    7.670074577630e-14
   115   -2.011926768321e-02
   116   -8.045156246354e-02
   117    1.601770840119e-01
   118    8.697001092629e-14
   119   -9.497137042735e-03
   120   -7.578390477761e-02
   121    1.430333368705e-01
   122    1.454750566233e-13
   123    3.000277984522e-02
   124   -1.183861066695e-02
   125    1.614476359927e-03
   126   -1.203413023358e-13
   127    3.093026997707e-04
   128   -2.144528809697e-15
   129   -1.428972675160e-14
   130    7.098830873576e-03
   131   -4.580720156460e-03
   132    2.422812942113e-02
   133    4.015358530662e-02
   134    5.814851463736e-02
   135    2.670474033299e-02
   136    7.229827470283e-14
   137   -1.065076619248e-01
   138    8.690868146562e-02
   139    3.143760401879e-02
   140    1.299735640033e-13
   141   -2.102169295480e-01
   142    7.791177883068e-02
   143    4.897821051487e-02
   144    7.996869369865e-14
   145   -1.825659247193e-01
   146   -7.913603827761e-03
   147    4.943554863379e-03
   148   -3.943053328535e-14
   149   -1.365108654951e-03
   150    5.442359465566e-15
   151    2.539990287922e-15
   152    1.082384954797e-04
   153   -4.586081027031e-03
   154   -1.234293782983e-02
   155   -2.012694420100e-02
   156   -2.544174591536e-02
   157    6.209771967402e-02
   158   -8.031548388551e-14
   159    5.265022048114e-02
   160   -4.387115014871e-02
   161    8.946504366375e-02
   162   -1.290757859199e-13
   163    1.067219976040e-01
   164   -3.704014221330e-02
   165    9.566764847926e-02
   166   -1.650416038363e-13
   167    1.157438224534e-01
   168   -2.161642391829e-03
   169    1.056067556528e-02
   170    4.694562197030e-15
   171    7.105750887337e-04
   172   -2.752870057864e-16
   173   -2.128525442923e-15
   174   -3.010870334793e-03
   175   -1.339515966338e-03
   176   -5.386843291339e-03
   177   -8.857570280053e-03
   178    2.582243208518e-03
   179    2.981452056905e-02
   180    1.865656905579e-14
   181    2.257464529644e-02
   182    5.413399834012e-03
   183    4.267700530495e-02
   184    9.112694293697e-15
   185    6.431371818440e-02
   186   -1.378686619053e-02
   187    3.632521072701e-02
   188    4.700828013023e-14
   189    2.492396766476e-01
   190   -2.513910929553e-02
   191    3.958164344347e-02
   192   -1.974132053160e-13
   193    2.558318045269e-05
   194    8.484438070266e-15
   195    4.555083883648e-15
   196   -5.460374376139e-03
   197    2.829036033030e-04
   198   -7.439801163998e-03
   199   -1.359352723937e-02
   200   -3.376856947444e-03
   201    1.026054615248e-02
   202    1.289725011623e-03
   203    1.458103159935e-05
   204    1.759060196013e-15
Sym=X
Ene= 2.001947
Spin=Alpha
Occup=1
     1   -1.565859506299e-13
     2   -2.109434300502e-13
     3    8.992091994554e-14
     4    4.934577517513e-14
     5    9.593409767662e-02
     6    4.201685977175e-13
     7    1.367225034202e-13
     8    7.787902055392e-14
     9    1.644614602565e-01
    10    1.536585180625e-13
    11    1.451332854109e-13
    12    1.255181246027e-13
    13    1.109510825801e-01
    14    8.806390727338e-12
    15    2.912174662262e-12
    16    1.143883123870e-12
    17    2.224295783630e-02
    18   -1.579000877860e-14
    19   -8.366084962361e-03
    20    1.815987392891e-02
    21    1.784938064633e-14
    22   -2.813297306648e-15
    23    6.461304909212e-14
    24    1.708128006476e-13
    25   -8.040444559368e-13
    26    3.594994153630e-13
    27    1.643362771284e-14
    28    1.274951073194e-14
    29    1.158613217186e-02
    30    3.189637087678e-14
    31    1.124318102673e-13
    32   -1.064474947221e-13
    33    2.744326999459e-13
    34    5.837238753761e-15
    35    2.148742608724e-14
    36    7.154635225384e-03
    37   -1.247928796193e-13
    38   -2.250811395213e-13
    39    5.417868791587e-13
    40   -2.802266437966e-13
    41   -7.589286646392e-16
    42    2.546234426861e-14
    43    2.353514009406e-03
    44    8.720677626678e-14
    45    8.087032262443e-14
    46    1.334760560616e-13
    47   -1.465705595050e-13
    48    6.897952732313e-02
    49   -5.636443940287e-14
    50    1.965883520422e-13
    51   -2.443200953362e-13
    52    1.207195291826e-01
    53    4.246086972044e-15
    54   -6.125252707984e-14
    55    2.488246394874e-14
    56    5.496197768869e-02
    57   -6.522121060693e-13
    58    2.038166558650e-13
    59    7.794990565445e-13
    60    2.497604217171e-02
    61    7.578563426133e-17
    62    6.530929413535e-03
    63   -1.778409273809e-02
    64   -8.580766186088e-14
    65   -1.643992503439e-14
    66    5.116197528313e-14
    67    7.103621083701e-14
    68    4.005682699759e-15
    69    5.238253810883e-13
    70    6.355734716124e-03
    71   -2.295783274706e-13
    72    1.077889077169e-15
    73    5.954122586055e-13
    74    1.107644279532e-02
    75   -3.460401990787e-14
    76    7.463270204038e-14
    77    4.031735375650e-13
    78   -3.307572689222e-03
    79   -6.806033549744e-14
    80   -3.644372124678e-14
    81   -4.346685845893e-14
    82   -2.100718676179e-02
    83    1.538628560813e-14
    84    5.796634593892e-03
    85   -3.683568944522e-03
    86    4.151298471679e-15
    87    3.231843757364e-14
    88   -5.250329835713e-14
    89    1.511984734240e-14
    90   -1.150091001916e-13
    91    2.868311285401e-14
    92   -5.253001927012e-02
    93   -3.205604960988e-13
    94   -1.936625622815e-13
    95    5.182970788002e-14
    96   -9.223303108215e-02
    97   -4.170748014933e-13
    98    7.130643532175e-15
    99   -1.384327991893e-13
   100   -7.432444993891e-02
   101   -3.741629781101e-12
   102   -4.850175625336e-13
   103    1.467127055516e-12
   104   -8.121347061819e-03
   105    1.277396185135e-14
   106   -3.185240053436e-02
   107   -2.250769792193e-02
   108    8.914022931757e-14
   109   -4.468772714795e-14
   110   -1.861990377719e-13
   111   -1.987231133593e-13
   112    3.125420463673e-13
   113   -1.331511815574e-13
   114   -1.364283742533e-01
   115    2.382285306632e-13
   116    4.812872199919e-13
   117   -2.062425413264e-13
   118   -2.138123604696e-01
   119    3.553337113605e-13
   120    3.381405167621e-13
   121   -2.672762134566e-13
   122   -1.963495957474e-01
   123    3.879486241592e-13
   124   -7.347521263357e-14
   125   -6.929993072132e-14
   126   -2.227770114870e-02
   127    1.082663511797e-14
   128    1.217839639464e-02
   129    7.318263992401e-03
   130   -1.848727395188e-14
   131   -1.048471183008e-14
   132   -2.732498617586e-14
   133   -1.566188961618e-14
   134    8.477055667172e-14
   135   -1.688706224417e-13
   136    4.775477073079e-02
   137   -4.566504771287e-14
   138    1.142931932910e-13
   139   -2.642892121618e-13
   140    7.609239819508e-02
   141    1.069804233082e-13
   142    2.210262455654e-13
   143   -2.184582387945e-13
   144    8.556820189688e-02
   145   -1.199322323513e-15
   146   -3.059384290703e-13
   147   -1.082766421827e-12
   148   -6.316287726351e-04
   149    1.010996601817e-15
   150   -9.014441786573e-03
   151   -3.136891782878e-03
   152    2.111239945750e-15
   153    1.361114330754e-14
   154    2.114042969712e-13
   155    7.639983218564e-14
   156    7.359064718376e-17
   157    7.162295188717e-14
   158    1.588012594123e-01
   159    5.417064168469e-13
   160    4.813149018330e-15
   161    1.149453442712e-13
   162    2.617584763844e-01
   163    5.176852362532e-13
   164    3.049977181223e-14
   165    7.262088096596e-14
   166    2.319149849550e-01
   167    5.305768144605e-13
   168   -1.092817194192e-12
   169   -7.996481296394e-13
   170   -1.745630373689e-02
   171   -1.343973811842e-14
   172    9.509829165434e-03
   173    4.884548099348e-03
   174    5.351743004269e-15
   175    2.232088901075e-16
   176   -3.819943874122e-13
   177   -3.138343324742e-13
   178   -1.479142458706e-13
   179   -1.468610030398e-13
   180    5.304013106623e-02
   181   -1.447561378798e-14
   182   -2.100726603395e-13
   183   -2.178737093030e-13
   184    8.913576680824e-02
   185   -2.807172495923e-13
   186   -1.046462652780e-13
   187   -2.120633036993e-13
   188    9.355949578485e-02
   189   -5.095911489324e-12
   190    2.409934515172e-12
   191    2.572215118030e-12
   192   -6.666107354268e-03
   193   -6.934890701702e-15
   194   -1.575631957672e-02
   195   -8.533197004335e-03
   196    2.427601251342e-14
   197    9.855513340536e-15
   198   -3.198662473370e-14
   199   -5.891692190920e-14
   200    5.615344138218e-14
   201   -3.962442350781e-14
   202    5.460936022104e-15
   203   -8.263767258034e-15
   204    2.989626117618e-03
Sym=X
Ene= 2.001616
Spin=Alpha
Occup=1
     1    5.044780438458e-03
     2    7.803664078133e-03
     3    3.701249647294e-02
     4   -5.823787678793e-03
     5   -2.134292393886e-13
     6   -1.985374932315e-02
     7    6.285427471509e-02
     8   -9.708126812152e-03
     9   -3.614189801820e-13
    10    7.070043361905e-03
    11    3.134770214756e-02
    12    1.114791482366e-02
    13   -3.526194361280e-13
    14    3.117957417165e-01
    15    8.558078706899e-02
    16    9.653791454945e-02
    17    4.567512346434e-14
    18    1.589008202631e-03
    19   -1.773817179873e-14
    20   -3.614024327052e-14
    21   -1.576356713816e-03
    22    5.239773689629e-04
    23   -7.997032591049e-03
    24   -1.092418933635e-02
    25   -1.863194189334e-02
    26    4.137191671998e-03
    27   -2.207674282073e-03
    28    1.655952150778e-03
    29   -1.332645982588e-14
    30   -1.644476354274e-03
    31    1.771165493347e-03
    32    3.775587895498e-03
    33    4.201556857180e-02
    34    1.445134521113e-03
    35    4.817190539382e-05
    36   -9.797052548866e-15
    37   -1.094414952262e-02
    38   -1.138263760265e-02
    39    8.704428300293e-03
    40    2.305870443960e-02
    41   -2.173057432434e-03
    42    1.679259970316e-03
    43   -1.503430439518e-14
    44    1.646990155433e-02
    45    2.557498554275e-02
    46    7.336280336750e-02
    47   -8.053604123104e-02
    48   -1.610699038503e-13
    49   -7.298171833377e-02
    50    1.131414273173e-01
    51   -1.341770245396e-01
    52   -2.754818749634e-13
    53   -7.678832452979e-02
    54    1.860001688234e-02
    55    4.492420205504e-03
    56   -1.189383672811e-13
    57   -4.914290014200e-02
    58   -4.137669836559e-03
    59    3.013692644637e-02
    60   -1.549111300766e-13
    61    5.593403519485e-03
    62   -6.506931150557e-14
    63   -4.581412429535e-15
    64   -3.703837446368e-02
    65    6.355788431477e-03
    66    2.777658517446e-03
    67    3.534854844348e-03
    68   -9.196165572593e-02
    69    2.383959361258e-01
    70    2.045517770702e-14
    71   -2.822651912265e-03
    72   -1.037504862098e-01
    73    2.717650152372e-01
    74    2.003735395068e-14
    75    8.246393477856e-02
    76   -1.610476549415e-02
    77    1.586237427169e-01
    78    1.010978760223e-14
    79    2.385885338233e-02
    80   -3.047280172061e-04
    81   -1.947503205028e-03
    82    1.169849795268e-13
    83    9.166639582974e-03
    84   -1.147986805719e-14
    85    5.128315272070e-15
    86   -3.259799788458e-03
    87    1.722579257071e-02
    88    1.492085045357e-02
    89    2.459903462433e-02
    90    6.139482430669e-04
    91    3.781512825289e-03
    92   -1.262215220189e-14
    93   -6.852284581745e-02
    94   -6.581133541610e-04
    95    1.417657945397e-02
    96   -4.486123044148e-14
    97   -8.151787834162e-02
    98    4.165387693755e-02
    99   -5.317103966942e-02
   100    9.763507446880e-14
   101    2.220629327311e-01
   102    3.457296668328e-02
   103   -1.106365455752e-01
   104    1.574613854009e-13
   105    2.144359040267e-03
   106    1.080637637309e-13
   107    4.572581822862e-14
   108    4.484629073508e-02
   109   -2.257676995940e-02
   110   -9.446589275696e-03
   111   -1.602829474541e-02
   112    1.128369682229e-01
   113   -1.333448480620e-01
   114    2.805500356040e-13
   115    4.883555114381e-02
   116    1.731164401958e-01
   117   -2.065671673108e-01
   118    4.224934526272e-13
   119    5.792701757501e-02
   120    1.520696522068e-01
   121   -1.968326819420e-01
   122    4.519855011521e-13
   123    1.451764834893e-02
   124   -5.301091190053e-03
   125   -9.392309154520e-03
   126    1.206709821578e-14
   127    1.367136317539e-03
   128   -1.675681745140e-14
   129   -6.713605881438e-15
   130   -1.050812761727e-02
   131    3.004893009751e-03
   132   -6.262101034841e-03
   133   -1.127665766468e-02
   134    2.486817392607e-02
   135   -2.519596595194e-02
   136   -3.750186850876e-13
   137    3.285117307299e-02
   138    3.377374522167e-02
   139   -3.795701729111e-02
   140   -6.144216565029e-13
   141    8.975244233863e-02
   142    7.295093272470e-02
   143   -4.981666828700e-02
   144   -6.554567746696e-13