[Molden Format]
[Atoms] (Angs)
  C      1    6     -0.00714236     -1.70213747     -0.00000000
  H      2    1     -2.06882847     -1.44022412      0.00000000
  H      3    1     -0.12337987     -2.77567521      0.00000000
  H      4    1      0.04651892      1.98813947     -0.00000000
  C      5    6     -1.21953563      0.40211669      0.00000000
  O      6    8     -2.25921553      1.03043814      0.00000000
  C      7    6      1.28797806      0.34644937     -0.00000000
  O      8    8      2.31273661      1.00537216     -0.00000000
  N      9    7      0.03446295      0.97739857     -0.00000000
  N     10    7     -1.17287765     -0.98229824      0.00000000
  C     11    6      1.20107039     -1.10433419     -0.00000000
  H     12    1      2.11220096     -1.67699125     -0.00000000
[GTO]
1    0
S    6    1.000000
   4.56324000E+03    1.96665000E-03 
   6.82024000E+02    1.52306000E-02 
   1.54973000E+02    7.61269000E-02 
   4.44553000E+01    2.60801000E-01 
   1.30290000E+01    6.16462000E-01 
   1.82773000E+00    2.21006000E-01 
SP   3    1.000000
   2.09642000E+01    1.14660000E-01   4.02487000E-02 
   4.80331000E+00    9.19999000E-01   2.37594000E-01 
   1.45933000E+00   -3.03068000E-03   8.15854000E-01 
SP   1    1.000000
   4.83456000E-01    1.00000000E+00   1.00000000E+00 
SP   1    1.000000
   1.45585000E-01    1.00000000E+00   1.00000000E+00 
SP   1    1.000000
   4.38000000E-02    1.00000000E+00   1.00000000E+00 
D    1    1.000000
   6.26000000E-01    1.00000000E+00 

2    0
S    3    1.000000
   3.38650000E+01    2.54938000E-02 
   5.09479000E+00    1.90373000E-01 
   1.15879000E+00    8.52161000E-01 
S    1    1.000000
   3.25840000E-01    1.00000000E+00 
S    1    1.000000
   1.02741000E-01    1.00000000E+00 
S    1    1.000000
   3.60000000E-02    1.00000000E+00 
P    1    1.000000
   7.50000000E-01    1.00000000E+00 

3    0
S    3    1.000000
   3.38650000E+01    2.54938000E-02 
   5.09479000E+00    1.90373000E-01 
   1.15879000E+00    8.52161000E-01 
S    1    1.000000
   3.25840000E-01    1.00000000E+00 
S    1    1.000000
   1.02741000E-01    1.00000000E+00 
S    1    1.000000
   3.60000000E-02    1.00000000E+00 
P    1    1.000000
   7.50000000E-01    1.00000000E+00 

4    0
S    3    1.000000
   3.38650000E+01    2.54938000E-02 
   5.09479000E+00    1.90373000E-01 
   1.15879000E+00    8.52161000E-01 
S    1    1.000000
   3.25840000E-01    1.00000000E+00 
S    1    1.000000
   1.02741000E-01    1.00000000E+00 
S    1    1.000000
   3.60000000E-02    1.00000000E+00 
P    1    1.000000
   7.50000000E-01    1.00000000E+00 

5    0
S    6    1.000000
   4.56324000E+03    1.96665000E-03 
   6.82024000E+02    1.52306000E-02 
   1.54973000E+02    7.61269000E-02 
   4.44553000E+01    2.60801000E-01 
   1.30290000E+01    6.16462000E-01 
   1.82773000E+00    2.21006000E-01 
SP   3    1.000000
   2.09642000E+01    1.14660000E-01   4.02487000E-02 
   4.80331000E+00    9.19999000E-01   2.37594000E-01 
   1.45933000E+00   -3.03068000E-03   8.15854000E-01 
SP   1    1.000000
   4.83456000E-01    1.00000000E+00   1.00000000E+00 
SP   1    1.000000
   1.45585000E-01    1.00000000E+00   1.00000000E+00 
SP   1    1.000000
   4.38000000E-02    1.00000000E+00   1.00000000E+00 
D    1    1.000000
   6.26000000E-01    1.00000000E+00 

6    0
S    6    1.000000
   8.58850000E+03    1.89515000E-03 
   1.29723000E+03    1.43859000E-02 
   2.99296000E+02    7.07320000E-02 
   8.73771000E+01    2.40001000E-01 
   2.56789000E+01    5.94797000E-01 
   3.74004000E+00    2.80802000E-01 
SP   3    1.000000
   4.21175000E+01    1.13889000E-01   3.65114000E-02 
   9.62837000E+00    9.20811000E-01   2.37153000E-01 
   2.85332000E+00   -3.27447000E-03   8.19702000E-01 
SP   1    1.000000
   9.05661000E-01    1.00000000E+00   1.00000000E+00 
SP   1    1.000000
   2.55611000E-01    1.00000000E+00   1.00000000E+00 
SP   1    1.000000
   8.45000000E-02    1.00000000E+00   1.00000000E+00 
D    1    1.000000
   1.29200000E+00    1.00000000E+00 

7    0
S    6    1.000000
   4.56324000E+03    1.96665000E-03 
   6.82024000E+02    1.52306000E-02 
   1.54973000E+02    7.61269000E-02 
   4.44553000E+01    2.60801000E-01 
   1.30290000E+01    6.16462000E-01 
   1.82773000E+00    2.21006000E-01 
SP   3    1.000000
   2.09642000E+01    1.14660000E-01   4.02487000E-02 
   4.80331000E+00    9.19999000E-01   2.37594000E-01 
   1.45933000E+00   -3.03068000E-03   8.15854000E-01 
SP   1    1.000000
   4.83456000E-01    1.00000000E+00   1.00000000E+00 
SP   1    1.000000
   1.45585000E-01    1.00000000E+00   1.00000000E+00 
SP   1    1.000000
   4.38000000E-02    1.00000000E+00   1.00000000E+00 
D    1    1.000000
   6.26000000E-01    1.00000000E+00 

8    0
S    6    1.000000
   8.58850000E+03    1.89515000E-03 
   1.29723000E+03    1.43859000E-02 
   2.99296000E+02    7.07320000E-02 
   8.73771000E+01    2.40001000E-01 
   2.56789000E+01    5.94797000E-01 
   3.74004000E+00    2.80802000E-01 
SP   3    1.000000
   4.21175000E+01    1.13889000E-01   3.65114000E-02 
   9.62837000E+00    9.20811000E-01   2.37153000E-01 
   2.85332000E+00   -3.27447000E-03   8.19702000E-01 
SP   1    1.000000
   9.05661000E-01    1.00000000E+00   1.00000000E+00 
SP   1    1.000000
   2.55611000E-01    1.00000000E+00   1.00000000E+00 
SP   1    1.000000
   8.45000000E-02    1.00000000E+00   1.00000000E+00 
D    1    1.000000
   1.29200000E+00    1.00000000E+00 

9    0
S    6    1.000000
   6.29348000E+03    1.96979000E-03 
   9.49044000E+02    1.49613000E-02 
   2.18776000E+02    7.35006000E-02 
   6.36916000E+01    2.48937000E-01 
   1.88282000E+01    6.02460000E-01 
   2.72023000E+00    2.56202000E-01 
SP   3    1.000000
   3.06331000E+01    1.11906000E-01   3.83119000E-02 
   7.02614000E+00    9.21666000E-01   2.37403000E-01 
   2.11205000E+00   -2.56919000E-03   8.17592000E-01 
SP   1    1.000000
   6.84009000E-01    1.00000000E+00   1.00000000E+00 
SP   1    1.000000
   2.00878000E-01    1.00000000E+00   1.00000000E+00 
SP   1    1.000000
   6.39000000E-02    1.00000000E+00   1.00000000E+00 
D    1    1.000000
   9.13000000E-01    1.00000000E+00 

10    0
S    6    1.000000
   6.29348000E+03    1.96979000E-03 
   9.49044000E+02    1.49613000E-02 
   2.18776000E+02    7.35006000E-02 
   6.36916000E+01    2.48937000E-01 
   1.88282000E+01    6.02460000E-01 
   2.72023000E+00    2.56202000E-01 
SP   3    1.000000
   3.06331000E+01    1.11906000E-01   3.83119000E-02 
   7.02614000E+00    9.21666000E-01   2.37403000E-01 
   2.11205000E+00   -2.56919000E-03   8.17592000E-01 
SP   1    1.000000
   6.84009000E-01    1.00000000E+00   1.00000000E+00 
SP   1    1.000000
   2.00878000E-01    1.00000000E+00   1.00000000E+00 
SP   1    1.000000
   6.39000000E-02    1.00000000E+00   1.00000000E+00 
D    1    1.000000
   9.13000000E-01    1.00000000E+00 

11    0
S    6    1.000000
   4.56324000E+03    1.96665000E-03 
   6.82024000E+02    1.52306000E-02 
   1.54973000E+02    7.61269000E-02 
   4.44553000E+01    2.60801000E-01 
   1.30290000E+01    6.16462000E-01 
   1.82773000E+00    2.21006000E-01 
SP   3    1.000000
   2.09642000E+01    1.14660000E-01   4.02487000E-02 
   4.80331000E+00    9.19999000E-01   2.37594000E-01 
   1.45933000E+00   -3.03068000E-03   8.15854000E-01 
SP   1    1.000000
   4.83456000E-01    1.00000000E+00   1.00000000E+00 
SP   1    1.000000
   1.45585000E-01    1.00000000E+00   1.00000000E+00 
SP   1    1.000000
   4.38000000E-02    1.00000000E+00   1.00000000E+00 
D    1    1.000000
   6.26000000E-01    1.00000000E+00 

12    0
S    3    1.000000
   3.38650000E+01    2.54938000E-02 
   5.09479000E+00    1.90373000E-01 
   1.15879000E+00    8.52161000E-01 
S    1    1.000000
   3.25840000E-01    1.00000000E+00 
S    1    1.000000
   1.02741000E-01    1.00000000E+00 
S    1    1.000000
   3.60000000E-02    1.00000000E+00 
P    1    1.000000
   7.50000000E-01    1.00000000E+00 

[MO]
Sym=X
Ene= 2.006092
Spin=Alpha
Occup=1
     1   -4.654592866989e-14
     2   -1.991789017713e-14
     3   -5.033275002214e-14
     4   -4.192364009525e-14
     5   -9.224432990462e-02
     6   -5.368522232185e-14
     7   -1.123696017194e-13
     8   -2.184788921200e-14
     9   -1.596606117835e-01
    10    2.050048186968e-13
    11    1.302841447322e-14
    12    5.281525316417e-14
    13   -1.373983108887e-01
    14   -3.379335720658e-12
    15   -9.309733606048e-13
    16   -6.727861331754e-13
    17   -1.418717447521e-02
    18   -7.346233119430e-16
    19   -1.254199686725e-02
    20   -1.219714880698e-02
    21   -1.276675708021e-14
    22   -1.507251516053e-14
    23    1.146660498842e-14
    24   -2.927102353572e-13
    25    2.355563278847e-13
    26    3.310193574428e-14
    27   -1.866681317894e-14
    28   -5.547645837432e-15
    29    2.518297217631e-04
    30    1.345258133497e-14
    31    3.504539746585e-14
    32    9.967860501044e-14
    33   -1.467965649116e-13
    34   -6.690622247808e-15
    35    3.791907011518e-15
    36   -6.556795036708e-03
    37    2.639559936799e-14
    38    3.555332094147e-13
    39    8.033339624575e-14
    40   -3.035116751471e-14
    41    5.159258275401e-15
    42   -3.016386062020e-14
    43    6.084969619824e-03
    44    2.250565473670e-15
    45    5.347376603939e-15
    46    9.311675098329e-15
    47    1.008512024910e-14
    48    1.041834265488e-01
    49   -1.422896130965e-14
    50    2.031793768989e-14
    51   -4.121373969327e-16
    52    1.849997123843e-01
    53   -2.327806829896e-13
    54    4.396288738387e-13
    55    6.640607229567e-13
    56    1.049715123544e-01
    57    2.378563015785e-13
    58    6.676661580128e-14
    59   -6.117265877914e-14
    60    2.058843617213e-02
    61    3.958334725101e-15
    62   -1.839213361876e-02
    63    2.164567615254e-02
    64    5.779993637950e-15
    65    8.743950279466e-15
    66   -3.289281422030e-15
    67   -3.524276021179e-15
    68    9.215198986651e-15
    69    4.777785179166e-14
    70    2.376218311363e-01
    71    8.387885863292e-15
    72    1.274617327756e-14
    73    5.594997195129e-14
    74    2.777125302082e-01
    75    5.439434643138e-14
    76   -2.585475335483e-14
    77   -6.967705196550e-14
    78    1.696870847238e-01
    79    2.006309332794e-13
    80    3.550812116229e-14
    81   -9.072432536005e-14
    82   -8.282511942340e-03
    83    7.564453629432e-17
    84    1.972783720407e-02
    85   -1.192381597330e-02
    86    1.487087144073e-15
    87    1.505702546615e-15
    88    3.634514560054e-14
    89    3.081754690766e-14
    90   -3.686965429001e-14
    91    4.429246093774e-14
    92   -4.414272609210e-02
    93    2.177118048193e-14
    94   -2.292338628149e-14
    95    4.839369928881e-14
    96   -7.744878934963e-02
    97   -4.355386852364e-13
    98    2.479597109318e-13
    99    4.032473140351e-13
   100   -5.715181531281e-02
   101    1.922832275204e-12
   102   -3.118268530520e-13
   103   -4.894850125457e-13
   104   -1.340987012743e-02
   105    7.143787948047e-15
   106   -1.074810168070e-02
   107    1.036694104710e-02
   108   -1.890854389853e-15
   109   -2.185840321959e-14
   110   -5.007416062960e-14
   111   -4.515215276247e-14
   112    1.153569592837e-15
   113    3.452295442905e-14
   114   -4.254135357760e-02
   115    7.935202129391e-15
   116   -1.498791691089e-14
   117    6.166270986690e-14
   118   -6.811643242629e-02
   119   -2.314090721734e-14
   120   -1.753994194991e-16
   121    8.741645298710e-14
   122   -5.336520322630e-02
   123   -3.206626790916e-13
   124    1.810279622865e-13
   125    5.719035298425e-14
   126    1.170000204610e-02
   127    6.932489719377e-16
   128    5.608848557980e-03
   129    3.821700780284e-03
   130    3.577430623327e-15
   131   -1.109920240265e-15
   132    6.637131408419e-14
   133    2.721528854449e-14
   134    2.200662773849e-14
   135    2.473805155335e-14
   136    6.866511583090e-02
   137    1.942930521147e-13
   138    3.911740924267e-14
   139    9.595585926735e-14
   140    1.151914927663e-01
   141   -3.427672783914e-13
   142    2.617345418551e-13
   143   -5.766472439688e-13
   144    1.070012538154e-01
   145   -7.190967616656e-13
   146    2.634521843063e-13
   147    1.991484874864e-13
   148    3.135655180805e-03
   149   -8.440333774744e-16
   150   -1.178966798571e-02
   151   -2.386008237716e-03
   152    1.186538300731e-14
   153   -3.175320024242e-15
   154    3.025879122358e-14
   155    2.647701734820e-14
   156    2.641281227238e-15
   157   -8.717091204103e-15
   158   -8.598309236238e-03
   159   -4.138997216863e-14
   160    5.019432449002e-14
   161   -1.029281504337e-14
   162   -1.330953298883e-02
   163    4.568725610098e-13
   164   -5.776709267777e-13
   165    8.412174178506e-14
   166   -7.083708420456e-03
   167    4.527307372960e-13
   168    5.050780502609e-13
   169    3.454253760746e-13
   170    5.564510352680e-03
   171   -7.532949984874e-15
   172   -7.954387664459e-03
   173    1.176151647500e-02
   174    4.783985803255e-15
   175    6.508182111228e-15
   176   -1.041816502669e-13
   177   -4.290707252532e-14
   178    3.030721421879e-14
   179    2.359262618331e-14
   180   -1.012439395004e-01
   181   -2.326948599282e-13
   182    4.355007813734e-14
   183    4.008095055159e-14
   184   -1.761954640783e-01
   185    2.607067353418e-13
   186    9.993632134557e-14
   187    2.026757234786e-13
   188   -1.512645181339e-01
   189    1.432425753448e-12
   190   -5.261308693834e-13
   191   -7.757893971146e-13
   192   -2.680124547216e-03
   193    1.284248852373e-14
   194    1.718251788675e-02
   195   -6.538939454946e-04
   196   -5.380363040136e-15
   197    7.763953794656e-16
   198   -3.675903152856e-14
   199   -4.862916283419e-14
   200   -9.361722706498e-14
   201    6.173415826815e-14
   202    7.844035246707e-15
   203    1.182387796367e-16
   204   -8.007589406974e-03
Sym=X
Ene= 2.003760
Spin=Alpha
Occup=1
     1    7.849504981986e-03
     2    1.305749216930e-02
     3    1.195068808400e-02
     4   -3.050373209056e-02
     5   -1.128664988629e-14
     6   -3.504028017361e-02
     7    2.006736093801e-02
     8   -5.055519095175e-02
     9    1.092249478400e-14
    10   -4.097195219439e-02
    11   -1.139854707381e-02
    12   -4.840379464811e-02
    13   -3.109360725937e-14
    14   -1.082253729317e-01
    15   -2.656110913932e-03
    16   -1.619876981105e-02
    17    1.247430291438e-13
    18    2.017210035282e-03
    19    4.910725089013e-15
    20   -5.030082001347e-16
    21   -1.129299213747e-02
    22    5.164757163293e-03
    23    1.361353667722e-03
    24   -1.338262602072e-02
    25   -2.716592144096e-02
    26    3.014612152403e-02
    27   -9.020107426980e-04
    28    5.653393324950e-04
    29   -1.341645535836e-14
    30    2.266157953355e-02
    31    3.627561486873e-02
    32    1.440567295539e-02
    33   -8.183120297409e-04
    34    5.780627124520e-04
    35    8.469357570277e-04
    36    1.810786248982e-15
    37    4.325173838423e-03
    38    2.031909620799e-02
    39    3.279126184858e-02
    40   -4.601422019921e-02
    41    1.417652721101e-03
    42   -1.671465947799e-03
    43    1.046172148436e-14
    44   -8.301848541199e-03
    45   -1.383954093364e-02
    46   -4.109598399461e-02
    47   -1.804899043054e-02
    48   -1.877693896530e-14
    49    4.119720757926e-02
    50   -6.883850619250e-02
    51   -3.647758821308e-02
    52   -3.951413881397e-14
    53    4.806583639722e-02
    54    4.209094682317e-02
    55    6.605861812231e-02
    56    3.964717184389e-14
    57    4.283668170655e-02
    58    6.616994576359e-02
    59    7.885688819524e-02
    60   -1.176979302580e-13
    61   -1.955659844322e-03
    62    9.009831512840e-15
    63    8.796187069880e-15
    64   -5.590749570539e-02
    65   -3.222153983937e-02
    66   -5.004885663630e-03
    67   -7.148588831665e-03
    68    2.116434513455e-01
    69    2.573445331401e-01
    70   -6.570954203717e-14
    71    2.171397204614e-02
    72    2.434402228473e-01
    73    2.947837795674e-01
    74   -6.247697598780e-14
    75   -1.347557763849e-02
    76    1.497756485565e-01
    77    2.109526383325e-01
    78   -7.251598117020e-14
    79   -1.822456889897e-02
    80   -5.469524309817e-03
    81    3.081667168681e-03
    82    5.871638798873e-14
    83   -2.624041142625e-03
    84   -6.436428740989e-15
    85   -3.129180951429e-15
    86    1.486652011641e-02
    87    2.143366867249e-03
    88   -1.483957279809e-02
    89   -2.470720368754e-02
    90   -3.374783104826e-02
    91   -4.909337817195e-04
    92    5.265293604146e-14
    93    6.636274366440e-02
    94   -5.643210671754e-02
    95   -2.424781697118e-03
    96    7.432561552041e-14
    97    6.698406891038e-02
    98   -5.075206203179e-02
    99    6.407224887412e-03
   100    1.269658298100e-13
   101   -1.622636035497e-01
   102   -5.249059225280e-03
   103    9.364382395151e-02
   104    2.358189920873e-13
   105   -1.754135095699e-03
   106    1.543972858588e-15
   107    7.069145525023e-15
   108   -2.906362465240e-02
   109    4.760126909504e-03
   110    3.728909142239e-03
   111    6.323387940506e-03
   112   -4.913747443307e-02
   113    9.985810252889e-02
   114    6.593943300695e-14
   115   -1.906584310839e-02
   116   -7.692429080286e-02
   117    1.536376527943e-01
   118    6.930892218856e-14
   119   -9.086011504558e-03
   120   -7.232153143853e-02
   121    1.373124508558e-01
   122    1.317201652602e-13
   123    2.993101288617e-02
   124   -1.256837772894e-02
   125    9.362117214197e-04
   126   -1.255944961135e-13
   127    3.278778638077e-04
   128   -1.609026949207e-15
   129   -1.247143432480e-14
   130    6.800219277614e-03
   131   -4.399424417597e-03
   132    2.337335643536e-02
   133    3.871002617848e-02
   134    5.517951297769e-02
   135    2.592738539166e-02
   136    7.210398673315e-14
   137   -1.025605304726e-01
   138    8.169795658821e-02
   139    3.006921621772e-02
   140    1.289217743127e-13
   141   -2.085949660409e-01
   142    7.767339069364e-02
   143    4.789750438884e-02
   144    8.143816588091e-14
   145   -1.864730300008e-01
   146   -5.703675086611e-03
   147    4.146997516098e-03
   148   -4.230671895970e-14
   149   -1.458512281058e-03
   150    5.153004038676e-15
   151    2.379245822044e-15
   152    3.189961070920e-04
   153   -4.006524059816e-03
   154   -1.246855926130e-02
   155   -2.034465705520e-02
   156   -2.575025683262e-02
   157    6.146131633769e-02
   158   -6.264288021364e-14
   159    5.315067635579e-02
   160   -4.444340681585e-02
   161    8.852150827825e-02
   162   -1.008645225602e-13
   163    1.090611123356e-01
   164   -3.857137175001e-02
   165    9.593613497216e-02
   166   -1.360493858664e-13
   167    1.170873844848e-01
   168   -6.242421589545e-03
   169    7.672139074767e-03
   170    4.087186146706e-15
   171    7.156937869645e-04
   172    8.517115353199e-16
   173   -1.403510087968e-15
   174   -2.882245264526e-03
   175   -1.149114813474e-03
   176   -5.075994441905e-03
   177   -8.359558458045e-03
   178    2.280556245352e-03
   179    2.902288512636e-02
   180    2.154643012300e-14
   181    2.132738000624e-02
   182    4.822897271489e-03
   183    4.166642598011e-02
   184    1.490875776447e-14
   185    6.143917936039e-02
   186   -1.503787738825e-02
   187    3.480665268358e-02
   188    5.355123702952e-14
   189    2.651288187355e-01
   190   -3.165898506752e-02
   191    3.997250859154e-02
   192   -2.041776460796e-13
   193    5.784628993604e-05
   194    7.647283434364e-15
   195    3.478007812397e-15
   196   -5.507983437152e-03
   197    4.136813302521e-04
   198   -7.576686619098e-03
   199   -1.338797339828e-02
   200   -2.976574619959e-03
   201    1.201687092443e-02
   202    1.258876835547e-03
   203    4.826534536020e-05
   204    1.574488714789e-15
Sym=X
Ene= 2.001853
Spin=Alpha
Occup=1
     1    2.105001731246e-13
     2    2.766490543738e-13
     3   -1.115882142857e-13
     4   -6.788906462972e-14
     5   -9.935820837366e-02
     6   -5.295944484568e-13
     7   -1.670568209206e-13
     8   -1.072213896314e-13
     9   -1.703203017571e-01
    10   -2.437807881249e-13
    11   -1.725754940919e-13
    12   -1.572281656145e-13
    13   -1.167515711479e-01
    14   -8.848894002665e-12
    15   -2.939591917600e-12
    16   -1.181782074576e-12
    17   -2.226866906130e-02
    18    1.986886413067e-14
    19    7.637639364738e-03
    20   -1.837250919304e-02
    21   -2.269212639581e-14
    22    3.445694925083e-15
    23   -6.717061855181e-14
    24   -1.833200924132e-13
    25    8.238713996846e-13
    26   -3.413076528748e-13
    27   -1.780611962163e-14
    28   -1.227205342536e-14
    29   -1.136548895245e-02
    30   -3.564480956746e-14
    31   -1.138455163977e-13
    32    1.071310743179e-13
    33   -3.233379298248e-13
    34   -6.987682964403e-15
    35   -2.406225628918e-14
    36   -7.425831769602e-03
    37    1.476457252740e-13
    38    2.610263048489e-13
    39   -5.567099930771e-13
    40    2.662379176427e-13
    41    1.557224795070e-15
    42   -3.018232613844e-14
    43   -2.570925568851e-03
    44   -7.935309645709e-14
    45   -8.147514796501e-14
    46   -1.592774605368e-13
    47    1.457038169853e-13
    48   -6.755900985143e-02
    49    9.720743546195e-14
    50   -2.332189817979e-13
    51    2.399662127672e-13
    52   -1.181978832426e-01
    53    8.936143253354e-15
    54    5.527159141441e-14
    55   -2.132783485656e-14
    56   -5.304903412270e-02
    57    6.301736104133e-13
    58   -2.242635166621e-13
    59   -7.895571873391e-13
    60   -2.500816861756e-02
    61   -2.541705048677e-15
    62   -7.182981337061e-03
    63    1.741664728493e-02
    64    8.330254044630e-14
    65    1.361761253614e-14
    66   -7.241758554556e-14
    67   -1.020347586540e-13
    68    2.138435677768e-14
    69   -5.292141307456e-13
    70   -3.590453965405e-03
    71    3.339862896007e-13
    72    3.116411921633e-14
    73   -6.035832029151e-13
    74   -7.800971517778e-03
    75    6.655348397591e-14
    76   -6.585186454115e-14
    77   -3.989146475011e-13
    78    5.189664908548e-03
    79    6.316164159042e-14
    80    3.691846028831e-14
    81    4.565469387950e-14
    82    2.102239613625e-02
    83   -1.889502687487e-14
    84   -5.555916494649e-03
    85    3.537346745784e-03
    86   -3.824181615520e-15
    87   -3.590642603587e-14
    88    9.445564072092e-15
    89   -7.338630897821e-14
    90    1.121712605326e-13
    91   -5.222254819939e-14
    92    4.925744561788e-02
    93    4.443492814194e-13
    94    1.896136923332e-13
    95   -8.907419237439e-14
    96    8.648074047953e-02
    97    5.153544374450e-13
    98   -7.196707340928e-15
    99    1.378202207602e-13
   100    7.125654771973e-02
   101    3.929815584751e-12
   102    4.513790759634e-13
   103   -1.500658927607e-12
   104    7.233694053968e-03
   105   -1.696672001324e-14
   106    3.209308090850e-02
   107    2.269234125648e-02
   108   -1.052698001441e-13
   109    4.518172588785e-14
   110    1.980375499898e-13
   111    2.203209743515e-13
   112   -3.566812666610e-13
   113    1.561084209853e-13
   114    1.347291482282e-01
   115   -3.081644666472e-13
   116   -5.496847186579e-13
   117    2.417275934638e-13
   118    2.110550675087e-01
   119   -4.395951121562e-13
   120   -3.889411264703e-13
   121    3.128325539071e-13
   122    1.944438119569e-01
   123   -4.202032250849e-13
   124    8.099625553088e-14
   125    8.415475399538e-14
   126    2.315308399736e-02
   127   -1.201156963134e-14
   128   -1.184567631097e-02
   129   -7.135558950091e-03
   130    2.138637931928e-14
   131    1.228146938855e-14
   132    2.680840237423e-14
   133    9.745380170524e-15
   134   -7.209675016294e-14
   135    1.915553432237e-13
   136   -5.073654969730e-02
   137    7.452562302069e-14
   138   -9.266910711236e-14
   139    2.986150646555e-13
   140   -8.094365091777e-02
   141   -1.141216645505e-13
   142   -2.189919650540e-13
   143    2.437615227759e-13
   144   -9.037847763822e-02
   145   -4.442354936489e-14
   146    3.031901395893e-13
   147    1.128997670018e-12
   148    5.228021571283e-04
   149   -3.195185723150e-15
   150    8.747843730413e-03
   151    3.332470511787e-03
   152   -3.363599561611e-15
   153   -1.797195046040e-14
   154   -2.181584928941e-13
   155   -7.869627625628e-14
   156   -1.285556933739e-14
   157   -5.586489561146e-14
   158   -1.562472878949e-01
   159   -5.597896899568e-13
   160   -2.542646931847e-14
   161   -9.034692318879e-14
   162   -2.576723427971e-01
   163   -5.180957144375e-13
   164   -4.112754579961e-14
   165   -5.801999674898e-14
   166   -2.269529341670e-01
   167   -4.991321490487e-13
   168    1.142792266094e-12
   169    8.310482528409e-13
   170    1.828933272725e-02
   171    1.423832976681e-14
   172   -9.751117349908e-03
   173   -4.443886458972e-03
   174   -9.146183083886e-15
   175   -1.333572997134e-16
   176    3.847423445258e-13
   177    3.099966184505e-13
   178    1.895706492435e-13
   179    1.921589653886e-13
   180   -5.750561890530e-02
   181    4.649906781176e-14
   182    2.756977011525e-13
   183    2.908855923960e-13
   184   -9.696364449320e-02
   185    3.561272039497e-13
   186    1.158704786008e-13
   187    2.455446112270e-13
   188   -1.001328503132e-01
   189    5.042628702728e-12
   190   -2.409776700620e-12
   191   -2.616905405725e-12
   192    6.616364851531e-03
   193    5.915208696998e-15
   194    1.646191779625e-02
   195    8.347378124906e-03
   196   -3.534852655857e-14
   197   -1.532657300499e-14
   198    4.643627778819e-14
   199    7.932294712313e-14
   200   -5.533522178532e-14
   201    3.335992586326e-14
   202   -5.939313581080e-15
   203    1.207009871640e-14
   204   -3.316775459138e-03
Sym=X
Ene= 2.001545
Spin=Alpha
Occup=1
     1    4.644996813297e-03
     2    7.101103869484e-03
     3    3.359491810997e-02
     4   -4.289113231695e-03
     5   -2.393148814825e-13
     6   -1.780761040891e-02
     7    5.749690486505e-02
     8   -7.039722706665e-03
     9   -4.085387249330e-13
    10    8.756658798519e-03
    11    3.027969745467e-02
    12    1.293802808816e-02
    13   -3.874484318824e-13
    14    2.944039212432e-01
    15    8.026322030592e-02
    16    9.673354980578e-02
    17    3.779440703256e-14
    18    1.385233453382e-03
    19   -1.785430172201e-14
    20   -4.058367982113e-14
    21   -1.174702550265e-03
    22    6.920613977572e-05
    23   -8.341932204474e-03
    24   -1.128909409377e-02
    25   -1.922674324744e-02
    26    4.523624862155e-03
    27   -2.219965751330e-03
    28    1.241059533413e-03
    29   -1.538117661411e-14
    30   -2.364807244679e-03
    31    5.264207997554e-04
    32    3.959797719646e-03
    33    4.427803929926e-02
    34    1.319786298188e-03
    35    1.650017250676e-05
    36   -1.206660113064e-14
    37   -1.143741318907e-02
    38   -1.201541457241e-02
    39    8.855757774751e-03
    40    2.683990595503e-02
    41   -2.362566375120e-03
    42    1.757495389406e-03
    43   -1.934486660005e-14
    44    1.803385412293e-02
    45    2.798005267671e-02
    46    7.629891304224e-02
    47   -7.620230916882e-02
    48   -1.787467674432e-13
    49   -7.897541263026e-02
    50    1.168443472643e-01
    51   -1.261066113692e-01
    52   -3.059894508164e-13
    53   -7.864104365409e-02
    54    2.207066144950e-02
    55    6.411131059039e-03
    56   -1.346081594035e-13
    57   -4.036944626886e-02
    58    6.818086388409e-03
    59    2.907854512755e-02
    60   -1.626996901638e-13
    61    5.986267015374e-03
    62   -7.248412014002e-14
    63   -3.252343375848e-15
    64   -3.568100087677e-02
    65    6.649688662704e-03
    66    1.002245443747e-02
    67    1.407844686778e-02
    68   -8.835909853619e-02
    69    2.331442921490e-01
    70    2.943588727740e-14
    71   -3.910028776659e-02
    72   -1.004555956271e-01
    73    2.663904745133e-01
    74    2.806752140202e-14
    75    6.569082277969e-02
    76   -1.299236843822e-02
    77    1.527972716054e-01
    78    1.942852287590e-14
    79    2.666261464443e-02
    80   -5.754831922298e-04
    81   -2.963114527695e-03
    82    1.241614182992e-13
    83    9.613853419535e-03
    84   -1.204390749000e-14
    85    6.057108257705e-15
    86   -2.612892643486e-03
    87    1.765648682763e-02
    88    1.599082176163e-02
    89    2.637050496473e-02
    90   -1.229886989214e-03
    91   -1.523019595230e-03
    92   -2.330795073335e-14
    93   -7.405778966134e-02
    94   -3.794656740980e-03
    95    5.393735690070e-03
    96   -6.476696119492e-14
    97   -8.667030282507e-02
    98    4.064976073586e-02
    99   -5.796378602611e-02
   100    8.992384999142e-14
   101    2.173100112042e-01
   102    4.287857199101e-02
   103   -1.147495438744e-01
   104    1.501336292963e-13
   105    2.457210992870e-03
   106    1.165419682736e-13
   107    4.737673001415e-14
   108    4.543037689265e-02
   109   -2.336250452856e-02
   110   -1.121777457729e-02
   111   -1.904519553992e-02
   112    1.214261349180e-01
   113   -1.334827020270e-01
   114    2.915345976579e-13
   115    5.784294226851e-02
   116    1.860914515994e-01
   117   -2.069793666787e-01
   118    4.388403828320e-13
   119    7.113182390751e-02
   120    1.607150721345e-01
   121   -1.983879046370e-01
   122    4.714785085189e-13
   123    1.734102385930e-02
   124   -6.427044920374e-03
   125   -9.504182727178e-03
   126    1.977824673014e-14
   127    1.706886830542e-03
   128   -1.727776455043e-14
   129   -5.623950868372e-15
   130   -1.125071552562e-02
   131    2.598271085403e-03
   132   -6.889880560101e-03
   133   -1.238600700786e-02
   134    2.202471333684e-02
   135   -2.676452904571e-02
   136   -4.171235766465e-13
   137    3.602633650665e-02
   138    2.901863993470e-02
   139   -4.035589119143e-02
   140   -6.835348179456e-13
   141    9.271102351246e-02
   142    7.137070378781e-02
   143   -5.165621918524e-02
   144   -7.211428707546e-13