[Molden Format]
[Atoms] (Angs)
  C      1    6     -0.00714236     -1.70213747     -0.00000000
  H      2    1     -2.06882847     -1.44022412      0.00000000
  H      3    1     -0.12337987     -2.77567521      0.00000000
  H      4    1      0.04651892      1.98813947     -0.00000000
  C      5    6     -1.21953563      0.40211669      0.00000000
  O      6    8     -2.25921553      1.03043814      0.00000000
  C      7    6      1.28797806      0.34644937     -0.00000000
  O      8    8      2.31273661      1.00537216     -0.00000000
  N      9    7      0.03446295      0.97739857     -0.00000000
  N     10    7     -1.17287765     -0.98229824      0.00000000
  C     11    6      1.20107039     -1.10433419     -0.00000000
  H     12    1      2.11220096     -1.67699125     -0.00000000
[GTO]
1    0
S    6    1.000000
   4.56324000E+03    1.96665000E-03 
   6.82024000E+02    1.52306000E-02 
   1.54973000E+02    7.61269000E-02 
   4.44553000E+01    2.60801000E-01 
   1.30290000E+01    6.16462000E-01 
   1.82773000E+00    2.21006000E-01 
SP   3    1.000000
   2.09642000E+01    1.14660000E-01   4.02487000E-02 
   4.80331000E+00    9.19999000E-01   2.37594000E-01 
   1.45933000E+00   -3.03068000E-03   8.15854000E-01 
SP   1    1.000000
   4.83456000E-01    1.00000000E+00   1.00000000E+00 
SP   1    1.000000
   1.45585000E-01    1.00000000E+00   1.00000000E+00 
SP   1    1.000000
   4.38000000E-02    1.00000000E+00   1.00000000E+00 
D    1    1.000000
   6.26000000E-01    1.00000000E+00 

2    0
S    3    1.000000
   3.38650000E+01    2.54938000E-02 
   5.09479000E+00    1.90373000E-01 
   1.15879000E+00    8.52161000E-01 
S    1    1.000000
   3.25840000E-01    1.00000000E+00 
S    1    1.000000
   1.02741000E-01    1.00000000E+00 
S    1    1.000000
   3.60000000E-02    1.00000000E+00 
P    1    1.000000
   7.50000000E-01    1.00000000E+00 

3    0
S    3    1.000000
   3.38650000E+01    2.54938000E-02 
   5.09479000E+00    1.90373000E-01 
   1.15879000E+00    8.52161000E-01 
S    1    1.000000
   3.25840000E-01    1.00000000E+00 
S    1    1.000000
   1.02741000E-01    1.00000000E+00 
S    1    1.000000
   3.60000000E-02    1.00000000E+00 
P    1    1.000000
   7.50000000E-01    1.00000000E+00 

4    0
S    3    1.000000
   3.38650000E+01    2.54938000E-02 
   5.09479000E+00    1.90373000E-01 
   1.15879000E+00    8.52161000E-01 
S    1    1.000000
   3.25840000E-01    1.00000000E+00 
S    1    1.000000
   1.02741000E-01    1.00000000E+00 
S    1    1.000000
   3.60000000E-02    1.00000000E+00 
P    1    1.000000
   7.50000000E-01    1.00000000E+00 

5    0
S    6    1.000000
   4.56324000E+03    1.96665000E-03 
   6.82024000E+02    1.52306000E-02 
   1.54973000E+02    7.61269000E-02 
   4.44553000E+01    2.60801000E-01 
   1.30290000E+01    6.16462000E-01 
   1.82773000E+00    2.21006000E-01 
SP   3    1.000000
   2.09642000E+01    1.14660000E-01   4.02487000E-02 
   4.80331000E+00    9.19999000E-01   2.37594000E-01 
   1.45933000E+00   -3.03068000E-03   8.15854000E-01 
SP   1    1.000000
   4.83456000E-01    1.00000000E+00   1.00000000E+00 
SP   1    1.000000
   1.45585000E-01    1.00000000E+00   1.00000000E+00 
SP   1    1.000000
   4.38000000E-02    1.00000000E+00   1.00000000E+00 
D    1    1.000000
   6.26000000E-01    1.00000000E+00 

6    0
S    6    1.000000
   8.58850000E+03    1.89515000E-03 
   1.29723000E+03    1.43859000E-02 
   2.99296000E+02    7.07320000E-02 
   8.73771000E+01    2.40001000E-01 
   2.56789000E+01    5.94797000E-01 
   3.74004000E+00    2.80802000E-01 
SP   3    1.000000
   4.21175000E+01    1.13889000E-01   3.65114000E-02 
   9.62837000E+00    9.20811000E-01   2.37153000E-01 
   2.85332000E+00   -3.27447000E-03   8.19702000E-01 
SP   1    1.000000
   9.05661000E-01    1.00000000E+00   1.00000000E+00 
SP   1    1.000000
   2.55611000E-01    1.00000000E+00   1.00000000E+00 
SP   1    1.000000
   8.45000000E-02    1.00000000E+00   1.00000000E+00 
D    1    1.000000
   1.29200000E+00    1.00000000E+00 

7    0
S    6    1.000000
   4.56324000E+03    1.96665000E-03 
   6.82024000E+02    1.52306000E-02 
   1.54973000E+02    7.61269000E-02 
   4.44553000E+01    2.60801000E-01 
   1.30290000E+01    6.16462000E-01 
   1.82773000E+00    2.21006000E-01 
SP   3    1.000000
   2.09642000E+01    1.14660000E-01   4.02487000E-02 
   4.80331000E+00    9.19999000E-01   2.37594000E-01 
   1.45933000E+00   -3.03068000E-03   8.15854000E-01 
SP   1    1.000000
   4.83456000E-01    1.00000000E+00   1.00000000E+00 
SP   1    1.000000
   1.45585000E-01    1.00000000E+00   1.00000000E+00 
SP   1    1.000000
   4.38000000E-02    1.00000000E+00   1.00000000E+00 
D    1    1.000000
   6.26000000E-01    1.00000000E+00 

8    0
S    6    1.000000
   8.58850000E+03    1.89515000E-03 
   1.29723000E+03    1.43859000E-02 
   2.99296000E+02    7.07320000E-02 
   8.73771000E+01    2.40001000E-01 
   2.56789000E+01    5.94797000E-01 
   3.74004000E+00    2.80802000E-01 
SP   3    1.000000
   4.21175000E+01    1.13889000E-01   3.65114000E-02 
   9.62837000E+00    9.20811000E-01   2.37153000E-01 
   2.85332000E+00   -3.27447000E-03   8.19702000E-01 
SP   1    1.000000
   9.05661000E-01    1.00000000E+00   1.00000000E+00 
SP   1    1.000000
   2.55611000E-01    1.00000000E+00   1.00000000E+00 
SP   1    1.000000
   8.45000000E-02    1.00000000E+00   1.00000000E+00 
D    1    1.000000
   1.29200000E+00    1.00000000E+00 

9    0
S    6    1.000000
   6.29348000E+03    1.96979000E-03 
   9.49044000E+02    1.49613000E-02 
   2.18776000E+02    7.35006000E-02 
   6.36916000E+01    2.48937000E-01 
   1.88282000E+01    6.02460000E-01 
   2.72023000E+00    2.56202000E-01 
SP   3    1.000000
   3.06331000E+01    1.11906000E-01   3.83119000E-02 
   7.02614000E+00    9.21666000E-01   2.37403000E-01 
   2.11205000E+00   -2.56919000E-03   8.17592000E-01 
SP   1    1.000000
   6.84009000E-01    1.00000000E+00   1.00000000E+00 
SP   1    1.000000
   2.00878000E-01    1.00000000E+00   1.00000000E+00 
SP   1    1.000000
   6.39000000E-02    1.00000000E+00   1.00000000E+00 
D    1    1.000000
   9.13000000E-01    1.00000000E+00 

10    0
S    6    1.000000
   6.29348000E+03    1.96979000E-03 
   9.49044000E+02    1.49613000E-02 
   2.18776000E+02    7.35006000E-02 
   6.36916000E+01    2.48937000E-01 
   1.88282000E+01    6.02460000E-01 
   2.72023000E+00    2.56202000E-01 
SP   3    1.000000
   3.06331000E+01    1.11906000E-01   3.83119000E-02 
   7.02614000E+00    9.21666000E-01   2.37403000E-01 
   2.11205000E+00   -2.56919000E-03   8.17592000E-01 
SP   1    1.000000
   6.84009000E-01    1.00000000E+00   1.00000000E+00 
SP   1    1.000000
   2.00878000E-01    1.00000000E+00   1.00000000E+00 
SP   1    1.000000
   6.39000000E-02    1.00000000E+00   1.00000000E+00 
D    1    1.000000
   9.13000000E-01    1.00000000E+00 

11    0
S    6    1.000000
   4.56324000E+03    1.96665000E-03 
   6.82024000E+02    1.52306000E-02 
   1.54973000E+02    7.61269000E-02 
   4.44553000E+01    2.60801000E-01 
   1.30290000E+01    6.16462000E-01 
   1.82773000E+00    2.21006000E-01 
SP   3    1.000000
   2.09642000E+01    1.14660000E-01   4.02487000E-02 
   4.80331000E+00    9.19999000E-01   2.37594000E-01 
   1.45933000E+00   -3.03068000E-03   8.15854000E-01 
SP   1    1.000000
   4.83456000E-01    1.00000000E+00   1.00000000E+00 
SP   1    1.000000
   1.45585000E-01    1.00000000E+00   1.00000000E+00 
SP   1    1.000000
   4.38000000E-02    1.00000000E+00   1.00000000E+00 
D    1    1.000000
   6.26000000E-01    1.00000000E+00 

12    0
S    3    1.000000
   3.38650000E+01    2.54938000E-02 
   5.09479000E+00    1.90373000E-01 
   1.15879000E+00    8.52161000E-01 
S    1    1.000000
   3.25840000E-01    1.00000000E+00 
S    1    1.000000
   1.02741000E-01    1.00000000E+00 
S    1    1.000000
   3.60000000E-02    1.00000000E+00 
P    1    1.000000
   7.50000000E-01    1.00000000E+00 

[MO]
Sym=X
Ene= 2.006286
Spin=Alpha
Occup=1
     1    4.029333749454e-14
     2    1.204863800111e-14
     3    5.022136045110e-14
     4    3.798943173741e-14
     5    9.310798022055e-02
     6    6.708385726675e-14
     7    1.120752233741e-13
     8    1.495753881686e-14
     9    1.609886508795e-01
    10   -2.210580801809e-13
    11   -1.660543526771e-14
    12   -7.086087215395e-14
    13    1.380092635197e-01
    14    3.444208840287e-12
    15    9.356883001357e-13
    16    6.720683358080e-13
    17    1.586581300443e-02
    18    6.827774426445e-16
    19    1.323267657140e-02
    20    1.168374504057e-02
    21    1.322991961080e-14
    22    1.560895245583e-14
    23   -1.137484275318e-14
    24    3.032363303882e-13
    25   -2.461205197573e-13
    26   -2.127987412507e-14
    27    1.860152574385e-14
    28    5.287473703135e-15
    29   -1.255743850339e-04
    30   -7.917159395006e-15
    31   -2.680502276067e-14
    32   -1.154625947331e-13
    33    1.172895098401e-13
    34    7.145322731730e-15
    35   -2.457048047527e-15
    36    6.889170114531e-03
    37   -2.301466103852e-14
    38   -3.635014513705e-13
    39   -8.535173199575e-14
    40    3.118385642596e-14
    41   -5.086663865620e-15
    42    3.216783226971e-14
    43   -5.771807734722e-03
    44    1.510684570209e-15
    45   -1.932415720917e-15
    46   -1.263082655081e-14
    47   -8.296758508310e-15
    48   -1.022083988011e-01
    49    1.391433213975e-14
    50   -2.595037713069e-14
    51    3.092116881287e-15
    52   -1.809301083184e-01
    53    2.303622135640e-13
    54   -4.612777031069e-13
    55   -6.763633075710e-13
    56   -1.009166666770e-01
    57   -2.879440473257e-13
    58   -6.952894151800e-14
    59    8.222315737515e-14
    60   -2.090349723100e-02
    61   -3.668478351477e-15
    62    1.875160979667e-02
    63   -2.159643378265e-02
    64   -7.407344557148e-15
    65   -1.095546399238e-14
    66    2.695223807399e-15
    67    2.762086613322e-15
    68   -9.280389762854e-18
    69   -4.039423832300e-14
    70   -2.420364081629e-01
    71   -5.137282140153e-15
    72   -2.120981699483e-15
    73   -4.764569940394e-14
    74   -2.820702292897e-01
    75   -5.945770315959e-14
    76    3.142863408392e-14
    77    8.035478280100e-14
    78   -1.722807749482e-01
    79   -2.193778355038e-13
    80   -4.055309605321e-14
    81    9.602647500062e-14
    82    7.404433657194e-03
    83   -3.195307674644e-16
    84   -1.971070003617e-02
    85    1.127525702513e-02
    86   -6.218148952201e-16
    87   -1.683420086099e-15
    88   -3.161841556957e-14
    89   -2.391163563770e-14
    90    3.376090158536e-14
    91   -4.329860047582e-14
    92    4.309453597337e-02
    93   -3.883927314322e-14
    94    1.609569109812e-14
    95   -4.597484110436e-14
    96    7.594241578872e-02
    97    4.373898942865e-13
    98   -2.499534854303e-13
    99   -4.057465197512e-13
   100    5.335869661602e-02
   101   -1.990765791121e-12
   102    3.483576032452e-13
   103    5.059017072578e-13
   104    1.230022407570e-02
   105   -6.361351432062e-15
   106    9.810917318609e-03
   107   -1.090507079086e-02
   108    2.461572200165e-16
   109    2.212633939569e-14
   110    5.048114444726e-14
   111    4.707133947527e-14
   112   -8.231226970919e-16
   113   -2.568045485967e-14
   114    3.865472141085e-02
   115   -1.593217304249e-14
   116    1.602184122058e-14
   117   -4.805916730969e-14
   118    6.195313795488e-02
   119    1.731566375185e-14
   120   -1.341781211886e-15
   121   -7.858621701611e-14
   122    4.796329458700e-02
   123    3.255868626181e-13
   124   -1.877531578652e-13
   125   -5.965969888278e-14
   126   -1.165943090067e-02
   127   -3.556563273170e-16
   128   -5.274965186165e-03
   129   -3.635431201464e-03
   130   -3.256420618813e-15
   131    1.614265822765e-16
   132   -6.387746372354e-14
   133   -2.483864992643e-14
   134   -2.063045515324e-14
   135   -2.062726062138e-14
   136   -6.433247492856e-02
   137   -1.967807925662e-13
   138   -3.754001236132e-14
   139   -9.095180647053e-14
   140   -1.079696687252e-01
   141    3.592207552046e-13
   142   -2.683791174339e-13
   143    5.965236812724e-13
   144   -9.988307319513e-02
   145    7.655362658100e-13
   146   -2.750391752632e-13
   147   -2.057235727489e-13
   148   -2.885237280164e-03
   149   -5.213711368377e-16
   150    1.124398498069e-02
   151    2.258835139988e-03
   152   -1.289079782575e-14
   153    2.716370005082e-15
   154   -2.930417647589e-14
   155   -2.648595571561e-14
   156   -2.374701216979e-15
   157    6.912849669644e-15
   158    8.586856601464e-03
   159    4.747457366249e-14
   160   -5.204577193224e-14
   161    7.193040088012e-15
   162    1.352796749147e-02
   163   -4.599445594575e-13
   164    6.022768250867e-13
   165   -8.428229888142e-14
   166    5.623997083162e-03
   167   -4.334225521620e-13
   168   -5.231393639746e-13
   169   -3.362975859792e-13
   170   -7.173346852628e-03
   171    6.778359651444e-15
   172    7.872052772940e-03
   173   -1.159563631414e-02
   174   -4.026503083521e-15
   175   -7.747429504017e-15
   176    9.619365046547e-14
   177    3.662513677502e-14
   178   -3.223180029838e-14
   179   -2.618345343887e-14
   180    1.030497448707e-01
   181    2.315286993762e-13
   182   -4.721209739598e-14
   183   -4.570231589442e-14
   184    1.789682934610e-01
   185   -2.568690894421e-13
   186   -1.114090120541e-13
   187   -2.035551573246e-13
   188    1.561859487989e-01
   189   -1.381910556790e-12
   190    4.977670153104e-13
   191    7.822195997915e-13
   192    3.316781158339e-03
   193   -1.367321587595e-14
   194   -1.701210027484e-02
   195    7.251981150441e-05
   196    5.733294314640e-15
   197   -6.522639725983e-16
   198    3.645279834949e-14
   199    5.001472647171e-14
   200    9.676335992409e-14
   201   -6.016628435659e-14
   202   -7.579543789480e-15
   203   -4.535347856085e-16
   204    8.303593000708e-03
Sym=X
Ene= 2.003670
Spin=Alpha
Occup=1
     1   -7.935114520497e-03
     2   -1.329776579723e-02
     3   -8.525472330943e-03
     4    2.682048783672e-02
     5    8.916449142129e-15
     6    3.596582881180e-02
     7   -1.471200141137e-02
     8    4.473413382782e-02
     9   -1.720744578689e-14
    10    4.464029619629e-02
    11    9.232124864447e-03
    12    4.492138766237e-02
    13    3.017929617610e-14
    14    8.907554825181e-02
    15    2.921506409290e-03
    16    5.481730346173e-03
    17   -1.274150164897e-13
    18   -1.815894708818e-03
    19   -4.265328586569e-15
    20   -2.104471945594e-17
    21    1.074378102117e-02
    22   -4.371342680051e-03
    23   -2.226900013700e-03
    24    1.184850791162e-02
    25    2.567953812769e-02
    26   -3.070471718156e-02
    27    6.732589254858e-04
    28   -1.151106580701e-04
    29    1.273503786526e-14
    30   -1.988572581657e-02
    31   -3.236618124012e-02
    32   -1.618376573439e-02
    33   -4.317112982266e-03
    34   -5.422120697105e-04
    35   -3.784119208857e-04
    36   -2.257487562261e-15
    37   -4.120621318296e-03
    38   -1.963636996301e-02
    39   -3.351903206330e-02
    40    4.678131316755e-02
    41   -1.104090403580e-03
    42    1.649736306168e-03
    43   -1.127030437177e-14
    44    9.221245458421e-03
    45    1.500641760532e-02
    46    3.657046961804e-02
    47    9.596328980391e-03
    48    8.506593809097e-15
    49   -4.321852748915e-02
    50    6.007027802525e-02
    51    2.298632122660e-02
    52    2.127673789551e-14
    53   -4.373452410664e-02
    54   -4.418597624872e-02
    55   -6.622463860955e-02
    56   -4.909391273502e-14
    57   -2.899876263748e-02
    58   -6.220762648767e-02
    59   -8.607839617815e-02
    60    1.209609969739e-13
    61    2.050213572642e-03
    62   -8.306105457355e-15
    63   -8.370983402002e-15
    64    5.557121883943e-02
    65    3.209648600700e-02
    66    6.869236655708e-03
    67    9.848482972985e-03
    68   -2.147322494151e-01
    69   -2.620941776172e-01
    70    5.349668185576e-14
    71   -3.030841323657e-02
    72   -2.470787691899e-01
    73   -2.998751567212e-01
    74    4.744694547222e-14
    75    6.631815533938e-03
    76   -1.521338054212e-01
    77   -2.126475954390e-01
    78    6.580568031930e-14
    79    1.532481823131e-02
    80    4.486686993742e-03
    81   -2.193013775897e-03
    82   -6.109580360532e-14
    83    3.172920203772e-03
    84    5.308458597880e-15
    85    4.387301061303e-15
    86   -1.514958021635e-02
    87   -2.882631280822e-03
    88    1.434411383677e-02
    89    2.400950674049e-02
    90    2.917252567657e-02
    91    2.906307705081e-03
    92   -5.357631286060e-14
    93   -6.519723753673e-02
    94    4.872846912326e-02
    95    6.650479550998e-03
    96   -7.755867210696e-14
    97   -6.907106867353e-02
    98    4.973840562014e-02
    99   -9.160550476637e-03
   100   -1.280195483329e-13
   101    1.368540839271e-01
   102    7.160681379240e-03
   103   -8.817351414690e-02
   104   -2.421839384911e-13
   105    1.550951703266e-03
   106    1.955360710420e-16
   107   -7.179615792800e-15
   108    3.007560245066e-02
   109   -6.273444782483e-03
   110   -3.407807671376e-03
   111   -5.792355890148e-03
   112    5.187256311523e-02
   113   -1.001018815916e-01
   114   -6.438441096039e-14
   115    1.760368362680e-02
   116    8.096738380588e-02
   117   -1.540545736187e-01
   118   -6.607200822207e-14
   119    1.013083032682e-02
   120    7.543626684829e-02
   121   -1.390714061214e-01
   122   -1.303952649963e-13
   123   -2.719030645116e-02
   124    1.249145212186e-02
   125   -2.282492441116e-03
   126    1.311371715967e-13
   127   -2.264890432878e-04
   128    9.742081848124e-16
   129    1.351840200987e-14
   130   -6.732543037404e-03
   131    4.097832139587e-03
   132   -2.354156929831e-02
   133   -3.899953819911e-02
   134   -4.677044288468e-02
   135   -2.615258538351e-02
   136   -8.261973038220e-14
   137    1.036925538893e-01
   138   -6.872164091784e-02
   139   -3.042226409023e-02
   140   -1.474989120093e-13
   141    2.108579502165e-01
   142   -6.611785114392e-02
   143   -4.872638882808e-02
   144   -9.334085177698e-14
   145    1.893700014674e-01
   146    5.590990322939e-03
   147   -3.904425761356e-03
   148    4.120065872309e-14
   149    1.628599556850e-03
   150   -4.285504686922e-15
   151   -1.945313990895e-15
   152   -8.219315705110e-04
   153    3.305660983817e-03
   154    1.248103079516e-02
   155    2.035474809949e-02
   156    2.253650375057e-02
   157   -5.446683579396e-02
   158    5.093550613145e-14
   159   -5.335711899257e-02
   160    3.921066491321e-02
   161   -7.713928205502e-02
   162    8.149417374684e-14
   163   -1.097148942405e-01
   164    3.419969935210e-02
   165   -8.746264046567e-02
   166    1.193253432182e-13
   167   -1.191911288778e-01
   168    6.295149840379e-03
   169   -1.006665588685e-02
   170   -3.238544986869e-15
   171   -8.810227943108e-04
   172   -6.635147032589e-16
   173    2.665897650074e-16
   174    1.896443401114e-03
   175    8.107909092598e-04
   176    5.020694265360e-03
   177    8.290496649964e-03
   178   -2.685881761897e-03
   179   -3.178654104564e-02
   180   -2.337778352590e-14
   181   -2.144101178803e-02
   182   -5.530461503316e-03
   183   -4.583496274736e-02
   184   -1.695642758635e-14
   185   -6.253091855574e-02
   186    1.294188682190e-02
   187   -3.936386167783e-02
   188   -5.558878084913e-14
   189   -2.315019037565e-01
   190    2.757432390750e-02
   191   -3.179357330914e-02
   192    2.081367624715e-13
   193   -1.566552489761e-04
   194   -7.680308782348e-15
   195   -3.510448214225e-15
   196    5.337943642091e-03
   197   -4.316030246380e-04
   198    8.549400635687e-03
   199    1.526223662508e-02
   200    3.759417004113e-03
   201   -1.098303525210e-02
   202   -1.448294734263e-03
   203    2.826013658195e-05
   204   -1.778031506223e-15
Sym=X
Ene= 2.001721
Spin=Alpha
Occup=1
     1   -5.321843953427e-03
     2   -8.643238016823e-03
     3   -2.557571899427e-02
     4   -4.332376908173e-04
     5   -1.604408844464e-13
     6    2.320327564811e-02
     7   -4.505231790897e-02
     8   -1.734140931661e-04
     9   -2.775407523439e-13
    10    4.661703865560e-03
    11   -2.804811841612e-02
    12   -1.571551791058e-02
    13   -1.143013058186e-13
    14   -3.057058274940e-01
    15   -7.854087930493e-02
    16   -1.033980071471e-01
    17   -1.282481912055e-13
    18   -9.962034892386e-04
    19    3.299775107997e-14
    20   -3.064602703606e-14
    21   -4.893654481905e-04
    22    2.273900427376e-03
    23    7.074083238335e-03
    24    8.954260301497e-03
    25    1.827124809700e-02
    26   -3.901711756166e-03
    27    1.677661381865e-03
    28   -9.021367675820e-04
    29   -2.024912806409e-14
    30    7.135493692474e-03
    31    6.739400432871e-03
    32   -4.096612486834e-03
    33   -4.876560602986e-02
    34   -9.033119724271e-04
    35    5.107681915396e-04
    36   -1.862443815696e-14
    37    1.284783890690e-02
    38    1.355109648264e-02
    39   -1.028047356760e-02
    40   -2.215055588046e-02
    41    1.732735627613e-03
    42   -1.649829707956e-03
    43   -2.911060251402e-16
    44   -2.454921637126e-02
    45   -3.877878328896e-02
    46   -7.929907630638e-02
    47    7.505672203524e-02
    48   -7.573394049555e-14
    49    1.104193448083e-01
    50   -1.226850089004e-01
    51    1.246378218661e-01
    52   -1.366154940188e-13
    53    9.533390305852e-02
    54   -1.740961399064e-02
    55   -9.106267218944e-03
    56   -6.935707657261e-14
    57    6.191497369341e-02
    58    2.108047944361e-03
    59   -3.663985828069e-02
    60    5.649919394675e-14
    61   -7.398666186923e-03
    62    2.052639315451e-14
    63    5.296393354158e-14
    64    3.521833076139e-02
    65   -6.499336177472e-03
    66   -2.985226020848e-03
    67   -3.781055779686e-03
    68    1.068994758903e-01
    69   -2.456641492359e-01
    70    1.304957587813e-14
    71    2.449720558598e-03
    72    1.210598863361e-01
    73   -2.800951369406e-01
    74    5.381948392857e-15
    75   -9.010595571409e-02
    76    2.316270895978e-02
    77   -1.599005251605e-01
    78    4.457121748825e-14
    79   -2.686216746725e-02
    80    3.348701270315e-05
    81    2.796081147644e-03
    82   -3.224723796080e-14
    83   -1.008679888639e-02
    84   -6.627756189317e-15
    85    5.008825399010e-15
    86    3.658777202838e-03
    87   -1.893395846088e-02
    88   -1.362096360590e-02
    89   -2.274779866501e-02
    90    9.120986986153e-03
    91   -4.775311515137e-03
    92    2.285904219070e-13
    93    6.528455011214e-02
    94    1.656211481888e-02
    95   -1.523560456667e-02
    96    4.233241560779e-13
    97    8.194803991360e-02
    98   -3.455471510470e-02
    99    5.020332177838e-02
   100    2.203812090697e-13
   101   -2.146780331262e-01
   102   -3.391162263937e-02
   103    1.023739719424e-01
   104   -1.094656747121e-13
   105   -1.732903785829e-03
   106    4.203921546070e-14
   107    5.376462233960e-14
   108   -4.323634187607e-02
   109    2.436036783315e-02
   110    9.366580171587e-03
   111    1.592078030872e-02
   112   -1.136345929993e-01
   113    1.214638223097e-01
   114    3.390126139344e-13
   115   -4.865839584109e-02
   116   -1.738457566472e-01
   117    1.883666374398e-01
   118    5.472553551784e-13
   119   -6.360020188213e-02
   120   -1.502274748352e-01
   121    1.828610587580e-01
   122    4.456251792391e-13
   123   -1.876749990418e-02
   124    5.582263421931e-03
   125    1.048680261582e-02
   126    9.838314304140e-14
   127   -1.636937074100e-03
   128   -3.638635054123e-14
   129   -2.646639155707e-14
   130    9.890836169682e-03
   131   -1.912334131433e-03
   132    8.668162410993e-03
   133    1.510264717441e-02
   134   -3.039827400409e-02
   135    2.981992833228e-02
   136    1.131853497478e-13
   137   -4.251814392872e-02
   138   -4.293340940057e-02
   139    4.556651794938e-02
   140    1.973352102881e-13
   141   -9.765143234990e-02
   142   -7.599510112159e-02
   143    5.738735781370e-02
   144    1.784954843731e-13
   145   -9.495130905978e-02
   146    2.506908639493e-02
   147    4.475785662045e-02
   148    3.387988569332e-14
   149   -8.621412548477e-04
   150    1.576755755444e-14
   151   -1.088430177320e-14
   152    3.068178577254e-03
   153   -6.554096764052e-03
   154    1.386932972536e-02
   155    2.250490796979e-02
   156    1.980721684509e-03
   157   -5.707671418741e-02
   158   -3.341837390991e-13
   159   -5.774410959531e-02
   160    4.117190018143e-03
   161   -8.640918524017e-02
   162   -5.526369027216e-13
   163   -9.540773535273e-02
   164   -3.064201246287e-04
   165   -7.842340300810e-02
   166   -5.657783100882e-13
   167   -1.592841296904e-02
   168    1.463921126292e-02
   169    3.788736394765e-02
   170   -1.086894526976e-14
   171    2.813286282603e-04
   172   -2.003363124817e-14
   173   -1.016362459964e-14
   174    2.541988907660e-03
   175   -5.051004893684e-03
   176   -6.254899002960e-03
   177   -1.011859582924e-02
   178   -4.282735450280e-03
   179    4.673032778730e-02
   180   -2.474749275851e-14
   181    2.562366438638e-02
   182   -4.775538821285e-03
   183    6.649812141822e-02
   184   -3.845886572317e-14
   185    1.036215956010e-01
   186   -1.737614849674e-02
   187    7.632098656738e-02
   188   -9.203585197323e-14
   189    5.560511938285e-01
   190   -9.317862384810e-02
   191    5.965539031032e-02
   192    1.454626167479e-13
   193    9.620799733905e-04
   194    1.675354739482e-14
   195    3.030365503592e-14
   196    1.435108908196e-04
   197    1.522232602529e-03
   198   -1.835268768488e-02
   199   -3.159620992320e-02
   200   -5.781699907190e-04
   201    3.836129531022e-02
   202    2.835222492626e-03
   203   -2.050295459821e-03
   204    4.115438674523e-15
Sym=X
Ene= 2.001546
Spin=Alpha
Occup=1
     1    1.948597250909e-13
     2    2.915678794982e-13
     3    1.660459061202e-14
     4   -9.559467618473e-14
     5   -9.231934472730e-02
     6   -6.777682957679e-13
     7    5.467084127528e-14
     8   -1.479776162593e-13
     9   -1.577145684543e-01
    10   -2.142295231393e-13
    11   -5.993125628486e-14
    12   -9.362690317217e-14
    13   -1.179917469067e-01
    14   -7.310224800498e-12
    15   -2.452790379636e-12
    16   -7.688928626897e-13
    17   -2.150210420277e-02
    18    2.786408293565e-14
    19    2.681585773980e-03
    20   -1.588631252979e-02
    21   -4.047828138686e-14
    22    9.499700652524e-15
    23   -1.330871906340e-13
    24   -2.877768579397e-13
    25    7.099841476755e-13
    26   -2.931670764312e-13
    27   -3.599057087013e-14
    28   -9.379537778136e-15
    29   -7.713050729515e-03
    30   -4.505072546965e-14
    31   -9.591510113885e-14
    32    1.445382223339e-13
    33   -1.380599520799e-13
    34   -2.298617639210e-15
    35   -2.632194449766e-14
    36   -7.062954230007e-03
    37    1.180827638511e-13
    38    2.565348251279e-13
    39   -4.723720781280e-13
    40    3.286899549730e-13
    41   -8.329636721734e-15
    42   -2.891502909980e-14
    43   -4.401411560136e-03
    44    3.259974528998e-14
    45    4.959195900938e-14
    46    1.677402346745e-13
    47   -1.636480523821e-13
    48   -5.797164633928e-02
    49   -1.442240352934e-13
    50    2.701141028038e-13
    51   -2.718278921475e-13
    52   -1.007434811164e-01
    53   -2.511863257263e-13
    54    1.824901243470e-13
    55    3.852464416731e-14
    56   -4.590959085494e-02
    57    4.821889656414e-13
    58   -1.666264667400e-13
    59   -6.152319701349e-13
    60   -2.455315395759e-02
    61    1.619974904289e-14
    62   -1.284011062522e-02
    63    1.083291759213e-02
    64   -5.755716113690e-14
    65    4.256202704321e-14
    66   -5.493624568956e-14
    67   -7.853871872767e-14
    68   -3.516760783791e-13
    69    4.260780618293e-13
    70    1.337202235094e-02
    71    2.905523506770e-13
    72   -3.902765755986e-13
    73    4.861913242014e-13
    74    1.217427305614e-02
    75    3.812334445766e-13
    76   -1.361024532492e-13
    77    2.278501510162e-13
    78    1.730917764049e-02
    79    1.833986397237e-13
    80    3.182449016080e-14
    81    2.351610051443e-14
    82    2.157718070963e-02
    83    1.938100574586e-14
    84   -4.159602484605e-03
    85    2.398355857087e-03
    86   -1.454220819272e-14
    87    3.431601474799e-14
    88    3.148146185960e-14
    89   -1.374025994268e-14
    90    7.534968244318e-14
    91   -1.102899395642e-13
    92    6.122468439846e-02
    93    2.080432388108e-13
    94    1.295420282210e-13
    95   -1.500001942381e-13
    96    1.067854931217e-01
    97    2.210362586994e-13
    98    1.659656976169e-13
    99   -1.000821491293e-13
   100    8.894560211698e-02
   101    4.660926106486e-12
   102    5.724324941620e-13
   103   -1.899412396539e-12
   104    1.498146856264e-02
   105   -7.909888876429e-15
   106    4.191955193161e-02
   107    2.654288472975e-02
   108    6.348441107468e-14
   109   -4.938218930031e-14
   110    2.238330033494e-13
   111    2.273645109740e-13
   112    1.260706995932e-13
   113   -3.476760908601e-13
   114    1.727483657395e-01
   115   -2.071031322691e-13
   116    1.904145675525e-13
   117   -5.387120896596e-13
   118    2.706772739024e-01
   119   -2.644725131427e-13
   120    2.410866773765e-13
   121   -4.342977744641e-13
   122    2.503261090277e-01
   123   -3.464425003624e-13
   124    5.795197671035e-14
   125    5.826642318017e-14
   126    3.018641705965e-02
   127   -3.115429961321e-15
   128   -1.495007551257e-02
   129   -9.129923456415e-03
   130   -2.503132374391e-14
   131    1.951483215041e-14
   132    8.019066336320e-14
   133    1.260824785327e-14
   134   -1.448344566356e-15
   135    8.268051544345e-14
   136   -7.327903005131e-02
   137    3.054878401175e-13
   138   -4.650649232614e-15
   139    1.381664691373e-13
   140   -1.170349169211e-01
   141    2.559098496581e-13
   142    6.511413391326e-14
   143   -2.816878845218e-15
   144   -1.349983778302e-01