[Molden Format]
[Atoms] (Angs)
  C      1    6     -0.00714236     -1.70213747     -0.00000000
  H      2    1     -2.06882847     -1.44022412      0.00000000
  H      3    1     -0.12337987     -2.77567521      0.00000000
  H      4    1      0.04651892      1.98813947     -0.00000000
  C      5    6     -1.21953563      0.40211669      0.00000000
  O      6    8     -2.25921553      1.03043814      0.00000000
  C      7    6      1.28797806      0.34644937     -0.00000000
  O      8    8      2.31273661      1.00537216     -0.00000000
  N      9    7      0.03446295      0.97739857     -0.00000000
  N     10    7     -1.17287765     -0.98229824      0.00000000
  C     11    6      1.20107039     -1.10433419     -0.00000000
  H     12    1      2.11220096     -1.67699125     -0.00000000
[GTO]
1    0
S    6    1.000000
   4.56324000E+03    1.96665000E-03 
   6.82024000E+02    1.52306000E-02 
   1.54973000E+02    7.61269000E-02 
   4.44553000E+01    2.60801000E-01 
   1.30290000E+01    6.16462000E-01 
   1.82773000E+00    2.21006000E-01 
SP   3    1.000000
   2.09642000E+01    1.14660000E-01   4.02487000E-02 
   4.80331000E+00    9.19999000E-01   2.37594000E-01 
   1.45933000E+00   -3.03068000E-03   8.15854000E-01 
SP   1    1.000000
   4.83456000E-01    1.00000000E+00   1.00000000E+00 
SP   1    1.000000
   1.45585000E-01    1.00000000E+00   1.00000000E+00 
SP   1    1.000000
   4.38000000E-02    1.00000000E+00   1.00000000E+00 
D    1    1.000000
   6.26000000E-01    1.00000000E+00 

2    0
S    3    1.000000
   3.38650000E+01    2.54938000E-02 
   5.09479000E+00    1.90373000E-01 
   1.15879000E+00    8.52161000E-01 
S    1    1.000000
   3.25840000E-01    1.00000000E+00 
S    1    1.000000
   1.02741000E-01    1.00000000E+00 
S    1    1.000000
   3.60000000E-02    1.00000000E+00 
P    1    1.000000
   7.50000000E-01    1.00000000E+00 

3    0
S    3    1.000000
   3.38650000E+01    2.54938000E-02 
   5.09479000E+00    1.90373000E-01 
   1.15879000E+00    8.52161000E-01 
S    1    1.000000
   3.25840000E-01    1.00000000E+00 
S    1    1.000000
   1.02741000E-01    1.00000000E+00 
S    1    1.000000
   3.60000000E-02    1.00000000E+00 
P    1    1.000000
   7.50000000E-01    1.00000000E+00 

4    0
S    3    1.000000
   3.38650000E+01    2.54938000E-02 
   5.09479000E+00    1.90373000E-01 
   1.15879000E+00    8.52161000E-01 
S    1    1.000000
   3.25840000E-01    1.00000000E+00 
S    1    1.000000
   1.02741000E-01    1.00000000E+00 
S    1    1.000000
   3.60000000E-02    1.00000000E+00 
P    1    1.000000
   7.50000000E-01    1.00000000E+00 

5    0
S    6    1.000000
   4.56324000E+03    1.96665000E-03 
   6.82024000E+02    1.52306000E-02 
   1.54973000E+02    7.61269000E-02 
   4.44553000E+01    2.60801000E-01 
   1.30290000E+01    6.16462000E-01 
   1.82773000E+00    2.21006000E-01 
SP   3    1.000000
   2.09642000E+01    1.14660000E-01   4.02487000E-02 
   4.80331000E+00    9.19999000E-01   2.37594000E-01 
   1.45933000E+00   -3.03068000E-03   8.15854000E-01 
SP   1    1.000000
   4.83456000E-01    1.00000000E+00   1.00000000E+00 
SP   1    1.000000
   1.45585000E-01    1.00000000E+00   1.00000000E+00 
SP   1    1.000000
   4.38000000E-02    1.00000000E+00   1.00000000E+00 
D    1    1.000000
   6.26000000E-01    1.00000000E+00 

6    0
S    6    1.000000
   8.58850000E+03    1.89515000E-03 
   1.29723000E+03    1.43859000E-02 
   2.99296000E+02    7.07320000E-02 
   8.73771000E+01    2.40001000E-01 
   2.56789000E+01    5.94797000E-01 
   3.74004000E+00    2.80802000E-01 
SP   3    1.000000
   4.21175000E+01    1.13889000E-01   3.65114000E-02 
   9.62837000E+00    9.20811000E-01   2.37153000E-01 
   2.85332000E+00   -3.27447000E-03   8.19702000E-01 
SP   1    1.000000
   9.05661000E-01    1.00000000E+00   1.00000000E+00 
SP   1    1.000000
   2.55611000E-01    1.00000000E+00   1.00000000E+00 
SP   1    1.000000
   8.45000000E-02    1.00000000E+00   1.00000000E+00 
D    1    1.000000
   1.29200000E+00    1.00000000E+00 

7    0
S    6    1.000000
   4.56324000E+03    1.96665000E-03 
   6.82024000E+02    1.52306000E-02 
   1.54973000E+02    7.61269000E-02 
   4.44553000E+01    2.60801000E-01 
   1.30290000E+01    6.16462000E-01 
   1.82773000E+00    2.21006000E-01 
SP   3    1.000000
   2.09642000E+01    1.14660000E-01   4.02487000E-02 
   4.80331000E+00    9.19999000E-01   2.37594000E-01 
   1.45933000E+00   -3.03068000E-03   8.15854000E-01 
SP   1    1.000000
   4.83456000E-01    1.00000000E+00   1.00000000E+00 
SP   1    1.000000
   1.45585000E-01    1.00000000E+00   1.00000000E+00 
SP   1    1.000000
   4.38000000E-02    1.00000000E+00   1.00000000E+00 
D    1    1.000000
   6.26000000E-01    1.00000000E+00 

8    0
S    6    1.000000
   8.58850000E+03    1.89515000E-03 
   1.29723000E+03    1.43859000E-02 
   2.99296000E+02    7.07320000E-02 
   8.73771000E+01    2.40001000E-01 
   2.56789000E+01    5.94797000E-01 
   3.74004000E+00    2.80802000E-01 
SP   3    1.000000
   4.21175000E+01    1.13889000E-01   3.65114000E-02 
   9.62837000E+00    9.20811000E-01   2.37153000E-01 
   2.85332000E+00   -3.27447000E-03   8.19702000E-01 
SP   1    1.000000
   9.05661000E-01    1.00000000E+00   1.00000000E+00 
SP   1    1.000000
   2.55611000E-01    1.00000000E+00   1.00000000E+00 
SP   1    1.000000
   8.45000000E-02    1.00000000E+00   1.00000000E+00 
D    1    1.000000
   1.29200000E+00    1.00000000E+00 

9    0
S    6    1.000000
   6.29348000E+03    1.96979000E-03 
   9.49044000E+02    1.49613000E-02 
   2.18776000E+02    7.35006000E-02 
   6.36916000E+01    2.48937000E-01 
   1.88282000E+01    6.02460000E-01 
   2.72023000E+00    2.56202000E-01 
SP   3    1.000000
   3.06331000E+01    1.11906000E-01   3.83119000E-02 
   7.02614000E+00    9.21666000E-01   2.37403000E-01 
   2.11205000E+00   -2.56919000E-03   8.17592000E-01 
SP   1    1.000000
   6.84009000E-01    1.00000000E+00   1.00000000E+00 
SP   1    1.000000
   2.00878000E-01    1.00000000E+00   1.00000000E+00 
SP   1    1.000000
   6.39000000E-02    1.00000000E+00   1.00000000E+00 
D    1    1.000000
   9.13000000E-01    1.00000000E+00 

10    0
S    6    1.000000
   6.29348000E+03    1.96979000E-03 
   9.49044000E+02    1.49613000E-02 
   2.18776000E+02    7.35006000E-02 
   6.36916000E+01    2.48937000E-01 
   1.88282000E+01    6.02460000E-01 
   2.72023000E+00    2.56202000E-01 
SP   3    1.000000
   3.06331000E+01    1.11906000E-01   3.83119000E-02 
   7.02614000E+00    9.21666000E-01   2.37403000E-01 
   2.11205000E+00   -2.56919000E-03   8.17592000E-01 
SP   1    1.000000
   6.84009000E-01    1.00000000E+00   1.00000000E+00 
SP   1    1.000000
   2.00878000E-01    1.00000000E+00   1.00000000E+00 
SP   1    1.000000
   6.39000000E-02    1.00000000E+00   1.00000000E+00 
D    1    1.000000
   9.13000000E-01    1.00000000E+00 

11    0
S    6    1.000000
   4.56324000E+03    1.96665000E-03 
   6.82024000E+02    1.52306000E-02 
   1.54973000E+02    7.61269000E-02 
   4.44553000E+01    2.60801000E-01 
   1.30290000E+01    6.16462000E-01 
   1.82773000E+00    2.21006000E-01 
SP   3    1.000000
   2.09642000E+01    1.14660000E-01   4.02487000E-02 
   4.80331000E+00    9.19999000E-01   2.37594000E-01 
   1.45933000E+00   -3.03068000E-03   8.15854000E-01 
SP   1    1.000000
   4.83456000E-01    1.00000000E+00   1.00000000E+00 
SP   1    1.000000
   1.45585000E-01    1.00000000E+00   1.00000000E+00 
SP   1    1.000000
   4.38000000E-02    1.00000000E+00   1.00000000E+00 
D    1    1.000000
   6.26000000E-01    1.00000000E+00 

12    0
S    3    1.000000
   3.38650000E+01    2.54938000E-02 
   5.09479000E+00    1.90373000E-01 
   1.15879000E+00    8.52161000E-01 
S    1    1.000000
   3.25840000E-01    1.00000000E+00 
S    1    1.000000
   1.02741000E-01    1.00000000E+00 
S    1    1.000000
   3.60000000E-02    1.00000000E+00 
P    1    1.000000
   7.50000000E-01    1.00000000E+00 

[MO]
Sym=X
Ene= -0.761796
Spin=Alpha
Occup=1
     1    3.677646733132e-07
     2   -3.004562212604e-07
     3    4.740582966289e-06
     4   -4.899410973330e-06
     5    3.121695306843e-16
     6    3.122999604351e-06
     7   -2.488205606595e-05
     8    1.825417497060e-05
     9   -1.603388302516e-15
    10    2.293145498650e-04
    11   -7.547800342336e-05
    12   -3.410495579757e-05
    13    1.313220948993e-15
    14   -6.251480977308e-04
    15   -6.308310012273e-04
    16   -1.778993265339e-04
    17    8.185685286760e-15
    18   -1.646458563001e-06
    19   -1.109219106223e-16
    20   -1.088548731133e-16
    21   -4.130803994868e-06
    22   -5.271119682989e-06
    23   -3.774591832689e-06
    24   -5.029887670891e-05
    25   -9.699434337204e-05
    26   -2.730281301723e-04
    27   -9.517672477545e-06
    28    7.903102658878e-06
    29    7.134292496965e-17
    30    5.095555859142e-06
    31   -3.907985980714e-05
    32   -2.502901592108e-06
    33   -9.814962759930e-05
    34    1.742037573352e-06
    35   -4.688358160321e-06
    36   -6.788624128743e-16
    37   -3.422663882927e-06
    38   -5.525315707711e-05
    39   -9.328847148393e-05
    40   -3.445881725414e-04
    41   -1.092641062529e-05
    42    5.370594746863e-06
    43   -8.389921329121e-16
    44   -4.940994448875e-06
    45    7.759044162554e-05
    46    6.126059356820e-05
    47   -3.748749049234e-05
    48    9.060995413653e-16
    49   -3.086464432349e-04
    50    3.615723685093e-04
    51   -2.179349404464e-04
    52   -4.143981717000e-15
    53    5.425555469051e-05
    54    4.917331591263e-04
    55   -3.039349219550e-04
    56    4.775634380604e-15
    57   -4.364462041685e-04
    58   -6.140253912325e-04
    59    4.354444901194e-04
    60    6.598235559075e-15
    61    5.721748410666e-05
    62    8.670636812671e-16
    63    6.191422516294e-16
    64   -9.298816069640e-05
    65    1.788865397425e-04
    66   -5.514791446169e-01
    67   -4.716765032833e-01
    68   -1.564708726968e-03
    69    9.584191753854e-04
    70   -2.211782106362e-16
    71   -5.533657676065e-03
    72    6.341301687130e-04
    73   -3.885297406312e-04
    74    3.199351917338e-16
    75    1.338639429835e-03
    76   -1.334462723799e-04
    77    8.860272606749e-05
    78    1.025757749497e-15
    79   -1.426737155396e-03
    80   -5.497625691164e-05
    81    9.633989553560e-06
    82   -2.197263309763e-15
    83    8.739970753368e-05
    84    3.049763290730e-16
    85   -2.689636364968e-16
    86    3.883366339514e-05
    87   -6.944689694556e-05
    88    4.345672462532e-07
    89   -7.360398247687e-07
    90    4.236118675604e-06
    91   -1.755261977300e-06
    92    2.087837132167e-16
    93    4.774066272399e-06
    94   -1.849821273085e-05
    95    1.076669972179e-05
    96   -2.716341605002e-15
    97    1.999989138997e-04
    98   -9.830404391715e-05
    99    4.651103980246e-05
   100    3.759870713609e-15
   101   -7.569140527560e-04
   102   -1.174768695281e-04
   103    6.878023363450e-04
   104    1.792568872955e-14
   105   -3.057113896361e-06
   106   -1.390900498973e-18
   107   -3.344839137938e-17
   108    7.928613366063e-06
   109   -2.149986685528e-06
   110   -2.092976167593e-06
   111   -2.606131482816e-06
   112   -2.674984273021e-07
   113    5.544051493611e-07
   114   -1.443107046355e-15
   115    7.618655839285e-06
   116   -1.198840461672e-06
   117   -1.579965026607e-06
   118    1.205772983045e-15
   119   -3.693651322915e-05
   120    1.353715215032e-05
   121    6.710510254424e-06
   122    1.878742237935e-15
   123    1.873037350892e-04
   124   -8.565395030815e-05
   125   -7.261600271600e-05
   126   -7.339577687903e-15
   127   -2.738405108876e-07
   128   -4.752067735154e-16
   129   -1.080205100960e-15
   130   -7.559875162190e-07
   131   -3.576984905309e-07
   132   -2.760488657061e-07
   133   -1.617822904387e-06
   134   -1.105769888834e-05
   135    1.196057106885e-06
   136   -4.870680765346e-16
   137    2.768064836518e-05
   138    3.159346715155e-05
   139   -5.984109063261e-06
   140   -3.028491236235e-17
   141   -3.013624024516e-04
   142   -4.739726820264e-05
   143    2.530679285350e-04
   144    2.113183745502e-15
   145   -1.246718420699e-05
   146   -5.481504025538e-04
   147    8.541842600779e-05
   148   -1.231534994200e-14
   149    7.178743982016e-06
   150   -2.221722992025e-16
   151    7.343996213862e-16
   152   -2.287327737817e-05
   153   -6.928098639533e-06
   154   -3.700091805085e-07
   155   -1.491463439312e-06
   156   -5.234592279730e-06
   157    9.635787889150e-06
   158    6.751346128309e-16
   159    2.596399440464e-05
   160    1.588015703401e-05
   161   -2.554546042589e-05
   162   -7.947600180585e-17
   163   -2.737075607244e-04
   164   -2.299997600029e-04
   165   -7.113417888388e-05
   166    9.174731610448e-16
   167    3.030245839362e-05
   168   -2.947858881199e-04
   169    3.663068312302e-04
   170   -7.667343068429e-15
   171    7.679483292478e-06
   172    2.551458095113e-16
   173   -2.839661220716e-16
   174    1.831163415165e-05
   175    1.263790793688e-05
   176   -1.277330811349e-07
   177    6.314288625092e-07
   178   -1.256472832241e-06
   179    7.583509267457e-07
   180    1.365194586347e-15
   181   -1.225873264307e-05
   182    6.488096282925e-06
   183   -6.733258654556e-06
   184   -5.550469030186e-16
   185    6.174558196598e-05
   186   -4.873934358433e-05
   187    2.870788587796e-05
   188    8.393093029091e-16
   189    2.955310696695e-03
   190   -4.559317376062e-04
   191    2.994208621956e-04
   192   -1.533112173117e-14
   193   -5.185508768339e-06
   194    4.140862035142e-17
   195    3.978899490539e-16
   196   -1.798310369653e-08
   197    3.107122150584e-06
   198   -1.321099500494e-06
   199    8.502710985417e-06
   200    2.095780741976e-05
   201    1.795413855839e-04
   202    4.831964618344e-07
   203   -4.251231039554e-07
   204   -8.127800874448e-16
Sym=X
Ene= 0.761796
Spin=Alpha
Occup=0
     1    7.505944502472e-15
     2    1.383774455909e-14
     3    1.468627470453e-15
     4    1.380169956755e-14
     5    1.594890292892e-01
     6   -6.738176943903e-14
     7    2.175791739772e-14
     8   -1.133166286419e-14
     9    2.594432762970e-01
    10    1.736412157308e-13
    11   -5.931883820357e-14
    12    2.696870542511e-13
    13    4.977576054558e-01
    14    1.481168798518e-11
    15    6.937054483514e-13
    16    8.437745680643e-12
    17    6.899697504410e-01
    18   -4.110692644113e-15
    19   -1.051844548653e-02
    20   -1.251688994284e-02
    21    6.554670798265e-15
    22   -5.664179956097e-15
    23    2.772767635582e-15
    24   -1.001558704646e-14
    25   -5.796552224841e-14
    26   -3.063077675300e-12
    27    9.942811011037e-15
    28    3.105351357613e-15
    29   -1.441742654421e-02
    30   -6.024819329831e-15
    31   -6.504447793115e-14
    32    6.005282523768e-13
    33    6.349547633165e-12
    34    1.403338655258e-15
    35   -4.785383536236e-15
    36    1.981536576601e-02
    37    4.247454416164e-15
    38   -1.622456587230e-14
    39    5.920473945564e-13
    40    3.313377641202e-12
    41   -2.691477173927e-15
    42   -9.365645535830e-15
    43    1.093076525010e-02
    44    2.887245674112e-15
    45    1.180429382072e-15
    46    4.040548671329e-15
    47    9.777762562993e-16
    48    3.038303960635e-02
    49   -2.712668030642e-15
    50    1.272672898183e-15
    51    1.469234581977e-14
    52    5.582383599214e-02
    53   -4.537163082852e-14
    54   -9.831793466278e-15
    55   -2.536508331645e-13
    56    7.322803510806e-02
    57   -5.305763578468e-12
    58   -2.111026753345e-12
    59   -3.401424127424e-13
    60    5.119883598132e-03
    61   -1.071046307135e-14
    62    1.717338752954e-02
    63    3.823772033114e-02
    64    1.787587046142e-15
    65    8.134978558060e-16
    66   -1.360747396418e-15
    67   -3.553347611058e-15
    68   -2.061646297017e-15
    69   -1.630993103055e-14
    70   -2.018533463320e-02
    71    1.602425607118e-14
    72   -8.580983502668e-15
    73   -2.724720162576e-14
    74   -2.525363860120e-02
    75   -9.447585389966e-15
    76    7.035663145314e-15
    77   -3.815920009819e-15
    78   -3.460506310234e-02
    79    4.946209642024e-13
    80    2.390906457579e-13
    81   -8.933717440397e-14
    82    1.996483755124e-02
    83    4.257400740853e-17
    84    3.686965613861e-03
    85    1.627516370554e-03
    86   -2.418960772542e-15
    87    9.187447636338e-16
    88   -2.080002209805e-15
    89   -4.846708104416e-16
    90    1.519860592999e-15
    91   -1.644702580027e-15
    92   -1.310928719132e-01
    93    2.154620599419e-14
    94   -3.159831758059e-14
    95   -1.562710848123e-14
    96   -2.120235405703e-01
    97   -2.402996489142e-14
    98    8.825731006447e-14
    99    4.302405146122e-14
   100   -3.837597894339e-01
   101    1.534741173509e-11
   102   -1.114207289689e-13
   103   -4.249818993096e-12
   104   -8.951941653595e-02
   105   -2.702627015712e-15
   106    2.765982399132e-02
   107    3.332054870931e-02
   108    8.137694420202e-15
   109    1.578940728820e-17
   110   -7.324470879457e-16
   111   -2.721011592480e-15
   112    4.162242862285e-15
   113   -8.490222896623e-15
   114    1.136095373992e-01
   115    7.795487110076e-15
   116   -7.729746549857e-16
   117   -8.915011792424e-15
   118    1.679539638516e-01
   119    2.569921754272e-14
   120    1.512789768164e-14
   121   -5.576854521452e-14
   122    2.343241898398e-01
   123   -4.899165660539e-13
   124   -4.751394067727e-14
   125    3.058437194262e-13
   126    2.014282722469e-01
   127   -5.621982056653e-16
   128    1.781957383021e-03
   129    3.579545637592e-03
   130   -1.276632965652e-15
   131   -1.679056346899e-16
   132    3.090468392500e-15
   133    3.298440258258e-15
   134   -1.224681131313e-15
   135   -2.602324538151e-14
   136    5.394284793860e-02
   137    1.454204100135e-15
   138   -6.356886935057e-15
   139   -5.629283514759e-14
   140    8.227138238536e-02
   141   -1.834018386479e-13
   142   -3.365590052841e-14
   143    1.600898797329e-14
   144    1.315017891058e-01
   145    2.765389302697e-12
   146   -5.398763565528e-13
   147   -1.716059802566e-12
   148    1.826960549157e-01
   149    7.138850457428e-15
   150   -1.891462630276e-02
   151    9.568130788812e-03
   152   -1.828805046183e-15
   153    1.571291437211e-15
   154   -5.604002123496e-15
   155   -1.292310782874e-14
   156   -7.244225724017e-15
   157   -1.009094057689e-14
   158   -9.222484304772e-02
   159    4.515333648767e-14
   160   -2.311462652862e-14
   161   -1.566341023811e-14
   162   -1.427160793026e-01
   163   -3.687152514830e-14
   164   -4.273283106626e-15
   165   -7.676520297339e-14
   166   -2.324252712549e-01
   167   -3.637129766038e-12
   168   -1.143073683013e-12
   169   -7.353209020883e-13
   170   -4.101297021243e-01
   171    7.966534287604e-15
   172    1.851139145809e-02
   173   -1.332570342140e-02
   174   -6.577450215505e-15
   175    4.204115907409e-15
   176   -2.933689832964e-15
   177   -1.622586142296e-15
   178    1.523252424688e-15
   179   -1.203497412481e-14
   180   -8.092767539581e-02
   181    1.382006848192e-14
   182   -3.340208502647e-16
   183   -3.440629021484e-15
   184   -1.267443964888e-01
   185    7.673800751473e-14
   186    1.641007392851e-13
   187   -9.416115774404e-14
   188   -2.649991177353e-01
   189   -2.306476573656e-11
   190    7.032000059912e-12
   191   -7.705329856292e-12
   192   -3.996155827833e-01
   193    3.328168370384e-16
   194   -1.728583077223e-02
   195   -3.304141120310e-02
   196   -4.922819467559e-15
   197   -2.832541740073e-15
   198   -3.885833859782e-15
   199    5.559867038874e-14
   200   -9.150028225483e-13
   201   -7.695219325058e-12
   202   -2.485038868996e-16
   203   -5.814850238368e-15
   204   -7.170241040435e-03
[5D]
