[Molden Format]
[Atoms] (Angs)
  C      1    6     -0.00714236     -1.70213747     -0.00000000
  H      2    1     -2.06882847     -1.44022412      0.00000000
  H      3    1     -0.12337987     -2.77567521      0.00000000
  H      4    1      0.04651892      1.98813947     -0.00000000
  C      5    6     -1.21953563      0.40211669      0.00000000
  O      6    8     -2.25921553      1.03043814      0.00000000
  C      7    6      1.28797806      0.34644937     -0.00000000
  O      8    8      2.31273661      1.00537216     -0.00000000
  N      9    7      0.03446295      0.97739857     -0.00000000
  N     10    7     -1.17287765     -0.98229824      0.00000000
  C     11    6      1.20107039     -1.10433419     -0.00000000
  H     12    1      2.11220096     -1.67699125     -0.00000000
[GTO]
1    0
S    6    1.000000
   4.56324000E+03    1.96665000E-03 
   6.82024000E+02    1.52306000E-02 
   1.54973000E+02    7.61269000E-02 
   4.44553000E+01    2.60801000E-01 
   1.30290000E+01    6.16462000E-01 
   1.82773000E+00    2.21006000E-01 
SP   3    1.000000
   2.09642000E+01    1.14660000E-01   4.02487000E-02 
   4.80331000E+00    9.19999000E-01   2.37594000E-01 
   1.45933000E+00   -3.03068000E-03   8.15854000E-01 
SP   1    1.000000
   4.83456000E-01    1.00000000E+00   1.00000000E+00 
SP   1    1.000000
   1.45585000E-01    1.00000000E+00   1.00000000E+00 
SP   1    1.000000
   4.38000000E-02    1.00000000E+00   1.00000000E+00 
D    1    1.000000
   6.26000000E-01    1.00000000E+00 

2    0
S    3    1.000000
   3.38650000E+01    2.54938000E-02 
   5.09479000E+00    1.90373000E-01 
   1.15879000E+00    8.52161000E-01 
S    1    1.000000
   3.25840000E-01    1.00000000E+00 
S    1    1.000000
   1.02741000E-01    1.00000000E+00 
S    1    1.000000
   3.60000000E-02    1.00000000E+00 
P    1    1.000000
   7.50000000E-01    1.00000000E+00 

3    0
S    3    1.000000
   3.38650000E+01    2.54938000E-02 
   5.09479000E+00    1.90373000E-01 
   1.15879000E+00    8.52161000E-01 
S    1    1.000000
   3.25840000E-01    1.00000000E+00 
S    1    1.000000
   1.02741000E-01    1.00000000E+00 
S    1    1.000000
   3.60000000E-02    1.00000000E+00 
P    1    1.000000
   7.50000000E-01    1.00000000E+00 

4    0
S    3    1.000000
   3.38650000E+01    2.54938000E-02 
   5.09479000E+00    1.90373000E-01 
   1.15879000E+00    8.52161000E-01 
S    1    1.000000
   3.25840000E-01    1.00000000E+00 
S    1    1.000000
   1.02741000E-01    1.00000000E+00 
S    1    1.000000
   3.60000000E-02    1.00000000E+00 
P    1    1.000000
   7.50000000E-01    1.00000000E+00 

5    0
S    6    1.000000
   4.56324000E+03    1.96665000E-03 
   6.82024000E+02    1.52306000E-02 
   1.54973000E+02    7.61269000E-02 
   4.44553000E+01    2.60801000E-01 
   1.30290000E+01    6.16462000E-01 
   1.82773000E+00    2.21006000E-01 
SP   3    1.000000
   2.09642000E+01    1.14660000E-01   4.02487000E-02 
   4.80331000E+00    9.19999000E-01   2.37594000E-01 
   1.45933000E+00   -3.03068000E-03   8.15854000E-01 
SP   1    1.000000
   4.83456000E-01    1.00000000E+00   1.00000000E+00 
SP   1    1.000000
   1.45585000E-01    1.00000000E+00   1.00000000E+00 
SP   1    1.000000
   4.38000000E-02    1.00000000E+00   1.00000000E+00 
D    1    1.000000
   6.26000000E-01    1.00000000E+00 

6    0
S    6    1.000000
   8.58850000E+03    1.89515000E-03 
   1.29723000E+03    1.43859000E-02 
   2.99296000E+02    7.07320000E-02 
   8.73771000E+01    2.40001000E-01 
   2.56789000E+01    5.94797000E-01 
   3.74004000E+00    2.80802000E-01 
SP   3    1.000000
   4.21175000E+01    1.13889000E-01   3.65114000E-02 
   9.62837000E+00    9.20811000E-01   2.37153000E-01 
   2.85332000E+00   -3.27447000E-03   8.19702000E-01 
SP   1    1.000000
   9.05661000E-01    1.00000000E+00   1.00000000E+00 
SP   1    1.000000
   2.55611000E-01    1.00000000E+00   1.00000000E+00 
SP   1    1.000000
   8.45000000E-02    1.00000000E+00   1.00000000E+00 
D    1    1.000000
   1.29200000E+00    1.00000000E+00 

7    0
S    6    1.000000
   4.56324000E+03    1.96665000E-03 
   6.82024000E+02    1.52306000E-02 
   1.54973000E+02    7.61269000E-02 
   4.44553000E+01    2.60801000E-01 
   1.30290000E+01    6.16462000E-01 
   1.82773000E+00    2.21006000E-01 
SP   3    1.000000
   2.09642000E+01    1.14660000E-01   4.02487000E-02 
   4.80331000E+00    9.19999000E-01   2.37594000E-01 
   1.45933000E+00   -3.03068000E-03   8.15854000E-01 
SP   1    1.000000
   4.83456000E-01    1.00000000E+00   1.00000000E+00 
SP   1    1.000000
   1.45585000E-01    1.00000000E+00   1.00000000E+00 
SP   1    1.000000
   4.38000000E-02    1.00000000E+00   1.00000000E+00 
D    1    1.000000
   6.26000000E-01    1.00000000E+00 

8    0
S    6    1.000000
   8.58850000E+03    1.89515000E-03 
   1.29723000E+03    1.43859000E-02 
   2.99296000E+02    7.07320000E-02 
   8.73771000E+01    2.40001000E-01 
   2.56789000E+01    5.94797000E-01 
   3.74004000E+00    2.80802000E-01 
SP   3    1.000000
   4.21175000E+01    1.13889000E-01   3.65114000E-02 
   9.62837000E+00    9.20811000E-01   2.37153000E-01 
   2.85332000E+00   -3.27447000E-03   8.19702000E-01 
SP   1    1.000000
   9.05661000E-01    1.00000000E+00   1.00000000E+00 
SP   1    1.000000
   2.55611000E-01    1.00000000E+00   1.00000000E+00 
SP   1    1.000000
   8.45000000E-02    1.00000000E+00   1.00000000E+00 
D    1    1.000000
   1.29200000E+00    1.00000000E+00 

9    0
S    6    1.000000
   6.29348000E+03    1.96979000E-03 
   9.49044000E+02    1.49613000E-02 
   2.18776000E+02    7.35006000E-02 
   6.36916000E+01    2.48937000E-01 
   1.88282000E+01    6.02460000E-01 
   2.72023000E+00    2.56202000E-01 
SP   3    1.000000
   3.06331000E+01    1.11906000E-01   3.83119000E-02 
   7.02614000E+00    9.21666000E-01   2.37403000E-01 
   2.11205000E+00   -2.56919000E-03   8.17592000E-01 
SP   1    1.000000
   6.84009000E-01    1.00000000E+00   1.00000000E+00 
SP   1    1.000000
   2.00878000E-01    1.00000000E+00   1.00000000E+00 
SP   1    1.000000
   6.39000000E-02    1.00000000E+00   1.00000000E+00 
D    1    1.000000
   9.13000000E-01    1.00000000E+00 

10    0
S    6    1.000000
   6.29348000E+03    1.96979000E-03 
   9.49044000E+02    1.49613000E-02 
   2.18776000E+02    7.35006000E-02 
   6.36916000E+01    2.48937000E-01 
   1.88282000E+01    6.02460000E-01 
   2.72023000E+00    2.56202000E-01 
SP   3    1.000000
   3.06331000E+01    1.11906000E-01   3.83119000E-02 
   7.02614000E+00    9.21666000E-01   2.37403000E-01 
   2.11205000E+00   -2.56919000E-03   8.17592000E-01 
SP   1    1.000000
   6.84009000E-01    1.00000000E+00   1.00000000E+00 
SP   1    1.000000
   2.00878000E-01    1.00000000E+00   1.00000000E+00 
SP   1    1.000000
   6.39000000E-02    1.00000000E+00   1.00000000E+00 
D    1    1.000000
   9.13000000E-01    1.00000000E+00 

11    0
S    6    1.000000
   4.56324000E+03    1.96665000E-03 
   6.82024000E+02    1.52306000E-02 
   1.54973000E+02    7.61269000E-02 
   4.44553000E+01    2.60801000E-01 
   1.30290000E+01    6.16462000E-01 
   1.82773000E+00    2.21006000E-01 
SP   3    1.000000
   2.09642000E+01    1.14660000E-01   4.02487000E-02 
   4.80331000E+00    9.19999000E-01   2.37594000E-01 
   1.45933000E+00   -3.03068000E-03   8.15854000E-01 
SP   1    1.000000
   4.83456000E-01    1.00000000E+00   1.00000000E+00 
SP   1    1.000000
   1.45585000E-01    1.00000000E+00   1.00000000E+00 
SP   1    1.000000
   4.38000000E-02    1.00000000E+00   1.00000000E+00 
D    1    1.000000
   6.26000000E-01    1.00000000E+00 

12    0
S    3    1.000000
   3.38650000E+01    2.54938000E-02 
   5.09479000E+00    1.90373000E-01 
   1.15879000E+00    8.52161000E-01 
S    1    1.000000
   3.25840000E-01    1.00000000E+00 
S    1    1.000000
   1.02741000E-01    1.00000000E+00 
S    1    1.000000
   3.60000000E-02    1.00000000E+00 
P    1    1.000000
   7.50000000E-01    1.00000000E+00 

[MO]
Sym=X
Ene= -0.822051
Spin=Alpha
Occup=1
     1   -3.849288109344e-07
     2    2.690157886390e-07
     3   -4.811456993744e-06
     4    4.839004750561e-06
     5   -3.120562970165e-16
     6   -3.066099450629e-06
     7    2.476422705736e-05
     8   -1.834207567902e-05
     9    1.603496177448e-15
    10   -2.291978494038e-04
    11    7.545660322515e-05
    12    3.405146854863e-05
    13   -1.313389079595e-15
    14    6.249423133103e-04
    15    6.307983857541e-04
    16    1.776494528280e-04
    17   -8.187539031730e-15
    18    1.723911770311e-06
    19    1.109472230420e-16
    20    1.089197800676e-16
    21    4.165403394929e-06
    22    5.261301784659e-06
    23    3.604008189970e-06
    24    4.991695799889e-05
    25    9.707590284910e-05
    26    2.730381587533e-04
    27    9.486671803891e-06
    28   -7.912808917431e-06
    29   -7.141126110174e-17
    30   -5.118597439622e-06
    31    3.903811828108e-05
    32    2.392914029055e-06
    33    9.801421969298e-05
    34   -1.743270277030e-06
    35    4.696638760900e-06
    36    6.788710759343e-16
    37    3.172516840741e-06
    38    5.471327173472e-05
    39    9.329800035418e-05
    40    3.446797570513e-04
    41    1.093191738361e-05
    42   -5.330116566544e-06
    43    8.390187145020e-16
    44    4.828551069511e-06
    45   -7.779506165984e-05
    46   -6.141105593623e-05
    47    3.757172920086e-05
    48   -9.061451635614e-16
    49    3.093193832863e-04
    50   -3.618908888251e-04
    51    2.181237884281e-04
    52    4.144263646221e-15
    53   -5.359147022465e-05
    54   -4.919727643179e-04
    55    3.039634765724e-04
    56   -4.776440761911e-15
    57    4.366472508462e-04
    58    6.139629741918e-04
    59   -4.355715824139e-04
    60   -6.598909286993e-15
    61   -5.713099677555e-05
    62   -8.671029527051e-16
    63   -6.190427229147e-16
    64    9.302360067278e-05
    65   -1.788580189091e-04
    66    5.514792322290e-01
    67    4.716766533709e-01
    68    1.564633234769e-03
    69   -9.584304059423e-04
    70    2.211553740710e-16
    71    5.533193163328e-03
    72   -6.342258222720e-04
    73    3.884654949110e-04
    74   -3.200424339629e-16
    75   -1.339358377033e-03
    76    1.334618323935e-04
    77   -8.891302109819e-05
    78   -1.025674575440e-15
    79    1.426424721026e-03
    80    5.494361124407e-05
    81   -9.628089567281e-06
    82    2.197587859537e-15
    83   -8.738239168860e-05
    84   -3.049860775711e-16
    85    2.689760787710e-16
    86   -3.881788074552e-05
    87    6.941381146777e-05
    88   -4.697965231008e-07
    89    6.685081445843e-07
    90   -4.221272123557e-06
    91    1.847036366025e-06
    92   -2.088289058877e-16
    93   -4.578660668130e-06
    94    1.854166624276e-05
    95   -1.058122810786e-05
    96    2.716312410531e-15
    97   -1.998863615945e-04
    98    9.854043852469e-05
    99   -4.640243562162e-05
   100   -3.760004200564e-15
   101    7.568604663126e-04
   102    1.174734983230e-04
   103   -6.878657357327e-04
   104   -1.792539700877e-14
   105    3.101523463980e-06
   106    1.472069157386e-18
   107    3.339568453386e-17
   108   -7.899471584384e-06
   109    2.122069662082e-06
   110    2.885923551878e-05
   111    2.551367638405e-05
   112    2.473606293723e-07
   113   -6.766480242756e-07
   114    1.443186158585e-15
   115   -7.465573014861e-06
   116    1.305814861236e-06
   117    1.462856515160e-06
   118   -1.205938890817e-15
   119    3.672102740507e-05
   120   -1.341402810115e-05
   121   -6.918194314658e-06
   122   -1.878393817736e-15
   123   -1.875500946660e-04
   124    8.574731717637e-05
   125    7.262556875691e-05
   126    7.339130812598e-15
   127    2.741452316647e-07
   128    4.752358841220e-16
   129    1.080283625468e-15
   130    7.632430600563e-07
   131    3.626754799922e-07
   132    2.698234087905e-07
   133    1.605170106922e-06
   134    1.110652898254e-05
   135   -1.090390154083e-06
   136    4.871791045885e-16
   137   -2.765484356006e-05
   138   -3.152427610941e-05
   139    6.180486411587e-06
   140    3.039618067560e-17
   141    3.016730691119e-04
   142    4.748476111625e-05
   143   -2.532248465837e-04
   144   -2.112996950282e-15
   145    1.272005978719e-05
   146    5.482389088015e-04
   147   -8.559381026109e-05
   148    1.231512534114e-14
   149   -7.113639362938e-06
   150    2.221997006816e-16
   151   -7.344053591788e-16
   152    2.292920529872e-05
   153    6.923771224294e-06
   154    3.901269303150e-07
   155    1.523629087397e-06
   156    5.164889276809e-06
   157   -9.715341991397e-06
   158   -6.752673344540e-16
   159   -2.608679494984e-05
   160   -1.600960316497e-05
   161    2.543719610835e-05
   162    7.942066460618e-17
   163    2.736539933911e-04
   164    2.300285059515e-04
   165    7.105291697041e-05
   166   -9.174757753842e-16
   167   -3.036980433165e-05
   168    2.949714620045e-04
   169   -3.662866969167e-04
   170    7.669274252113e-15
   171   -7.608920745315e-06
   172   -2.552181642713e-16
   173    2.839721594542e-16
   174   -1.833435644724e-05
   175   -1.268604441612e-05
   176    1.478398807920e-07
   177   -5.977681140200e-07
   178    1.305670325826e-06
   179   -7.875843674701e-07
   180   -1.365234335218e-15
   181    1.206909095647e-05
   182   -6.436661528132e-06
   183    6.721610106240e-06
   184    5.548518586679e-16
   185   -6.167023725568e-05
   186    4.875627506079e-05
   187   -2.880231164293e-05
   188   -8.392273096556e-16
   189   -2.955092364485e-03
   190    4.560028341003e-04
   191   -2.993914096769e-04
   192    1.533228047043e-14
   193    5.258683895498e-06
   194   -4.140150654705e-17
   195   -3.978486153542e-16
   196   -1.190527691832e-09
   197   -3.089721049029e-06
   198    1.343317354830e-06
   199   -8.409931886314e-06
   200   -2.095624750764e-05
   201   -1.796063345673e-04
   202   -4.824517256897e-07
   203    4.286975042573e-07
   204    8.127259121982e-16
Sym=X
Ene= 0.822051
Spin=Alpha
Occup=0
     1   -1.372482163084e-03
     2   -2.796232753631e-03
     3    5.380703248474e-03
     4    3.931256644491e-03
     5   -3.441205058893e-14
     6    2.452094588244e-02
     7    7.315999525158e-03
     8   -5.237707107189e-03
     9   -6.502240991853e-14
    10   -3.936385060734e-01
    11   -4.892203545584e-02
    12   -2.312930012562e-01
    13   -1.737775497807e-15
    14    1.816894028785e+00
    15    3.551166083608e-01
    16    1.402101874356e-01
    17   -2.813426622555e-13
    18   -1.387891547077e-02
    19   -3.113929523585e-15
    20    2.784900121960e-15
    21   -8.258017075324e-03
    22   -3.071681058679e-04
    23    1.855160294624e-02
    24    1.372259697513e-01
    25    3.462436357079e-01
    26    1.494872780769e+00
    27    3.433097013469e-03
    28   -2.277248176366e-03
    29    8.016820628494e-16
    30    1.397435965861e-02
    31   -8.059649559722e-03
    32    7.458525719422e-02
    33   -3.275083828327e-01
    34   -6.875353283238e-04
    35   -4.365772068234e-03
    36   -5.275341383130e-15
    37    1.888281936477e-02
    38    1.368096131019e-01
    39    5.374430617732e-01
    40    1.951697434513e+00
    41   -4.737941090667e-04
    42    2.658224814616e-03
    43   -1.283232010210e-15
    44    2.239340775177e-03
    45    2.732739528457e-03
    46    1.367691708397e-02
    47   -1.710325885940e-02
    48   -1.458247810324e-14
    49    5.205644129833e-02
    50    3.053628209768e-02
    51   -3.992578589295e-02
    52   -5.706583137918e-14
    53   -8.508588169011e-01
    54   -2.259535524762e-01
    55    1.275760111461e-01
    56   -1.307697521166e-14
    57   -6.635604717990e+00
    58   -1.443612988470e+00
    59    1.375329386908e+00
    60    1.902637848299e-13
    61   -2.957145596499e-02
    62    1.407799054205e-15
    63   -4.760237286867e-15
    64    1.428296054132e-02
    65   -1.783937128530e-02
    66   -6.723381700659e-03
    67   -1.205354282851e-02
    68    4.763504525937e-02
    69   -4.610000726194e-02
    70    1.540995287842e-14
    71    4.355934857036e-02
    72    6.079329364119e-02
    73   -5.997268241155e-02
    74    3.326596968821e-14
    75    7.126782641706e-02
    76    7.618066035491e-02
    77   -5.942740055007e-02
    78    6.023878604375e-14
    79    1.760880155168e-01
    80    4.117302124404e-02
    81   -2.592724539381e-02
    82   -1.417347898286e-13
    83   -5.575287019987e-03
    84   -2.380335061141e-15
    85   -1.523291951492e-15
    86   -2.374841085286e-03
    87   -3.307276554824e-04
    88   -9.054966453387e-04
    89   -2.123357283111e-03
    90    3.855442071671e-04
    91   -7.556594652653e-03
    92    4.152234782086e-14
    93    2.750571480649e-02
    94   -3.296906656606e-04
    95   -1.083607449401e-02
    96    8.283345083617e-14
    97   -3.507188195614e-01
    98    2.522658183607e-01
    99    1.420921106615e-01
   100    1.355869445347e-13
   101    3.060848615655e+00
   102   -3.767856892823e-01
   103   -1.543551749916e+00
   104   -8.072712826456e-13
   105   -1.052800756691e-02
   106   -1.108118882588e-14
   107   -1.916048658870e-15
   108    7.481465173610e-03
   109    6.504366570207e-03
   110   -2.940548602577e-03
   111   -5.150973871081e-03
   112   -6.751670734611e-03
   113   -9.358742325601e-03
   114   -3.007806496717e-14
   115    2.032306170324e-02
   116   -5.098065571064e-03
   117   -9.992180009171e-03
   118   -5.933793280531e-14
   119   -5.085753245700e-02
   120   -1.764312026546e-02
   121   -2.359515910437e-02
   122   -9.996694513772e-14
   123    7.445043644650e-02
   124    5.368355742274e-02
   125    1.415406184513e-01
   126    1.082123262753e-13
   127   -1.187186823756e-03
   128    4.584595345860e-15
   129   -6.893364635622e-15
   130   -1.056603087020e-03
   131    4.038540659078e-04
   132   -1.225714467048e-03
   133   -1.883497558436e-03
   134   -5.827546709561e-03
   135   -4.417268517787e-02
   136   -2.073431024577e-14
   137    1.983899936454e-03
   138   -6.370227474980e-03
   139   -6.349599636327e-02
   140   -1.941234627933e-14
   141    1.655695334922e-01
   142   -7.378322735206e-02
   143   -3.443068100522e-01
   144   -1.398551749048e-13
   145    1.925487119120e+00
   146   -2.315534362051e-01
   147   -8.809760625197e-01
   148    4.933396148071e-13
   149   -1.074836169206e-02
   150    6.997603463217e-15
   151   -1.880858879298e-15
   152   -7.084431823622e-03
   153    2.519760692627e-03
   154   -2.773057325803e-03
   155   -4.758436038475e-03
   156    2.303877304185e-02
   157    1.753957520687e-02
   158    4.825367464679e-14
   159    1.557157869729e-02
   160    3.274445509708e-02
   161    2.535632753771e-02
   162    4.505846223085e-14
   163    1.578632819575e-01
   164    2.350179178724e-01
   165    2.011484492261e-01
   166    1.696590879306e-13
   167    2.338470777960e+00
   168    3.052129267203e-01
   169    5.258454214344e-01
   170   -4.031474300551e-13
   171   -1.253067109574e-02
   172   -2.933079555043e-15
   173   -4.546284100165e-16
   174   -6.690063763126e-04
   175    6.142152073165e-03
   176   -4.609261743432e-03
   177   -7.736010853157e-03
   178    4.023071247213e-03
   179   -6.283823964212e-03
   180    8.841450923116e-15
   181    1.349463559453e-02
   182    1.479353000257e-03
   183   -4.875237401790e-03
   184    2.580099088845e-15
   185    4.731166135874e-01
   186   -2.042332330382e-01
   187    1.046085066307e-01
   188   -3.674461240689e-14
   189   -4.315342464881e+00
   190    9.124769922739e-01
   191   -8.932706832400e-01
   192    6.949959309003e-13
   193   -1.418822270370e-02
   194    5.329878452579e-15
   195    1.091506915452e-14
   196   -1.609807070643e-04
   197   -7.723310531148e-04
   198    9.456424505228e-03
   199    4.332886968412e-02
   200    1.086182289402e-01
   201   -1.003560686425e+00
   202   -1.963650764230e-03
   203    1.255962622687e-03
   204    3.609173874499e-15
[5D]
