[Molden Format]
[Atoms] (Angs)
  C      1    6     -0.00714236     -1.70213747     -0.00000000
  H      2    1     -2.06882847     -1.44022412      0.00000000
  H      3    1     -0.12337987     -2.77567521      0.00000000
  H      4    1      0.04651892      1.98813947     -0.00000000
  C      5    6     -1.21953563      0.40211669      0.00000000
  O      6    8     -2.25921553      1.03043814      0.00000000
  C      7    6      1.28797806      0.34644937     -0.00000000
  O      8    8      2.31273661      1.00537216     -0.00000000
  N      9    7      0.03446295      0.97739857     -0.00000000
  N     10    7     -1.17287765     -0.98229824      0.00000000
  C     11    6      1.20107039     -1.10433419     -0.00000000
  H     12    1      2.11220096     -1.67699125     -0.00000000
[GTO]
1    0
S    6    1.000000
   4.56324000E+03    1.96665000E-03 
   6.82024000E+02    1.52306000E-02 
   1.54973000E+02    7.61269000E-02 
   4.44553000E+01    2.60801000E-01 
   1.30290000E+01    6.16462000E-01 
   1.82773000E+00    2.21006000E-01 
SP   3    1.000000
   2.09642000E+01    1.14660000E-01   4.02487000E-02 
   4.80331000E+00    9.19999000E-01   2.37594000E-01 
   1.45933000E+00   -3.03068000E-03   8.15854000E-01 
SP   1    1.000000
   4.83456000E-01    1.00000000E+00   1.00000000E+00 
SP   1    1.000000
   1.45585000E-01    1.00000000E+00   1.00000000E+00 
SP   1    1.000000
   4.38000000E-02    1.00000000E+00   1.00000000E+00 
D    1    1.000000
   6.26000000E-01    1.00000000E+00 

2    0
S    3    1.000000
   3.38650000E+01    2.54938000E-02 
   5.09479000E+00    1.90373000E-01 
   1.15879000E+00    8.52161000E-01 
S    1    1.000000
   3.25840000E-01    1.00000000E+00 
S    1    1.000000
   1.02741000E-01    1.00000000E+00 
S    1    1.000000
   3.60000000E-02    1.00000000E+00 
P    1    1.000000
   7.50000000E-01    1.00000000E+00 

3    0
S    3    1.000000
   3.38650000E+01    2.54938000E-02 
   5.09479000E+00    1.90373000E-01 
   1.15879000E+00    8.52161000E-01 
S    1    1.000000
   3.25840000E-01    1.00000000E+00 
S    1    1.000000
   1.02741000E-01    1.00000000E+00 
S    1    1.000000
   3.60000000E-02    1.00000000E+00 
P    1    1.000000
   7.50000000E-01    1.00000000E+00 

4    0
S    3    1.000000
   3.38650000E+01    2.54938000E-02 
   5.09479000E+00    1.90373000E-01 
   1.15879000E+00    8.52161000E-01 
S    1    1.000000
   3.25840000E-01    1.00000000E+00 
S    1    1.000000
   1.02741000E-01    1.00000000E+00 
S    1    1.000000
   3.60000000E-02    1.00000000E+00 
P    1    1.000000
   7.50000000E-01    1.00000000E+00 

5    0
S    6    1.000000
   4.56324000E+03    1.96665000E-03 
   6.82024000E+02    1.52306000E-02 
   1.54973000E+02    7.61269000E-02 
   4.44553000E+01    2.60801000E-01 
   1.30290000E+01    6.16462000E-01 
   1.82773000E+00    2.21006000E-01 
SP   3    1.000000
   2.09642000E+01    1.14660000E-01   4.02487000E-02 
   4.80331000E+00    9.19999000E-01   2.37594000E-01 
   1.45933000E+00   -3.03068000E-03   8.15854000E-01 
SP   1    1.000000
   4.83456000E-01    1.00000000E+00   1.00000000E+00 
SP   1    1.000000
   1.45585000E-01    1.00000000E+00   1.00000000E+00 
SP   1    1.000000
   4.38000000E-02    1.00000000E+00   1.00000000E+00 
D    1    1.000000
   6.26000000E-01    1.00000000E+00 

6    0
S    6    1.000000
   8.58850000E+03    1.89515000E-03 
   1.29723000E+03    1.43859000E-02 
   2.99296000E+02    7.07320000E-02 
   8.73771000E+01    2.40001000E-01 
   2.56789000E+01    5.94797000E-01 
   3.74004000E+00    2.80802000E-01 
SP   3    1.000000
   4.21175000E+01    1.13889000E-01   3.65114000E-02 
   9.62837000E+00    9.20811000E-01   2.37153000E-01 
   2.85332000E+00   -3.27447000E-03   8.19702000E-01 
SP   1    1.000000
   9.05661000E-01    1.00000000E+00   1.00000000E+00 
SP   1    1.000000
   2.55611000E-01    1.00000000E+00   1.00000000E+00 
SP   1    1.000000
   8.45000000E-02    1.00000000E+00   1.00000000E+00 
D    1    1.000000
   1.29200000E+00    1.00000000E+00 

7    0
S    6    1.000000
   4.56324000E+03    1.96665000E-03 
   6.82024000E+02    1.52306000E-02 
   1.54973000E+02    7.61269000E-02 
   4.44553000E+01    2.60801000E-01 
   1.30290000E+01    6.16462000E-01 
   1.82773000E+00    2.21006000E-01 
SP   3    1.000000
   2.09642000E+01    1.14660000E-01   4.02487000E-02 
   4.80331000E+00    9.19999000E-01   2.37594000E-01 
   1.45933000E+00   -3.03068000E-03   8.15854000E-01 
SP   1    1.000000
   4.83456000E-01    1.00000000E+00   1.00000000E+00 
SP   1    1.000000
   1.45585000E-01    1.00000000E+00   1.00000000E+00 
SP   1    1.000000
   4.38000000E-02    1.00000000E+00   1.00000000E+00 
D    1    1.000000
   6.26000000E-01    1.00000000E+00 

8    0
S    6    1.000000
   8.58850000E+03    1.89515000E-03 
   1.29723000E+03    1.43859000E-02 
   2.99296000E+02    7.07320000E-02 
   8.73771000E+01    2.40001000E-01 
   2.56789000E+01    5.94797000E-01 
   3.74004000E+00    2.80802000E-01 
SP   3    1.000000
   4.21175000E+01    1.13889000E-01   3.65114000E-02 
   9.62837000E+00    9.20811000E-01   2.37153000E-01 
   2.85332000E+00   -3.27447000E-03   8.19702000E-01 
SP   1    1.000000
   9.05661000E-01    1.00000000E+00   1.00000000E+00 
SP   1    1.000000
   2.55611000E-01    1.00000000E+00   1.00000000E+00 
SP   1    1.000000
   8.45000000E-02    1.00000000E+00   1.00000000E+00 
D    1    1.000000
   1.29200000E+00    1.00000000E+00 

9    0
S    6    1.000000
   6.29348000E+03    1.96979000E-03 
   9.49044000E+02    1.49613000E-02 
   2.18776000E+02    7.35006000E-02 
   6.36916000E+01    2.48937000E-01 
   1.88282000E+01    6.02460000E-01 
   2.72023000E+00    2.56202000E-01 
SP   3    1.000000
   3.06331000E+01    1.11906000E-01   3.83119000E-02 
   7.02614000E+00    9.21666000E-01   2.37403000E-01 
   2.11205000E+00   -2.56919000E-03   8.17592000E-01 
SP   1    1.000000
   6.84009000E-01    1.00000000E+00   1.00000000E+00 
SP   1    1.000000
   2.00878000E-01    1.00000000E+00   1.00000000E+00 
SP   1    1.000000
   6.39000000E-02    1.00000000E+00   1.00000000E+00 
D    1    1.000000
   9.13000000E-01    1.00000000E+00 

10    0
S    6    1.000000
   6.29348000E+03    1.96979000E-03 
   9.49044000E+02    1.49613000E-02 
   2.18776000E+02    7.35006000E-02 
   6.36916000E+01    2.48937000E-01 
   1.88282000E+01    6.02460000E-01 
   2.72023000E+00    2.56202000E-01 
SP   3    1.000000
   3.06331000E+01    1.11906000E-01   3.83119000E-02 
   7.02614000E+00    9.21666000E-01   2.37403000E-01 
   2.11205000E+00   -2.56919000E-03   8.17592000E-01 
SP   1    1.000000
   6.84009000E-01    1.00000000E+00   1.00000000E+00 
SP   1    1.000000
   2.00878000E-01    1.00000000E+00   1.00000000E+00 
SP   1    1.000000
   6.39000000E-02    1.00000000E+00   1.00000000E+00 
D    1    1.000000
   9.13000000E-01    1.00000000E+00 

11    0
S    6    1.000000
   4.56324000E+03    1.96665000E-03 
   6.82024000E+02    1.52306000E-02 
   1.54973000E+02    7.61269000E-02 
   4.44553000E+01    2.60801000E-01 
   1.30290000E+01    6.16462000E-01 
   1.82773000E+00    2.21006000E-01 
SP   3    1.000000
   2.09642000E+01    1.14660000E-01   4.02487000E-02 
   4.80331000E+00    9.19999000E-01   2.37594000E-01 
   1.45933000E+00   -3.03068000E-03   8.15854000E-01 
SP   1    1.000000
   4.83456000E-01    1.00000000E+00   1.00000000E+00 
SP   1    1.000000
   1.45585000E-01    1.00000000E+00   1.00000000E+00 
SP   1    1.000000
   4.38000000E-02    1.00000000E+00   1.00000000E+00 
D    1    1.000000
   6.26000000E-01    1.00000000E+00 

12    0
S    3    1.000000
   3.38650000E+01    2.54938000E-02 
   5.09479000E+00    1.90373000E-01 
   1.15879000E+00    8.52161000E-01 
S    1    1.000000
   3.25840000E-01    1.00000000E+00 
S    1    1.000000
   1.02741000E-01    1.00000000E+00 
S    1    1.000000
   3.60000000E-02    1.00000000E+00 
P    1    1.000000
   7.50000000E-01    1.00000000E+00 

[MO]
Sym=X
Ene= -0.821893
Spin=Alpha
Occup=1
     1   -3.213811996461e-07
     2    3.751713477484e-07
     3   -4.674144811425e-06
     4    4.640888007488e-06
     5   -3.121443423232e-16
     6   -3.069458924427e-06
     7    2.499950941445e-05
     8   -1.873423640747e-05
     9    1.603011856959e-15
    10   -2.301424732027e-04
    11    7.554820504493e-05
    12    3.378646512186e-05
    13   -1.313234237520e-15
    14    6.228840367057e-04
    15    6.304115633703e-04
    16    1.776293345131e-04
    17   -8.188578425855e-15
    18    1.667350086689e-06
    19    1.111060383443e-16
    20    1.088247261643e-16
    21    4.113195163776e-06
    22    5.254014122115e-06
    23    3.217504888761e-06
    24    4.911345635541e-05
    25    9.698481931416e-05
    26    2.733897636197e-04
    27    9.449640600141e-06
    28   -7.933314865929e-06
    29   -7.150266692943e-17
    30   -5.216844126128e-06
    31    3.879181369766e-05
    32    2.580578183897e-06
    33    9.816914624578e-05
    34   -1.717612513604e-06
    35    4.695962461833e-06
    36    6.787695147559e-16
    37    3.898881665550e-06
    38    5.619521876903e-05
    39    9.344298973813e-05
    40    3.441476320183e-04
    41    1.088759734510e-05
    42   -5.421277865746e-06
    43    8.387391568016e-16
    44    4.866150665398e-06
    45   -7.772480645030e-05
    46   -6.121697055794e-05
    47    3.747844085280e-05
    48   -9.062534381554e-16
    49    3.090521565418e-04
    50   -3.615678499560e-04
    51    2.178859386754e-04
    52    4.143882141746e-15
    53   -5.416832082789e-05
    54   -4.908594071827e-04
    55    3.048272770592e-04
    56   -4.775912301259e-15
    57    4.365873868165e-04
    58    6.145031232352e-04
    59   -4.345891931727e-04
    60   -6.597333107625e-15
    61   -5.713846929924e-05
    62   -8.671751486272e-16
    63   -6.192016248881e-16
    64    9.245125227052e-05
    65   -1.790738439594e-04
    66    5.514791415295e-01
    67    4.716764946452e-01
    68    1.564942305191e-03
    69   -9.574503308957e-04
    70    2.213398786753e-16
    71    5.533236990487e-03
    72   -6.336694377302e-04
    73    3.902447757290e-04
    74   -3.194047607727e-16
    75   -1.337595019471e-03
    76    1.346517772125e-04
    77   -8.603130660127e-05
    78   -1.026731575578e-15
    79    1.426856504230e-03
    80    5.510005682363e-05
    81   -9.401335844187e-06
    82    2.197479711457e-15
    83   -8.738144708711e-05
    84   -3.049061701121e-16
    85    2.690038089514e-16
    86   -3.875408309852e-05
    87    6.948065784126e-05
    88   -4.924549418466e-07
    89    6.347216192081e-07
    90   -4.389199823187e-06
    91    1.689911102268e-06
    92   -2.086204372872e-16
    93   -4.408445382286e-06
    94    1.819547897906e-05
    95   -1.087208310824e-05
    96    2.716946799801e-15
    97   -1.994118151437e-04
    98    9.798021267928e-05
    99   -4.655493991848e-05
   100   -3.761695861731e-15
   101    7.571783029025e-04
   102    1.175143389659e-04
   103   -6.876066556633e-04
   104   -1.792997444885e-14
   105    3.094120369081e-06
   106    1.465144534758e-18
   107    3.327336698510e-17
   108   -8.066419534778e-06
   109    2.161104997998e-06
   110    2.646394632437e-06
   111    3.078543036905e-06
   112    2.225904416644e-07
   113   -2.062629982902e-07
   114    1.443221564736e-15
   115   -7.712749474203e-06
   116    1.107983194442e-06
   117    2.147357043463e-06
   118   -1.205262045423e-15
   119    3.719610118426e-05
   120   -1.376359609398e-05
   121   -6.003692244347e-06
   122   -1.879756121075e-15
   123   -1.871269595987e-04
   124    8.554002296592e-05
   125    7.266665575453e-05
   126    7.341892286540e-15
   127    2.838721402158e-07
   128    4.751302074223e-16
   129    1.080325177636e-15
   130    7.778801513654e-07
   131    3.314781580129e-07
   132    4.542382118920e-07
   133    1.921694527467e-06
   134    1.119938518689e-05
   135   -1.054470780630e-06
   136    4.871208141761e-16
   137   -2.898264591133e-05
   138   -3.145678558536e-05
   139    6.083416533935e-06
   140    3.028841828504e-17
   141    2.997703559343e-04
   142    4.788904525645e-05
   143   -2.521147390402e-04
   144   -2.112591393760e-15
   145    1.034344939110e-05
   146    5.482645252643e-04
   147   -8.479273727065e-05
   148    1.231638688060e-14
   149   -7.182764353379e-06
   150    2.221892637898e-16
   151   -7.344914734159e-16
   152    2.294390703919e-05
   153    6.887957297482e-06
   154    2.458947454429e-07
   155    1.276945589025e-06
   156    5.004307551692e-06
   157   -9.409653991401e-06
   158   -6.750681393190e-16
   159   -2.504118938519e-05
   160   -1.632622798132e-05
   161    2.580102894286e-05
   162    7.950510631197e-17
   163    2.750535757337e-04
   164    2.300970350623e-04
   165    7.229047851135e-05
   166   -9.172466499805e-16
   167   -2.834640730267e-05
   168    2.953882839785e-04
   169   -3.657705604620e-04
   170    7.667931316568e-15
   171   -7.607840294889e-06
   172   -2.551533506930e-16
   173    2.840066719691e-16
   174   -1.831711595099e-05
   175   -1.267040262015e-05
   176    9.885790492791e-08
   177   -6.801741327163e-07
   178    1.308716343726e-06
   179   -7.288090200471e-07
   180   -1.365138152796e-15
   181    1.233636830241e-05
   182   -6.427583106875e-06
   183    6.729870845711e-06
   184    5.554427931467e-16
   185   -6.136125649847e-05
   186    4.869540094788e-05
   187   -2.853066306448e-05
   188   -8.392954314207e-16
   189   -2.953336381821e-03
   190    4.553717130465e-04
   191   -2.996589108808e-04
   192    1.533546667278e-14
   193    5.205448284116e-06
   194   -4.160054423402e-17
   195   -3.977768519036e-16
   196   -3.767124534576e-08
   197   -3.082492420876e-06
   198    1.300915987559e-06
   199   -8.533869084622e-06
   200   -2.099007707669e-05
   201   -1.794744926931e-04
   202   -4.938511562357e-07
   203    4.277125529457e-07
   204    8.127122978027e-16
Sym=X
Ene= 0.821893
Spin=Alpha
Occup=0
     1   -5.559428120478e-03
     2   -9.368951840729e-03
     3   -1.253742044187e-03
     4   -2.356978018848e-02
     5   -4.432369184535e-14
     6    2.113631902325e-02
     7    1.073768145822e-03
     8   -3.593514024696e-02
     9   -1.083248525664e-13
    10    2.356069169201e-01
    11    4.407404918235e-02
    12    8.387383616066e-03
    13   -1.509141892241e-13
    14    2.260258425179e+00
    15   -3.566267564643e-01
    16    1.629350454675e-01
    17   -1.264813169667e-12
    18    6.383072240163e-04
    19    1.450931458440e-14
    20    6.604344732265e-15
    21    1.345889695077e-02
    22    1.167243305521e-03
    23   -1.110542294008e-02
    24   -6.536513810193e-02
    25   -4.758282355328e-01
    26   -1.666298399787e+00
    27    9.353928574237e-03
    28    5.311213260649e-03
    29   -2.654343538232e-15
    30   -4.395601530315e-03
    31    2.199330202148e-03
    32   -1.772090413573e-01
    33   -7.401411178370e-01
    34    3.291594941240e-03
    35    6.974901600755e-03
    36   -1.361525909559e-14
    37   -6.241649186473e-03
    38   -1.565065007048e-02
    39    4.374188659714e-01
    40    1.351962640845e+00
    41   -5.402993249391e-03
    42    1.223330316274e-02
    43   -1.049202007257e-14
    44   -3.108679914310e-03
    45   -5.208304993508e-03
    46   -1.037546407473e-02
    47    8.056009996382e-03
    48    1.847795418316e-14
    49   -2.280517093163e-03
    50   -2.283074307448e-02
    51    1.091436125640e-02
    52    6.175286309070e-14
    53    2.681471213901e-01
    54   -1.344903986218e-01
    55    9.144425432513e-02
    56   -1.491023837099e-14
    57    8.533178195230e-01
    58   -3.785132182930e-01
    59    3.928301912133e-01
    60    3.261637507272e-13
    61    1.413544803237e-02
    62   -7.708871455622e-17
    63   -8.485258490068e-15
    64    7.444379715601e-03
    65    1.417968724659e-02
    66    1.410027400572e-02
    67    2.515195595565e-02
    68   -3.986274930697e-02
    69   -4.287318442488e-02
    70   -1.891226666880e-14
    71   -8.999264798430e-02
    72   -5.096786146083e-02
    73   -5.599856123529e-02
    74   -2.470605519832e-14
    75   -1.776312369633e-01
    76   -8.845038508264e-02
    77   -2.105287944120e-02
    78   -4.235694823513e-14
    79   -5.726712895935e-01
    80    7.425633718995e-03
    81    8.219069010835e-02
    82   -1.009583928985e-13
    83    2.080110009211e-03
    84    1.748334375132e-15
    85    1.891590809192e-15
    86   -3.852654469084e-03
    87   -1.450385740407e-03
    88   -4.860622150202e-03
    89   -8.624197191800e-03
    90   -1.068197153099e-02
    91    1.505031007680e-03
    92    2.677081271425e-14
    93    2.905017390734e-02
    94   -2.195260602248e-02
    95    1.011536882348e-03
    96    3.865954793984e-14
    97    2.283308240072e-02
    98   -1.993688379533e-02
    99   -3.838372650580e-02
   100   -3.114217018333e-14
   101    3.079631851231e+00
   102    4.310411558908e-02
   103   -1.300266950387e+00
   104   -9.610773135580e-13
   105    6.862440210217e-03
   106    4.216132204272e-15
   107   -1.712930882009e-14
   108    5.582146733463e-03
   109    5.813483485427e-04
   110    2.442291502021e-03
   111    4.250003805304e-03
   112    4.620247014645e-03
   113   -6.198480622843e-03
   114   -1.668183270227e-14
   115   -1.518629700762e-02
   116    5.774439262073e-03
   117   -8.128829012276e-03
   118   -2.088777467499e-14
   119   -1.976061469461e-03
   120    5.613046386321e-03
   121   -1.796043941388e-02
   122   -7.566541494456e-14
   123   -3.267381176835e-02
   124   -1.808947379457e-02
   125    7.598286363324e-02
   126    2.334095346030e-13
   127    3.824507004604e-04
   128   -8.915964202340e-16
   129    2.174075949792e-15
   130    6.725039262220e-05
   131    7.504191319986e-05
   132    1.228372126933e-02
   133    2.121811438567e-02
   134   -1.060158791219e-03
   135   -3.486839185308e-02
   136   -1.431606914145e-14
   137   -6.520249844771e-02
   138    2.089275946918e-03
   139   -5.326594769500e-02
   140   -3.669851690684e-14
   141   -2.014903862300e-01
   142    1.446567548063e-02
   143   -8.061642258607e-02
   144   -2.239752453324e-15
   145   -3.683206555765e-01
   146    5.729324258293e-02
   147   -7.250559819403e-01
   148    8.888502119329e-14
   149    3.902211664322e-03
   150    2.640053902172e-17
   151   -6.224900470861e-15
   152    3.669987295570e-04
   153   -4.236501366735e-03
   154   -7.959585286064e-03
   155   -1.358796957609e-02
   156   -3.486153476846e-02
   157   -3.668777433330e-02
   158    2.691626689839e-14
   159    3.737919172979e-02
   160   -5.516995419191e-02
   161   -5.356261319433e-02
   162    4.262715053646e-14
   163    1.763112758261e-01
   164   -1.178633201565e-01
   165   -1.196840541430e-01
   166    8.035014241347e-14
   167   -2.967420010795e-01
   168   -5.610666234954e-01
   169   -2.157361961717e-01
   170    2.823664484909e-13
   171    2.158614405744e-03
   172   -3.166465301821e-15
   173    7.309596576723e-15
   174   -3.620336568186e-03
   175   -6.499257248609e-03
   176    2.100066360635e-03
   177    3.593703402910e-03
   178   -1.492622202992e-03
   179   -1.302381096397e-02
   180    5.181885606790e-14
   181   -6.148353845189e-03
   182    8.833057638880e-04
   183   -1.357213845686e-02
   184    9.344953805135e-14
   185   -1.503192142838e-01
   186    7.512850530432e-02
   187   -6.885012402479e-02
   188    1.628862220579e-13
   189   -3.865278573379e+00
   190    1.764612288861e-01
   191   -1.162496766362e+00
   192    1.311834144458e-12
   193    2.076269963633e-03
   194    4.092912424085e-15
   195    1.028236417993e-14
   196   -5.289222552002e-03
   197   -1.838576499724e-04
   198   -1.758668692147e-03
   199   -1.544948855537e-02
   200   -4.828254839381e-02
   201   -1.179734930019e-01
   202   -6.366655580425e-04
   203   -8.844129884141e-04
   204    4.360138332540e-15
[5D]
