[Molden Format]
[Atoms] (Angs)
  C      1    6     -0.00714236     -1.70213747     -0.00000000
  H      2    1     -2.06882847     -1.44022412      0.00000000
  H      3    1     -0.12337987     -2.77567521      0.00000000
  H      4    1      0.04651892      1.98813947     -0.00000000
  C      5    6     -1.21953563      0.40211669      0.00000000
  O      6    8     -2.25921553      1.03043814      0.00000000
  C      7    6      1.28797806      0.34644937     -0.00000000
  O      8    8      2.31273661      1.00537216     -0.00000000
  N      9    7      0.03446295      0.97739857     -0.00000000
  N     10    7     -1.17287765     -0.98229824      0.00000000
  C     11    6      1.20107039     -1.10433419     -0.00000000
  H     12    1      2.11220096     -1.67699125     -0.00000000
[GTO]
1    0
S    6    1.000000
   4.56324000E+03    1.96665000E-03 
   6.82024000E+02    1.52306000E-02 
   1.54973000E+02    7.61269000E-02 
   4.44553000E+01    2.60801000E-01 
   1.30290000E+01    6.16462000E-01 
   1.82773000E+00    2.21006000E-01 
SP   3    1.000000
   2.09642000E+01    1.14660000E-01   4.02487000E-02 
   4.80331000E+00    9.19999000E-01   2.37594000E-01 
   1.45933000E+00   -3.03068000E-03   8.15854000E-01 
SP   1    1.000000
   4.83456000E-01    1.00000000E+00   1.00000000E+00 
SP   1    1.000000
   1.45585000E-01    1.00000000E+00   1.00000000E+00 
SP   1    1.000000
   4.38000000E-02    1.00000000E+00   1.00000000E+00 
D    1    1.000000
   6.26000000E-01    1.00000000E+00 

2    0
S    3    1.000000
   3.38650000E+01    2.54938000E-02 
   5.09479000E+00    1.90373000E-01 
   1.15879000E+00    8.52161000E-01 
S    1    1.000000
   3.25840000E-01    1.00000000E+00 
S    1    1.000000
   1.02741000E-01    1.00000000E+00 
S    1    1.000000
   3.60000000E-02    1.00000000E+00 
P    1    1.000000
   7.50000000E-01    1.00000000E+00 

3    0
S    3    1.000000
   3.38650000E+01    2.54938000E-02 
   5.09479000E+00    1.90373000E-01 
   1.15879000E+00    8.52161000E-01 
S    1    1.000000
   3.25840000E-01    1.00000000E+00 
S    1    1.000000
   1.02741000E-01    1.00000000E+00 
S    1    1.000000
   3.60000000E-02    1.00000000E+00 
P    1    1.000000
   7.50000000E-01    1.00000000E+00 

4    0
S    3    1.000000
   3.38650000E+01    2.54938000E-02 
   5.09479000E+00    1.90373000E-01 
   1.15879000E+00    8.52161000E-01 
S    1    1.000000
   3.25840000E-01    1.00000000E+00 
S    1    1.000000
   1.02741000E-01    1.00000000E+00 
S    1    1.000000
   3.60000000E-02    1.00000000E+00 
P    1    1.000000
   7.50000000E-01    1.00000000E+00 

5    0
S    6    1.000000
   4.56324000E+03    1.96665000E-03 
   6.82024000E+02    1.52306000E-02 
   1.54973000E+02    7.61269000E-02 
   4.44553000E+01    2.60801000E-01 
   1.30290000E+01    6.16462000E-01 
   1.82773000E+00    2.21006000E-01 
SP   3    1.000000
   2.09642000E+01    1.14660000E-01   4.02487000E-02 
   4.80331000E+00    9.19999000E-01   2.37594000E-01 
   1.45933000E+00   -3.03068000E-03   8.15854000E-01 
SP   1    1.000000
   4.83456000E-01    1.00000000E+00   1.00000000E+00 
SP   1    1.000000
   1.45585000E-01    1.00000000E+00   1.00000000E+00 
SP   1    1.000000
   4.38000000E-02    1.00000000E+00   1.00000000E+00 
D    1    1.000000
   6.26000000E-01    1.00000000E+00 

6    0
S    6    1.000000
   8.58850000E+03    1.89515000E-03 
   1.29723000E+03    1.43859000E-02 
   2.99296000E+02    7.07320000E-02 
   8.73771000E+01    2.40001000E-01 
   2.56789000E+01    5.94797000E-01 
   3.74004000E+00    2.80802000E-01 
SP   3    1.000000
   4.21175000E+01    1.13889000E-01   3.65114000E-02 
   9.62837000E+00    9.20811000E-01   2.37153000E-01 
   2.85332000E+00   -3.27447000E-03   8.19702000E-01 
SP   1    1.000000
   9.05661000E-01    1.00000000E+00   1.00000000E+00 
SP   1    1.000000
   2.55611000E-01    1.00000000E+00   1.00000000E+00 
SP   1    1.000000
   8.45000000E-02    1.00000000E+00   1.00000000E+00 
D    1    1.000000
   1.29200000E+00    1.00000000E+00 

7    0
S    6    1.000000
   4.56324000E+03    1.96665000E-03 
   6.82024000E+02    1.52306000E-02 
   1.54973000E+02    7.61269000E-02 
   4.44553000E+01    2.60801000E-01 
   1.30290000E+01    6.16462000E-01 
   1.82773000E+00    2.21006000E-01 
SP   3    1.000000
   2.09642000E+01    1.14660000E-01   4.02487000E-02 
   4.80331000E+00    9.19999000E-01   2.37594000E-01 
   1.45933000E+00   -3.03068000E-03   8.15854000E-01 
SP   1    1.000000
   4.83456000E-01    1.00000000E+00   1.00000000E+00 
SP   1    1.000000
   1.45585000E-01    1.00000000E+00   1.00000000E+00 
SP   1    1.000000
   4.38000000E-02    1.00000000E+00   1.00000000E+00 
D    1    1.000000
   6.26000000E-01    1.00000000E+00 

8    0
S    6    1.000000
   8.58850000E+03    1.89515000E-03 
   1.29723000E+03    1.43859000E-02 
   2.99296000E+02    7.07320000E-02 
   8.73771000E+01    2.40001000E-01 
   2.56789000E+01    5.94797000E-01 
   3.74004000E+00    2.80802000E-01 
SP   3    1.000000
   4.21175000E+01    1.13889000E-01   3.65114000E-02 
   9.62837000E+00    9.20811000E-01   2.37153000E-01 
   2.85332000E+00   -3.27447000E-03   8.19702000E-01 
SP   1    1.000000
   9.05661000E-01    1.00000000E+00   1.00000000E+00 
SP   1    1.000000
   2.55611000E-01    1.00000000E+00   1.00000000E+00 
SP   1    1.000000
   8.45000000E-02    1.00000000E+00   1.00000000E+00 
D    1    1.000000
   1.29200000E+00    1.00000000E+00 

9    0
S    6    1.000000
   6.29348000E+03    1.96979000E-03 
   9.49044000E+02    1.49613000E-02 
   2.18776000E+02    7.35006000E-02 
   6.36916000E+01    2.48937000E-01 
   1.88282000E+01    6.02460000E-01 
   2.72023000E+00    2.56202000E-01 
SP   3    1.000000
   3.06331000E+01    1.11906000E-01   3.83119000E-02 
   7.02614000E+00    9.21666000E-01   2.37403000E-01 
   2.11205000E+00   -2.56919000E-03   8.17592000E-01 
SP   1    1.000000
   6.84009000E-01    1.00000000E+00   1.00000000E+00 
SP   1    1.000000
   2.00878000E-01    1.00000000E+00   1.00000000E+00 
SP   1    1.000000
   6.39000000E-02    1.00000000E+00   1.00000000E+00 
D    1    1.000000
   9.13000000E-01    1.00000000E+00 

10    0
S    6    1.000000
   6.29348000E+03    1.96979000E-03 
   9.49044000E+02    1.49613000E-02 
   2.18776000E+02    7.35006000E-02 
   6.36916000E+01    2.48937000E-01 
   1.88282000E+01    6.02460000E-01 
   2.72023000E+00    2.56202000E-01 
SP   3    1.000000
   3.06331000E+01    1.11906000E-01   3.83119000E-02 
   7.02614000E+00    9.21666000E-01   2.37403000E-01 
   2.11205000E+00   -2.56919000E-03   8.17592000E-01 
SP   1    1.000000
   6.84009000E-01    1.00000000E+00   1.00000000E+00 
SP   1    1.000000
   2.00878000E-01    1.00000000E+00   1.00000000E+00 
SP   1    1.000000
   6.39000000E-02    1.00000000E+00   1.00000000E+00 
D    1    1.000000
   9.13000000E-01    1.00000000E+00 

11    0
S    6    1.000000
   4.56324000E+03    1.96665000E-03 
   6.82024000E+02    1.52306000E-02 
   1.54973000E+02    7.61269000E-02 
   4.44553000E+01    2.60801000E-01 
   1.30290000E+01    6.16462000E-01 
   1.82773000E+00    2.21006000E-01 
SP   3    1.000000
   2.09642000E+01    1.14660000E-01   4.02487000E-02 
   4.80331000E+00    9.19999000E-01   2.37594000E-01 
   1.45933000E+00   -3.03068000E-03   8.15854000E-01 
SP   1    1.000000
   4.83456000E-01    1.00000000E+00   1.00000000E+00 
SP   1    1.000000
   1.45585000E-01    1.00000000E+00   1.00000000E+00 
SP   1    1.000000
   4.38000000E-02    1.00000000E+00   1.00000000E+00 
D    1    1.000000
   6.26000000E-01    1.00000000E+00 

12    0
S    3    1.000000
   3.38650000E+01    2.54938000E-02 
   5.09479000E+00    1.90373000E-01 
   1.15879000E+00    8.52161000E-01 
S    1    1.000000
   3.25840000E-01    1.00000000E+00 
S    1    1.000000
   1.02741000E-01    1.00000000E+00 
S    1    1.000000
   3.60000000E-02    1.00000000E+00 
P    1    1.000000
   7.50000000E-01    1.00000000E+00 

[MO]
Sym=X
Ene= -0.817293
Spin=Alpha
Occup=1
     1    7.305667405771e-08
     2    1.118026251951e-06
     3   -3.219190259552e-06
     4   -3.161847380632e-07
     5   -5.390977208613e-16
     6   -1.131661501265e-05
     7    1.009496238357e-05
     8   -1.087456523052e-06
     9    9.283521432463e-16
    10    6.210577872031e-04
    11    1.366048871901e-04
    12    2.574475723263e-04
    13   -5.645329597764e-15
    14   -8.419496234619e-05
    15   -3.161517101043e-04
    16    6.103701909055e-04
    17    2.184593941027e-14
    18   -9.024000319533e-07
    19   -8.682491096817e-16
    20   -9.379918257942e-16
    21    3.860525651332e-06
    22   -4.493557114752e-06
    23    3.171708302480e-07
    24   -5.148519096637e-06
    25    3.578105204347e-05
    26   -7.434194197310e-05
    27    3.406435155498e-06
    28   -9.499168493301e-07
    29    6.459975558380e-16
    30    2.905572228719e-06
    31   -3.096017269542e-06
    32    1.320814716600e-04
    33    3.097135428161e-04
    34   -5.797447064694e-06
    35   -6.476734988787e-07
    36   -9.276619938174e-16
    37   -1.727469257132e-06
    38   -7.337502922224e-05
    39   -1.043888532175e-04
    40   -9.272301058496e-05
    41    1.051343563549e-05
    42    6.718769422320e-06
    43   -4.427403858105e-16
    44    6.229348028674e-07
    45   -1.805635452237e-06
    46   -6.599904300609e-06
    47   -4.851556618025e-07
    48    9.224528590701e-16
    49    1.099437547501e-05
    50    3.247619831133e-05
    51    2.857666514998e-06
    52   -2.275933299146e-15
    53    3.115049622444e-04
    54    1.475874687601e-04
    55   -1.424369456007e-05
    56    1.817756534385e-15
    57    2.669128010099e-04
    58    4.920330777711e-06
    59    1.807478485870e-04
    60    9.960249011094e-15
    61   -4.522226927955e-06
    62    3.105893821566e-16
    63   -1.377347744621e-15
    64    7.019662714255e-06
    65    2.039439295706e-07
    66    2.602782495622e-06
    67    1.127073244955e-06
    68   -8.250586095400e-07
    69    2.633948432427e-07
    70   -2.091542132872e-16
    71    9.032106795711e-06
    72    3.682019901064e-06
    73   -6.130405558374e-07
    74   -1.941176827133e-16
    75   -2.727862843507e-05
    76   -1.821610801156e-05
    77    1.931315218890e-07
    78    2.521342752299e-15
    79    2.509989831871e-04
    80    1.390483041574e-04
    81   -4.493656404298e-05
    82   -3.152597748260e-15
    83   -3.261928405888e-07
    84    3.351661911796e-16
    85   -2.165614120520e-16
    86   -4.159579036639e-07
    87    8.834360242495e-08
    88   -5.251612515098e-06
    89    7.587808998999e-05
    90   -5.794240806678e-05
    91   -4.464837190446e-05
    92    1.057747494436e-15
    93   -3.118484661236e-04
    94   -3.438066248064e-04
    95   -2.112680356555e-04
    96   -1.642009343951e-15
    97    2.010927260896e-04
    98   -6.310861679339e-04
    99   -5.058452585917e-04
   100   -2.432663765539e-16
   101    2.195190430157e-03
   102    6.656419695685e-04
   103   -4.836939293095e-04
   104   -1.760182192362e-15
   105    5.255688202697e-05
   106   -9.343599477853e-16
   107    6.896628970206e-16
   108   -8.671811540154e-05
   109   -1.835792857947e-04
   110   -5.514845251299e-01
   111   -4.716808594527e-01
   112    1.528898195399e-03
   113    9.213520953771e-04
   114   -1.679415394338e-15
   115   -5.509679727489e-03
   116   -6.183687666357e-04
   117   -3.701993976747e-04
   118    2.548951440535e-15
   119    1.366043267665e-03
   120    1.135114618708e-04
   121    7.049862096910e-05
   122   -3.605663607754e-15
   123   -1.194935033189e-03
   124   -1.212357572373e-05
   125   -1.504973612792e-05
   126    6.256479038436e-15
   127    1.192573821300e-04
   128   -8.903154412974e-16
   129   -9.585306203916e-16
   130    3.750552582737e-05
   131    7.490554666538e-05
   132   -2.158706347164e-07
   133   -2.630319664605e-06
   134    1.047331505579e-05
   135   -6.658345152635e-07
   136   -5.929500744106e-16
   137    3.921952662541e-05
   138   -2.945596496564e-05
   139   -1.719851200356e-06
   140    5.320602017047e-16
   141   -3.645500910097e-04
   142    7.140147168165e-05
   143    3.036353346471e-04
   144   -1.591050953648e-16
   145    9.697991879822e-05
   146    5.999956858656e-04
   147    1.407603006975e-04
   148   -2.378015770006e-15
   149    8.889841817874e-06
   150   -6.025188047629e-16
   151    6.806353020065e-16
   152   -2.152402083668e-05
   153    1.163419458408e-05
   154    7.024726825083e-08
   155   -5.854261214474e-07
   156   -3.384824173924e-07
   157   -1.903688100160e-07
   158    1.216203161241e-15
   159    8.650149363097e-06
   160    1.297428494920e-06
   161    1.925044988847e-06
   162   -2.848113534497e-15
   163   -1.506013691120e-04
   164   -7.227788358554e-05
   165   -2.028088034553e-05
   166    7.070824947303e-15
   167   -2.164669273387e-04
   168    4.934340257572e-05
   169   -9.491032953412e-06
   170   -1.838677897961e-14
   171   -8.911957389637e-07
   172    1.711942393067e-15
   173   -1.160808307027e-16
   174   -6.992723832002e-07
   175    4.676530647006e-07
   176   -1.126290705074e-06
   177   -2.202027546693e-06
   178    3.230345161497e-06
   179    1.632390293829e-05
   180   -6.093343573374e-16
   181    3.049629972027e-05
   182   -1.406133488521e-06
   183   -7.333889249611e-05
   184    5.749262545759e-16
   185   -7.497895903246e-04
   186    6.119611010992e-04
   187   -1.586670874707e-04
   188    4.311696151479e-15
   189   -1.635270045913e-03
   190   -7.217543474606e-05
   191   -1.171919760372e-03
   192   -1.413107837822e-14
   193    6.326710936379e-06
   194   -9.679866781330e-16
   195   -1.011732049911e-15
   196    2.962828724837e-05
   197   -2.361458974803e-05
   198    3.714730933985e-06
   199   -1.323929678398e-04
   200   -1.926244118632e-04
   201   -3.698360735883e-04
   202    1.912127352641e-05
   203   -1.143504559496e-05
   204    7.605793424348e-16
Sym=X
Ene= 0.817293
Spin=Alpha
Occup=0
     1   -1.295368367470e-02
     2   -2.245400843073e-02
     3    9.863603535626e-03
     4   -2.449442401298e-02
     5    4.839065960093e-14
     6    6.802134142398e-02
     7    1.240061114941e-02
     8   -3.578154373512e-02
     9    1.066918783450e-13
    10    1.766483801232e-01
    11    4.613815692554e-02
    12   -1.699054056575e-01
    13    1.823568716205e-13
    14   -5.092534860201e+00
    15   -3.887185183088e-01
    16   -3.469658154913e+00
    17    3.834579116967e-13
    18   -8.956621314704e-04
    19   -1.190488948495e-14
    20   -4.375562987246e-15
    21    6.807881818653e-03
    22   -8.533285724122e-04
    23   -4.325611119754e-03
    24   -1.043972972454e-02
    25   -3.521288805951e-01
    26   -5.932122299414e-01
    27    7.695454464818e-03
    28    7.386939992572e-03
    29    5.580017474710e-15
    30    2.417381643116e-03
    31    2.844578201096e-03
    32   -3.930416357807e-01
    33   -3.175262431791e+00
    34    4.271355928703e-03
    35    7.409814043133e-03
    36    3.819015639114e-15
    37   -1.372819920296e-02
    38   -2.515705016294e-02
    39   -4.294845564615e-01
    40   -8.243775815295e-01
    41   -7.196397246364e-04
    42   -1.094287886900e-02
    43    4.537864087823e-15
    44   -4.399680698227e-04
    45   -1.118474802506e-03
    46    1.041861622796e-03
    47    4.787877522019e-03
    48   -3.055643586879e-14
    49    1.824094623426e-02
    50    6.297736618045e-03
    51    2.449457909310e-03
    52   -4.281296056697e-14
    53   -1.256330373505e-01
    54   -9.452786544776e-02
    55    6.196890762780e-02
    56   -1.356046131852e-13
    57    2.146292144691e+00
    58    5.490829301097e-01
    59   -3.133326402342e-01
    60   -1.550941372523e-13
    61   -3.334821391331e-03
    62    4.423438646329e-16
    63    7.844712819986e-15
    64   -5.933739125550e-03
    65    1.282714806168e-02
    66   -3.729218130727e-03
    67   -6.421911000655e-03
    68   -8.390714178356e-03
    69    4.679602754506e-03
    70    2.797934378612e-14
    71    1.962517516491e-02
    72   -1.022303771779e-02
    73    6.022500836668e-03
    74    2.918692242230e-14
    75    4.953257396225e-02
    76   -3.982675065156e-03
    77    5.156943850112e-04
    78    8.384207730758e-14
    79   -3.470774678363e-01
    80   -1.886771984241e-01
    81    1.378970124249e-01
    82    7.530170820837e-15
    83   -1.142555923851e-03
    84   -2.304746122569e-16
    85   -4.240021259876e-16
    86    1.067246816952e-03
    87   -1.487751541184e-03
    88   -6.540077352687e-03
    89   -1.178485856412e-02
    90    1.379767704273e-02
    91    1.435839057433e-04
    92   -4.237016686265e-14
    93    3.443164472232e-02
    94    2.634623521937e-02
    95    8.911648310267e-03
    96   -5.416984219514e-14
    97    1.578285481086e-01
    98    2.291278675689e-01
    99    1.411285291605e-01
   100   -6.417087930485e-14
   101   -5.687587493278e+00
   102    2.042043101755e+00
   103    9.205423202490e-01
   104    5.764982645226e-13
   105    6.124986945441e-03
   106    3.889269656497e-15
   107    1.167054427372e-14
   108   -1.103052733390e-02
   109   -8.089222972478e-03
   110    1.436258766655e-02
   111    2.554208950111e-02
   112   -2.002323981898e-02
   113    4.539420531304e-02
   114    9.498665721213e-15
   115   -8.995369000220e-02
   116   -2.730776100319e-02
   117    5.892737180500e-02
   118    4.129229137869e-14
   119   -2.018696542821e-01
   120    3.310062803534e-02
   121    8.178930326335e-02
   122    5.199802053195e-14
   123   -5.852478494998e-01
   124    1.090534166910e-02
   125    3.491394579980e-03
   126   -5.377831124035e-14
   127    6.165419925364e-04
   128   -1.428334193924e-15
   129    4.178083436869e-15
   130    2.426123535373e-03
   131   -6.013195730126e-04
   132   -9.942035890036e-03
   133   -1.721543206856e-02
   134   -1.331643051477e-02
   135    2.374816784972e-02
   136    1.790670484825e-14
   137    5.461436772123e-02
   138   -1.846603117804e-02
   139    3.681205173900e-02
   140    2.926237191151e-14
   141    1.952945029526e-01
   142   -5.508551581734e-02
   143    1.061146144990e-02
   144    1.419727360893e-13
   145    1.313293806472e+00
   146   -1.674536933749e-02
   147    3.518623857848e-01
   148   -2.178309820272e-13
   149    2.755128693335e-04
   150   -1.048289313437e-15
   151    4.687475734501e-15
   152    7.752320988910e-03
   153    5.063334700120e-04
   154   -1.190970709849e-02
   155   -2.045867577110e-02
   156   -2.408426020305e-02
   157   -4.769932170670e-03
   158   -3.934879013151e-14
   159    6.255213948569e-02
   160   -3.751725923349e-02
   161   -6.528867816729e-03
   162   -4.330040494397e-14
   163    2.161052086246e-01
   164   -2.354546291544e-02
   165    1.156622428911e-02
   166   -1.474909304831e-13
   167    1.244217990454e+00
   168   -3.657864752618e-01
   169    9.591650788170e-02
   170    2.434642996472e-13
   171   -1.572084400414e-03
   172    4.928854672161e-15
   173   -8.023703329781e-15
   174   -1.994355824353e-03
   175   -5.054822417656e-03
   176    4.897691879841e-03
   177    8.648250759335e-03
   178   -1.390270063451e-02
   179    6.336489862763e-03
   180   -6.198136429727e-14
   181   -2.418389350787e-02
   182   -1.298323425500e-02
   183    2.851940204434e-03
   184   -7.475105317595e-14
   185   -5.549720584834e-02
   186   -1.583957861221e-01
   187    1.319453723922e-01
   188   -2.098032637480e-13
   189    8.143186687594e+00
   190   -3.877370913234e+00
   191    2.781607195037e+00
   192   -4.932487302773e-13
   193   -5.794702019679e-04
   194   -7.960602342042e-15
   195   -1.413088225137e-14
   196   -7.476486629161e-04
   197    1.060323953667e-02
   198   -1.584111217278e-02
   199   -4.560036849106e-02
   200    4.108411867591e-01
   201    3.548047652553e+00
   202    4.717131044114e-03
   203    1.472899101189e-03
   204   -3.910470661593e-15
[5D]
