[Molden Format]
[Atoms] (Angs)
  C      1    6     -0.00714236     -1.70213747     -0.00000000
  H      2    1     -2.06882847     -1.44022412      0.00000000
  H      3    1     -0.12337987     -2.77567521      0.00000000
  H      4    1      0.04651892      1.98813947     -0.00000000
  C      5    6     -1.21953563      0.40211669      0.00000000
  O      6    8     -2.25921553      1.03043814      0.00000000
  C      7    6      1.28797806      0.34644937     -0.00000000
  O      8    8      2.31273661      1.00537216     -0.00000000
  N      9    7      0.03446295      0.97739857     -0.00000000
  N     10    7     -1.17287765     -0.98229824      0.00000000
  C     11    6      1.20107039     -1.10433419     -0.00000000
  H     12    1      2.11220096     -1.67699125     -0.00000000
[GTO]
1    0
S    6    1.000000
   4.56324000E+03    1.96665000E-03 
   6.82024000E+02    1.52306000E-02 
   1.54973000E+02    7.61269000E-02 
   4.44553000E+01    2.60801000E-01 
   1.30290000E+01    6.16462000E-01 
   1.82773000E+00    2.21006000E-01 
SP   3    1.000000
   2.09642000E+01    1.14660000E-01   4.02487000E-02 
   4.80331000E+00    9.19999000E-01   2.37594000E-01 
   1.45933000E+00   -3.03068000E-03   8.15854000E-01 
SP   1    1.000000
   4.83456000E-01    1.00000000E+00   1.00000000E+00 
SP   1    1.000000
   1.45585000E-01    1.00000000E+00   1.00000000E+00 
SP   1    1.000000
   4.38000000E-02    1.00000000E+00   1.00000000E+00 
D    1    1.000000
   6.26000000E-01    1.00000000E+00 

2    0
S    3    1.000000
   3.38650000E+01    2.54938000E-02 
   5.09479000E+00    1.90373000E-01 
   1.15879000E+00    8.52161000E-01 
S    1    1.000000
   3.25840000E-01    1.00000000E+00 
S    1    1.000000
   1.02741000E-01    1.00000000E+00 
S    1    1.000000
   3.60000000E-02    1.00000000E+00 
P    1    1.000000
   7.50000000E-01    1.00000000E+00 

3    0
S    3    1.000000
   3.38650000E+01    2.54938000E-02 
   5.09479000E+00    1.90373000E-01 
   1.15879000E+00    8.52161000E-01 
S    1    1.000000
   3.25840000E-01    1.00000000E+00 
S    1    1.000000
   1.02741000E-01    1.00000000E+00 
S    1    1.000000
   3.60000000E-02    1.00000000E+00 
P    1    1.000000
   7.50000000E-01    1.00000000E+00 

4    0
S    3    1.000000
   3.38650000E+01    2.54938000E-02 
   5.09479000E+00    1.90373000E-01 
   1.15879000E+00    8.52161000E-01 
S    1    1.000000
   3.25840000E-01    1.00000000E+00 
S    1    1.000000
   1.02741000E-01    1.00000000E+00 
S    1    1.000000
   3.60000000E-02    1.00000000E+00 
P    1    1.000000
   7.50000000E-01    1.00000000E+00 

5    0
S    6    1.000000
   4.56324000E+03    1.96665000E-03 
   6.82024000E+02    1.52306000E-02 
   1.54973000E+02    7.61269000E-02 
   4.44553000E+01    2.60801000E-01 
   1.30290000E+01    6.16462000E-01 
   1.82773000E+00    2.21006000E-01 
SP   3    1.000000
   2.09642000E+01    1.14660000E-01   4.02487000E-02 
   4.80331000E+00    9.19999000E-01   2.37594000E-01 
   1.45933000E+00   -3.03068000E-03   8.15854000E-01 
SP   1    1.000000
   4.83456000E-01    1.00000000E+00   1.00000000E+00 
SP   1    1.000000
   1.45585000E-01    1.00000000E+00   1.00000000E+00 
SP   1    1.000000
   4.38000000E-02    1.00000000E+00   1.00000000E+00 
D    1    1.000000
   6.26000000E-01    1.00000000E+00 

6    0
S    6    1.000000
   8.58850000E+03    1.89515000E-03 
   1.29723000E+03    1.43859000E-02 
   2.99296000E+02    7.07320000E-02 
   8.73771000E+01    2.40001000E-01 
   2.56789000E+01    5.94797000E-01 
   3.74004000E+00    2.80802000E-01 
SP   3    1.000000
   4.21175000E+01    1.13889000E-01   3.65114000E-02 
   9.62837000E+00    9.20811000E-01   2.37153000E-01 
   2.85332000E+00   -3.27447000E-03   8.19702000E-01 
SP   1    1.000000
   9.05661000E-01    1.00000000E+00   1.00000000E+00 
SP   1    1.000000
   2.55611000E-01    1.00000000E+00   1.00000000E+00 
SP   1    1.000000
   8.45000000E-02    1.00000000E+00   1.00000000E+00 
D    1    1.000000
   1.29200000E+00    1.00000000E+00 

7    0
S    6    1.000000
   4.56324000E+03    1.96665000E-03 
   6.82024000E+02    1.52306000E-02 
   1.54973000E+02    7.61269000E-02 
   4.44553000E+01    2.60801000E-01 
   1.30290000E+01    6.16462000E-01 
   1.82773000E+00    2.21006000E-01 
SP   3    1.000000
   2.09642000E+01    1.14660000E-01   4.02487000E-02 
   4.80331000E+00    9.19999000E-01   2.37594000E-01 
   1.45933000E+00   -3.03068000E-03   8.15854000E-01 
SP   1    1.000000
   4.83456000E-01    1.00000000E+00   1.00000000E+00 
SP   1    1.000000
   1.45585000E-01    1.00000000E+00   1.00000000E+00 
SP   1    1.000000
   4.38000000E-02    1.00000000E+00   1.00000000E+00 
D    1    1.000000
   6.26000000E-01    1.00000000E+00 

8    0
S    6    1.000000
   8.58850000E+03    1.89515000E-03 
   1.29723000E+03    1.43859000E-02 
   2.99296000E+02    7.07320000E-02 
   8.73771000E+01    2.40001000E-01 
   2.56789000E+01    5.94797000E-01 
   3.74004000E+00    2.80802000E-01 
SP   3    1.000000
   4.21175000E+01    1.13889000E-01   3.65114000E-02 
   9.62837000E+00    9.20811000E-01   2.37153000E-01 
   2.85332000E+00   -3.27447000E-03   8.19702000E-01 
SP   1    1.000000
   9.05661000E-01    1.00000000E+00   1.00000000E+00 
SP   1    1.000000
   2.55611000E-01    1.00000000E+00   1.00000000E+00 
SP   1    1.000000
   8.45000000E-02    1.00000000E+00   1.00000000E+00 
D    1    1.000000
   1.29200000E+00    1.00000000E+00 

9    0
S    6    1.000000
   6.29348000E+03    1.96979000E-03 
   9.49044000E+02    1.49613000E-02 
   2.18776000E+02    7.35006000E-02 
   6.36916000E+01    2.48937000E-01 
   1.88282000E+01    6.02460000E-01 
   2.72023000E+00    2.56202000E-01 
SP   3    1.000000
   3.06331000E+01    1.11906000E-01   3.83119000E-02 
   7.02614000E+00    9.21666000E-01   2.37403000E-01 
   2.11205000E+00   -2.56919000E-03   8.17592000E-01 
SP   1    1.000000
   6.84009000E-01    1.00000000E+00   1.00000000E+00 
SP   1    1.000000
   2.00878000E-01    1.00000000E+00   1.00000000E+00 
SP   1    1.000000
   6.39000000E-02    1.00000000E+00   1.00000000E+00 
D    1    1.000000
   9.13000000E-01    1.00000000E+00 

10    0
S    6    1.000000
   6.29348000E+03    1.96979000E-03 
   9.49044000E+02    1.49613000E-02 
   2.18776000E+02    7.35006000E-02 
   6.36916000E+01    2.48937000E-01 
   1.88282000E+01    6.02460000E-01 
   2.72023000E+00    2.56202000E-01 
SP   3    1.000000
   3.06331000E+01    1.11906000E-01   3.83119000E-02 
   7.02614000E+00    9.21666000E-01   2.37403000E-01 
   2.11205000E+00   -2.56919000E-03   8.17592000E-01 
SP   1    1.000000
   6.84009000E-01    1.00000000E+00   1.00000000E+00 
SP   1    1.000000
   2.00878000E-01    1.00000000E+00   1.00000000E+00 
SP   1    1.000000
   6.39000000E-02    1.00000000E+00   1.00000000E+00 
D    1    1.000000
   9.13000000E-01    1.00000000E+00 

11    0
S    6    1.000000
   4.56324000E+03    1.96665000E-03 
   6.82024000E+02    1.52306000E-02 
   1.54973000E+02    7.61269000E-02 
   4.44553000E+01    2.60801000E-01 
   1.30290000E+01    6.16462000E-01 
   1.82773000E+00    2.21006000E-01 
SP   3    1.000000
   2.09642000E+01    1.14660000E-01   4.02487000E-02 
   4.80331000E+00    9.19999000E-01   2.37594000E-01 
   1.45933000E+00   -3.03068000E-03   8.15854000E-01 
SP   1    1.000000
   4.83456000E-01    1.00000000E+00   1.00000000E+00 
SP   1    1.000000
   1.45585000E-01    1.00000000E+00   1.00000000E+00 
SP   1    1.000000
   4.38000000E-02    1.00000000E+00   1.00000000E+00 
D    1    1.000000
   6.26000000E-01    1.00000000E+00 

12    0
S    3    1.000000
   3.38650000E+01    2.54938000E-02 
   5.09479000E+00    1.90373000E-01 
   1.15879000E+00    8.52161000E-01 
S    1    1.000000
   3.25840000E-01    1.00000000E+00 
S    1    1.000000
   1.02741000E-01    1.00000000E+00 
S    1    1.000000
   3.60000000E-02    1.00000000E+00 
P    1    1.000000
   7.50000000E-01    1.00000000E+00 

[MO]
Sym=X
Ene= -0.777800
Spin=Alpha
Occup=1
     1   -6.821276825372e-08
     2   -1.099055282529e-06
     3    3.205353388314e-06
     4    3.379452739063e-07
     5    5.388754355152e-16
     6    1.074850327436e-05
     7   -1.018143896850e-05
     8    1.133595471074e-06
     9   -9.282742684246e-16
    10   -6.216168228251e-04
    11   -1.369074824675e-04
    12   -2.582960123812e-04
    13    5.645131538618e-15
    14    8.054708049901e-05
    15    3.154467623523e-04
    16   -6.116983203042e-04
    17   -2.184263879562e-14
    18    9.277489599788e-07
    19    8.682844243234e-16
    20    9.378760300191e-16
    21   -3.944089091953e-06
    22    4.566563224100e-06
    23    1.029314904475e-07
    24    5.956838163302e-06
    25   -3.581017648250e-05
    26    7.431616738970e-05
    27   -3.364724817955e-06
    28    9.697837627606e-07
    29   -6.459249602298e-16
    30   -2.514747926874e-06
    31    3.854412192457e-06
    32   -1.320101897065e-04
    33   -3.102310345828e-04
    34    5.768921696416e-06
    35    6.279152883472e-07
    36    9.278674465171e-16
    37    2.099574647761e-06
    38    7.418586415634e-05
    39    1.044078984135e-04
    40    9.231292359619e-05
    41   -1.051793081536e-05
    42   -6.770686997895e-06
    43    4.427291597753e-16
    44   -6.618446472700e-07
    45    1.743855699548e-06
    46    7.018441346499e-06
    47    3.552956708998e-07
    48   -9.224429454331e-16
    49   -1.097845040951e-05
    50   -3.173877776044e-05
    51   -3.090530618582e-06
    52    2.275736008236e-15
    53   -3.114966238463e-04
    54   -1.470866470069e-04
    55    1.399020256303e-05
    56   -1.816410547923e-15
    57   -2.665142742590e-04
    58   -4.864184837938e-06
    59   -1.807470907417e-04
    60   -9.962000135756e-15
    61    4.554537232073e-06
    62   -3.106208251186e-16
    63    1.377446113944e-15
    64   -6.986359759940e-06
    65   -1.144987705087e-07
    66   -4.726778595171e-06
    67   -3.004940229530e-06
    68    4.227922692946e-07
    69   -2.367783446928e-07
    70    2.090712622323e-16
    71   -8.911347649503e-06
    72   -4.292321451636e-06
    73    6.480032633260e-07
    74    1.941667742764e-16
    75    2.846370615143e-05
    76    1.765165249327e-05
    77   -2.329386009630e-07
    78   -2.521950214925e-15
    79   -2.506208616736e-04
    80   -1.390606293233e-04
    81    4.495317412329e-05
    82    3.153954543443e-15
    83    3.458559015420e-07
    84   -3.352537227005e-16
    85    2.164284791353e-16
    86    3.861472716342e-07
    87   -5.100632675273e-08
    88    5.252259004732e-06
    89   -7.587398966803e-05
    90    5.788512335226e-05
    91    4.456241507241e-05
    92   -1.057859570448e-15
    93    3.117091089795e-04
    94    3.436979348188e-04
    95    2.110139541961e-04
    96    1.642111418048e-15
    97   -2.009553805530e-04
    98    6.309823033533e-04
    99    5.068100062875e-04
   100    2.441003600535e-16
   101   -2.198691719797e-03
   102   -6.660351595766e-04
   103    4.852161909923e-04
   104    1.761952284244e-15
   105   -5.259094106557e-05
   106    9.342638211375e-16
   107   -6.895474782161e-16
   108    8.628294136726e-05
   109    1.839021119791e-04
   110    5.514845391391e-01
   111    4.716808876284e-01
   112   -1.529672606182e-03
   113   -9.206178051351e-04
   114    1.679581509077e-15
   115    5.510059275480e-03
   116    6.170224425794e-04
   117    3.714907545139e-04
   118   -2.548732480046e-15
   119   -1.367251615427e-03
   120   -1.153050175165e-04
   121   -6.828359071010e-05
   122    3.605352430033e-15
   123    1.194707688298e-03
   124    1.207055640416e-05
   125    1.528105119754e-05
   126   -6.257619392656e-15
   127   -1.192653084987e-04
   128    8.904082738461e-16
   129    9.583475740613e-16
   130   -3.743102624882e-05
   131   -7.496158721736e-05
   132    3.267141090075e-07
   133    2.824048407516e-06
   134   -1.088889023172e-05
   135    6.073177631584e-07
   136    5.929013487237e-16
   137   -4.016931602142e-05
   138    2.883818613054e-05
   139    1.550001817564e-06
   140   -5.316629370159e-16
   141    3.636378018015e-04
   142   -7.247293671482e-05
   143   -3.033352053996e-04
   144    1.573207427273e-16
   145   -9.822896933645e-05
   146   -5.998668547688e-04
   147   -1.402640466222e-04
   148    2.379325799475e-15
   149   -8.932160819922e-06
   150    6.025406788355e-16
   151   -6.806431687930e-16
   152    2.146856691997e-05
   153   -1.164452855095e-05
   154   -2.068082036097e-08
   155    6.763003785458e-07
   156    3.407812574559e-07
   157    2.451034183162e-07
   158   -1.216068781978e-15
   159   -9.420167134463e-06
   160   -1.263021672606e-06
   161   -1.826603459667e-06
   162    2.848237725034e-15
   163    1.507399021631e-04
   164    7.204373214731e-05
   165    2.026164571898e-05
   166   -7.070694871119e-15
   167    2.170240652632e-04
   168   -4.951667139002e-05
   169    9.807178563356e-06
   170    1.838427279927e-14
   171    8.757470611694e-07
   172   -1.712036700181e-15
   173    1.160963546123e-16
   174    6.852792067474e-07
   175   -4.124596393775e-07
   176    9.950355775789e-07
   177    1.979520854312e-06
   178   -3.381551954369e-06
   179   -1.593833246068e-05
   180    6.095751614665e-16
   181   -2.978431220511e-05
   182    1.170597934001e-06
   183    7.381554331327e-05
   184   -5.746307539246e-16
   185    7.521103072276e-04
   186   -6.129903641243e-04
   187    1.598963291996e-04
   188   -4.311888845839e-15
   189    1.642757184505e-03
   190    7.078611861492e-05
   191    1.173221613485e-03
   192    1.412822318252e-14
   193   -6.325776574937e-06
   194    9.682086283548e-16
   195    1.011719307627e-15
   196   -2.959685775146e-05
   197    2.348854918032e-05
   198   -3.927637881388e-06
   199    1.319187472886e-04
   200    1.926910616579e-04
   201    3.705071272935e-04
   202   -1.913568521386e-05
   203    1.139907033264e-05
   204   -7.605596748992e-16
Sym=X
Ene= 0.777800
Spin=Alpha
Occup=0
     1    1.799181708915e-15
     2    2.504687407794e-15
     3    1.349476438989e-15
     4   -5.824905342174e-15
     5   -1.285327016978e-01
     6   -2.367610620756e-14
     7    2.961232570183e-14
     8   -9.251384900799e-15
     9   -2.067714725946e-01
    10    3.304857725852e-13
    11   -1.650510410573e-13
    12    5.730802299388e-15
    13   -4.254662323227e-01
    14    2.082726101315e-11
    15    1.469763965718e-12
    16    2.893031241987e-12
    17   -6.711206155521e-01
    18    1.225879440122e-14
    19    2.421504150331e-02
    20    8.166912282279e-03
    21   -6.719522276752e-15
    22    2.986714390901e-18
    23   -5.681491989708e-15
    24   -4.071133275102e-14
    25   -3.204267861735e-13
    26    2.207298482958e-12
    27   -2.030221858084e-14
    28   -1.366339783218e-14
    29   -7.863826205057e-04
    30   -1.566661883181e-14
    31   -4.566986483694e-14
    32   -3.964917819567e-13
    33   -3.747390373862e-12
    34    2.344662846576e-15
    35   -2.008923314853e-15
    36   -1.491491625771e-02
    37    1.958003674596e-15
    38    5.786952112864e-14
    39   -4.206561394879e-13
    40   -8.975557109265e-13
    41   -3.632026296638e-17
    42    7.201205131509e-15
    43   -6.050974870944e-03
    44    1.463103552348e-16
    45    1.741860345129e-15
    46   -9.854342706063e-15
    47    1.153053098448e-14
    48    1.165239929460e-01
    49    1.095592668587e-14
    50    1.103578699161e-14
    51   -2.342027208834e-14
    52    1.889536535688e-01
    53   -1.216465689663e-13
    54    5.512148755967e-14
    55    5.025853902139e-13
    56    3.681050168974e-01
    57   -8.928812383062e-12
    58   -5.171651646617e-13
    59    3.368596923038e-12
    60    2.379602212689e-01
    61   -2.775573875487e-15
    62    2.323612042725e-02
    63   -2.084578992982e-02
    64   -3.543478619239e-15
    65   -3.042113160444e-15
    66   -2.808355464750e-15
    67   -2.559687773722e-15
    68    1.775580823970e-15
    69    3.917635497683e-16
    70   -8.672922559353e-02
    71    3.461991232713e-15
    72    1.366598848474e-14
    73    4.990834355950e-15
    74   -1.273193108269e-01
    75    4.547196069228e-14
    76   -2.100710492363e-14
    77   -5.983327464659e-14
    78   -1.899839567809e-01
    79   -5.202072563558e-13
    80   -2.986120023019e-13
    81    2.570228749565e-13
    82   -1.793445970203e-01
    83   -2.829707035246e-15
    84    2.834225150233e-03
    85   -2.413238200596e-03
    86    4.672907276782e-15
    87   -3.619522831090e-15
    88   -8.964768415423e-16
    89   -5.742807727370e-15
    90   -4.404124754599e-15
    91   -5.780398896607e-15
    92   -9.627317112700e-02
    93    4.336166602503e-14
    94   -6.081663762506e-15
    95   -9.739008502853e-15
    96   -1.679980806857e-01
    97   -5.573317582406e-13
    98    1.485779379728e-13
    99   -1.441564251152e-13
   100   -2.680233455815e-01
   101    9.869234906992e-12
   102    1.205614137001e-12
   103   -2.227702357775e-12
   104    2.310089199843e-01
   105   -2.659947671147e-15
   106    1.252423750630e-02
   107   -4.408510191437e-02
   108   -7.926583447756e-15
   109    7.510305135327e-15
   110    5.242182153973e-16
   111    2.746354303673e-15
   112   -1.548673116648e-14
   113    9.884578468952e-15
   114    2.380194152007e-02
   115   -1.665126115242e-14
   116   -1.792803290908e-14
   117   -3.241082918144e-15
   118    2.797097787039e-02
   119    9.567548173528e-14
   120   -3.269443124545e-14
   121    4.555332335090e-14
   122    5.765991960231e-02
   123   -5.475242481057e-13
   124   -2.211284216530e-13
   125   -1.033204748372e-13
   126    3.911182189496e-02
   127    3.227531157104e-15
   128    1.093229321048e-02
   129    1.682443706417e-03
   130    2.041693298486e-15
   131    5.121438027703e-16
   132   -4.264228947045e-15
   133   -8.345678669010e-15
   134   -7.134487330900e-15
   135    2.334963096209e-14
   136   -4.015865605067e-02
   137    2.920160401172e-14
   138   -1.201326400758e-14
   139    3.810181584834e-14
   140   -6.514721554604e-02
   141   -5.642978515685e-15
   142    1.595620995337e-13
   143   -4.005399329682e-14
   144   -7.796207317060e-02
   145    2.304439478593e-12
   146   -6.614713717161e-14
   147   -1.547395990011e-13
   148   -2.920472993037e-01
   149   -1.314260329740e-14
   150   -2.299439894395e-02
   151   -4.398940036334e-03
   152   -1.326086365226e-15
   153   -9.782148985687e-15
   154   -4.153061199478e-16
   155    2.089673950956e-15
   156    5.021007740077e-15
   157    1.540115790849e-14
   158    1.190865169079e-02
   159   -1.271796463008e-14
   160    1.064953725799e-14
   161    3.251856082057e-14
   162    1.800536447533e-02
   163    1.972031390220e-13
   164   -8.790550697783e-14
   165    9.117175922698e-14
   166    3.580413215242e-02
   167    3.649842842986e-13
   168   -1.916278631326e-12
   169    2.386875132893e-12
   170    6.218316340150e-02
   171   -9.149252885039e-15
   172   -1.098713362506e-02
   173    2.364628387473e-02
   174    1.385458663868e-14
   175   -3.475563520932e-15
   176    1.074942117321e-14
   177    1.179995074171e-14
   178   -4.725054611934e-15
   179    2.276761589273e-14
   180    1.156937120420e-01
   181   -2.449569158569e-14
   182    2.512141704588e-16
   183   -1.292254618675e-14
   184    1.847367515587e-01
   185   -2.586455562547e-13
   186   -8.812935033294e-14
   187    2.962349944704e-13
   188    4.107676091149e-01
   189   -2.175289707211e-11
   190    7.493774188515e-13
   191   -2.517241928294e-12
   192    7.729897524618e-01
   193    6.457162288167e-15
   194    2.556232306735e-02
   195    7.117161603103e-03
   196   -9.200228188639e-15
   197   -2.402774000206e-15
   198   -1.676715272363e-15
   199    7.129281529487e-15
   200    6.489002298385e-13
   201    1.601957579573e-12
   202    2.065374737296e-15
   203    1.652860541744e-15
   204    1.842221738847e-02
[5D]
