[Molden Format]
[Atoms] (Angs)
  C      1    6     -0.00714236     -1.70213747     -0.00000000
  H      2    1     -2.06882847     -1.44022412      0.00000000
  H      3    1     -0.12337987     -2.77567521      0.00000000
  H      4    1      0.04651892      1.98813947     -0.00000000
  C      5    6     -1.21953563      0.40211669      0.00000000
  O      6    8     -2.25921553      1.03043814      0.00000000
  C      7    6      1.28797806      0.34644937     -0.00000000
  O      8    8      2.31273661      1.00537216     -0.00000000
  N      9    7      0.03446295      0.97739857     -0.00000000
  N     10    7     -1.17287765     -0.98229824      0.00000000
  C     11    6      1.20107039     -1.10433419     -0.00000000
  H     12    1      2.11220096     -1.67699125     -0.00000000
[GTO]
1    0
S    6    1.000000
   4.56324000E+03    1.96665000E-03 
   6.82024000E+02    1.52306000E-02 
   1.54973000E+02    7.61269000E-02 
   4.44553000E+01    2.60801000E-01 
   1.30290000E+01    6.16462000E-01 
   1.82773000E+00    2.21006000E-01 
SP   3    1.000000
   2.09642000E+01    1.14660000E-01   4.02487000E-02 
   4.80331000E+00    9.19999000E-01   2.37594000E-01 
   1.45933000E+00   -3.03068000E-03   8.15854000E-01 
SP   1    1.000000
   4.83456000E-01    1.00000000E+00   1.00000000E+00 
SP   1    1.000000
   1.45585000E-01    1.00000000E+00   1.00000000E+00 
SP   1    1.000000
   4.38000000E-02    1.00000000E+00   1.00000000E+00 
D    1    1.000000
   6.26000000E-01    1.00000000E+00 

2    0
S    3    1.000000
   3.38650000E+01    2.54938000E-02 
   5.09479000E+00    1.90373000E-01 
   1.15879000E+00    8.52161000E-01 
S    1    1.000000
   3.25840000E-01    1.00000000E+00 
S    1    1.000000
   1.02741000E-01    1.00000000E+00 
S    1    1.000000
   3.60000000E-02    1.00000000E+00 
P    1    1.000000
   7.50000000E-01    1.00000000E+00 

3    0
S    3    1.000000
   3.38650000E+01    2.54938000E-02 
   5.09479000E+00    1.90373000E-01 
   1.15879000E+00    8.52161000E-01 
S    1    1.000000
   3.25840000E-01    1.00000000E+00 
S    1    1.000000
   1.02741000E-01    1.00000000E+00 
S    1    1.000000
   3.60000000E-02    1.00000000E+00 
P    1    1.000000
   7.50000000E-01    1.00000000E+00 

4    0
S    3    1.000000
   3.38650000E+01    2.54938000E-02 
   5.09479000E+00    1.90373000E-01 
   1.15879000E+00    8.52161000E-01 
S    1    1.000000
   3.25840000E-01    1.00000000E+00 
S    1    1.000000
   1.02741000E-01    1.00000000E+00 
S    1    1.000000
   3.60000000E-02    1.00000000E+00 
P    1    1.000000
   7.50000000E-01    1.00000000E+00 

5    0
S    6    1.000000
   4.56324000E+03    1.96665000E-03 
   6.82024000E+02    1.52306000E-02 
   1.54973000E+02    7.61269000E-02 
   4.44553000E+01    2.60801000E-01 
   1.30290000E+01    6.16462000E-01 
   1.82773000E+00    2.21006000E-01 
SP   3    1.000000
   2.09642000E+01    1.14660000E-01   4.02487000E-02 
   4.80331000E+00    9.19999000E-01   2.37594000E-01 
   1.45933000E+00   -3.03068000E-03   8.15854000E-01 
SP   1    1.000000
   4.83456000E-01    1.00000000E+00   1.00000000E+00 
SP   1    1.000000
   1.45585000E-01    1.00000000E+00   1.00000000E+00 
SP   1    1.000000
   4.38000000E-02    1.00000000E+00   1.00000000E+00 
D    1    1.000000
   6.26000000E-01    1.00000000E+00 

6    0
S    6    1.000000
   8.58850000E+03    1.89515000E-03 
   1.29723000E+03    1.43859000E-02 
   2.99296000E+02    7.07320000E-02 
   8.73771000E+01    2.40001000E-01 
   2.56789000E+01    5.94797000E-01 
   3.74004000E+00    2.80802000E-01 
SP   3    1.000000
   4.21175000E+01    1.13889000E-01   3.65114000E-02 
   9.62837000E+00    9.20811000E-01   2.37153000E-01 
   2.85332000E+00   -3.27447000E-03   8.19702000E-01 
SP   1    1.000000
   9.05661000E-01    1.00000000E+00   1.00000000E+00 
SP   1    1.000000
   2.55611000E-01    1.00000000E+00   1.00000000E+00 
SP   1    1.000000
   8.45000000E-02    1.00000000E+00   1.00000000E+00 
D    1    1.000000
   1.29200000E+00    1.00000000E+00 

7    0
S    6    1.000000
   4.56324000E+03    1.96665000E-03 
   6.82024000E+02    1.52306000E-02 
   1.54973000E+02    7.61269000E-02 
   4.44553000E+01    2.60801000E-01 
   1.30290000E+01    6.16462000E-01 
   1.82773000E+00    2.21006000E-01 
SP   3    1.000000
   2.09642000E+01    1.14660000E-01   4.02487000E-02 
   4.80331000E+00    9.19999000E-01   2.37594000E-01 
   1.45933000E+00   -3.03068000E-03   8.15854000E-01 
SP   1    1.000000
   4.83456000E-01    1.00000000E+00   1.00000000E+00 
SP   1    1.000000
   1.45585000E-01    1.00000000E+00   1.00000000E+00 
SP   1    1.000000
   4.38000000E-02    1.00000000E+00   1.00000000E+00 
D    1    1.000000
   6.26000000E-01    1.00000000E+00 

8    0
S    6    1.000000
   8.58850000E+03    1.89515000E-03 
   1.29723000E+03    1.43859000E-02 
   2.99296000E+02    7.07320000E-02 
   8.73771000E+01    2.40001000E-01 
   2.56789000E+01    5.94797000E-01 
   3.74004000E+00    2.80802000E-01 
SP   3    1.000000
   4.21175000E+01    1.13889000E-01   3.65114000E-02 
   9.62837000E+00    9.20811000E-01   2.37153000E-01 
   2.85332000E+00   -3.27447000E-03   8.19702000E-01 
SP   1    1.000000
   9.05661000E-01    1.00000000E+00   1.00000000E+00 
SP   1    1.000000
   2.55611000E-01    1.00000000E+00   1.00000000E+00 
SP   1    1.000000
   8.45000000E-02    1.00000000E+00   1.00000000E+00 
D    1    1.000000
   1.29200000E+00    1.00000000E+00 

9    0
S    6    1.000000
   6.29348000E+03    1.96979000E-03 
   9.49044000E+02    1.49613000E-02 
   2.18776000E+02    7.35006000E-02 
   6.36916000E+01    2.48937000E-01 
   1.88282000E+01    6.02460000E-01 
   2.72023000E+00    2.56202000E-01 
SP   3    1.000000
   3.06331000E+01    1.11906000E-01   3.83119000E-02 
   7.02614000E+00    9.21666000E-01   2.37403000E-01 
   2.11205000E+00   -2.56919000E-03   8.17592000E-01 
SP   1    1.000000
   6.84009000E-01    1.00000000E+00   1.00000000E+00 
SP   1    1.000000
   2.00878000E-01    1.00000000E+00   1.00000000E+00 
SP   1    1.000000
   6.39000000E-02    1.00000000E+00   1.00000000E+00 
D    1    1.000000
   9.13000000E-01    1.00000000E+00 

10    0
S    6    1.000000
   6.29348000E+03    1.96979000E-03 
   9.49044000E+02    1.49613000E-02 
   2.18776000E+02    7.35006000E-02 
   6.36916000E+01    2.48937000E-01 
   1.88282000E+01    6.02460000E-01 
   2.72023000E+00    2.56202000E-01 
SP   3    1.000000
   3.06331000E+01    1.11906000E-01   3.83119000E-02 
   7.02614000E+00    9.21666000E-01   2.37403000E-01 
   2.11205000E+00   -2.56919000E-03   8.17592000E-01 
SP   1    1.000000
   6.84009000E-01    1.00000000E+00   1.00000000E+00 
SP   1    1.000000
   2.00878000E-01    1.00000000E+00   1.00000000E+00 
SP   1    1.000000
   6.39000000E-02    1.00000000E+00   1.00000000E+00 
D    1    1.000000
   9.13000000E-01    1.00000000E+00 

11    0
S    6    1.000000
   4.56324000E+03    1.96665000E-03 
   6.82024000E+02    1.52306000E-02 
   1.54973000E+02    7.61269000E-02 
   4.44553000E+01    2.60801000E-01 
   1.30290000E+01    6.16462000E-01 
   1.82773000E+00    2.21006000E-01 
SP   3    1.000000
   2.09642000E+01    1.14660000E-01   4.02487000E-02 
   4.80331000E+00    9.19999000E-01   2.37594000E-01 
   1.45933000E+00   -3.03068000E-03   8.15854000E-01 
SP   1    1.000000
   4.83456000E-01    1.00000000E+00   1.00000000E+00 
SP   1    1.000000
   1.45585000E-01    1.00000000E+00   1.00000000E+00 
SP   1    1.000000
   4.38000000E-02    1.00000000E+00   1.00000000E+00 
D    1    1.000000
   6.26000000E-01    1.00000000E+00 

12    0
S    3    1.000000
   3.38650000E+01    2.54938000E-02 
   5.09479000E+00    1.90373000E-01 
   1.15879000E+00    8.52161000E-01 
S    1    1.000000
   3.25840000E-01    1.00000000E+00 
S    1    1.000000
   1.02741000E-01    1.00000000E+00 
S    1    1.000000
   3.60000000E-02    1.00000000E+00 
P    1    1.000000
   7.50000000E-01    1.00000000E+00 

[MO]
Sym=X
Ene= -0.817779
Spin=Alpha
Occup=1
     1    8.786871854708e-08
     2    1.137407897902e-06
     3   -3.124264123342e-06
     4   -2.434023148678e-07
     5   -5.389022045880e-16
     6   -1.095326526491e-05
     7    1.030828503580e-05
     8   -9.938984039964e-07
     9    9.280744460980e-16
    10    6.213785328504e-04
    11    1.369488230724e-04
    12    2.582228903854e-04
    13   -5.644715111084e-15
    14   -8.073680019458e-05
    15   -3.154494955669e-04
    16    6.118572024093e-04
    17    2.184312608068e-14
    18   -1.038647140298e-06
    19   -8.682310177672e-16
    20   -9.378013487016e-16
    21    3.889824238171e-06
    22   -4.570330936675e-06
    23   -1.875176365769e-07
    24   -6.052203632391e-06
    25    3.575545416214e-05
    26   -7.426024843480e-05
    27    3.368989705709e-06
    28   -9.691983068661e-07
    29    6.459914480521e-16
    30    2.656798964519e-06
    31   -3.560882396162e-06
    32    1.321603137261e-04
    33    3.103546181542e-04
    34   -5.754939348357e-06
    35   -6.434517913600e-07
    36   -9.278093011944e-16
    37   -1.750825038897e-06
    38   -7.341142529282e-05
    39   -1.043832610032e-04
    40   -9.240442822445e-05
    41    1.051184371632e-05
    42    6.709502745817e-06
    43   -4.426130828988e-16
    44    7.312816040411e-07
    45   -1.622850854502e-06
    46   -6.990473231903e-06
    47   -4.376796100249e-07
    48    9.223820475620e-16
    49    1.056718710063e-05
    50    3.177192294241e-05
    51    2.938705401505e-06
    52   -2.275831236656e-15
    53    3.112336448052e-04
    54    1.472766907952e-04
    55   -1.379054824815e-05
    56    1.817296582596e-15
    57    2.667542021408e-04
    58    5.156525983163e-06
    59    1.808733478096e-04
    60    9.963040020392e-15
    61   -4.630282833080e-06
    62    3.105055663964e-16
    63   -1.377463514983e-15
    64    6.888549987815e-06
    65    2.157360972352e-08
    66    3.142797955406e-05
    67    2.581574502265e-05
    68   -1.805458907230e-07
    69    4.419158365374e-07
    70   -2.090058341938e-16
    71    9.405485885417e-06
    72    4.518648623729e-06
    73   -2.058894897868e-07
    74   -1.939555226200e-16
    75   -2.839067510812e-05
    76   -1.732834308726e-05
    77    8.486411998982e-07
    78    2.521384689710e-15
    79    2.508672006748e-04
    80    1.391035188867e-04
    81   -4.487661054885e-05
    82   -3.154736623325e-15
    83   -3.591430775712e-07
    84    3.352842281499e-16
    85   -2.163775774883e-16
    86   -3.853574053176e-07
    87    7.540753345218e-08
    88   -5.123849268977e-06
    89    7.610824037443e-05
    90   -5.811289480151e-05
    91   -4.470773684551e-05
    92    1.057953629140e-15
    93   -3.124059387707e-04
    94   -3.441737426869e-04
    95   -2.113462467882e-04
    96   -1.641598858782e-15
    97    2.002426523153e-04
    98   -6.313878466685e-04
    99   -5.070207134730e-04
   100   -2.442954226244e-16
   101    2.198747781195e-03
   102    6.660830787315e-04
   103   -4.852465569444e-04
   104   -1.764842113101e-15
   105    5.246818157815e-05
   106   -9.342758907417e-16
   107    6.895944939082e-16
   108   -8.630059141933e-05
   109   -1.838406936311e-04
   110   -5.514846422870e-01
   111   -4.716810627257e-01
   112    1.529553725858e-03
   113    9.205689063782e-04
   114   -1.679496122104e-15
   115   -5.509405491584e-03
   116   -6.171881197014e-04
   117   -3.715086896938e-04
   118    2.548897685120e-15
   119    1.367922765477e-03
   120    1.152576383274e-04
   121    6.860157096016e-05
   122   -3.606391756448e-15
   123   -1.194128963561e-03
   124   -1.219810118316e-05
   125   -1.532798623747e-05
   126    6.259573855120e-15
   127    1.192419114881e-04
   128   -8.904261385277e-16
   129   -9.582611886756e-16
   130    3.740383611222e-05
   131    7.492310237225e-05
   132   -3.084161432376e-07
   133   -2.789955247919e-06
   134    1.093351349147e-05
   135   -7.721477200297e-07
   136   -5.929046376447e-16
   137    4.007178092265e-05
   138   -2.880570939549e-05
   139   -1.861817724592e-06
   140    5.316199935914e-16
   141   -3.641136357966e-04
   142    7.269228362083e-05
   143    3.034637401575e-04
   144   -1.578970224678e-16
   145    9.762565276707e-05
   146    5.999384892747e-04
   147    1.405081574752e-04
   148   -2.378166410244e-15
   149    8.836114562746e-06
   150   -6.024809174355e-16
   151    6.805695674614e-16
   152   -2.155528000185e-05
   153    1.163039637167e-05
   154   -2.477174584169e-08
   155   -7.518188893966e-07
   156   -3.215487225049e-07
   157   -1.361820786781e-07
   158    1.215974733648e-15
   159    9.778608086039e-06
   160    1.266679398203e-06
   161    1.959830351630e-06
   162   -2.848540402541e-15
   163   -1.503927262141e-04
   164   -7.183335140448e-05
   165   -1.988553044362e-05
   166    7.071457352484e-15
   167   -2.167655213244e-04
   168    4.953960297104e-05
   169   -9.759139862376e-06
   170   -1.838608221224e-14
   171   -9.246445630277e-07
   172    1.712010246868e-15
   173   -1.161113528031e-16
   174   -6.528991004386e-07
   175    4.397785634291e-07
   176   -9.924782640286e-07
   177   -1.971842485892e-06
   178    3.193295056036e-06
   179    1.596256140982e-05
   180   -6.095653019185e-16
   181    2.972982247307e-05
   182   -1.521368856383e-06
   183   -7.380891340821e-05
   184    5.751067637674e-16
   185   -7.522747083592e-04
   186    6.131223155632e-04
   187   -1.600559930886e-04
   188    4.311028600772e-15
   189   -1.643061416183e-03
   190   -7.082198063229e-05
   191   -1.173416150524e-03
   192   -1.412704172502e-14
   193    6.187257929429e-06
   194   -9.682040068965e-16
   195   -1.011695781614e-15
   196    2.960647380098e-05
   197   -2.358196264269e-05
   198    4.161724530871e-06
   199   -1.314755505485e-04
   200   -1.926025031813e-04
   201   -3.704795733506e-04
   202    1.913537351427e-05
   203   -1.143362547279e-05
   204    7.605805084645e-16
Sym=X
Ene= 0.817779
Spin=Alpha
Occup=0
     1    3.557928585827e-03
     2    5.866615758182e-03
     3    2.157533235945e-03
     4    1.479402181517e-02
     5   -5.912328505898e-14
     6   -7.712311533859e-03
     7   -1.997130749631e-03
     8    1.698800844968e-02
     9   -7.161988840402e-14
    10   -3.038657117532e-01
    11    1.025762835521e-01
    12   -1.229013760331e-01
    13   -8.152180886077e-14
    14   -8.075028287668e+00
    15    2.603320270971e-01
    16   -1.886213920968e+00
    17   -8.687228076506e-16
    18   -1.303790111682e-02
    19    7.735470535582e-15
    20    1.567637832394e-14
    21   -6.787539637164e-03
    22    5.142935663637e-03
    23    7.176076539712e-03
    24    7.406474272114e-02
    25   -2.727546232927e-01
    26   -5.715636458569e-01
    27    6.990691442490e-03
    28    3.199806235786e-03
    29    1.400868934507e-14
    30    1.060308955703e-02
    31    9.293062593834e-03
    32    9.607615338849e-02
    33    4.674693386993e-01
    34    7.797755224778e-04
    35   -7.227403436862e-03
    36   -6.822974413915e-15
    37    2.185523255585e-02
    38    1.305134700943e-01
    39    4.149182623539e-01
    40    1.917403245466e+00
    41   -8.092914996125e-04
    42    2.993325958078e-03
    43    8.211327197494e-16
    44    2.108482764828e-03
    45    2.967548147787e-03
    46   -3.624227572114e-03
    47   -4.089901937153e-03
    48    9.512686321291e-15
    49    1.338532831462e-02
    50   -4.214120550805e-03
    51   -3.434142059819e-04
    52   -1.579979482462e-14
    53   -3.227200697138e-01
    54   -2.291409494741e-01
    55    1.127860955900e-01
    56    1.333937050409e-13
    57    4.955413723177e-01
    58    1.334338364071e-02
    59   -8.869909153005e-01
    60   -2.731580472194e-13
    61   -1.326350691511e-02
    62   -1.019077108317e-14
    63   -1.724647094888e-15
    64    9.833862431701e-03
    65   -4.062243972721e-03
    66   -3.831357264580e-03
    67   -6.735133927168e-03
    68    6.368866916688e-03
    69   -1.428354989934e-02
    70   -3.186598853672e-15
    71    2.643011423997e-02
    72    5.918645177579e-03
    73   -1.810186750613e-02
    74   -1.587032364158e-14
    75   -4.678168458424e-02
    76    9.864450008976e-03
    77   -2.718747380365e-02
    78   -3.483778141697e-14
    79    1.529797937849e-01
    80   -1.187968843809e-02
    81    7.547521909656e-02
    82    8.199653388449e-14
    83   -1.304710739203e-03
    84    2.546369152439e-15
    85   -2.832497245151e-15
    86   -1.105964709757e-03
    87   -4.762370177281e-04
    88   -8.467410777700e-04
    89   -2.506113832297e-03
    90   -1.605477386958e-02
    91   -2.756625929717e-02
    92    2.947755561437e-14
    93    6.137436589721e-02
    94   -3.293442988465e-02
    95   -4.741558003719e-02
    96    1.258149815739e-13
    97   -7.177641441851e-01
    98   -1.799436610416e-02
    99   -1.762893293551e-01
   100    4.778272836063e-14
   101   -1.384120993001e+01
   102    1.718611141561e+00
   103    2.525620481787e+00
   104    3.975663280388e-14
   105   -2.488957319202e-02
   106   -3.720961495814e-15
   107   -9.726051149283e-15
   108    1.552338371392e-02
   109    2.024195424588e-02
   110   -1.032083577741e-02
   111   -1.844717635934e-02
   112   -4.021957821545e-02
   113   -4.035644874881e-02
   114   -3.118707875666e-14
   115    6.559225237358e-02
   116   -4.750388154020e-02
   117   -5.379605355942e-02
   118   -2.566376360892e-15
   119    1.569007954014e-01
   120   -1.108144863426e-01
   121   -5.662653464279e-02
   122   -7.819686234524e-14
   123    9.145999686049e-01
   124   -1.816565116378e-01
   125   -2.015839221564e-01
   126   -1.112833992204e-13
   127   -4.590202455652e-03
   128   -4.191042762582e-15
   129   -3.227051887272e-15
   130   -2.331998248252e-03
   131    7.646461323155e-04
   132   -8.020954652473e-04
   133   -1.407666429505e-03
   134   -3.017674969236e-03
   135   -4.076923689426e-02
   136   -1.448021818033e-14
   137    6.672876622072e-03
   138   -7.255573431154e-03
   139   -6.109712797698e-02
   140    1.328682132371e-14
   141    7.528473157360e-02
   142    3.844049675275e-02
   143   -2.675986448456e-01
   144   -1.782418025224e-13
   145    2.590482072799e+00
   146    2.320842208467e-01
   147   -8.260118864135e-01
   148    2.395327931700e-13
   149   -9.824175676718e-03
   150    3.496650592456e-15
   151    1.156966023703e-15
   152   -9.459934724033e-03
   153   -3.752437044559e-03
   154   -5.899653098393e-03
   155   -9.838849109457e-03
   156   -5.069110095888e-03
   157   -6.862521400932e-03
   158    2.822252218314e-14
   159    2.319685445035e-02
   160   -1.197054520831e-02
   161   -1.283877816523e-02
   162    5.918791532617e-14
   163    2.334427311762e-01
   164    1.218872912797e-01
   165    5.712955836290e-02
   166    6.128392335066e-14
   167    1.707233663365e+00
   168   -7.498146356277e-02
   169   -5.696125876928e-01
   170   -1.339517221996e-13
   171   -6.939033479541e-03
   172   -1.093655088755e-14
   173    7.573085838551e-15
   174    1.961247557619e-05
   175    2.578548766590e-04
   176    4.774349147544e-04
   177    5.248178174847e-04
   178   -2.513308299828e-02
   179    1.758420712773e-02
   180    3.951222058381e-14
   181    1.771761739877e-03
   182   -3.591207505086e-02
   183    3.282253366644e-02
   184    9.479729063974e-14
   185    4.617063542814e-02
   186   -2.170437036260e-01
   187    1.687806414898e-01
   188    2.690244436308e-14
   189    1.224498075990e+01
   190   -3.051434336916e+00
   191    3.270258728425e+00
   192   -1.180386781925e-14
   193   -1.835693375895e-02
   194    2.059482631124e-14
   195    6.341568571934e-15
   196   -3.174135584082e-03
   197   -1.526075057805e-02
   198    1.495122887680e-02
   199    4.380590609102e-02
   200    6.186575966581e-01
   201    2.964518472939e+00
   202    4.220434103155e-03
   203   -7.729914510316e-03
   204    3.097143680053e-15
[5D]
