[Molden Format]
[Atoms] (Angs)
  C      1    6     -0.00714236     -1.70213747     -0.00000000
  H      2    1     -2.06882847     -1.44022412      0.00000000
  H      3    1     -0.12337987     -2.77567521      0.00000000
  H      4    1      0.04651892      1.98813947     -0.00000000
  C      5    6     -1.21953563      0.40211669      0.00000000
  O      6    8     -2.25921553      1.03043814      0.00000000
  C      7    6      1.28797806      0.34644937     -0.00000000
  O      8    8      2.31273661      1.00537216     -0.00000000
  N      9    7      0.03446295      0.97739857     -0.00000000
  N     10    7     -1.17287765     -0.98229824      0.00000000
  C     11    6      1.20107039     -1.10433419     -0.00000000
  H     12    1      2.11220096     -1.67699125     -0.00000000
[GTO]
1    0
S    6    1.000000
   4.56324000E+03    1.96665000E-03 
   6.82024000E+02    1.52306000E-02 
   1.54973000E+02    7.61269000E-02 
   4.44553000E+01    2.60801000E-01 
   1.30290000E+01    6.16462000E-01 
   1.82773000E+00    2.21006000E-01 
SP   3    1.000000
   2.09642000E+01    1.14660000E-01   4.02487000E-02 
   4.80331000E+00    9.19999000E-01   2.37594000E-01 
   1.45933000E+00   -3.03068000E-03   8.15854000E-01 
SP   1    1.000000
   4.83456000E-01    1.00000000E+00   1.00000000E+00 
SP   1    1.000000
   1.45585000E-01    1.00000000E+00   1.00000000E+00 
SP   1    1.000000
   4.38000000E-02    1.00000000E+00   1.00000000E+00 
D    1    1.000000
   6.26000000E-01    1.00000000E+00 

2    0
S    3    1.000000
   3.38650000E+01    2.54938000E-02 
   5.09479000E+00    1.90373000E-01 
   1.15879000E+00    8.52161000E-01 
S    1    1.000000
   3.25840000E-01    1.00000000E+00 
S    1    1.000000
   1.02741000E-01    1.00000000E+00 
S    1    1.000000
   3.60000000E-02    1.00000000E+00 
P    1    1.000000
   7.50000000E-01    1.00000000E+00 

3    0
S    3    1.000000
   3.38650000E+01    2.54938000E-02 
   5.09479000E+00    1.90373000E-01 
   1.15879000E+00    8.52161000E-01 
S    1    1.000000
   3.25840000E-01    1.00000000E+00 
S    1    1.000000
   1.02741000E-01    1.00000000E+00 
S    1    1.000000
   3.60000000E-02    1.00000000E+00 
P    1    1.000000
   7.50000000E-01    1.00000000E+00 

4    0
S    3    1.000000
   3.38650000E+01    2.54938000E-02 
   5.09479000E+00    1.90373000E-01 
   1.15879000E+00    8.52161000E-01 
S    1    1.000000
   3.25840000E-01    1.00000000E+00 
S    1    1.000000
   1.02741000E-01    1.00000000E+00 
S    1    1.000000
   3.60000000E-02    1.00000000E+00 
P    1    1.000000
   7.50000000E-01    1.00000000E+00 

5    0
S    6    1.000000
   4.56324000E+03    1.96665000E-03 
   6.82024000E+02    1.52306000E-02 
   1.54973000E+02    7.61269000E-02 
   4.44553000E+01    2.60801000E-01 
   1.30290000E+01    6.16462000E-01 
   1.82773000E+00    2.21006000E-01 
SP   3    1.000000
   2.09642000E+01    1.14660000E-01   4.02487000E-02 
   4.80331000E+00    9.19999000E-01   2.37594000E-01 
   1.45933000E+00   -3.03068000E-03   8.15854000E-01 
SP   1    1.000000
   4.83456000E-01    1.00000000E+00   1.00000000E+00 
SP   1    1.000000
   1.45585000E-01    1.00000000E+00   1.00000000E+00 
SP   1    1.000000
   4.38000000E-02    1.00000000E+00   1.00000000E+00 
D    1    1.000000
   6.26000000E-01    1.00000000E+00 

6    0
S    6    1.000000
   8.58850000E+03    1.89515000E-03 
   1.29723000E+03    1.43859000E-02 
   2.99296000E+02    7.07320000E-02 
   8.73771000E+01    2.40001000E-01 
   2.56789000E+01    5.94797000E-01 
   3.74004000E+00    2.80802000E-01 
SP   3    1.000000
   4.21175000E+01    1.13889000E-01   3.65114000E-02 
   9.62837000E+00    9.20811000E-01   2.37153000E-01 
   2.85332000E+00   -3.27447000E-03   8.19702000E-01 
SP   1    1.000000
   9.05661000E-01    1.00000000E+00   1.00000000E+00 
SP   1    1.000000
   2.55611000E-01    1.00000000E+00   1.00000000E+00 
SP   1    1.000000
   8.45000000E-02    1.00000000E+00   1.00000000E+00 
D    1    1.000000
   1.29200000E+00    1.00000000E+00 

7    0
S    6    1.000000
   4.56324000E+03    1.96665000E-03 
   6.82024000E+02    1.52306000E-02 
   1.54973000E+02    7.61269000E-02 
   4.44553000E+01    2.60801000E-01 
   1.30290000E+01    6.16462000E-01 
   1.82773000E+00    2.21006000E-01 
SP   3    1.000000
   2.09642000E+01    1.14660000E-01   4.02487000E-02 
   4.80331000E+00    9.19999000E-01   2.37594000E-01 
   1.45933000E+00   -3.03068000E-03   8.15854000E-01 
SP   1    1.000000
   4.83456000E-01    1.00000000E+00   1.00000000E+00 
SP   1    1.000000
   1.45585000E-01    1.00000000E+00   1.00000000E+00 
SP   1    1.000000
   4.38000000E-02    1.00000000E+00   1.00000000E+00 
D    1    1.000000
   6.26000000E-01    1.00000000E+00 

8    0
S    6    1.000000
   8.58850000E+03    1.89515000E-03 
   1.29723000E+03    1.43859000E-02 
   2.99296000E+02    7.07320000E-02 
   8.73771000E+01    2.40001000E-01 
   2.56789000E+01    5.94797000E-01 
   3.74004000E+00    2.80802000E-01 
SP   3    1.000000
   4.21175000E+01    1.13889000E-01   3.65114000E-02 
   9.62837000E+00    9.20811000E-01   2.37153000E-01 
   2.85332000E+00   -3.27447000E-03   8.19702000E-01 
SP   1    1.000000
   9.05661000E-01    1.00000000E+00   1.00000000E+00 
SP   1    1.000000
   2.55611000E-01    1.00000000E+00   1.00000000E+00 
SP   1    1.000000
   8.45000000E-02    1.00000000E+00   1.00000000E+00 
D    1    1.000000
   1.29200000E+00    1.00000000E+00 

9    0
S    6    1.000000
   6.29348000E+03    1.96979000E-03 
   9.49044000E+02    1.49613000E-02 
   2.18776000E+02    7.35006000E-02 
   6.36916000E+01    2.48937000E-01 
   1.88282000E+01    6.02460000E-01 
   2.72023000E+00    2.56202000E-01 
SP   3    1.000000
   3.06331000E+01    1.11906000E-01   3.83119000E-02 
   7.02614000E+00    9.21666000E-01   2.37403000E-01 
   2.11205000E+00   -2.56919000E-03   8.17592000E-01 
SP   1    1.000000
   6.84009000E-01    1.00000000E+00   1.00000000E+00 
SP   1    1.000000
   2.00878000E-01    1.00000000E+00   1.00000000E+00 
SP   1    1.000000
   6.39000000E-02    1.00000000E+00   1.00000000E+00 
D    1    1.000000
   9.13000000E-01    1.00000000E+00 

10    0
S    6    1.000000
   6.29348000E+03    1.96979000E-03 
   9.49044000E+02    1.49613000E-02 
   2.18776000E+02    7.35006000E-02 
   6.36916000E+01    2.48937000E-01 
   1.88282000E+01    6.02460000E-01 
   2.72023000E+00    2.56202000E-01 
SP   3    1.000000
   3.06331000E+01    1.11906000E-01   3.83119000E-02 
   7.02614000E+00    9.21666000E-01   2.37403000E-01 
   2.11205000E+00   -2.56919000E-03   8.17592000E-01 
SP   1    1.000000
   6.84009000E-01    1.00000000E+00   1.00000000E+00 
SP   1    1.000000
   2.00878000E-01    1.00000000E+00   1.00000000E+00 
SP   1    1.000000
   6.39000000E-02    1.00000000E+00   1.00000000E+00 
D    1    1.000000
   9.13000000E-01    1.00000000E+00 

11    0
S    6    1.000000
   4.56324000E+03    1.96665000E-03 
   6.82024000E+02    1.52306000E-02 
   1.54973000E+02    7.61269000E-02 
   4.44553000E+01    2.60801000E-01 
   1.30290000E+01    6.16462000E-01 
   1.82773000E+00    2.21006000E-01 
SP   3    1.000000
   2.09642000E+01    1.14660000E-01   4.02487000E-02 
   4.80331000E+00    9.19999000E-01   2.37594000E-01 
   1.45933000E+00   -3.03068000E-03   8.15854000E-01 
SP   1    1.000000
   4.83456000E-01    1.00000000E+00   1.00000000E+00 
SP   1    1.000000
   1.45585000E-01    1.00000000E+00   1.00000000E+00 
SP   1    1.000000
   4.38000000E-02    1.00000000E+00   1.00000000E+00 
D    1    1.000000
   6.26000000E-01    1.00000000E+00 

12    0
S    3    1.000000
   3.38650000E+01    2.54938000E-02 
   5.09479000E+00    1.90373000E-01 
   1.15879000E+00    8.52161000E-01 
S    1    1.000000
   3.25840000E-01    1.00000000E+00 
S    1    1.000000
   1.02741000E-01    1.00000000E+00 
S    1    1.000000
   3.60000000E-02    1.00000000E+00 
P    1    1.000000
   7.50000000E-01    1.00000000E+00 

[MO]
Sym=X
Ene= -0.821016
Spin=Alpha
Occup=1
     1   -4.348455286589e-07
     2    1.726314866203e-07
     3   -4.639107492041e-06
     4    4.968585524944e-06
     5   -3.118311638332e-16
     6   -1.999006748414e-06
     7    2.498227838803e-05
     8   -1.816441852472e-05
     9    1.603407382933e-15
    10   -2.287574164748e-04
    11    7.577549941522e-05
    12    3.505608869307e-05
    13   -1.313420246556e-15
    14    6.281476202043e-04
    15    6.312340077502e-04
    16    1.788482195687e-04
    17   -8.186595699265e-15
    18    1.610527898893e-06
    19    1.109616929482e-16
    20    1.090168756053e-16
    21    4.224095718954e-06
    22    5.272111303393e-06
    23    3.846624693461e-06
    24    5.053304441132e-05
    25    9.723683547923e-05
    26    2.726960549835e-04
    27    9.504970753725e-06
    28   -7.842851607684e-06
    29   -7.144506262685e-17
    30   -5.704217595034e-06
    31    3.781554482470e-05
    32    2.285710656667e-06
    33    9.848733033074e-05
    34   -1.729987431268e-06
    35    4.712027985212e-06
    36    6.787998816644e-16
    37    2.985311597726e-06
    38    5.427548962426e-05
    39    9.314386580136e-05
    40    3.449458902150e-04
    41    1.092577290896e-05
    42   -5.300170907790e-06
    43    8.389119297476e-16
    44    4.905972743419e-06
    45   -7.765772062243e-05
    46   -6.139292440621e-05
    47    3.745280969903e-05
    48   -9.061366648226e-16
    49    3.090136973731e-04
    50   -3.618264684565e-04
    51    2.179491175676e-04
    52    4.144253462513e-15
    53   -5.469268078962e-05
    54   -4.920147978509e-04
    55    3.027806740546e-04
    56   -4.776490870987e-15
    57    4.353301166949e-04
    58    6.131431247132e-04
    59   -4.359908526231e-04
    60   -6.600152548230e-15
    61   -5.717614411402e-05
    62   -8.670819505432e-16
    63   -6.191734391852e-16
    64    9.338305120339e-05
    65   -1.785791847147e-04
    66    5.514791378074e-01
    67    4.716764866434e-01
    68    1.564026580582e-03
    69   -9.589008305269e-04
    70    2.210420328906e-16
    71    5.533056878905e-03
    72   -6.353633919906e-04
    73    3.876283040142e-04
    74   -3.202309688680e-16
    75   -1.337120623321e-03
    76    1.318591967080e-04
    77   -9.054917563615e-05
    78   -1.025467433613e-15
    79    1.427217809596e-03
    80    5.497618238837e-05
    81   -9.941367608104e-06
    82    2.198454142593e-15
    83   -8.739905578287e-05
    84   -3.048341300091e-16
    85    2.691445509194e-16
    86   -3.889352305408e-05
    87    6.938158599574e-05
    88   -3.950142827150e-07
    89    7.975571238914e-07
    90   -3.793827959479e-06
    91    1.996217460966e-06
    92   -2.087145236444e-16
    93   -4.685305498239e-06
    94    1.925314822632e-05
    95   -1.032344722416e-05
    96    2.715889551573e-15
    97   -2.000046540095e-04
    98    9.901160029196e-05
    99   -4.625383707206e-05
   100   -3.760148621426e-15
   101    7.580743964097e-04
   102    1.172706947435e-04
   103   -6.881485350375e-04
   104   -1.792296581095e-14
   105    3.017322108256e-06
   106    1.468286129453e-18
   107    3.327905580383e-17
   108   -7.779946233199e-06
   109    2.111430855975e-06
   110    2.538133241609e-06
   111    3.054742652788e-06
   112    1.916415694476e-07
   113   -1.128083903763e-06
   114    1.443152200513e-15
   115   -7.828008362859e-06
   116    1.101959493497e-06
   117    6.565337722316e-07
   118   -1.205974383701e-15
   119    3.573136836153e-05
   120   -1.345797987607e-05
   121   -7.817954156550e-06
   122   -1.877492771880e-15
   123   -1.879572125201e-04
   124    8.579306606368e-05
   125    7.252779199408e-05
   126    7.337638856605e-15
   127    2.535218939302e-07
   128    4.750862511694e-16
   129    1.080481302353e-15
   130    7.450606144408e-07
   131    4.177839250641e-07
   132    1.500254130070e-07
   133    1.399466437245e-06
   134    1.086367303978e-05
   135   -1.078870002881e-06
   136    4.871706153004e-16
   137   -2.665374188871e-05
   138   -3.184991028451e-05
   139    6.288103147141e-06
   140    3.038096704769e-17
   141    3.026145976408e-04
   142    4.666931731841e-05
   143   -2.533607491760e-04
   144   -2.112761240979e-15
   145    1.441757429734e-05
   146    5.478829851747e-04
   147   -8.590203673645e-05
   148    1.231467104181e-14
   149   -7.134731865154e-06
   150    2.222107211358e-16
   151   -7.344041160578e-16
   152    2.294333121229e-05
   153    6.909433610262e-06
   154    4.798994421806e-07
   155    1.674206157837e-06
   156    5.067875562610e-06
   157   -9.906924071218e-06
   158   -6.751422035394e-16
   159   -2.645192955746e-05
   160   -1.612252698817e-05
   161    2.521572199757e-05
   162    7.957744583608e-17
   163    2.721592720151e-04
   164    2.296250524879e-04
   165    7.043988909711e-05
   166   -9.182218531075e-16
   167   -3.208289700658e-05
   168    2.945327798176e-04
   169   -3.667105788921e-04
   170    7.669878771723e-15
   171   -7.704922893621e-06
   172   -2.549909399742e-16
   173    2.839716150037e-16
   174   -1.831303341241e-05
   175   -1.278312344422e-05
   176    1.536802811775e-07
   177   -5.932350139244e-07
   178    1.218729047892e-06
   179   -1.067258657582e-06
   180   -1.365406458528e-15
   181    1.255506526505e-05
   182   -6.492484289051e-06
   183    6.293405502164e-06
   184    5.549567224176e-16
   185   -6.284205744676e-05
   186    4.878833438140e-05
   187   -2.913221164611e-05
   188   -8.390087847739e-16
   189   -2.958710741888e-03
   190    4.568004905994e-04
   191   -2.995844325870e-04
   192    1.533061174811e-14
   193    5.143421661883e-06
   194   -4.137503040617e-17
   195   -3.979041509473e-16
   196    4.791586748127e-08
   197   -3.028461344622e-06
   198    1.149121780920e-06
   199   -8.875693005992e-06
   200   -2.109615198910e-05
   201   -1.797765367344e-04
   202   -5.019062938394e-07
   203    4.454766275820e-07
   204    8.126284250990e-16
Sym=X
Ene= 0.821016
Spin=Alpha
Occup=0
     1   -1.701676320102e-02
     2   -3.000763218921e-02
     3   -1.519511929018e-02
     4   -2.844634106706e-02
     5    5.435146295207e-14
     6    1.060452600159e-01
     7   -2.739634730844e-02
     8   -3.887676582064e-02
     9    1.042154106572e-13
    10    8.376414622491e-02
    11   -6.866646889601e-02
    12   -1.669701304360e-01
    13    7.002127364517e-14
    14    3.894507475418e+00
    15    7.079988734490e-01
    16   -1.805122100362e+00
    17    8.022696139585e-13
    18    4.038878806520e-04
    19    4.565252228693e-16
    20   -7.453267396983e-15
    21    7.907407940952e-03
    22   -1.728500863795e-03
    23   -1.261380737254e-02
    24   -3.956636032003e-02
    25    3.093676476903e-01
    26    4.889735496026e-01
    27   -3.222097535593e-03
    28    7.897195763743e-03
    29   -1.052316629747e-14
    30    3.051922330868e-03
    31    1.878966895557e-02
    32   -4.302332264998e-01
    33   -3.190132426185e+00
    34    1.045526324952e-03
    35    1.301042368289e-02
    36    9.011636836834e-15
    37   -1.372193420331e-02
    38   -3.847416312226e-02
    39   -2.495136771899e-01
    40   -1.023789845978e+00
    41    7.313073018169e-04
    42   -1.000870746086e-02
    43   -1.104942620409e-15
    44   -7.281440347411e-03
    45   -1.320828859477e-02
    46   -1.772411242734e-02
    47    7.179834172954e-03
    48   -1.450863260330e-14
    49    4.282903457481e-02
    50   -3.236541541993e-02
    51    1.807931223327e-02
    52   -1.402753034197e-14
    53    1.753024409983e-01
    54   -3.803272394922e-01
    55    1.899201251674e-01
    56   -5.372745655871e-14
    57    2.096929494302e-01
    58   -1.675513068437e+00
    59   -1.976024427995e-01
    60   -3.496227446443e-13
    61    7.888466088837e-03
    62   -1.023158602701e-15
    63    1.433304522602e-14
    64   -1.363708903627e-02
    65    1.324316886220e-02
    66    1.714297054793e-02
    67    3.050020012928e-02
    68    1.331769663670e-02
    69    4.583956265841e-02
    70   -4.177603207824e-15
    71   -1.072470352052e-01
    72    2.058729029675e-02
    73    6.028568729610e-02
    74    5.858494562842e-15
    75   -2.532341233334e-01
    76   -5.959147836731e-02
    77    8.795161447421e-02
    78   -4.250905861867e-14
    79   -9.697387281902e-01
    80   -6.725533096041e-02
    81    1.047443177247e-01
    82    2.725830806142e-13
    83    3.007044403804e-04
    84    8.853397652077e-16
    85    1.622978424378e-15
    86    3.088588424682e-03
    87    3.514681348638e-04
    88   -3.395144161025e-03
    89   -5.946968196141e-03
    90   -4.595220847991e-03
    91   -2.141350726793e-03
    92   -5.015020910373e-14
    93    2.274888316340e-02
    94   -1.105239654314e-02
    95   -5.988583886810e-03
    96   -1.026844156448e-13
    97    1.565062955516e-03
    98    1.149690653103e-01
    99    6.686856882030e-02
   100   -1.394261302093e-13
   101    1.701584784297e+00
   102   -1.254363208864e+00
   103    1.826797700258e-01
   104    9.340361405083e-13
   105   -2.247438302487e-03
   106    1.130310386515e-14
   107    1.007981294806e-14
   108   -7.411035009298e-03
   109   -7.459482229889e-03
   110   -2.160228720160e-03
   111   -3.805416063374e-03
   112    5.212503668352e-03
   113    1.205377194490e-02
   114    4.548291869722e-14
   115    1.377857871586e-02
   116    8.528696503568e-03
   117    1.735143780439e-02
   118    4.883830632333e-14
   119   -2.336175120711e-03
   120    9.761657380086e-04
   121    2.047178832106e-02
   122    1.507349674338e-13
   123   -2.094398616438e-01
   124    1.924830766656e-01
   125    9.471267771232e-02
   126   -2.296464182854e-13
   127   -6.541606016102e-04
   128    1.162598394623e-15
   129    4.617077022089e-15
   130    6.743306338728e-04
   131    5.021523598752e-04
   132   -8.550011847498e-03
   133   -1.458569866933e-02
   134    7.963616451796e-03
   135    2.574694279001e-02
   136    2.553474943339e-14
   137    4.049675884394e-02
   138    1.087016444996e-02
   139    4.146733055924e-02
   140    4.115987938182e-14
   141    2.541466892382e-01
   142    1.038757917489e-02
   143   -2.013275052695e-03
   144    1.186147487405e-13
   145    4.576479729270e-01
   146    4.024626963485e-04
   147    2.184814636463e-01
   148   -2.353428794744e-13
   149   -6.341651851681e-04
   150   -4.079587466624e-15
   151    3.295202798833e-15
   152    8.344927518676e-03
   153   -1.926673162049e-03
   154    1.218441643233e-03
   155    2.154588943783e-03
   156    9.532258258277e-04
   157    5.238628198086e-04
   158   -3.328937308451e-14
   159   -4.857890030107e-03
   160    6.293596690064e-04
   161   -4.580506280897e-03
   162   -6.979423714953e-14
   163   -2.750209768452e-03
   164    3.812322790896e-02
   165    4.744609145220e-02
   166   -5.228092165623e-14
   167    4.993229496387e-01
   168    8.806211597405e-01
   169    4.622508474836e-01
   170   -4.601694696254e-14
   171   -9.237616393816e-04
   172    8.168508097094e-15
   173   -4.623950785916e-15
   174   -1.410099079807e-03
   175   -1.113921242311e-02
   176   -7.189007549995e-03
   177   -1.245810032873e-02
   178    1.736205567480e-02
   179    1.513250876657e-03
   180   -4.153596816444e-14
   181    3.787509463681e-02
   182    1.810371099326e-02
   183    1.874313841979e-03
   184   -5.242265009267e-14
   185    2.356791220089e-01
   186    6.342271622964e-03
   187    4.742386870508e-02
   188   -7.882874347905e-14
   189   -1.601341628278e+00
   190    1.469372537791e+00
   191    8.180390454331e-01
   192   -8.894347157908e-13
   193   -4.108987758753e-03
   194   -6.465405323261e-15
   195   -1.439479378655e-14
   196   -1.911641496579e-03
   197    5.398475645653e-03
   198    1.083391619686e-03
   199    6.733909550066e-03
   200   -9.817510032928e-02
   201   -7.044797077952e-01
   202   -2.912130493172e-03
   203    4.768660205276e-03
   204   -7.458866484496e-15
[5D]
