[Molden Format]
[Atoms] (Angs)
  C      1    6     -0.00714236     -1.70213747     -0.00000000
  H      2    1     -2.06882847     -1.44022412      0.00000000
  H      3    1     -0.12337987     -2.77567521      0.00000000
  H      4    1      0.04651892      1.98813947     -0.00000000
  C      5    6     -1.21953563      0.40211669      0.00000000
  O      6    8     -2.25921553      1.03043814      0.00000000
  C      7    6      1.28797806      0.34644937     -0.00000000
  O      8    8      2.31273661      1.00537216     -0.00000000
  N      9    7      0.03446295      0.97739857     -0.00000000
  N     10    7     -1.17287765     -0.98229824      0.00000000
  C     11    6      1.20107039     -1.10433419     -0.00000000
  H     12    1      2.11220096     -1.67699125     -0.00000000
[GTO]
1    0
S    6    1.000000
   4.56324000E+03    1.96665000E-03 
   6.82024000E+02    1.52306000E-02 
   1.54973000E+02    7.61269000E-02 
   4.44553000E+01    2.60801000E-01 
   1.30290000E+01    6.16462000E-01 
   1.82773000E+00    2.21006000E-01 
SP   3    1.000000
   2.09642000E+01    1.14660000E-01   4.02487000E-02 
   4.80331000E+00    9.19999000E-01   2.37594000E-01 
   1.45933000E+00   -3.03068000E-03   8.15854000E-01 
SP   1    1.000000
   4.83456000E-01    1.00000000E+00   1.00000000E+00 
SP   1    1.000000
   1.45585000E-01    1.00000000E+00   1.00000000E+00 
SP   1    1.000000
   4.38000000E-02    1.00000000E+00   1.00000000E+00 
D    1    1.000000
   6.26000000E-01    1.00000000E+00 

2    0
S    3    1.000000
   3.38650000E+01    2.54938000E-02 
   5.09479000E+00    1.90373000E-01 
   1.15879000E+00    8.52161000E-01 
S    1    1.000000
   3.25840000E-01    1.00000000E+00 
S    1    1.000000
   1.02741000E-01    1.00000000E+00 
S    1    1.000000
   3.60000000E-02    1.00000000E+00 
P    1    1.000000
   7.50000000E-01    1.00000000E+00 

3    0
S    3    1.000000
   3.38650000E+01    2.54938000E-02 
   5.09479000E+00    1.90373000E-01 
   1.15879000E+00    8.52161000E-01 
S    1    1.000000
   3.25840000E-01    1.00000000E+00 
S    1    1.000000
   1.02741000E-01    1.00000000E+00 
S    1    1.000000
   3.60000000E-02    1.00000000E+00 
P    1    1.000000
   7.50000000E-01    1.00000000E+00 

4    0
S    3    1.000000
   3.38650000E+01    2.54938000E-02 
   5.09479000E+00    1.90373000E-01 
   1.15879000E+00    8.52161000E-01 
S    1    1.000000
   3.25840000E-01    1.00000000E+00 
S    1    1.000000
   1.02741000E-01    1.00000000E+00 
S    1    1.000000
   3.60000000E-02    1.00000000E+00 
P    1    1.000000
   7.50000000E-01    1.00000000E+00 

5    0
S    6    1.000000
   4.56324000E+03    1.96665000E-03 
   6.82024000E+02    1.52306000E-02 
   1.54973000E+02    7.61269000E-02 
   4.44553000E+01    2.60801000E-01 
   1.30290000E+01    6.16462000E-01 
   1.82773000E+00    2.21006000E-01 
SP   3    1.000000
   2.09642000E+01    1.14660000E-01   4.02487000E-02 
   4.80331000E+00    9.19999000E-01   2.37594000E-01 
   1.45933000E+00   -3.03068000E-03   8.15854000E-01 
SP   1    1.000000
   4.83456000E-01    1.00000000E+00   1.00000000E+00 
SP   1    1.000000
   1.45585000E-01    1.00000000E+00   1.00000000E+00 
SP   1    1.000000
   4.38000000E-02    1.00000000E+00   1.00000000E+00 
D    1    1.000000
   6.26000000E-01    1.00000000E+00 

6    0
S    6    1.000000
   8.58850000E+03    1.89515000E-03 
   1.29723000E+03    1.43859000E-02 
   2.99296000E+02    7.07320000E-02 
   8.73771000E+01    2.40001000E-01 
   2.56789000E+01    5.94797000E-01 
   3.74004000E+00    2.80802000E-01 
SP   3    1.000000
   4.21175000E+01    1.13889000E-01   3.65114000E-02 
   9.62837000E+00    9.20811000E-01   2.37153000E-01 
   2.85332000E+00   -3.27447000E-03   8.19702000E-01 
SP   1    1.000000
   9.05661000E-01    1.00000000E+00   1.00000000E+00 
SP   1    1.000000
   2.55611000E-01    1.00000000E+00   1.00000000E+00 
SP   1    1.000000
   8.45000000E-02    1.00000000E+00   1.00000000E+00 
D    1    1.000000
   1.29200000E+00    1.00000000E+00 

7    0
S    6    1.000000
   4.56324000E+03    1.96665000E-03 
   6.82024000E+02    1.52306000E-02 
   1.54973000E+02    7.61269000E-02 
   4.44553000E+01    2.60801000E-01 
   1.30290000E+01    6.16462000E-01 
   1.82773000E+00    2.21006000E-01 
SP   3    1.000000
   2.09642000E+01    1.14660000E-01   4.02487000E-02 
   4.80331000E+00    9.19999000E-01   2.37594000E-01 
   1.45933000E+00   -3.03068000E-03   8.15854000E-01 
SP   1    1.000000
   4.83456000E-01    1.00000000E+00   1.00000000E+00 
SP   1    1.000000
   1.45585000E-01    1.00000000E+00   1.00000000E+00 
SP   1    1.000000
   4.38000000E-02    1.00000000E+00   1.00000000E+00 
D    1    1.000000
   6.26000000E-01    1.00000000E+00 

8    0
S    6    1.000000
   8.58850000E+03    1.89515000E-03 
   1.29723000E+03    1.43859000E-02 
   2.99296000E+02    7.07320000E-02 
   8.73771000E+01    2.40001000E-01 
   2.56789000E+01    5.94797000E-01 
   3.74004000E+00    2.80802000E-01 
SP   3    1.000000
   4.21175000E+01    1.13889000E-01   3.65114000E-02 
   9.62837000E+00    9.20811000E-01   2.37153000E-01 
   2.85332000E+00   -3.27447000E-03   8.19702000E-01 
SP   1    1.000000
   9.05661000E-01    1.00000000E+00   1.00000000E+00 
SP   1    1.000000
   2.55611000E-01    1.00000000E+00   1.00000000E+00 
SP   1    1.000000
   8.45000000E-02    1.00000000E+00   1.00000000E+00 
D    1    1.000000
   1.29200000E+00    1.00000000E+00 

9    0
S    6    1.000000
   6.29348000E+03    1.96979000E-03 
   9.49044000E+02    1.49613000E-02 
   2.18776000E+02    7.35006000E-02 
   6.36916000E+01    2.48937000E-01 
   1.88282000E+01    6.02460000E-01 
   2.72023000E+00    2.56202000E-01 
SP   3    1.000000
   3.06331000E+01    1.11906000E-01   3.83119000E-02 
   7.02614000E+00    9.21666000E-01   2.37403000E-01 
   2.11205000E+00   -2.56919000E-03   8.17592000E-01 
SP   1    1.000000
   6.84009000E-01    1.00000000E+00   1.00000000E+00 
SP   1    1.000000
   2.00878000E-01    1.00000000E+00   1.00000000E+00 
SP   1    1.000000
   6.39000000E-02    1.00000000E+00   1.00000000E+00 
D    1    1.000000
   9.13000000E-01    1.00000000E+00 

10    0
S    6    1.000000
   6.29348000E+03    1.96979000E-03 
   9.49044000E+02    1.49613000E-02 
   2.18776000E+02    7.35006000E-02 
   6.36916000E+01    2.48937000E-01 
   1.88282000E+01    6.02460000E-01 
   2.72023000E+00    2.56202000E-01 
SP   3    1.000000
   3.06331000E+01    1.11906000E-01   3.83119000E-02 
   7.02614000E+00    9.21666000E-01   2.37403000E-01 
   2.11205000E+00   -2.56919000E-03   8.17592000E-01 
SP   1    1.000000
   6.84009000E-01    1.00000000E+00   1.00000000E+00 
SP   1    1.000000
   2.00878000E-01    1.00000000E+00   1.00000000E+00 
SP   1    1.000000
   6.39000000E-02    1.00000000E+00   1.00000000E+00 
D    1    1.000000
   9.13000000E-01    1.00000000E+00 

11    0
S    6    1.000000
   4.56324000E+03    1.96665000E-03 
   6.82024000E+02    1.52306000E-02 
   1.54973000E+02    7.61269000E-02 
   4.44553000E+01    2.60801000E-01 
   1.30290000E+01    6.16462000E-01 
   1.82773000E+00    2.21006000E-01 
SP   3    1.000000
   2.09642000E+01    1.14660000E-01   4.02487000E-02 
   4.80331000E+00    9.19999000E-01   2.37594000E-01 
   1.45933000E+00   -3.03068000E-03   8.15854000E-01 
SP   1    1.000000
   4.83456000E-01    1.00000000E+00   1.00000000E+00 
SP   1    1.000000
   1.45585000E-01    1.00000000E+00   1.00000000E+00 
SP   1    1.000000
   4.38000000E-02    1.00000000E+00   1.00000000E+00 
D    1    1.000000
   6.26000000E-01    1.00000000E+00 

12    0
S    3    1.000000
   3.38650000E+01    2.54938000E-02 
   5.09479000E+00    1.90373000E-01 
   1.15879000E+00    8.52161000E-01 
S    1    1.000000
   3.25840000E-01    1.00000000E+00 
S    1    1.000000
   1.02741000E-01    1.00000000E+00 
S    1    1.000000
   3.60000000E-02    1.00000000E+00 
P    1    1.000000
   7.50000000E-01    1.00000000E+00 

[MO]
Sym=X
Ene= -0.819678
Spin=Alpha
Occup=1
     1   -3.677634878521e-07
     2    3.004753201354e-07
     3   -4.740638666528e-06
     4    4.899405099495e-06
     5   -3.121788949738e-16
     6   -3.123186386833e-06
     7    2.488223298907e-05
     8   -1.825419466546e-05
     9    1.603404433319e-15
    10   -2.293037476007e-04
    11    7.548038252938e-05
    12    3.410944435501e-05
    13   -1.313319047537e-15
    14    6.251466978680e-04
    15    6.308255193699e-04
    16    1.779099563423e-04
    17   -8.185305712128e-15
    18    1.646442440559e-06
    19    1.109068218944e-16
    20    1.088385750506e-16
    21    4.130872532706e-06
    22    5.271040325823e-06
    23    3.774590043095e-06
    24    5.029877318146e-05
    25    9.699496564416e-05
    26    2.730268386710e-04
    27    9.517730946149e-06
    28   -7.903119509529e-06
    29   -7.133170032545e-17
    30   -5.095512157648e-06
    31    3.907979281747e-05
    32    2.505195612152e-06
    33    9.815501864781e-05
    34   -1.742137822970e-06
    35    4.688347247552e-06
    36    6.788462886021e-16
    37    3.422627396545e-06
    38    5.525186789159e-05
    39    9.328665710292e-05
    40    3.445865682827e-04
    41    1.092659339913e-05
    42   -5.370477087287e-06
    43    8.389844391425e-16
    44    4.941005948981e-06
    45   -7.759047191125e-05
    46   -6.126071551742e-05
    47    3.748748430930e-05
    48   -9.060835113043e-16
    49    3.086466339411e-04
    50   -3.615718168800e-04
    51    2.179349941010e-04
    52    4.143942169185e-15
    53   -5.425014161312e-05
    54   -4.917306029968e-04
    55    3.039346787671e-04
    56   -4.775602814615e-15
    57    4.364508354446e-04
    58    6.140254756154e-04
    59   -4.354413490655e-04
    60   -6.598062441836e-15
    61   -5.721756324008e-05
    62   -8.670582832171e-16
    63   -6.191661881946e-16
    64    9.298828208062e-05
    65   -1.788865377106e-04
    66    5.514791445688e-01
    67    4.716765032241e-01
    68    1.564708719251e-03
    69   -9.584191710444e-04
    70    2.211745774266e-16
    71    5.533657829617e-03
    72   -6.341300939730e-04
    73    3.885297292787e-04
    74   -3.199385658113e-16
    75   -1.338639924150e-03
    76    1.334459656050e-04
    77   -8.860272199865e-05
    78   -1.025713923806e-15
    79    1.426741510249e-03
    80    5.497867343903e-05
    81   -9.634770729686e-06
    82    2.197208501075e-15
    83   -8.739971352319e-05
    84   -3.049705030950e-16
    85    2.689598754251e-16
    86   -3.883367009628e-05
    87    6.944689781553e-05
    88   -4.346585178210e-07
    89    7.373583326450e-07
    90   -4.237124579281e-06
    91    1.754487588939e-06
    92   -2.087653301040e-16
    93   -4.779483028335e-06
    94    1.849224008031e-05
    95   -1.077036663591e-05
    96    2.716313068400e-15
    97   -1.999954217297e-04
    98    9.829307893414e-05
    99   -4.651984693443e-05
   100   -3.759874954600e-15
   101    7.569522605685e-04
   102    1.174884435948e-04
   103   -6.878107680768e-04
   104   -1.792571934382e-14
   105    3.058027800120e-06
   106    1.374665233112e-18
   107    3.346037405362e-17
   108   -7.930112754868e-06
   109    2.146790907177e-06
   110   -7.490503068032e-06
   111   -5.590551600219e-06
   112    2.940804701022e-07
   113   -5.384070187427e-07
   114    1.443077858914e-15
   115   -7.714407458619e-06
   116    1.188118090505e-06
   117    1.573509407483e-06
   118   -1.205728691900e-15
   119    3.696027277585e-05
   120   -1.353514842233e-05
   121   -6.709323647728e-06
   122   -1.878804889874e-15
   123   -1.873244962005e-04
   124    8.565374053059e-05
   125    7.261573715081e-05
   126    7.339686428594e-15
   127    2.759130559739e-07
   128    4.751913002419e-16
   129    1.080188446921e-15
   130    7.566379775446e-07
   131    3.590011431293e-07
   132    2.760431881331e-07
   133    1.617773828813e-06
   134    1.105788810854e-05
   135   -1.196067660329e-06
   136    4.870577732155e-16
   137   -2.767995031223e-05
   138   -3.159396828263e-05
   139    5.984082126531e-06
   140    3.029415138251e-17
   141    3.013560832272e-04
   142    4.739852759735e-05
   143   -2.530626572365e-04
   144   -2.113186478860e-15
   145    1.246889118806e-05
   146    5.481608266723e-04
   147   -8.541598853475e-05
   148    1.231530859211e-14
   149   -7.178588760779e-06
   150    2.221618284375e-16
   151   -7.343877932662e-16
   152    2.287290430054e-05
   153    6.928300991888e-06
   154    3.700095398044e-07
   155    1.491451686481e-06
   156    5.234586356533e-06
   157   -9.635792146184e-06
   158   -6.751134803112e-16
   159   -2.596383069859e-05
   160   -1.588013508197e-05
   161    2.554549216185e-05
   162    7.942650624341e-17
   163    2.737049411617e-04
   164    2.299985080013e-04
   165    7.113382676825e-05
   166   -9.173502891016e-16
   167   -3.030622974447e-05
   168    2.947867485314e-04
   169   -3.663070015690e-04
   170    7.667023592029e-15
   171   -7.679498509049e-06
   172   -2.551160583574e-16
   173    2.839641045283e-16
   174   -1.831164605584e-05
   175   -1.263790076634e-05
   176    1.277157897718e-07
   177   -6.314632616872e-07
   178    1.256531595210e-06
   179   -7.580739565567e-07
   180   -1.365205178980e-15
   181    1.225925022013e-05
   182   -6.488116623578e-06
   183    6.731975915779e-06
   184    5.550568885925e-16
   185   -6.175865182554e-05
   186    4.874999587585e-05
   187   -2.871066448606e-05
   188   -8.392343724195e-16
   189   -2.955339243179e-03
   190    4.559305074055e-04
   191   -2.994412499040e-04
   192    1.533087621290e-14
   193    5.185618693947e-06
   194   -4.142544548655e-17
   195   -3.979075302161e-16
   196    1.849742612806e-08
   197   -3.107530324527e-06
   198    1.321167753113e-06
   199   -8.505003414994e-06
   200   -2.096115592353e-05
   201   -1.795478240672e-04
   202   -4.828639293844e-07
   203    4.249250153396e-07
   204    8.127933039568e-16
Sym=X
Ene= 0.819678
Spin=Alpha
Occup=0
     1   -4.418044357321e-15
     2   -7.781068480183e-15
     3    6.880236369875e-15
     4   -1.799457847074e-14
     5   -8.433251777605e-03
     6    3.736821244399e-14
     7   -2.752500397407e-14
     8   -7.715487549853e-15
     9   -3.092179610016e-02
    10    3.506195186715e-13
    11    2.486764998487e-14
    12    4.719057413641e-14
    13    5.571254330267e-02
    14   -5.549065742564e-12
    15   -1.890402465038e-13
    16   -2.161852221544e-12
    17   -2.917677552239e-01
    18    4.597258736115e-15
    19   -9.964221998227e-04
    20    5.597146455176e-03
    21    3.416056346372e-15
    22   -6.617836055416e-15
    23   -7.351996829170e-15
    24   -1.614040337178e-13
    25    3.726047679860e-13
    26    2.212702574162e-12
    27   -9.058582528066e-16
    28    4.526671520928e-15
    29   -5.962037574952e-03
    30   -1.962811652458e-15
    31   -5.388038292064e-14
    32    1.887500650358e-13
    33   -8.639760901966e-13
    34   -2.894942530312e-15
    35    7.118489531544e-15
    36   -6.143486574708e-03
    37   -9.671552480661e-16
    38    1.738078972473e-14
    39    5.620374419390e-13
    40   -5.601137988676e-13
    41    3.654800645413e-15
    42   -2.274858137499e-15
    43    7.696059860906e-03
    44   -3.152036374227e-16
    45   -3.910978245444e-15
    46    8.998394629480e-15
    47    3.743139717158e-15
    48   -4.717186517834e-03
    49    3.506657836596e-14
    50   -6.657496839239e-15
    51   -1.761650772045e-14
    52   -2.410587915813e-02
    53   -5.077687101994e-13
    54    5.815375041122e-13
    55    2.552476667060e-13
    56    4.888208884856e-02
    57    9.679217247358e-13
    58    2.202087191451e-12
    59    8.498664541937e-13
    60   -5.003201209603e-01
    61    8.827994106671e-15
    62    1.194441806685e-04
    63   -8.373576816125e-04
    64    1.948622653599e-15
    65    4.449568847917e-15
    66   -7.273882092829e-16
    67   -1.173380811632e-15
    68   -7.715080139984e-15
    69    6.428753539633e-15
    70    3.777632658544e-02
    71    7.082408633890e-15
    72   -2.137819418175e-14
    73    8.477278712313e-15
    74    4.886180951510e-02
    75    1.933999606867e-14
    76    5.502664740341e-14
    77   -4.174885451811e-14
    78    4.821951870415e-02
    79    1.604751233953e-12
    80    1.449013492441e-13
    81   -5.196355860841e-13
    82   -7.074293241441e-02
    83    1.629703323670e-15
    84    3.080760097173e-03
    85    1.119047007358e-03
    86    7.971122678196e-16
    87    1.707803907886e-15
    88   -7.784054020739e-16
    89    2.018834963026e-15
    90    6.567246386326e-16
    91    2.062044602464e-15
    92   -7.311942396296e-02
    93   -1.187923834345e-14
    94   -1.159084296551e-14
    95   -2.478663588946e-14
    96   -9.066430170001e-02
    97    1.694781024365e-13
    98   -1.949287739288e-13
    99    1.876525685020e-13
   100   -3.266259266339e-01
   101   -3.133882947950e-12
   102   -2.879931135771e-12
   103    1.358916458901e-12
   104    1.802550425350e+00
   105   -2.321586033293e-15
   106    3.311126132691e-03
   107   -2.524578066661e-03
   108   -8.085444724559e-16
   109   -5.767705210613e-15
   110   -2.824173221984e-15
   111   -4.858229191646e-15
   112    4.138971987251e-15
   113   -6.665286327668e-15
   114   -3.841745945992e-03
   115    1.743485094860e-14
   116    8.048628303698e-15
   117    1.041360604318e-15
   118   -2.447013892095e-02
   119    1.027811718279e-14
   120   -5.179129412209e-14
   121   -6.320912728462e-14
   122    9.187677096477e-02
   123    7.338431479291e-13
   124    3.544137324615e-13
   125    1.739952698551e-13
   126   -4.566453718551e-01
   127   -1.758748089690e-15
   128    4.742605121103e-03
   129    3.265368081672e-03
   130   -9.109230399628e-16
   131    2.585033586035e-15
   132   -1.349905738599e-15
   133   -3.310308094043e-15
   134    1.174563663409e-14
   135    1.155361640532e-14
   136   -1.661011696548e-02
   137    1.743970364957e-14
   138    1.984252084137e-14
   139    2.400933871191e-14
   140   -2.637043539513e-02
   141   -1.759039595088e-13
   142    6.088394312621e-14
   143    3.543313644774e-14
   144   -3.624133545519e-02
   145   -5.438705650726e-12
   146    3.906674061039e-13
   147   -1.404688678160e-13
   148    1.465597173261e-01
   149    9.556213799729e-16
   150   -2.802197621815e-03
   151    6.930433706066e-03
   152    4.090652772159e-15
   153    1.657156018930e-15
   154   -1.529475833311e-15
   155    3.323226816917e-16
   156   -9.008629283469e-15
   157   -8.595671469035e-15
   158    3.959027655387e-02
   159    8.272886579186e-15
   160    9.913254703580e-15
   161   -1.062106541333e-14
   162    5.482746026915e-02
   163   -6.933382991238e-14
   164   -3.707593346982e-13
   165    4.421070985774e-14
   166    1.348553166285e-01
   167    2.334043435294e-12
   168    1.319187459238e-12
   169    5.291640352118e-13
   170   -3.949840444984e-01
   171    4.323268064741e-15
   172    3.789572804152e-03
   173    3.049494731311e-03
   174   -1.698090518698e-15
   175    3.986252511604e-16
   176   -2.112221604066e-15
   177   -3.203064411664e-15
   178    1.167544690098e-14
   179    3.752272389861e-15
   180   -1.169055489281e-02
   181   -2.242448594127e-15
   182   -4.523625028664e-15
   183    8.011158854736e-15
   184   -1.290058012284e-04
   185    1.851536034652e-13
   186    4.609550010502e-13
   187   -7.841883590545e-14
   188   -8.462163471721e-02
   189    7.074345400249e-12
   190    1.254909341697e-12
   191    1.690289200732e-12
   192   -2.508773628805e-02
   193    1.117932644931e-15
   194    7.179897852168e-03
   195   -4.650903008966e-03
   196    5.272996721976e-15
   197    4.335320504475e-15
   198   -4.510558619375e-15
   199   -7.999891489226e-14
   200   -7.647895437651e-13
   201    3.863612191030e-13
   202    6.177632536325e-15
   203   -1.345716911518e-15
   204    5.183631771026e-03
[5D]
