[Molden Format]
[Atoms] (Angs)
  C      1    6     -0.00714236     -1.70213747     -0.00000000
  H      2    1     -2.06882847     -1.44022412      0.00000000
  H      3    1     -0.12337987     -2.77567521      0.00000000
  H      4    1      0.04651892      1.98813947     -0.00000000
  C      5    6     -1.21953563      0.40211669      0.00000000
  O      6    8     -2.25921553      1.03043814      0.00000000
  C      7    6      1.28797806      0.34644937     -0.00000000
  O      8    8      2.31273661      1.00537216     -0.00000000
  N      9    7      0.03446295      0.97739857     -0.00000000
  N     10    7     -1.17287765     -0.98229824      0.00000000
  C     11    6      1.20107039     -1.10433419     -0.00000000
  H     12    1      2.11220096     -1.67699125     -0.00000000
[GTO]
1    0
S    6    1.000000
   4.56324000E+03    1.96665000E-03 
   6.82024000E+02    1.52306000E-02 
   1.54973000E+02    7.61269000E-02 
   4.44553000E+01    2.60801000E-01 
   1.30290000E+01    6.16462000E-01 
   1.82773000E+00    2.21006000E-01 
SP   3    1.000000
   2.09642000E+01    1.14660000E-01   4.02487000E-02 
   4.80331000E+00    9.19999000E-01   2.37594000E-01 
   1.45933000E+00   -3.03068000E-03   8.15854000E-01 
SP   1    1.000000
   4.83456000E-01    1.00000000E+00   1.00000000E+00 
SP   1    1.000000
   1.45585000E-01    1.00000000E+00   1.00000000E+00 
SP   1    1.000000
   4.38000000E-02    1.00000000E+00   1.00000000E+00 
D    1    1.000000
   6.26000000E-01    1.00000000E+00 

2    0
S    3    1.000000
   3.38650000E+01    2.54938000E-02 
   5.09479000E+00    1.90373000E-01 
   1.15879000E+00    8.52161000E-01 
S    1    1.000000
   3.25840000E-01    1.00000000E+00 
S    1    1.000000
   1.02741000E-01    1.00000000E+00 
S    1    1.000000
   3.60000000E-02    1.00000000E+00 
P    1    1.000000
   7.50000000E-01    1.00000000E+00 

3    0
S    3    1.000000
   3.38650000E+01    2.54938000E-02 
   5.09479000E+00    1.90373000E-01 
   1.15879000E+00    8.52161000E-01 
S    1    1.000000
   3.25840000E-01    1.00000000E+00 
S    1    1.000000
   1.02741000E-01    1.00000000E+00 
S    1    1.000000
   3.60000000E-02    1.00000000E+00 
P    1    1.000000
   7.50000000E-01    1.00000000E+00 

4    0
S    3    1.000000
   3.38650000E+01    2.54938000E-02 
   5.09479000E+00    1.90373000E-01 
   1.15879000E+00    8.52161000E-01 
S    1    1.000000
   3.25840000E-01    1.00000000E+00 
S    1    1.000000
   1.02741000E-01    1.00000000E+00 
S    1    1.000000
   3.60000000E-02    1.00000000E+00 
P    1    1.000000
   7.50000000E-01    1.00000000E+00 

5    0
S    6    1.000000
   4.56324000E+03    1.96665000E-03 
   6.82024000E+02    1.52306000E-02 
   1.54973000E+02    7.61269000E-02 
   4.44553000E+01    2.60801000E-01 
   1.30290000E+01    6.16462000E-01 
   1.82773000E+00    2.21006000E-01 
SP   3    1.000000
   2.09642000E+01    1.14660000E-01   4.02487000E-02 
   4.80331000E+00    9.19999000E-01   2.37594000E-01 
   1.45933000E+00   -3.03068000E-03   8.15854000E-01 
SP   1    1.000000
   4.83456000E-01    1.00000000E+00   1.00000000E+00 
SP   1    1.000000
   1.45585000E-01    1.00000000E+00   1.00000000E+00 
SP   1    1.000000
   4.38000000E-02    1.00000000E+00   1.00000000E+00 
D    1    1.000000
   6.26000000E-01    1.00000000E+00 

6    0
S    6    1.000000
   8.58850000E+03    1.89515000E-03 
   1.29723000E+03    1.43859000E-02 
   2.99296000E+02    7.07320000E-02 
   8.73771000E+01    2.40001000E-01 
   2.56789000E+01    5.94797000E-01 
   3.74004000E+00    2.80802000E-01 
SP   3    1.000000
   4.21175000E+01    1.13889000E-01   3.65114000E-02 
   9.62837000E+00    9.20811000E-01   2.37153000E-01 
   2.85332000E+00   -3.27447000E-03   8.19702000E-01 
SP   1    1.000000
   9.05661000E-01    1.00000000E+00   1.00000000E+00 
SP   1    1.000000
   2.55611000E-01    1.00000000E+00   1.00000000E+00 
SP   1    1.000000
   8.45000000E-02    1.00000000E+00   1.00000000E+00 
D    1    1.000000
   1.29200000E+00    1.00000000E+00 

7    0
S    6    1.000000
   4.56324000E+03    1.96665000E-03 
   6.82024000E+02    1.52306000E-02 
   1.54973000E+02    7.61269000E-02 
   4.44553000E+01    2.60801000E-01 
   1.30290000E+01    6.16462000E-01 
   1.82773000E+00    2.21006000E-01 
SP   3    1.000000
   2.09642000E+01    1.14660000E-01   4.02487000E-02 
   4.80331000E+00    9.19999000E-01   2.37594000E-01 
   1.45933000E+00   -3.03068000E-03   8.15854000E-01 
SP   1    1.000000
   4.83456000E-01    1.00000000E+00   1.00000000E+00 
SP   1    1.000000
   1.45585000E-01    1.00000000E+00   1.00000000E+00 
SP   1    1.000000
   4.38000000E-02    1.00000000E+00   1.00000000E+00 
D    1    1.000000
   6.26000000E-01    1.00000000E+00 

8    0
S    6    1.000000
   8.58850000E+03    1.89515000E-03 
   1.29723000E+03    1.43859000E-02 
   2.99296000E+02    7.07320000E-02 
   8.73771000E+01    2.40001000E-01 
   2.56789000E+01    5.94797000E-01 
   3.74004000E+00    2.80802000E-01 
SP   3    1.000000
   4.21175000E+01    1.13889000E-01   3.65114000E-02 
   9.62837000E+00    9.20811000E-01   2.37153000E-01 
   2.85332000E+00   -3.27447000E-03   8.19702000E-01 
SP   1    1.000000
   9.05661000E-01    1.00000000E+00   1.00000000E+00 
SP   1    1.000000
   2.55611000E-01    1.00000000E+00   1.00000000E+00 
SP   1    1.000000
   8.45000000E-02    1.00000000E+00   1.00000000E+00 
D    1    1.000000
   1.29200000E+00    1.00000000E+00 

9    0
S    6    1.000000
   6.29348000E+03    1.96979000E-03 
   9.49044000E+02    1.49613000E-02 
   2.18776000E+02    7.35006000E-02 
   6.36916000E+01    2.48937000E-01 
   1.88282000E+01    6.02460000E-01 
   2.72023000E+00    2.56202000E-01 
SP   3    1.000000
   3.06331000E+01    1.11906000E-01   3.83119000E-02 
   7.02614000E+00    9.21666000E-01   2.37403000E-01 
   2.11205000E+00   -2.56919000E-03   8.17592000E-01 
SP   1    1.000000
   6.84009000E-01    1.00000000E+00   1.00000000E+00 
SP   1    1.000000
   2.00878000E-01    1.00000000E+00   1.00000000E+00 
SP   1    1.000000
   6.39000000E-02    1.00000000E+00   1.00000000E+00 
D    1    1.000000
   9.13000000E-01    1.00000000E+00 

10    0
S    6    1.000000
   6.29348000E+03    1.96979000E-03 
   9.49044000E+02    1.49613000E-02 
   2.18776000E+02    7.35006000E-02 
   6.36916000E+01    2.48937000E-01 
   1.88282000E+01    6.02460000E-01 
   2.72023000E+00    2.56202000E-01 
SP   3    1.000000
   3.06331000E+01    1.11906000E-01   3.83119000E-02 
   7.02614000E+00    9.21666000E-01   2.37403000E-01 
   2.11205000E+00   -2.56919000E-03   8.17592000E-01 
SP   1    1.000000
   6.84009000E-01    1.00000000E+00   1.00000000E+00 
SP   1    1.000000
   2.00878000E-01    1.00000000E+00   1.00000000E+00 
SP   1    1.000000
   6.39000000E-02    1.00000000E+00   1.00000000E+00 
D    1    1.000000
   9.13000000E-01    1.00000000E+00 

11    0
S    6    1.000000
   4.56324000E+03    1.96665000E-03 
   6.82024000E+02    1.52306000E-02 
   1.54973000E+02    7.61269000E-02 
   4.44553000E+01    2.60801000E-01 
   1.30290000E+01    6.16462000E-01 
   1.82773000E+00    2.21006000E-01 
SP   3    1.000000
   2.09642000E+01    1.14660000E-01   4.02487000E-02 
   4.80331000E+00    9.19999000E-01   2.37594000E-01 
   1.45933000E+00   -3.03068000E-03   8.15854000E-01 
SP   1    1.000000
   4.83456000E-01    1.00000000E+00   1.00000000E+00 
SP   1    1.000000
   1.45585000E-01    1.00000000E+00   1.00000000E+00 
SP   1    1.000000
   4.38000000E-02    1.00000000E+00   1.00000000E+00 
D    1    1.000000
   6.26000000E-01    1.00000000E+00 

12    0
S    3    1.000000
   3.38650000E+01    2.54938000E-02 
   5.09479000E+00    1.90373000E-01 
   1.15879000E+00    8.52161000E-01 
S    1    1.000000
   3.25840000E-01    1.00000000E+00 
S    1    1.000000
   1.02741000E-01    1.00000000E+00 
S    1    1.000000
   3.60000000E-02    1.00000000E+00 
P    1    1.000000
   7.50000000E-01    1.00000000E+00 

[MO]
Sym=X
Ene= -0.816277
Spin=Alpha
Occup=1
     1   -6.821735088161e-08
     2   -1.099051538596e-06
     3    3.205294316971e-06
     4    3.380063243093e-07
     5    5.388715456351e-16
     6    1.074846435922e-05
     7   -1.018112891888e-05
     8    1.133368010071e-06
     9   -9.282542889644e-16
    10   -6.216196802495e-04
    11   -1.369065419515e-04
    12   -2.582955874030e-04
    13    5.645115174786e-15
    14    8.055487032123e-05
    15    3.154546229839e-04
    16   -6.116961035323e-04
    17   -2.184274079515e-14
    18    9.277694760967e-07
    19    8.682858064808e-16
    20    9.378773864185e-16
    21   -3.944037618910e-06
    22    4.566628906208e-06
    23    1.029785247475e-07
    24    5.957464925684e-06
    25   -3.580896785820e-05
    26    7.431956952782e-05
    27   -3.364606220419e-06
    28    9.696852840397e-07
    29   -6.459258492065e-16
    30   -2.514811421356e-06
    31    3.854899157340e-06
    32   -1.320101585162e-04
    33   -3.102298115583e-04
    34    5.768899989200e-06
    35    6.279737088660e-07
    36    9.278759056467e-16
    37    2.099617296736e-06
    38    7.418655265171e-05
    39    1.044090608575e-04
    40    9.231721742689e-05
    41   -1.051779466375e-05
    42   -6.770753919502e-06
    43    4.427396142517e-16
    44   -6.617830786884e-07
    45    1.742888863263e-06
    46    7.017677992525e-06
    47    3.557627937020e-07
    48   -9.224542361112e-16
    49   -1.097460443854e-05
    50   -3.174328322822e-05
    51   -3.087814982462e-06
    52    2.275787645380e-15
    53   -3.114972999069e-04
    54   -1.470927743758e-04
    55    1.399398982443e-05
    56   -1.816470055950e-15
    57   -2.665088358011e-04
    58   -4.856533611777e-06
    59   -1.807525167102e-04
    60   -9.962082354654e-15
    61    4.553824258377e-06
    62   -3.106316293902e-16
    63    1.377438398935e-15
    64   -6.985201056210e-06
    65   -1.167278336326e-07
    66    2.145073408700e-06
    67    2.872509817077e-06
    68    4.422897369708e-07
    69   -2.487209807701e-07
    70    2.090740182785e-16
    71   -8.842394041659e-06
    72   -4.300223198552e-06
    73    6.528446410935e-07
    74    1.941627876360e-16
    75    2.844702567965e-05
    76    1.765331533562e-05
    77   -2.340426587029e-07
    78   -2.521962996609e-15
    79   -2.506030834330e-04
    80   -1.390599442748e-04
    81    4.495305407566e-05
    82    3.153981922973e-15
    83    3.447668343227e-07
    84   -3.352575229333e-16
    85    2.164318306244e-16
    86    3.856633744758e-07
    87   -5.014096529220e-08
    88    5.252253589605e-06
    89   -7.587398049515e-05
    90    5.788507056602e-05
    91    4.456243694358e-05
    92   -1.057862172035e-15
    93    3.117090494858e-04
    94    3.436981653150e-04
    95    2.110138200313e-04
    96    1.642145265715e-15
    97   -2.009578726891e-04
    98    6.309835282864e-04
    99    5.068094267160e-04
   100    2.440535091842e-16
   101   -2.198682288032e-03
   102   -6.660336957139e-04
   103    4.852076204410e-04
   104    1.761728916421e-15
   105   -5.259090297072e-05
   106    9.342638384537e-16
   107   -6.895470614121e-16
   108    8.628284256924e-05
   109    1.839021387665e-04
   110    5.514845391560e-01
   111    4.716808876531e-01
   112   -1.529672602823e-03
   113   -9.206178120282e-04
   114    1.679599491267e-15
   115    5.510059180455e-03
   116    6.170224575076e-04
   117    3.714907741953e-04
   118   -2.548747504857e-15
   119   -1.367251155148e-03
   120   -1.153051861978e-04
   121   -6.828367432706e-05
   122    3.605329019408e-15
   123    1.194705354330e-03
   124    1.207162371770e-05
   125    1.528195604823e-05
   126   -6.257527935800e-15
   127   -1.192653050845e-04
   128    8.904141952713e-16
   129    9.583610342273e-16
   130   -3.743101682801e-05
   131   -7.496158275892e-05
   132    3.267175487823e-07
   133    2.824068566780e-06
   134   -1.088875244415e-05
   135    6.073028593617e-07
   136    5.929074179546e-16
   137   -4.016966094281e-05
   138    2.883779245129e-05
   139    1.550076384115e-06
   140   -5.316625596339e-16
   141    3.636415570015e-04
   142   -7.247234610740e-05
   143   -3.033383588145e-04
   144    1.572944108387e-16
   145   -9.822881398416e-05
   146   -5.998600243856e-04
   147   -1.402651109988e-04
   148    2.379479258117e-15
   149   -8.932250272416e-06
   150    6.025434472624e-16
   151   -6.806523199628e-16
   152    2.146885193815e-05
   153   -1.164444222135e-05
   154   -2.067620976302e-08
   155    6.763189633100e-07
   156    3.408464844743e-07
   157    2.449833490243e-07
   158   -1.216077194652e-15
   159   -9.420490665538e-06
   160   -1.263219551489e-06
   161   -1.826285143660e-06
   162    2.848238715319e-15
   163    1.507433127661e-04
   164    7.204659811906e-05
   165    2.026253210493e-05
   166   -7.070706303419e-15
   167    2.170236876678e-04
   168   -4.951299813154e-05
   169    9.802614099864e-06
   170    1.838436833992e-14
   171    8.756513689188e-07
   172   -1.712039879465e-15
   173    1.160998930454e-16
   174    6.850510297670e-07
   175   -4.126171173711e-07
   176    9.950371692144e-07
   177    1.979512986193e-06
   178   -3.381536297701e-06
   179   -1.593834191005e-05
   180    6.095581500875e-16
   181   -2.978415945143e-05
   182    1.170517087339e-06
   183    7.381562721360e-05
   184   -5.746238376061e-16
   185    7.521095378179e-04
   186   -6.129897567846e-04
   187    1.598959714747e-04
   188   -4.311899304204e-15
   189    1.642720359045e-03
   190    7.079179987198e-05
   191    1.173217882453e-03
   192    1.412841421979e-14
   193   -6.325711959427e-06
   194    9.682081123557e-16
   195    1.011714349597e-15
   196   -2.959685752689e-05
   197    2.348851046281e-05
   198   -3.927621419412e-06
   199    1.319186413361e-04
   200    1.926908005044e-04
   201    3.705048900643e-04
   202   -1.913569123454e-05
   203    1.139907562981e-05
   204   -7.605495470249e-16
Sym=X
Ene= 0.816277
Spin=Alpha
Occup=0
     1   -1.753764961324e-15
     2    2.570780733867e-15
     3    5.367637504405e-15
     4   -1.060563124540e-14
     5    1.659385880177e-02
     6   -1.311589910048e-14
     7   -2.880661208437e-14
     8   -5.488580471165e-14
     9    3.028040808632e-02
    10   -1.499716153779e-13
    11    4.538847260045e-14
    12   -3.100843572194e-14
    13    7.392701671121e-02
    14    8.848434242051e-12
    15    2.478935260525e-12
    16    3.889892893411e-12
    17    8.341910850094e-01
    18    9.045272747504e-15
    19   -1.004159336790e-02
    20   -7.845661210023e-03
    21    6.030011201602e-15
    22   -1.879527570397e-15
    23    3.506234554082e-15
    24    6.562201872030e-14
    25    2.905013735607e-13
    26    3.463720000258e-14
    27    1.498784608211e-14
    28    5.527734243946e-15
    29    1.258190741769e-03
    30    1.416145651282e-15
    31   -1.353054934622e-13
    32    7.141683043467e-13
    33    4.078202692098e-12
    34    2.702246598943e-15
    35    4.634145629403e-16
    36    5.456611619214e-03
    37    1.053674415982e-14
    38   -1.184386448217e-13
    39    1.530927324072e-12
    40    2.814502272001e-15
    41   -3.148538547877e-15
    42    1.150451797738e-14
    43    5.515180746513e-03
    44   -1.878668877486e-15
    45   -3.475220010620e-15
    46    1.973122960700e-14
    47    2.733418380684e-15
    48   -6.221876828554e-02
    49    1.830036749861e-14
    50   -1.298329526361e-14
    51    1.546784935580e-14
    52   -1.133069425671e-01
    53   -2.283246928462e-13
    54    4.340185105775e-13
    55   -3.503972459466e-14
    56   -1.452933653948e-01
    57   -1.826126660270e-12
    58    7.792153586378e-13
    59    1.595320165724e-12
    60    5.074451873365e-01
    61    9.078348942402e-15
    62   -1.221179950591e-02
    63    7.179908282450e-03
    64    7.095328370449e-15
    65    1.725343949496e-15
    66    1.703990747177e-15
    67    1.985984660548e-16
    68   -7.485878744547e-15
    69   -2.903545017200e-15
    70    2.438205738084e-02
    71    3.988509299704e-15
    72   -2.940433870656e-14
    73   -1.778295244488e-14
    74    3.209913209341e-02
    75   -6.123161437378e-14
    76    6.110169418407e-14
    77    4.743438998651e-14
    78    7.195847871959e-02
    79    1.573021031800e-12
    80    2.436798605939e-13
    81   -7.915909550933e-13
    82   -1.778861842153e-02
    83    3.780721153972e-15
    84   -2.893062995189e-03
    85    2.109507291129e-03
    86    6.598400745938e-16
    87    4.117269495316e-15
    88   -2.110159934886e-15
    89   -1.993376972280e-15
    90    4.131819708441e-16
    91    2.227807067407e-15
    92   -2.674237354585e-02
    93   -5.519702620879e-15
    94   -2.890218735771e-14
    95   -1.210654271364e-14
    96   -3.990299505454e-02
    97    4.379577599181e-13
    98   -3.311036609945e-14
    99    1.365568495999e-13
   100   -5.821292933732e-02
   101    5.140328324571e-12
   102   -4.647981338974e-12
   103    4.137974661916e-13
   104    1.735516528404e+00
   105   -3.147810392428e-15
   106   -7.737944235002e-03
   107    1.038186704782e-02
   108    1.778725048732e-14
   109    5.359837445607e-16
   110   -1.557720735180e-15
   111   -6.450947785441e-15
   112    7.274325424950e-15
   113   -2.445639018983e-14
   114   -5.627296129296e-02
   115    2.563916076415e-14
   116    1.421088314254e-14
   117   -1.563571841407e-14
   118   -8.008736083044e-02
   119   -3.322802042894e-14
   120   -7.629521487391e-14
   121   -7.962433478434e-14
   122   -3.472361038386e-02
   123    3.706946825834e-13
   124    6.782575273590e-13
   125    4.265559155064e-13
   126   -1.223542956733e-01
   127   -4.907477069619e-15
   128    4.443997975574e-03
   129    4.641003153820e-03
   130   -2.320812846873e-15
   131    3.244903699242e-15
   132    6.167549691529e-15
   133    1.082876203768e-14
   134    1.864093196709e-14
   135   -2.463429581033e-14
   136   -9.858666059044e-03
   137   -4.155837946105e-14
   138    2.369366155686e-14
   139   -5.443028438522e-14
   140   -3.202959573582e-02
   141   -3.702908510921e-14
   142    1.037237277905e-13
   143    1.617444785937e-13
   144    4.712672369652e-02
   145   -6.060733943356e-12
   146   -1.955794495913e-13
   147   -1.315264816568e-12
   148   -5.448784112551e-01
   149   -3.979510609145e-15
   150    7.325657157427e-03
   151    6.443467614544e-03
   152   -2.162375506801e-15
   153    2.061949475826e-15
   154   -1.070507735675e-15
   155    3.264853250094e-15
   156   -4.676006863230e-15
   157   -1.090709102567e-14
   158   -1.054748397540e-02
   159    5.099690267834e-15
   160   -3.645189749856e-14
   161   -1.853215940816e-14
   162   -2.888770185636e-02
   163   -2.241485560789e-13
   164    1.666130393620e-13
   165    4.586946915382e-14
   166    3.148785396693e-02
   167    1.164169968094e-12
   168    2.340880408390e-13
   169   -6.622548567855e-13
   170   -4.631342876899e-01
   171    7.840179142743e-15
   172    1.707371296661e-03
   173   -9.071972697852e-03
   174   -8.085239144989e-15
   175   -2.086471482271e-15
   176   -1.010826319264e-14
   177   -1.050140878543e-14
   178    2.300716383875e-14
   179   -1.676512625483e-14
   180   -7.274384096728e-02
   181   -8.340476657697e-15
   182   -1.115712840400e-14
   183   -1.459791208994e-14
   184   -1.041019952982e-01
   185    6.467377824805e-13
   186    3.135953876977e-13
   187   -1.330278182673e-13
   188   -2.647434844602e-01
   189   -1.193440329754e-11
   190    7.157851478462e-12
   191   -1.420940306846e-13
   192   -9.735750091646e-01
   193   -1.637288771834e-14
   194   -2.036966474785e-03
   195   -6.263266428125e-03
   196    3.439937608608e-15
   197    5.319045832589e-15
   198    4.275977196653e-16
   199   -3.139435353439e-14
   200   -8.540018348675e-13
   201   -3.059255568654e-12
   202   -3.218449576520e-15
   203   -2.178606363775e-15
   204   -3.850047975486e-03
[5D]
