[Molden Format]
[Atoms] (Angs)
  C      1    6     -0.00714236     -1.70213747     -0.00000000
  H      2    1     -2.06882847     -1.44022412      0.00000000
  H      3    1     -0.12337987     -2.77567521      0.00000000
  H      4    1      0.04651892      1.98813947     -0.00000000
  C      5    6     -1.21953563      0.40211669      0.00000000
  O      6    8     -2.25921553      1.03043814      0.00000000
  C      7    6      1.28797806      0.34644937     -0.00000000
  O      8    8      2.31273661      1.00537216     -0.00000000
  N      9    7      0.03446295      0.97739857     -0.00000000
  N     10    7     -1.17287765     -0.98229824      0.00000000
  C     11    6      1.20107039     -1.10433419     -0.00000000
  H     12    1      2.11220096     -1.67699125     -0.00000000
[GTO]
1    0
S    6    1.000000
   4.56324000E+03    1.96665000E-03 
   6.82024000E+02    1.52306000E-02 
   1.54973000E+02    7.61269000E-02 
   4.44553000E+01    2.60801000E-01 
   1.30290000E+01    6.16462000E-01 
   1.82773000E+00    2.21006000E-01 
SP   3    1.000000
   2.09642000E+01    1.14660000E-01   4.02487000E-02 
   4.80331000E+00    9.19999000E-01   2.37594000E-01 
   1.45933000E+00   -3.03068000E-03   8.15854000E-01 
SP   1    1.000000
   4.83456000E-01    1.00000000E+00   1.00000000E+00 
SP   1    1.000000
   1.45585000E-01    1.00000000E+00   1.00000000E+00 
SP   1    1.000000
   4.38000000E-02    1.00000000E+00   1.00000000E+00 
D    1    1.000000
   6.26000000E-01    1.00000000E+00 

2    0
S    3    1.000000
   3.38650000E+01    2.54938000E-02 
   5.09479000E+00    1.90373000E-01 
   1.15879000E+00    8.52161000E-01 
S    1    1.000000
   3.25840000E-01    1.00000000E+00 
S    1    1.000000
   1.02741000E-01    1.00000000E+00 
S    1    1.000000
   3.60000000E-02    1.00000000E+00 
P    1    1.000000
   7.50000000E-01    1.00000000E+00 

3    0
S    3    1.000000
   3.38650000E+01    2.54938000E-02 
   5.09479000E+00    1.90373000E-01 
   1.15879000E+00    8.52161000E-01 
S    1    1.000000
   3.25840000E-01    1.00000000E+00 
S    1    1.000000
   1.02741000E-01    1.00000000E+00 
S    1    1.000000
   3.60000000E-02    1.00000000E+00 
P    1    1.000000
   7.50000000E-01    1.00000000E+00 

4    0
S    3    1.000000
   3.38650000E+01    2.54938000E-02 
   5.09479000E+00    1.90373000E-01 
   1.15879000E+00    8.52161000E-01 
S    1    1.000000
   3.25840000E-01    1.00000000E+00 
S    1    1.000000
   1.02741000E-01    1.00000000E+00 
S    1    1.000000
   3.60000000E-02    1.00000000E+00 
P    1    1.000000
   7.50000000E-01    1.00000000E+00 

5    0
S    6    1.000000
   4.56324000E+03    1.96665000E-03 
   6.82024000E+02    1.52306000E-02 
   1.54973000E+02    7.61269000E-02 
   4.44553000E+01    2.60801000E-01 
   1.30290000E+01    6.16462000E-01 
   1.82773000E+00    2.21006000E-01 
SP   3    1.000000
   2.09642000E+01    1.14660000E-01   4.02487000E-02 
   4.80331000E+00    9.19999000E-01   2.37594000E-01 
   1.45933000E+00   -3.03068000E-03   8.15854000E-01 
SP   1    1.000000
   4.83456000E-01    1.00000000E+00   1.00000000E+00 
SP   1    1.000000
   1.45585000E-01    1.00000000E+00   1.00000000E+00 
SP   1    1.000000
   4.38000000E-02    1.00000000E+00   1.00000000E+00 
D    1    1.000000
   6.26000000E-01    1.00000000E+00 

6    0
S    6    1.000000
   8.58850000E+03    1.89515000E-03 
   1.29723000E+03    1.43859000E-02 
   2.99296000E+02    7.07320000E-02 
   8.73771000E+01    2.40001000E-01 
   2.56789000E+01    5.94797000E-01 
   3.74004000E+00    2.80802000E-01 
SP   3    1.000000
   4.21175000E+01    1.13889000E-01   3.65114000E-02 
   9.62837000E+00    9.20811000E-01   2.37153000E-01 
   2.85332000E+00   -3.27447000E-03   8.19702000E-01 
SP   1    1.000000
   9.05661000E-01    1.00000000E+00   1.00000000E+00 
SP   1    1.000000
   2.55611000E-01    1.00000000E+00   1.00000000E+00 
SP   1    1.000000
   8.45000000E-02    1.00000000E+00   1.00000000E+00 
D    1    1.000000
   1.29200000E+00    1.00000000E+00 

7    0
S    6    1.000000
   4.56324000E+03    1.96665000E-03 
   6.82024000E+02    1.52306000E-02 
   1.54973000E+02    7.61269000E-02 
   4.44553000E+01    2.60801000E-01 
   1.30290000E+01    6.16462000E-01 
   1.82773000E+00    2.21006000E-01 
SP   3    1.000000
   2.09642000E+01    1.14660000E-01   4.02487000E-02 
   4.80331000E+00    9.19999000E-01   2.37594000E-01 
   1.45933000E+00   -3.03068000E-03   8.15854000E-01 
SP   1    1.000000
   4.83456000E-01    1.00000000E+00   1.00000000E+00 
SP   1    1.000000
   1.45585000E-01    1.00000000E+00   1.00000000E+00 
SP   1    1.000000
   4.38000000E-02    1.00000000E+00   1.00000000E+00 
D    1    1.000000
   6.26000000E-01    1.00000000E+00 

8    0
S    6    1.000000
   8.58850000E+03    1.89515000E-03 
   1.29723000E+03    1.43859000E-02 
   2.99296000E+02    7.07320000E-02 
   8.73771000E+01    2.40001000E-01 
   2.56789000E+01    5.94797000E-01 
   3.74004000E+00    2.80802000E-01 
SP   3    1.000000
   4.21175000E+01    1.13889000E-01   3.65114000E-02 
   9.62837000E+00    9.20811000E-01   2.37153000E-01 
   2.85332000E+00   -3.27447000E-03   8.19702000E-01 
SP   1    1.000000
   9.05661000E-01    1.00000000E+00   1.00000000E+00 
SP   1    1.000000
   2.55611000E-01    1.00000000E+00   1.00000000E+00 
SP   1    1.000000
   8.45000000E-02    1.00000000E+00   1.00000000E+00 
D    1    1.000000
   1.29200000E+00    1.00000000E+00 

9    0
S    6    1.000000
   6.29348000E+03    1.96979000E-03 
   9.49044000E+02    1.49613000E-02 
   2.18776000E+02    7.35006000E-02 
   6.36916000E+01    2.48937000E-01 
   1.88282000E+01    6.02460000E-01 
   2.72023000E+00    2.56202000E-01 
SP   3    1.000000
   3.06331000E+01    1.11906000E-01   3.83119000E-02 
   7.02614000E+00    9.21666000E-01   2.37403000E-01 
   2.11205000E+00   -2.56919000E-03   8.17592000E-01 
SP   1    1.000000
   6.84009000E-01    1.00000000E+00   1.00000000E+00 
SP   1    1.000000
   2.00878000E-01    1.00000000E+00   1.00000000E+00 
SP   1    1.000000
   6.39000000E-02    1.00000000E+00   1.00000000E+00 
D    1    1.000000
   9.13000000E-01    1.00000000E+00 

10    0
S    6    1.000000
   6.29348000E+03    1.96979000E-03 
   9.49044000E+02    1.49613000E-02 
   2.18776000E+02    7.35006000E-02 
   6.36916000E+01    2.48937000E-01 
   1.88282000E+01    6.02460000E-01 
   2.72023000E+00    2.56202000E-01 
SP   3    1.000000
   3.06331000E+01    1.11906000E-01   3.83119000E-02 
   7.02614000E+00    9.21666000E-01   2.37403000E-01 
   2.11205000E+00   -2.56919000E-03   8.17592000E-01 
SP   1    1.000000
   6.84009000E-01    1.00000000E+00   1.00000000E+00 
SP   1    1.000000
   2.00878000E-01    1.00000000E+00   1.00000000E+00 
SP   1    1.000000
   6.39000000E-02    1.00000000E+00   1.00000000E+00 
D    1    1.000000
   9.13000000E-01    1.00000000E+00 

11    0
S    6    1.000000
   4.56324000E+03    1.96665000E-03 
   6.82024000E+02    1.52306000E-02 
   1.54973000E+02    7.61269000E-02 
   4.44553000E+01    2.60801000E-01 
   1.30290000E+01    6.16462000E-01 
   1.82773000E+00    2.21006000E-01 
SP   3    1.000000
   2.09642000E+01    1.14660000E-01   4.02487000E-02 
   4.80331000E+00    9.19999000E-01   2.37594000E-01 
   1.45933000E+00   -3.03068000E-03   8.15854000E-01 
SP   1    1.000000
   4.83456000E-01    1.00000000E+00   1.00000000E+00 
SP   1    1.000000
   1.45585000E-01    1.00000000E+00   1.00000000E+00 
SP   1    1.000000
   4.38000000E-02    1.00000000E+00   1.00000000E+00 
D    1    1.000000
   6.26000000E-01    1.00000000E+00 

12    0
S    3    1.000000
   3.38650000E+01    2.54938000E-02 
   5.09479000E+00    1.90373000E-01 
   1.15879000E+00    8.52161000E-01 
S    1    1.000000
   3.25840000E-01    1.00000000E+00 
S    1    1.000000
   1.02741000E-01    1.00000000E+00 
S    1    1.000000
   3.60000000E-02    1.00000000E+00 
P    1    1.000000
   7.50000000E-01    1.00000000E+00 

[MO]
Sym=X
Ene= -0.817156
Spin=Alpha
Occup=1
     1   -5.612176572705e-08
     2   -1.080602612150e-06
     3    3.225609425959e-06
     4    2.540153834510e-07
     5    5.387976354886e-16
     6    1.090037341608e-05
     7   -1.015178738081e-05
     8    9.586691076509e-07
     9   -9.283614345891e-16
    10   -6.219882594699e-04
    11   -1.369061388612e-04
    12   -2.583218027967e-04
    13    5.645298885853e-15
    14    7.886893662453e-05
    15    3.151803258065e-04
    16   -6.119375710762e-04
    17   -2.184342106644e-14
    18    9.112702628003e-07
    19    8.682971822712e-16
    20    9.378464479601e-16
    21   -3.939739565963e-06
    22    4.568214211493e-06
    23    4.195871405841e-09
    24    5.779229185912e-06
    25   -3.578853194121e-05
    26    7.438907519011e-05
    27   -3.373560815399e-06
    28    9.674860701711e-07
    29   -6.459845323795e-16
    30   -2.649631261087e-06
    31    3.557204446662e-06
    32   -1.319854673242e-04
    33   -3.102500574035e-04
    34    5.771239633678e-06
    35    6.325249778730e-07
    36    9.278597715148e-16
    37    2.311454799093e-06
    38    7.460376083181e-05
    39    1.044147478016e-04
    40    9.213304323402e-05
    41   -1.050820337327e-05
    42   -6.791051275195e-06
    43    4.427068378327e-16
    44   -6.703683558804e-07
    45    1.726387917749e-06
    46    7.029274647423e-06
    47    3.267095627063e-07
    48   -9.225021517126e-16
    49   -1.088344075265e-05
    50   -3.171778032033e-05
    51   -3.142771913114e-06
    52    2.275753599100e-15
    53   -3.113509148946e-04
    54   -1.469448471646e-04
    55    1.411959679776e-05
    56   -1.816144621128e-15
    57   -2.662545148534e-04
    58   -4.724763577453e-06
    59   -1.806202222184e-04
    60   -9.962743688444e-15
    61    4.554940379738e-06
    62   -3.106883197884e-16
    63    1.377412174925e-15
    64   -7.061663998603e-06
    65   -1.345956411773e-07
    66    7.636200638309e-06
    67    7.570803305645e-06
    68    5.131365720902e-07
    69   -1.145365490541e-07
    70    2.090525200948e-16
    71   -8.813360892370e-06
    72   -4.210014787656e-06
    73    8.927106014938e-07
    74    1.942555541642e-16
    75    2.846301590841e-05
    76    1.780047268624e-05
    77    7.611137860798e-08
    78   -2.522480489622e-15
    79   -2.505606766424e-04
    80   -1.390291063869e-04
    81    4.498812760206e-05
    82    3.154671954234e-15
    83    3.450164172366e-07
    84   -3.352613399545e-16
    85    2.164233075183e-16
    86    3.928536360679e-07
    87   -4.339807281249e-08
    88    5.239254734296e-06
    89   -7.589727015281e-05
    90    5.787886899985e-05
    91    4.454128092551e-05
    92   -1.057864778703e-15
    93    3.118058221742e-04
    94    3.437029603905e-04
    95    2.109505496313e-04
    96    1.642303506453e-15
    97   -2.008753104632e-04
    98    6.307515214684e-04
    99    5.068993142742e-04
   100    2.437236812049e-16
   101   -2.199708554464e-03
   102   -6.659775117199e-04
   103    4.856258193784e-04
   104    1.761222737908e-15
   105   -5.258209034626e-05
   106    9.342738179942e-16
   107   -6.895626227095e-16
   108    8.613436504932e-05
   109    1.839456263240e-04
   110    5.514845399898e-01
   111    4.716808886355e-01
   112   -1.529760848742e-03
   113   -9.203560042431e-04
   114    1.679734019024e-15
   115    5.509943113582e-03
   116    6.168519256332e-04
   117    3.719714378748e-04
   118   -2.548544330450e-15
   119   -1.366988169846e-03
   120   -1.157470538625e-04
   121   -6.747511503335e-05
   122    3.605143116232e-15
   123    1.194827761117e-03
   124    1.200421877086e-05
   125    1.532583071758e-05
   126   -6.257509373061e-15
   127   -1.192655961124e-04
   128    8.904083250792e-16
   129    9.583675738040e-16
   130   -3.741635889609e-05
   131   -7.497070536483e-05
   132    3.909341972101e-07
   133    2.934155618752e-06
   134   -1.090126968785e-05
   135    6.414716723197e-07
   136    5.929203117185e-16
   137   -4.059807692195e-05
   138    2.881911397836e-05
   139    1.561691998699e-06
   140   -5.316148539952e-16
   141    3.630196507019e-04
   142   -7.250818393093e-05
   143   -3.029301753634e-04
   144    1.571079069374e-16
   145   -9.886161774104e-05
   146   -5.997194119184e-04
   147   -1.399554722888e-04
   148    2.380014054431e-15
   149   -8.942051579647e-06
   150    6.025422130254e-16
   151   -6.806598750835e-16
   152    2.148484412216e-05
   153   -1.163358912070e-05
   154   -3.834586861006e-08
   155    6.454411984587e-07
   156    3.144023705494e-07
   157    2.670551843612e-07
   158   -1.215972439435e-15
   159   -9.248865887417e-06
   160   -1.315960000806e-06
   161   -1.808662211325e-06
   162    2.848593231038e-15
   163    1.508796775688e-04
   164    7.208973725475e-05
   165    2.044067804352e-05
   166   -7.071361476342e-15
   167    2.174617162594e-04
   168   -4.937332748031e-05
   169    9.940194456149e-06
   170    1.838481554730e-14
   171    8.757091498473e-07
   172   -1.712053399216e-15
   173    1.161048744792e-16
   174    6.729522920663e-07
   175   -4.197790693760e-07
   176    9.511939870319e-07
   177    1.903237683555e-06
   178   -3.309415581780e-06
   179   -1.592840605567e-05
   180    6.096110979566e-16
   181   -2.939746908671e-05
   182    1.324778328712e-06
   183    7.377176914683e-05
   184   -5.744329533117e-16
   185    7.523867445102e-04
   186   -6.131083209289e-04
   187    1.601882838299e-04
   188   -4.311999743217e-15
   189    1.645134675900e-03
   190    7.018995970192e-05
   191    1.173411400839e-03
   192    1.412926491018e-14
   193   -6.340070025538e-06
   194    9.681247088403e-16
   195    1.011734636806e-15
   196   -2.959869214447e-05
   197    2.350789365783e-05
   198   -4.058161586618e-06
   199    1.315997314929e-04
   200    1.926660088187e-04
   201    3.707130649891e-04
   202   -1.915075333736e-05
   203    1.140493532880e-05
   204   -7.605383321534e-16
Sym=X
Ene= 0.817156
Spin=Alpha
Occup=0
     1    9.518729708946e-03
     2    1.637272839850e-02
     3   -8.877742383166e-05
     4    3.355926627820e-02
     5    5.710507917643e-14
     6   -4.922609361153e-02
     7   -1.108593499158e-03
     8    5.194343462901e-02
     9    1.037523908091e-13
    10   -1.594834656964e-01
    11    3.458105935235e-02
    12    1.270196492870e-01
    13    1.476346399482e-13
    14   -1.821015235281e+00
    15    3.326137517096e-01
    16    8.413165259694e-01
    17    6.547695085663e-13
    18    3.422465635530e-03
    19   -7.238835556961e-15
    20   -7.744128764481e-15
    21   -1.298872215512e-02
    22    3.068771959822e-03
    23    2.432286756634e-03
    24    2.425706477376e-02
    25    4.566005187555e-03
    26    5.835386176077e-01
    27   -3.243774465182e-03
    28   -1.193483736368e-03
    29    1.479790888604e-15
    30    4.239391935000e-04
    31    4.165007262691e-03
    32    3.140036379209e-01
    33    1.767788029121e+00
    34   -1.145569485057e-03
    35   -8.954719809842e-03
    36    1.387406836387e-14
    37    1.680569371205e-03
    38   -3.115651911289e-03
    39   -5.405977112552e-01
    40   -1.361085957006e+00
    41   -3.777669623275e-03
    42   -9.597399513005e-03
    43    5.181350652445e-15
    44    3.877555630586e-03
    45    7.177811131065e-03
    46   -6.389130884570e-03
    47    3.101836401361e-03
    48   -3.021257959456e-14
    49   -3.252718705260e-02
    50   -1.394886448416e-02
    51    5.558475049551e-03
    52   -5.021780871241e-14
    53    9.136575994251e-02
    54    6.192975414067e-02
    55    2.218180949866e-04
    56   -1.228734673764e-13
    57   -7.724761504778e-02
    58    2.276167029628e-01
    59    7.088028662388e-01
    60   -3.871713804271e-14
    61   -2.922179753006e-03
    62    1.772064596669e-15
    63    9.182089956120e-15
    64   -5.496015905045e-03
    65    2.216752437883e-04
    66   -7.738192603401e-04
    67   -1.314256540163e-03
    68    4.073397246978e-03
    69    6.603023094048e-03
    70    2.768512431825e-14
    71    3.841167556242e-03
    72    6.269028965724e-03
    73    8.565769179556e-03
    74    4.557305792510e-14
    75    1.624544266329e-02
    76    2.999309347322e-03
    77    1.650816739916e-02
    78    6.301612189650e-14
    79   -2.469917916000e-02
    80   -1.249641162329e-02
    81   -7.015225313888e-02
    82    1.610145010328e-14
    83   -3.124626837696e-06
    84   -3.822193377972e-16
    85    5.269474585710e-16
    86    4.151685418722e-04
    87    3.687084322843e-04
    88    3.497348731628e-03
    89    6.261205272134e-03
    90   -6.202277661199e-03
    91    3.259116977543e-03
    92   -2.573826225595e-14
    93   -2.305864325780e-02
    94   -1.091825961940e-02
    95    9.461276529356e-03
    96   -3.520513793957e-14
    97   -1.015107523403e-02
    98   -1.866075526307e-01
    99   -1.028656134328e-01
   100   -8.502740036225e-14
   101   -9.858767146750e-01
   102    4.165314478980e-01
   103   -4.956892058605e-01
   104    3.927732543956e-13
   105   -4.231245287514e-03
   106   -3.846139002333e-16
   107    1.262738955717e-14
   108   -1.014124577377e-02
   109    9.097862292631e-03
   110   -6.835052588912e-03
   111   -1.213346478010e-02
   112   -2.484856273599e-02
   113    3.236464039760e-02
   114    1.339721123495e-14
   115    4.167736610656e-02
   116   -3.279564272856e-02
   117    4.225643324073e-02
   118    1.875503614534e-14
   119    1.161528377360e-01
   120   -4.584036271659e-02
   121    1.790988159103e-02
   122    4.587979389242e-14
   123    2.823943102709e-01
   124   -3.578560249642e-02
   125   -7.930689240329e-02
   126    5.281987064640e-14
   127   -7.826644859723e-05
   128    1.562647081307e-15
   129    2.298563852863e-15
   130    3.870218894471e-03
   131   -1.446715360822e-03
   132   -6.489256519884e-03
   133   -1.128374673406e-02
   134   -1.261757303127e-03
   135    3.669887183970e-02
   136    3.180596217137e-14
   137    3.650907419253e-02
   138    1.344800629696e-03
   139    5.513195272082e-02
   140    4.266823666559e-14
   141    5.826688294248e-02
   142   -4.818732914726e-03
   143    1.374985926472e-01
   144    1.141133919583e-13
   145    1.687227658387e-01
   146    1.654731439856e-01
   147    9.228472928967e-01
   148   -1.930407367326e-13
   149   -5.465113778131e-04
   150    1.459814719805e-15
   151    1.649484944767e-15
   152    6.230208373727e-04
   153   -2.521075603622e-03
   154    3.972507416414e-03
   155    6.766167321513e-03
   156    8.186496682730e-03
   157    1.639319104608e-02
   158   -3.416604125401e-14
   159   -1.953279780619e-02
   160    1.354766369462e-02
   161    2.382259150587e-02
   162   -5.133280211406e-14
   163   -8.639583667123e-02
   164    2.629481649787e-02
   165    2.996198656361e-02
   166   -6.429179690087e-14
   167    5.240287818666e-01
   168   -2.378555618593e-02
   169    2.538290131470e-02
   170   -2.969426853241e-14
   171    1.712493592348e-03
   172    5.111422798570e-15
   173   -9.441742138671e-15
   174    4.786430458848e-03
   175    1.902526750098e-03
   176    8.517702150086e-03
   177    1.466977461412e-02
   178   -2.648380269673e-02
   179    2.882557662649e-02
   180   -5.502160578644e-14
   181   -4.297818321740e-02
   182   -3.864083077988e-02
   183    3.683964956753e-02
   184   -8.568229948385e-14
   185   -2.813486899477e-01
   186   -5.009053329692e-02
   187    4.528392580624e-02
   188   -1.850402139763e-13
   189   -1.202685779402e+00
   190   -1.524540956398e+00
   191    7.597031968499e-01
   192   -5.525226334668e-13
   193    2.958593831399e-03
   194   -2.606847574527e-15
   195   -1.005443870481e-14
   196    7.346484375193e-03
   197   -8.144047842991e-03
   198   -1.748872731758e-03
   199   -1.646468168809e-02
   200    3.340477268836e-01
   201    2.633352156523e+00
   202    9.519887405778e-03
   203   -5.555082289194e-03
   204   -5.288176850712e-15
[5D]
