[Molden Format]
[Atoms] (Angs)
  C      1    6     -0.00714236     -1.70213747     -0.00000000
  H      2    1     -2.06882847     -1.44022412      0.00000000
  H      3    1     -0.12337987     -2.77567521      0.00000000
  H      4    1      0.04651892      1.98813947     -0.00000000
  C      5    6     -1.21953563      0.40211669      0.00000000
  O      6    8     -2.25921553      1.03043814      0.00000000
  C      7    6      1.28797806      0.34644937     -0.00000000
  O      8    8      2.31273661      1.00537216     -0.00000000
  N      9    7      0.03446295      0.97739857     -0.00000000
  N     10    7     -1.17287765     -0.98229824      0.00000000
  C     11    6      1.20107039     -1.10433419     -0.00000000
  H     12    1      2.11220096     -1.67699125     -0.00000000
[GTO]
1    0
S    6    1.000000
   4.56324000E+03    1.96665000E-03 
   6.82024000E+02    1.52306000E-02 
   1.54973000E+02    7.61269000E-02 
   4.44553000E+01    2.60801000E-01 
   1.30290000E+01    6.16462000E-01 
   1.82773000E+00    2.21006000E-01 
SP   3    1.000000
   2.09642000E+01    1.14660000E-01   4.02487000E-02 
   4.80331000E+00    9.19999000E-01   2.37594000E-01 
   1.45933000E+00   -3.03068000E-03   8.15854000E-01 
SP   1    1.000000
   4.83456000E-01    1.00000000E+00   1.00000000E+00 
SP   1    1.000000
   1.45585000E-01    1.00000000E+00   1.00000000E+00 
SP   1    1.000000
   4.38000000E-02    1.00000000E+00   1.00000000E+00 
D    1    1.000000
   6.26000000E-01    1.00000000E+00 

2    0
S    3    1.000000
   3.38650000E+01    2.54938000E-02 
   5.09479000E+00    1.90373000E-01 
   1.15879000E+00    8.52161000E-01 
S    1    1.000000
   3.25840000E-01    1.00000000E+00 
S    1    1.000000
   1.02741000E-01    1.00000000E+00 
S    1    1.000000
   3.60000000E-02    1.00000000E+00 
P    1    1.000000
   7.50000000E-01    1.00000000E+00 

3    0
S    3    1.000000
   3.38650000E+01    2.54938000E-02 
   5.09479000E+00    1.90373000E-01 
   1.15879000E+00    8.52161000E-01 
S    1    1.000000
   3.25840000E-01    1.00000000E+00 
S    1    1.000000
   1.02741000E-01    1.00000000E+00 
S    1    1.000000
   3.60000000E-02    1.00000000E+00 
P    1    1.000000
   7.50000000E-01    1.00000000E+00 

4    0
S    3    1.000000
   3.38650000E+01    2.54938000E-02 
   5.09479000E+00    1.90373000E-01 
   1.15879000E+00    8.52161000E-01 
S    1    1.000000
   3.25840000E-01    1.00000000E+00 
S    1    1.000000
   1.02741000E-01    1.00000000E+00 
S    1    1.000000
   3.60000000E-02    1.00000000E+00 
P    1    1.000000
   7.50000000E-01    1.00000000E+00 

5    0
S    6    1.000000
   4.56324000E+03    1.96665000E-03 
   6.82024000E+02    1.52306000E-02 
   1.54973000E+02    7.61269000E-02 
   4.44553000E+01    2.60801000E-01 
   1.30290000E+01    6.16462000E-01 
   1.82773000E+00    2.21006000E-01 
SP   3    1.000000
   2.09642000E+01    1.14660000E-01   4.02487000E-02 
   4.80331000E+00    9.19999000E-01   2.37594000E-01 
   1.45933000E+00   -3.03068000E-03   8.15854000E-01 
SP   1    1.000000
   4.83456000E-01    1.00000000E+00   1.00000000E+00 
SP   1    1.000000
   1.45585000E-01    1.00000000E+00   1.00000000E+00 
SP   1    1.000000
   4.38000000E-02    1.00000000E+00   1.00000000E+00 
D    1    1.000000
   6.26000000E-01    1.00000000E+00 

6    0
S    6    1.000000
   8.58850000E+03    1.89515000E-03 
   1.29723000E+03    1.43859000E-02 
   2.99296000E+02    7.07320000E-02 
   8.73771000E+01    2.40001000E-01 
   2.56789000E+01    5.94797000E-01 
   3.74004000E+00    2.80802000E-01 
SP   3    1.000000
   4.21175000E+01    1.13889000E-01   3.65114000E-02 
   9.62837000E+00    9.20811000E-01   2.37153000E-01 
   2.85332000E+00   -3.27447000E-03   8.19702000E-01 
SP   1    1.000000
   9.05661000E-01    1.00000000E+00   1.00000000E+00 
SP   1    1.000000
   2.55611000E-01    1.00000000E+00   1.00000000E+00 
SP   1    1.000000
   8.45000000E-02    1.00000000E+00   1.00000000E+00 
D    1    1.000000
   1.29200000E+00    1.00000000E+00 

7    0
S    6    1.000000
   4.56324000E+03    1.96665000E-03 
   6.82024000E+02    1.52306000E-02 
   1.54973000E+02    7.61269000E-02 
   4.44553000E+01    2.60801000E-01 
   1.30290000E+01    6.16462000E-01 
   1.82773000E+00    2.21006000E-01 
SP   3    1.000000
   2.09642000E+01    1.14660000E-01   4.02487000E-02 
   4.80331000E+00    9.19999000E-01   2.37594000E-01 
   1.45933000E+00   -3.03068000E-03   8.15854000E-01 
SP   1    1.000000
   4.83456000E-01    1.00000000E+00   1.00000000E+00 
SP   1    1.000000
   1.45585000E-01    1.00000000E+00   1.00000000E+00 
SP   1    1.000000
   4.38000000E-02    1.00000000E+00   1.00000000E+00 
D    1    1.000000
   6.26000000E-01    1.00000000E+00 

8    0
S    6    1.000000
   8.58850000E+03    1.89515000E-03 
   1.29723000E+03    1.43859000E-02 
   2.99296000E+02    7.07320000E-02 
   8.73771000E+01    2.40001000E-01 
   2.56789000E+01    5.94797000E-01 
   3.74004000E+00    2.80802000E-01 
SP   3    1.000000
   4.21175000E+01    1.13889000E-01   3.65114000E-02 
   9.62837000E+00    9.20811000E-01   2.37153000E-01 
   2.85332000E+00   -3.27447000E-03   8.19702000E-01 
SP   1    1.000000
   9.05661000E-01    1.00000000E+00   1.00000000E+00 
SP   1    1.000000
   2.55611000E-01    1.00000000E+00   1.00000000E+00 
SP   1    1.000000
   8.45000000E-02    1.00000000E+00   1.00000000E+00 
D    1    1.000000
   1.29200000E+00    1.00000000E+00 

9    0
S    6    1.000000
   6.29348000E+03    1.96979000E-03 
   9.49044000E+02    1.49613000E-02 
   2.18776000E+02    7.35006000E-02 
   6.36916000E+01    2.48937000E-01 
   1.88282000E+01    6.02460000E-01 
   2.72023000E+00    2.56202000E-01 
SP   3    1.000000
   3.06331000E+01    1.11906000E-01   3.83119000E-02 
   7.02614000E+00    9.21666000E-01   2.37403000E-01 
   2.11205000E+00   -2.56919000E-03   8.17592000E-01 
SP   1    1.000000
   6.84009000E-01    1.00000000E+00   1.00000000E+00 
SP   1    1.000000
   2.00878000E-01    1.00000000E+00   1.00000000E+00 
SP   1    1.000000
   6.39000000E-02    1.00000000E+00   1.00000000E+00 
D    1    1.000000
   9.13000000E-01    1.00000000E+00 

10    0
S    6    1.000000
   6.29348000E+03    1.96979000E-03 
   9.49044000E+02    1.49613000E-02 
   2.18776000E+02    7.35006000E-02 
   6.36916000E+01    2.48937000E-01 
   1.88282000E+01    6.02460000E-01 
   2.72023000E+00    2.56202000E-01 
SP   3    1.000000
   3.06331000E+01    1.11906000E-01   3.83119000E-02 
   7.02614000E+00    9.21666000E-01   2.37403000E-01 
   2.11205000E+00   -2.56919000E-03   8.17592000E-01 
SP   1    1.000000
   6.84009000E-01    1.00000000E+00   1.00000000E+00 
SP   1    1.000000
   2.00878000E-01    1.00000000E+00   1.00000000E+00 
SP   1    1.000000
   6.39000000E-02    1.00000000E+00   1.00000000E+00 
D    1    1.000000
   9.13000000E-01    1.00000000E+00 

11    0
S    6    1.000000
   4.56324000E+03    1.96665000E-03 
   6.82024000E+02    1.52306000E-02 
   1.54973000E+02    7.61269000E-02 
   4.44553000E+01    2.60801000E-01 
   1.30290000E+01    6.16462000E-01 
   1.82773000E+00    2.21006000E-01 
SP   3    1.000000
   2.09642000E+01    1.14660000E-01   4.02487000E-02 
   4.80331000E+00    9.19999000E-01   2.37594000E-01 
   1.45933000E+00   -3.03068000E-03   8.15854000E-01 
SP   1    1.000000
   4.83456000E-01    1.00000000E+00   1.00000000E+00 
SP   1    1.000000
   1.45585000E-01    1.00000000E+00   1.00000000E+00 
SP   1    1.000000
   4.38000000E-02    1.00000000E+00   1.00000000E+00 
D    1    1.000000
   6.26000000E-01    1.00000000E+00 

12    0
S    3    1.000000
   3.38650000E+01    2.54938000E-02 
   5.09479000E+00    1.90373000E-01 
   1.15879000E+00    8.52161000E-01 
S    1    1.000000
   3.25840000E-01    1.00000000E+00 
S    1    1.000000
   1.02741000E-01    1.00000000E+00 
S    1    1.000000
   3.60000000E-02    1.00000000E+00 
P    1    1.000000
   7.50000000E-01    1.00000000E+00 

[MO]
Sym=X
Ene= -0.822403
Spin=Alpha
Occup=1
     1   -2.228507887937e-08
     2    9.428887502143e-07
     3   -2.843050463002e-06
     4   -3.922026339491e-08
     5   -5.385250840610e-16
     6   -1.010580456073e-05
     7    1.072056217966e-05
     8   -6.744341191623e-07
     9    9.277659539641e-16
    10    6.225547577469e-04
    11    1.375035257186e-04
    12    2.596177158597e-04
    13   -5.644033733119e-15
    14   -7.546623402340e-05
    15   -3.141130623515e-04
    16    6.128795923514e-04
    17    2.183979872622e-14
    18   -1.053224519697e-06
    19   -8.684540253307e-16
    20   -9.375425148915e-16
    21    4.084211362946e-06
    22   -4.592961457145e-06
    23   -1.638452947163e-07
    24   -5.927075931478e-06
    25    3.583055675743e-05
    26   -7.454701219696e-05
    27    3.352819318286e-06
    28   -9.771962893881e-07
    29    6.463363794087e-16
    30    2.121056241447e-06
    31   -4.485772879642e-06
    32    1.318671074141e-04
    33    3.106983078837e-04
    34   -5.742397686900e-06
    35   -6.151144897847e-07
    36   -9.276430098221e-16
    37   -2.897085687675e-06
    38   -7.569140093036e-05
    39   -1.044771622364e-04
    40   -9.178184172152e-05
    41    1.047230291980e-05
    42    6.857414800276e-06
    43   -4.423744029007e-16
    44    7.436873374082e-07
    45   -1.601609588976e-06
    46   -7.180997368879e-06
    47   -1.121153879069e-07
    48    9.223757360823e-16
    49    1.057237736113e-05
    50    3.140072955978e-05
    51    3.513651926133e-06
    52   -2.275615230056e-15
    53    3.112174295083e-04
    54    1.466648223208e-04
    55   -1.452369626022e-05
    56    1.816578783086e-15
    57    2.655472181244e-04
    58    4.381732275765e-06
    59    1.802660665449e-04
    60    9.962684198273e-15
    61   -4.634554162518e-06
    62    3.112239682021e-16
    63   -1.377938738152e-15
    64    7.289655093503e-06
    65    2.175624129247e-07
    66    5.441405018433e-06
    67    3.649507752553e-06
    68   -5.183143914845e-07
    69   -4.618058791976e-07
    70   -2.089750900421e-16
    71    8.953556616063e-06
    72    4.098556333238e-06
    73   -1.763273379181e-06
    74   -1.940611181571e-16
    75   -2.923219530175e-05
    76   -1.806050183773e-05
    77   -1.058271622255e-06
    78    2.522293217997e-15
    79    2.506214664850e-04
    80    1.390047580292e-04
    81   -4.519575612977e-05
    82   -3.154772087881e-15
    83   -3.661245500459e-07
    84    3.354208735593e-16
    85   -2.160533061161e-16
    86   -4.221288036557e-07
    87    1.410348859298e-09
    88   -5.085580617655e-06
    89    7.615595422163e-05
    90   -5.713996668530e-05
    91   -4.404468474799e-05
    92    1.058080966953e-15
    93   -3.120520192805e-04
    94   -3.424421803171e-04
    95   -2.101095124314e-04
    96   -1.642062801806e-15
    97    2.013685204460e-04
    98   -6.294928974000e-04
    99   -5.063034978609e-04
   100   -2.446728595087e-16
   101    2.200473443776e-03
   102    6.656596532181e-04
   103   -4.860243537191e-04
   104   -1.763935939038e-15
   105    5.233269715297e-05
   106   -9.346228527625e-16
   107    6.895252435924e-16
   108   -8.580834651464e-05
   109   -1.839356987892e-04
   110   -5.514843486802e-01
   111   -4.716805533807e-01
   112    1.529299113440e-03
   113    9.190898066448e-04
   114   -1.679726545447e-15
   115   -5.509523231714e-03
   116   -6.176483632217e-04
   117   -3.740494351626e-04
   118    2.548493723196e-15
   119    1.362156500043e-03
   120    1.153984227175e-04
   121    6.532433565329e-05
   122   -3.605029912663e-15
   123   -1.195870397532e-03
   124   -1.192570822684e-05
   125   -1.550160235722e-05
   126    6.258615428289e-15
   127    1.191834951628e-04
   128   -8.905786048037e-16
   129   -9.579442463393e-16
   130    3.737342476203e-05
   131    7.509689839363e-05
   132   -5.322818160636e-07
   133   -3.181029505256e-06
   134    1.084849343866e-05
   135   -7.988746313663e-07
   136   -5.927503121416e-16
   137    4.235167659921e-05
   138   -2.890500735819e-05
   139   -1.701358929311e-06
   140    5.320920636405e-16
   141   -3.626222578911e-04
   142    7.207562242267e-05
   143    3.022535670280e-04
   144   -1.582207606538e-16
   145    9.998874195657e-05
   146    5.992166443720e-04
   147    1.393444460409e-04
   148   -2.379208192677e-15
   149    8.920358024872e-06
   150   -6.024434067743e-16
   151    6.805216257613e-16
   152   -2.149348851541e-05
   153    1.160819541760e-05
   154    7.942720459764e-08
   155   -5.800746216585e-07
   156   -3.704406607425e-07
   157   -5.755701495781e-07
   158    1.216077988049e-15
   159    9.645601501081e-06
   160    1.203355892064e-06
   161    1.351662210141e-06
   162   -2.847996903868e-15
   163   -1.522264719557e-04
   164   -7.212853969358e-05
   165   -2.109157564973e-05
   166    7.068888752905e-15
   167   -2.185521992898e-04
   168    4.901895771083e-05
   169   -1.066211472390e-05
   170   -1.838203980883e-14
   171   -8.931165041342e-07
   172    1.712256757675e-15
   173   -1.161082416990e-16
   174   -6.600362534560e-07
   175    3.884179115437e-07
   176   -9.109087894228e-07
   177   -1.849059608667e-06
   178    3.125865936987e-06
   179    1.519983621677e-05
   180   -6.097230325289e-16
   181    3.042803629359e-05
   182   -1.542994647359e-06
   183   -7.495033202800e-05
   184    5.750300666964e-16
   185   -7.548179425353e-04
   186    6.128623886010e-04
   187   -1.612578943311e-04
   188    4.311209112054e-15
   189   -1.649627128291e-03
   190   -6.909470266494e-05
   191   -1.173090144107e-03
   192   -1.412541711810e-14
   193    6.145618602349e-06
   194   -9.681771182427e-16
   195   -1.011524379812e-15
   196    2.962092089752e-05
   197   -2.349201722903e-05
   198    3.687146357994e-06
   199   -1.325129881724e-04
   200   -1.928782546715e-04
   201   -3.708564929134e-04
   202    1.908256844399e-05
   203   -1.142082112448e-05
   204    7.603602139524e-16
Sym=X
Ene= 0.822403
Spin=Alpha
Occup=0
     1   -1.922110386283e-03
     2   -3.399989329209e-03
     3   -2.874010499557e-03
     4   -1.017067211589e-02
     5    7.634575013389e-15
     6    1.574775228126e-02
     7   -8.134943021619e-03
     8   -1.633908606119e-02
     9    6.337999828056e-15
    10    2.984884540047e-02
    11    1.447263647144e-02
    12   -2.924308503425e-02
    13    1.088705452237e-14
    14    1.795775182566e+00
    15   -1.551429341741e-02
    16    1.908652793395e-01
    17   -2.680120714968e-14
    18   -6.265794288766e-03
    19    2.503628985494e-15
    20   -1.810988351083e-15
    21    2.195007953939e-03
    22   -9.426660009629e-04
    23   -4.922431211296e-03
    24   -8.982776100452e-03
    25   -4.605450106143e-03
    26   -7.246285406766e-02
    27    3.956828591934e-03
    28    2.458605050278e-03
    29    1.572719028360e-15
    30    5.793372366366e-03
    31    9.484772571134e-03
    32   -6.405742771740e-03
    33   -1.391889086012e-01
    34   -2.712852710175e-04
    35    1.860630415021e-03
    36    8.347313624039e-15
    37    3.066348655626e-03
    38   -3.775801538604e-03
    39   -2.640987831580e-01
    40   -7.154719589364e-01
    41   -4.277606343204e-03
    42   -1.126082901900e-02
    43    1.658377563213e-15
    44    2.469982627030e-03
    45    3.861275549411e-03
    46   -9.589286763758e-03
    47   -4.791874512837e-03
    48   -6.504120206710e-15
    49    1.209387862014e-03
    50   -1.491888566262e-02
    51   -9.545753255893e-03
    52   -5.269138223971e-15
    53   -8.808258050472e-02
    54    7.549651917119e-03
    55    5.876518708599e-02
    56   -3.523918688351e-14
    57   -9.940376165351e-01
    58   -3.044193113815e-01
    59    2.889535339192e-01
    60    1.174795098844e-13
    61   -8.394990623708e-03
    62    9.009716482192e-15
    63   -3.488962480943e-15
    64   -4.680874280732e-03
    65    3.487726633570e-03
    66   -3.214338282987e-03
    67   -5.573320652172e-03
    68    3.819607211482e-03
    69    5.623182181882e-03
    70   -2.239673659785e-15
    71    1.889906346502e-02
    72    6.823797747148e-03
    73    9.255614681765e-03
    74    4.639358173537e-15
    75    1.921153538394e-02
    76    4.514715369947e-03
    77    7.220076648123e-04
    78   -2.989788102322e-14
    79    6.853567004254e-02
    80    4.216590177459e-02
    81    9.831899559676e-03
    82    7.625800054977e-14
    83   -8.497900614045e-04
    84   -1.249868023205e-15
    85    1.523661885928e-15
    86    9.716290051972e-05
    87   -8.369962190590e-04
    88   -3.003327708118e-04
    89   -1.090556580865e-03
    90   -6.072760074892e-03
    91   -1.955008521398e-02
    92   -2.148152008612e-15
    93    3.205000166978e-02
    94   -1.530339196545e-02
    95   -3.024301046874e-02
    96    4.060765010911e-16
    97   -1.178050849487e-01
    98   -1.145104464150e-01
    99   -1.931267186136e-01
   100   -5.802955254760e-14
   101    1.837518937176e+00
   102   -1.219176990275e+00
   103   -1.047966987281e+00
   104   -2.463066247575e-13
   105   -2.292014783672e-02
   106   -1.764521126099e-15
   107    3.147550929334e-15
   108   -1.993526593457e-03
   109   -1.515185770820e-03
   110   -2.410206174006e-02
   111   -4.302465734515e-02
   112   -4.264016214842e-04
   113    2.341174321093e-02
   114    1.436570751965e-14
   115    1.550082984268e-01
   116   -2.019675410398e-04
   117    2.964223611795e-02
   118    1.050457520880e-14
   119    2.690658014269e-01
   120   -6.170008115203e-02
   121    2.665235351542e-04
   122    3.419083350229e-14
   123    5.889196705434e-01
   124    1.072438251162e-01
   125    5.640558293281e-02
   126    4.208784390280e-14
   127   -3.977246815212e-03
   128    1.988079589603e-15
   129    2.503491422425e-16
   130    1.099796575896e-03
   131    2.371042132305e-03
   132   -1.796816466350e-02
   133   -3.106181169131e-02
   134    1.023063053838e-02
   135    2.167994488847e-02
   136    1.640686257156e-14
   137    9.796379334310e-02
   138    1.499562241246e-02
   139    3.175303360248e-02
   140    3.638109954266e-14
   141    2.551546884972e-01
   142    6.871944868020e-02
   143    5.453102201162e-02
   144   -1.854089827351e-15
   145    3.507618878190e-01
   146    1.826209231222e-01
   147    4.481141852290e-01
   148   -6.950609242361e-15
   149   -5.476591472320e-03
   150   -2.021591790430e-16
   151   -2.324565144749e-15
   152   -1.335227067787e-04
   153   -2.752229473771e-03
   154   -7.552794478771e-03
   155   -1.306122910838e-02
   156   -1.107346162984e-03
   157    5.704514755455e-03
   158    3.562427319947e-15
   159    4.299632705369e-02
   160   -2.895789949071e-03
   161    8.134122774043e-03
   162   -4.003944108566e-15
   163    8.619147370557e-02
   164    1.548605020291e-02
   165    3.918445043774e-02
   166    6.511705931857e-15
   167    8.608786428578e-01
   168    1.680190080491e-01
   169    2.677789364219e-01
   170   -7.877748756835e-14
   171   -1.862123244769e-03
   172    1.145805650381e-15
   173    1.096955188184e-15
   174   -1.741387629417e-03
   175   -2.754862853622e-03
   176   -1.460753452183e-02
   177   -2.530806130705e-02
   178    1.750318639386e-02
   179    7.853614928867e-03
   180   -2.793827226054e-16
   181    7.573471011777e-02
   182    2.393063158329e-02
   183    1.523649401699e-02
   184    4.121120682276e-15
   185    1.919354390776e-01
   186    8.906849101426e-02
   187   -1.343633830902e-02
   188   -2.003721305903e-14
   189   -2.510492403614e+00
   190    1.566230263762e+00
   191   -9.381946340349e-01
   192    2.336551629322e-13
   193   -9.098370897712e-03
   194    3.927487191744e-15
   195    7.023100512919e-16
   196   -4.044119376944e-03
   197    9.229718177818e-04
   198    7.837914308954e-03
   199    1.632520789643e-02
   200   -1.892047689773e-01
   201   -1.638502614564e+00
   202   -5.388186805433e-03
   203    1.508434133445e-03
   204   -1.963149391362e-15
[5D]
