[Molden Format]
[Atoms] (Angs)
  C      1    6     -0.00714236     -1.70213747     -0.00000000
  H      2    1     -2.06882847     -1.44022412      0.00000000
  H      3    1     -0.12337987     -2.77567521      0.00000000
  H      4    1      0.04651892      1.98813947     -0.00000000
  C      5    6     -1.21953563      0.40211669      0.00000000
  O      6    8     -2.25921553      1.03043814      0.00000000
  C      7    6      1.28797806      0.34644937     -0.00000000
  O      8    8      2.31273661      1.00537216     -0.00000000
  N      9    7      0.03446295      0.97739857     -0.00000000
  N     10    7     -1.17287765     -0.98229824      0.00000000
  C     11    6      1.20107039     -1.10433419     -0.00000000
  H     12    1      2.11220096     -1.67699125     -0.00000000
[GTO]
1    0
S    6    1.000000
   4.56324000E+03    1.96665000E-03 
   6.82024000E+02    1.52306000E-02 
   1.54973000E+02    7.61269000E-02 
   4.44553000E+01    2.60801000E-01 
   1.30290000E+01    6.16462000E-01 
   1.82773000E+00    2.21006000E-01 
SP   3    1.000000
   2.09642000E+01    1.14660000E-01   4.02487000E-02 
   4.80331000E+00    9.19999000E-01   2.37594000E-01 
   1.45933000E+00   -3.03068000E-03   8.15854000E-01 
SP   1    1.000000
   4.83456000E-01    1.00000000E+00   1.00000000E+00 
SP   1    1.000000
   1.45585000E-01    1.00000000E+00   1.00000000E+00 
SP   1    1.000000
   4.38000000E-02    1.00000000E+00   1.00000000E+00 
D    1    1.000000
   6.26000000E-01    1.00000000E+00 

2    0
S    3    1.000000
   3.38650000E+01    2.54938000E-02 
   5.09479000E+00    1.90373000E-01 
   1.15879000E+00    8.52161000E-01 
S    1    1.000000
   3.25840000E-01    1.00000000E+00 
S    1    1.000000
   1.02741000E-01    1.00000000E+00 
S    1    1.000000
   3.60000000E-02    1.00000000E+00 
P    1    1.000000
   7.50000000E-01    1.00000000E+00 

3    0
S    3    1.000000
   3.38650000E+01    2.54938000E-02 
   5.09479000E+00    1.90373000E-01 
   1.15879000E+00    8.52161000E-01 
S    1    1.000000
   3.25840000E-01    1.00000000E+00 
S    1    1.000000
   1.02741000E-01    1.00000000E+00 
S    1    1.000000
   3.60000000E-02    1.00000000E+00 
P    1    1.000000
   7.50000000E-01    1.00000000E+00 

4    0
S    3    1.000000
   3.38650000E+01    2.54938000E-02 
   5.09479000E+00    1.90373000E-01 
   1.15879000E+00    8.52161000E-01 
S    1    1.000000
   3.25840000E-01    1.00000000E+00 
S    1    1.000000
   1.02741000E-01    1.00000000E+00 
S    1    1.000000
   3.60000000E-02    1.00000000E+00 
P    1    1.000000
   7.50000000E-01    1.00000000E+00 

5    0
S    6    1.000000
   4.56324000E+03    1.96665000E-03 
   6.82024000E+02    1.52306000E-02 
   1.54973000E+02    7.61269000E-02 
   4.44553000E+01    2.60801000E-01 
   1.30290000E+01    6.16462000E-01 
   1.82773000E+00    2.21006000E-01 
SP   3    1.000000
   2.09642000E+01    1.14660000E-01   4.02487000E-02 
   4.80331000E+00    9.19999000E-01   2.37594000E-01 
   1.45933000E+00   -3.03068000E-03   8.15854000E-01 
SP   1    1.000000
   4.83456000E-01    1.00000000E+00   1.00000000E+00 
SP   1    1.000000
   1.45585000E-01    1.00000000E+00   1.00000000E+00 
SP   1    1.000000
   4.38000000E-02    1.00000000E+00   1.00000000E+00 
D    1    1.000000
   6.26000000E-01    1.00000000E+00 

6    0
S    6    1.000000
   8.58850000E+03    1.89515000E-03 
   1.29723000E+03    1.43859000E-02 
   2.99296000E+02    7.07320000E-02 
   8.73771000E+01    2.40001000E-01 
   2.56789000E+01    5.94797000E-01 
   3.74004000E+00    2.80802000E-01 
SP   3    1.000000
   4.21175000E+01    1.13889000E-01   3.65114000E-02 
   9.62837000E+00    9.20811000E-01   2.37153000E-01 
   2.85332000E+00   -3.27447000E-03   8.19702000E-01 
SP   1    1.000000
   9.05661000E-01    1.00000000E+00   1.00000000E+00 
SP   1    1.000000
   2.55611000E-01    1.00000000E+00   1.00000000E+00 
SP   1    1.000000
   8.45000000E-02    1.00000000E+00   1.00000000E+00 
D    1    1.000000
   1.29200000E+00    1.00000000E+00 

7    0
S    6    1.000000
   4.56324000E+03    1.96665000E-03 
   6.82024000E+02    1.52306000E-02 
   1.54973000E+02    7.61269000E-02 
   4.44553000E+01    2.60801000E-01 
   1.30290000E+01    6.16462000E-01 
   1.82773000E+00    2.21006000E-01 
SP   3    1.000000
   2.09642000E+01    1.14660000E-01   4.02487000E-02 
   4.80331000E+00    9.19999000E-01   2.37594000E-01 
   1.45933000E+00   -3.03068000E-03   8.15854000E-01 
SP   1    1.000000
   4.83456000E-01    1.00000000E+00   1.00000000E+00 
SP   1    1.000000
   1.45585000E-01    1.00000000E+00   1.00000000E+00 
SP   1    1.000000
   4.38000000E-02    1.00000000E+00   1.00000000E+00 
D    1    1.000000
   6.26000000E-01    1.00000000E+00 

8    0
S    6    1.000000
   8.58850000E+03    1.89515000E-03 
   1.29723000E+03    1.43859000E-02 
   2.99296000E+02    7.07320000E-02 
   8.73771000E+01    2.40001000E-01 
   2.56789000E+01    5.94797000E-01 
   3.74004000E+00    2.80802000E-01 
SP   3    1.000000
   4.21175000E+01    1.13889000E-01   3.65114000E-02 
   9.62837000E+00    9.20811000E-01   2.37153000E-01 
   2.85332000E+00   -3.27447000E-03   8.19702000E-01 
SP   1    1.000000
   9.05661000E-01    1.00000000E+00   1.00000000E+00 
SP   1    1.000000
   2.55611000E-01    1.00000000E+00   1.00000000E+00 
SP   1    1.000000
   8.45000000E-02    1.00000000E+00   1.00000000E+00 
D    1    1.000000
   1.29200000E+00    1.00000000E+00 

9    0
S    6    1.000000
   6.29348000E+03    1.96979000E-03 
   9.49044000E+02    1.49613000E-02 
   2.18776000E+02    7.35006000E-02 
   6.36916000E+01    2.48937000E-01 
   1.88282000E+01    6.02460000E-01 
   2.72023000E+00    2.56202000E-01 
SP   3    1.000000
   3.06331000E+01    1.11906000E-01   3.83119000E-02 
   7.02614000E+00    9.21666000E-01   2.37403000E-01 
   2.11205000E+00   -2.56919000E-03   8.17592000E-01 
SP   1    1.000000
   6.84009000E-01    1.00000000E+00   1.00000000E+00 
SP   1    1.000000
   2.00878000E-01    1.00000000E+00   1.00000000E+00 
SP   1    1.000000
   6.39000000E-02    1.00000000E+00   1.00000000E+00 
D    1    1.000000
   9.13000000E-01    1.00000000E+00 

10    0
S    6    1.000000
   6.29348000E+03    1.96979000E-03 
   9.49044000E+02    1.49613000E-02 
   2.18776000E+02    7.35006000E-02 
   6.36916000E+01    2.48937000E-01 
   1.88282000E+01    6.02460000E-01 
   2.72023000E+00    2.56202000E-01 
SP   3    1.000000
   3.06331000E+01    1.11906000E-01   3.83119000E-02 
   7.02614000E+00    9.21666000E-01   2.37403000E-01 
   2.11205000E+00   -2.56919000E-03   8.17592000E-01 
SP   1    1.000000
   6.84009000E-01    1.00000000E+00   1.00000000E+00 
SP   1    1.000000
   2.00878000E-01    1.00000000E+00   1.00000000E+00 
SP   1    1.000000
   6.39000000E-02    1.00000000E+00   1.00000000E+00 
D    1    1.000000
   9.13000000E-01    1.00000000E+00 

11    0
S    6    1.000000
   4.56324000E+03    1.96665000E-03 
   6.82024000E+02    1.52306000E-02 
   1.54973000E+02    7.61269000E-02 
   4.44553000E+01    2.60801000E-01 
   1.30290000E+01    6.16462000E-01 
   1.82773000E+00    2.21006000E-01 
SP   3    1.000000
   2.09642000E+01    1.14660000E-01   4.02487000E-02 
   4.80331000E+00    9.19999000E-01   2.37594000E-01 
   1.45933000E+00   -3.03068000E-03   8.15854000E-01 
SP   1    1.000000
   4.83456000E-01    1.00000000E+00   1.00000000E+00 
SP   1    1.000000
   1.45585000E-01    1.00000000E+00   1.00000000E+00 
SP   1    1.000000
   4.38000000E-02    1.00000000E+00   1.00000000E+00 
D    1    1.000000
   6.26000000E-01    1.00000000E+00 

12    0
S    3    1.000000
   3.38650000E+01    2.54938000E-02 
   5.09479000E+00    1.90373000E-01 
   1.15879000E+00    8.52161000E-01 
S    1    1.000000
   3.25840000E-01    1.00000000E+00 
S    1    1.000000
   1.02741000E-01    1.00000000E+00 
S    1    1.000000
   3.60000000E-02    1.00000000E+00 
P    1    1.000000
   7.50000000E-01    1.00000000E+00 

[MO]
Sym=X
Ene= -0.818865
Spin=Alpha
Occup=1
     1    5.671941393889e-08
     2    1.078020731282e-06
     3   -3.052070295987e-06
     4   -4.790237616392e-07
     5   -5.387976794653e-16
     6   -1.079303484814e-05
     7    1.043256663520e-05
     8   -1.394183759925e-06
     9    9.281842689618e-16
    10    6.212348892464e-04
    11    1.370872070667e-04
    12    2.581447022193e-04
    13   -5.645395238508e-15
    14   -8.079369708635e-05
    15   -3.154788544319e-04
    16    6.114732245845e-04
    17    2.183985729073e-14
    18   -8.470387492557e-07
    19   -8.682283172410e-16
    20   -9.378506372195e-16
    21    3.938164651366e-06
    22   -4.640215872605e-06
    23   -5.075664857089e-07
    24   -6.806221708360e-06
    25    3.580857187909e-05
    26   -7.415531599790e-05
    27    3.302562118872e-06
    28   -9.850608854364e-07
    29    6.459656494862e-16
    30    2.447191542265e-06
    31   -3.991957864838e-06
    32    1.319221146117e-04
    33    3.101731084000e-04
    34   -5.720565382907e-06
    35   -6.219245879715e-07
    36   -9.278036555120e-16
    37   -1.986761820234e-06
    38   -7.398377323618e-05
    39   -1.043521744695e-04
    40   -9.246159813849e-05
    41    1.047895662593e-05
    42    6.764970611184e-06
    43   -4.427750878928e-16
    44    6.174608018232e-07
    45   -1.818755288317e-06
    46   -7.002942306832e-06
    47   -3.554043287606e-07
    48    9.223112085386e-16
    49    1.100992461545e-05
    50    3.170231554097e-05
    51    3.061810074379e-06
    52   -2.275866748005e-15
    53    3.113208472663e-04
    54    1.474146316355e-04
    55   -1.350693968272e-05
    56    1.816121689948e-15
    57    2.660615326294e-04
    58    4.884371147084e-06
    59    1.811134708737e-04
    60    9.964623601456e-15
    61   -4.487323324049e-06
    62    3.107212118283e-16
    63   -1.377629604652e-15
    64    6.711858862196e-06
    65    1.431071257653e-08
    66   -3.044539088783e-06
    67   -3.649074209906e-06
    68   -2.003435738823e-07
    69    8.272682793730e-07
    70   -2.088450872468e-16
    71    8.744706419468e-06
    72    4.719864896812e-06
    73    2.959692662069e-07
    74   -1.936420751285e-16
    75   -2.810139361074e-05
    76   -1.699073544664e-05
    77    1.502717416504e-06
    78    2.521854632033e-15
    79    2.505274459838e-04
    80    1.391170426254e-04
    81   -4.478305267488e-05
    82   -3.155206105726e-15
    83   -3.352977115234e-07
    84    3.352747997051e-16
    85   -2.164166400601e-16
    86   -3.442717308250e-07
    87    7.040337949925e-08
    88   -5.345599133358e-06
    89    7.570666016247e-05
    90   -5.789035566524e-05
    91   -4.441839050687e-05
    92    1.057957872812e-15
    93   -3.111393644807e-04
    94   -3.437147470050e-04
    95   -2.107342244214e-04
    96   -1.641792290048e-15
    97    2.021866729792e-04
    98   -6.305158571584e-04
    99   -5.063137649745e-04
   100   -2.453859853682e-16
   101    2.199705581000e-03
   102    6.656102499322e-04
   103   -4.852264079457e-04
   104   -1.767110094124e-15
   105    5.264944793445e-05
   106   -9.343866857723e-16
   107    6.894829935442e-16
   108   -8.626611479340e-05
   109   -1.838282390430e-04
   110   -5.514844316164e-01
   111   -4.716806989546e-01
   112    1.529481557950e-03
   113    9.204927201823e-04
   114   -1.679611375573e-15
   115   -5.510037839106e-03
   116   -6.174336834985e-04
   117   -3.717189660552e-04
   118    2.548948718524e-15
   119    1.364975362064e-03
   120    1.147855148102e-04
   121    6.807700748643e-05
   122   -3.606296546518e-15
   123   -1.195387829397e-03
   124   -1.198547870853e-05
   125   -1.523352116169e-05
   126    6.260592702508e-15
   127    1.192924490499e-04
   128   -8.904052525694e-16
   129   -9.583090788279e-16
   130    3.744263848028e-05
   131    7.495794442509e-05
   132   -2.456853551962e-07
   133   -2.685514730994e-06
   134    1.087078729580e-05
   135   -5.978176882412e-07
   136   -5.929143646323e-16
   137    3.948867833447e-05
   138   -2.891767922798e-05
   139   -1.579644180049e-06
   140    5.316570417448e-16
   141   -3.640347509466e-04
   142    7.260420455132e-05
   143    3.034801739546e-04
   144   -1.567841359321e-16
   145    9.729404002790e-05
   146    5.996856621845e-04
   147    1.404200516764e-04
   148   -2.378946239635e-15
   149    8.983244423560e-06
   150   -6.024834982842e-16
   151    6.805757807250e-16
   152   -2.146167826200e-05
   153    1.159512006456e-05
   154   -5.194291534526e-08
   155   -8.026439768631e-07
   156   -4.942850642145e-07
   157   -7.778348332620e-08
   158    1.216095199194e-15
   159    1.003387424600e-05
   160    9.642533194678e-07
   161    2.034157382132e-06
   162   -2.848471526152e-15
   163   -1.499835176041e-04
   164   -7.195219816690e-05
   165   -1.952523607842e-05
   166    7.070976476744e-15
   167   -2.158123547106e-04
   168    4.991390383541e-05
   169   -9.514725397014e-06
   170   -1.838399147794e-14
   171   -7.858410503377e-07
   172    1.712046465072e-15
   173   -1.160630314217e-16
   174   -6.609349302095e-07
   175    4.038900642605e-07
   176   -9.693048681525e-07
   177   -1.932950280243e-06
   178    3.221441676635e-06
   179    1.573651830934e-05
   180   -6.095615811913e-16
   181    2.926609322244e-05
   182   -1.495701312174e-06
   183   -7.414566798734e-05
   184    5.746091956819e-16
   185   -7.516271744336e-04
   186    6.126065295233e-04
   187   -1.602600328119e-04
   188    4.312209936743e-15
   189   -1.642809194247e-03
   190   -7.049228242705e-05
   191   -1.173248276511e-03
   192   -1.412383091051e-14
   193    6.413406571279e-06
   194   -9.682750053642e-16
   195   -1.011575499995e-15
   196    2.948886143739e-05
   197   -2.351419126761e-05
   198    4.007583812755e-06
   199   -1.316540689275e-04
   200   -1.926845195624e-04
   201   -3.706499808940e-04
   202    1.911351162267e-05
   203   -1.144542514264e-05
   204    7.604929209588e-16
Sym=X
Ene= 0.818865
Spin=Alpha
Occup=0
     1    3.679287200392e-03
     2    6.813170691544e-03
     3   -8.352587346241e-03
     4   -1.644254039679e-02
     5   -3.914306700625e-15
     6   -3.890270825438e-02
     7   -8.450694482349e-03
     8   -1.713490176069e-02
     9   -5.227858589755e-14
    10    4.162777894906e-01
    11    6.658876157836e-02
    12    2.134128786678e-01
    13   -1.091232934785e-13
    14    7.358405179272e+00
    15    9.826712106449e-01
    16    1.364081285931e+00
    17   -9.081040321442e-13
    18    4.593992879348e-03
    19    7.448670589499e-15
    20   -5.906450897339e-15
    21    9.384162765972e-03
    22   -2.938969519385e-03
    23   -6.390732386678e-03
    24   -6.096707475696e-02
    25   -4.840469652877e-01
    26   -1.890822987983e+00
    27    3.815121135065e-03
    28    5.904517610118e-03
    29   -8.826057951510e-15
    30   -7.638955360327e-03
    31    2.445492269139e-02
    32   -1.015569678408e-01
    33   -9.022752864225e-02
    34    5.689665851702e-03
    35    4.465251218955e-03
    36    2.133812683468e-15
    37    3.158055422745e-03
    38   -4.309569478599e-02
    39    5.526963577455e-02
    40    7.787836998679e-01
    41   -5.752716343650e-03
    42    1.010477415694e-02
    43   -3.785264291612e-15
    44    6.114096165265e-03
    45    1.164593583464e-02
    46   -1.258447375557e-02
    47    4.183899820003e-03
    48    1.261780900842e-14
    49   -6.537082984890e-02
    50   -2.162212672722e-02
    51    7.984527277396e-03
    52    5.512481407117e-14
    53    3.639267966445e-01
    54    1.511710313861e-01
    55   -1.257697609121e-01
    56    1.532366741812e-15
    57   -1.404415096271e+00
    58   -1.262338005443e+00
    59   -3.904664293355e-01
    60    7.934870738301e-13
    61    4.770183287962e-03
    62    8.948414032329e-15
    63   -1.037334166319e-14
    64    3.116797929888e-03
    65    7.755445684171e-03
    66    3.544447346662e-03
    67    6.197669968047e-03
    68   -1.068722001083e-02
    69   -1.124981707530e-02
    70   -1.394279854248e-14
    71   -2.298665778040e-02
    72   -1.107424571322e-02
    73   -1.770359246469e-02
    74   -2.217456018798e-15
    75    1.661266759229e-02
    76   -4.212402495208e-02
    77   -1.152543067871e-02
    78    3.346794448915e-15
    79   -2.217514118904e-01
    80    1.121620365259e-01
    81    5.285643959512e-04
    82   -3.523599067543e-13
    83    1.071975723467e-03
    84    6.129385057250e-16
    85    1.103118793051e-15
    86   -1.409393406989e-03
    87    2.224107801390e-04
    88   -4.867091032478e-04
    89   -2.209577845014e-04
    90   -1.957413993453e-02
    91   -1.615506880194e-02
    92    1.979428488079e-14
    93   -1.791609209441e-02
    94   -3.404779721302e-02
    95   -3.131146715404e-02
    96   -1.341408416344e-14
    97    2.158299890342e-01
    98   -5.454296504167e-01
    99   -3.674310747303e-01
   100   -4.235405811234e-14
   101    1.220750986762e+01
   102   -3.744708621919e+00
   103   -3.525839240243e+00
   104   -1.372406862739e-12
   105    1.444793609146e-02
   106    1.128680568237e-15
   107   -5.909272304271e-15
   108    6.725972603264e-03
   109    6.682233723870e-03
   110   -1.497121235546e-02
   111   -2.661344486806e-02
   112    2.418461506712e-02
   113    8.046882752300e-03
   114   -4.538527512627e-17
   115    9.214878152376e-02
   116    3.374823534816e-02
   117    1.400441390915e-02
   118   -3.115961055958e-14
   119    2.567327832809e-01
   120   -6.440928141631e-02
   121   -5.404907413616e-02
   122   -7.736805112896e-14
   123    1.120552272097e+00
   124   -4.600174542774e-02
   125    4.951009154799e-02
   126    5.398869582255e-13
   127    3.123372006258e-03
   128    5.341001581720e-15
   129    7.282324607427e-16
   130   -6.968615975466e-04
   131   -2.161004161325e-04
   132    6.993965293888e-03
   133    1.186519304110e-02
   134   -1.167581266655e-02
   135   -7.393368541404e-03
   136    1.560799311041e-15
   137   -3.270456189523e-02
   138   -1.476119269276e-02
   139   -1.602807498532e-02
   140   -1.476092403492e-14
   141   -2.578222993762e-01
   142   -4.280552092382e-02
   143    1.668932064761e-01
   144    2.786734845725e-14
   145   -2.208942497945e+00
   146   -4.881344689589e-01
   147    4.116445965895e-01
   148   -3.078966252129e-14
   149    6.757609893726e-03
   150    2.423697132546e-15
   151   -8.944246343079e-15
   152   -6.025842474638e-03
   153   -7.199886641812e-03
   154   -6.364242716037e-03
   155   -1.106638123872e-02
   156   -2.324243551493e-02
   157   -2.178505317442e-02
   158    5.722112389429e-15
   159    3.665095280934e-02
   160   -3.386428491775e-02
   161   -3.309514753906e-02
   162   -7.252921289229e-15
   163   -1.064270757716e-02
   164   -1.656370724680e-01
   165   -1.282138392098e-01
   166    4.269654170200e-14
   167   -8.194205388583e-01
   168   -7.919156137385e-01
   169   -4.096593128749e-01
   170    1.440981055238e-13
   171    5.582519404646e-03
   172    3.540900897030e-15
   173    1.660459502015e-15
   174    4.249854586484e-05
   175   -2.998630863927e-03
   176    1.005724744093e-02
   177    1.723863825172e-02
   178   -7.833784450838e-03
   179   -1.093929528169e-03
   180    2.322846577354e-14
   181   -3.958746821068e-02
   182   -4.326346834490e-03
   183    2.674839637479e-03
   184    1.883382445396e-14
   185   -6.661970291689e-01
   186    2.597803033771e-01
   187   -2.612609335381e-01
   188    1.503041857786e-13
   189   -1.562139213034e+01
   190    2.219703404303e+00
   191   -2.174454461429e+00
   192    1.193204705529e-12
   193    1.133390654027e-02
   194   -2.677776935546e-15
   195    8.715797923807e-15
   196   -9.547596203656e-03
   197   -7.458916685284e-03
   198   -1.293847127943e-03
   199   -3.078635457495e-02
   200   -1.751230266601e-01
   201    5.944275667204e-01
   202    1.964054722239e-03
   203   -8.181382088214e-03
   204    1.289873462734e-15
[5D]
