[Molden Format]
[Atoms] (Angs)
  C      1    6     -0.00714236     -1.70213747     -0.00000000
  H      2    1     -2.06882847     -1.44022412      0.00000000
  H      3    1     -0.12337987     -2.77567521      0.00000000
  H      4    1      0.04651892      1.98813947     -0.00000000
  C      5    6     -1.21953563      0.40211669      0.00000000
  O      6    8     -2.25921553      1.03043814      0.00000000
  C      7    6      1.28797806      0.34644937     -0.00000000
  O      8    8      2.31273661      1.00537216     -0.00000000
  N      9    7      0.03446295      0.97739857     -0.00000000
  N     10    7     -1.17287765     -0.98229824      0.00000000
  C     11    6      1.20107039     -1.10433419     -0.00000000
  H     12    1      2.11220096     -1.67699125     -0.00000000
[GTO]
1    0
S    6    1.000000
   4.56324000E+03    1.96665000E-03 
   6.82024000E+02    1.52306000E-02 
   1.54973000E+02    7.61269000E-02 
   4.44553000E+01    2.60801000E-01 
   1.30290000E+01    6.16462000E-01 
   1.82773000E+00    2.21006000E-01 
SP   3    1.000000
   2.09642000E+01    1.14660000E-01   4.02487000E-02 
   4.80331000E+00    9.19999000E-01   2.37594000E-01 
   1.45933000E+00   -3.03068000E-03   8.15854000E-01 
SP   1    1.000000
   4.83456000E-01    1.00000000E+00   1.00000000E+00 
SP   1    1.000000
   1.45585000E-01    1.00000000E+00   1.00000000E+00 
SP   1    1.000000
   4.38000000E-02    1.00000000E+00   1.00000000E+00 
D    1    1.000000
   6.26000000E-01    1.00000000E+00 

2    0
S    3    1.000000
   3.38650000E+01    2.54938000E-02 
   5.09479000E+00    1.90373000E-01 
   1.15879000E+00    8.52161000E-01 
S    1    1.000000
   3.25840000E-01    1.00000000E+00 
S    1    1.000000
   1.02741000E-01    1.00000000E+00 
S    1    1.000000
   3.60000000E-02    1.00000000E+00 
P    1    1.000000
   7.50000000E-01    1.00000000E+00 

3    0
S    3    1.000000
   3.38650000E+01    2.54938000E-02 
   5.09479000E+00    1.90373000E-01 
   1.15879000E+00    8.52161000E-01 
S    1    1.000000
   3.25840000E-01    1.00000000E+00 
S    1    1.000000
   1.02741000E-01    1.00000000E+00 
S    1    1.000000
   3.60000000E-02    1.00000000E+00 
P    1    1.000000
   7.50000000E-01    1.00000000E+00 

4    0
S    3    1.000000
   3.38650000E+01    2.54938000E-02 
   5.09479000E+00    1.90373000E-01 
   1.15879000E+00    8.52161000E-01 
S    1    1.000000
   3.25840000E-01    1.00000000E+00 
S    1    1.000000
   1.02741000E-01    1.00000000E+00 
S    1    1.000000
   3.60000000E-02    1.00000000E+00 
P    1    1.000000
   7.50000000E-01    1.00000000E+00 

5    0
S    6    1.000000
   4.56324000E+03    1.96665000E-03 
   6.82024000E+02    1.52306000E-02 
   1.54973000E+02    7.61269000E-02 
   4.44553000E+01    2.60801000E-01 
   1.30290000E+01    6.16462000E-01 
   1.82773000E+00    2.21006000E-01 
SP   3    1.000000
   2.09642000E+01    1.14660000E-01   4.02487000E-02 
   4.80331000E+00    9.19999000E-01   2.37594000E-01 
   1.45933000E+00   -3.03068000E-03   8.15854000E-01 
SP   1    1.000000
   4.83456000E-01    1.00000000E+00   1.00000000E+00 
SP   1    1.000000
   1.45585000E-01    1.00000000E+00   1.00000000E+00 
SP   1    1.000000
   4.38000000E-02    1.00000000E+00   1.00000000E+00 
D    1    1.000000
   6.26000000E-01    1.00000000E+00 

6    0
S    6    1.000000
   8.58850000E+03    1.89515000E-03 
   1.29723000E+03    1.43859000E-02 
   2.99296000E+02    7.07320000E-02 
   8.73771000E+01    2.40001000E-01 
   2.56789000E+01    5.94797000E-01 
   3.74004000E+00    2.80802000E-01 
SP   3    1.000000
   4.21175000E+01    1.13889000E-01   3.65114000E-02 
   9.62837000E+00    9.20811000E-01   2.37153000E-01 
   2.85332000E+00   -3.27447000E-03   8.19702000E-01 
SP   1    1.000000
   9.05661000E-01    1.00000000E+00   1.00000000E+00 
SP   1    1.000000
   2.55611000E-01    1.00000000E+00   1.00000000E+00 
SP   1    1.000000
   8.45000000E-02    1.00000000E+00   1.00000000E+00 
D    1    1.000000
   1.29200000E+00    1.00000000E+00 

7    0
S    6    1.000000
   4.56324000E+03    1.96665000E-03 
   6.82024000E+02    1.52306000E-02 
   1.54973000E+02    7.61269000E-02 
   4.44553000E+01    2.60801000E-01 
   1.30290000E+01    6.16462000E-01 
   1.82773000E+00    2.21006000E-01 
SP   3    1.000000
   2.09642000E+01    1.14660000E-01   4.02487000E-02 
   4.80331000E+00    9.19999000E-01   2.37594000E-01 
   1.45933000E+00   -3.03068000E-03   8.15854000E-01 
SP   1    1.000000
   4.83456000E-01    1.00000000E+00   1.00000000E+00 
SP   1    1.000000
   1.45585000E-01    1.00000000E+00   1.00000000E+00 
SP   1    1.000000
   4.38000000E-02    1.00000000E+00   1.00000000E+00 
D    1    1.000000
   6.26000000E-01    1.00000000E+00 

8    0
S    6    1.000000
   8.58850000E+03    1.89515000E-03 
   1.29723000E+03    1.43859000E-02 
   2.99296000E+02    7.07320000E-02 
   8.73771000E+01    2.40001000E-01 
   2.56789000E+01    5.94797000E-01 
   3.74004000E+00    2.80802000E-01 
SP   3    1.000000
   4.21175000E+01    1.13889000E-01   3.65114000E-02 
   9.62837000E+00    9.20811000E-01   2.37153000E-01 
   2.85332000E+00   -3.27447000E-03   8.19702000E-01 
SP   1    1.000000
   9.05661000E-01    1.00000000E+00   1.00000000E+00 
SP   1    1.000000
   2.55611000E-01    1.00000000E+00   1.00000000E+00 
SP   1    1.000000
   8.45000000E-02    1.00000000E+00   1.00000000E+00 
D    1    1.000000
   1.29200000E+00    1.00000000E+00 

9    0
S    6    1.000000
   6.29348000E+03    1.96979000E-03 
   9.49044000E+02    1.49613000E-02 
   2.18776000E+02    7.35006000E-02 
   6.36916000E+01    2.48937000E-01 
   1.88282000E+01    6.02460000E-01 
   2.72023000E+00    2.56202000E-01 
SP   3    1.000000
   3.06331000E+01    1.11906000E-01   3.83119000E-02 
   7.02614000E+00    9.21666000E-01   2.37403000E-01 
   2.11205000E+00   -2.56919000E-03   8.17592000E-01 
SP   1    1.000000
   6.84009000E-01    1.00000000E+00   1.00000000E+00 
SP   1    1.000000
   2.00878000E-01    1.00000000E+00   1.00000000E+00 
SP   1    1.000000
   6.39000000E-02    1.00000000E+00   1.00000000E+00 
D    1    1.000000
   9.13000000E-01    1.00000000E+00 

10    0
S    6    1.000000
   6.29348000E+03    1.96979000E-03 
   9.49044000E+02    1.49613000E-02 
   2.18776000E+02    7.35006000E-02 
   6.36916000E+01    2.48937000E-01 
   1.88282000E+01    6.02460000E-01 
   2.72023000E+00    2.56202000E-01 
SP   3    1.000000
   3.06331000E+01    1.11906000E-01   3.83119000E-02 
   7.02614000E+00    9.21666000E-01   2.37403000E-01 
   2.11205000E+00   -2.56919000E-03   8.17592000E-01 
SP   1    1.000000
   6.84009000E-01    1.00000000E+00   1.00000000E+00 
SP   1    1.000000
   2.00878000E-01    1.00000000E+00   1.00000000E+00 
SP   1    1.000000
   6.39000000E-02    1.00000000E+00   1.00000000E+00 
D    1    1.000000
   9.13000000E-01    1.00000000E+00 

11    0
S    6    1.000000
   4.56324000E+03    1.96665000E-03 
   6.82024000E+02    1.52306000E-02 
   1.54973000E+02    7.61269000E-02 
   4.44553000E+01    2.60801000E-01 
   1.30290000E+01    6.16462000E-01 
   1.82773000E+00    2.21006000E-01 
SP   3    1.000000
   2.09642000E+01    1.14660000E-01   4.02487000E-02 
   4.80331000E+00    9.19999000E-01   2.37594000E-01 
   1.45933000E+00   -3.03068000E-03   8.15854000E-01 
SP   1    1.000000
   4.83456000E-01    1.00000000E+00   1.00000000E+00 
SP   1    1.000000
   1.45585000E-01    1.00000000E+00   1.00000000E+00 
SP   1    1.000000
   4.38000000E-02    1.00000000E+00   1.00000000E+00 
D    1    1.000000
   6.26000000E-01    1.00000000E+00 

12    0
S    3    1.000000
   3.38650000E+01    2.54938000E-02 
   5.09479000E+00    1.90373000E-01 
   1.15879000E+00    8.52161000E-01 
S    1    1.000000
   3.25840000E-01    1.00000000E+00 
S    1    1.000000
   1.02741000E-01    1.00000000E+00 
S    1    1.000000
   3.60000000E-02    1.00000000E+00 
P    1    1.000000
   7.50000000E-01    1.00000000E+00 

[MO]
Sym=X
Ene= -0.818868
Spin=Alpha
Occup=1
     1    3.677744588427e-07
     2   -3.002984954750e-07
     3    4.740122927895e-06
     4   -4.899459424075e-06
     5    3.120921949115e-16
     6    3.121457081337e-06
     7   -2.488059471227e-05
     8    1.825401211578e-05
     9   -1.603255072622e-15
    10    2.294037544695e-04
    11   -7.545835542041e-05
    12   -3.406788800206e-05
    13    1.312410816515e-15
    14   -6.251596508598e-04
    15   -6.308762642164e-04
    16   -1.778115414042e-04
    17    8.188819795220e-15
    18   -1.646591686330e-06
    19   -1.110465150644e-16
    20   -1.089894645069e-16
    21   -4.130237948057e-06
    22   -5.271774969432e-06
    23   -3.774606567937e-06
    24   -5.029973107851e-05
    25   -9.698920340517e-05
    26   -2.730387924955e-04
    27   -9.517189522289e-06
    28    7.902963411611e-06
    29    7.143561949470e-17
    30    5.095916695961e-06
    31   -3.908041257005e-05
    32   -2.483957088553e-06
    33   -9.810510611342e-05
    34    1.741209671917e-06
    35   -4.688448226023e-06
    36   -6.789955624902e-16
    37   -3.422965155232e-06
    38   -5.526380279021e-05
    39   -9.330345392693e-05
    40   -3.446014168513e-04
    41   -1.092490111633e-05
    42    5.371566341099e-06
    43   -8.390556599089e-16
    44   -4.940899421662e-06
    45    7.759019062440e-05
    46    6.125958578004e-05
    47   -3.748754112034e-05
    48    9.062319103434e-16
    49   -3.086448647814e-04
    50    3.615769197995e-04
    51   -2.179344948406e-04
    52   -4.144308262897e-15
    53    5.430025633600e-05
    54    4.917542624759e-04
    55   -3.039369267409e-04
    56    4.775895003697e-15
    57   -4.364079531289e-04
    58   -6.140246872934e-04
    59    4.354704245421e-04
    60    6.599665119561e-15
    61    5.721682994651e-05
    62    8.671082494305e-16
    63    6.189445715568e-16
    64   -9.298715720779e-05
    65    1.788865544577e-04
    66   -5.514791386476e-01
    67   -4.716764983267e-01
    68   -1.564708772630e-03
    69    9.584192001697e-04
    70   -2.212082118515e-16
    71   -5.533656344127e-03
    72    6.341307786102e-04
    73   -3.885298298970e-04
    74    3.199073242359e-16
    75    1.338635332231e-03
    76   -1.334488042478e-04
    77    8.860275864590e-05
    78    1.026119658946e-15
    79   -1.426701175683e-03
    80   -5.495630011222e-05
    81    9.627538334217e-06
    82   -2.197715905465e-15
    83    8.739965706217e-05
    84    3.050244376398e-16
    85   -2.689946930709e-16
    86    3.883360760745e-05
    87   -6.944688895947e-05
    88    4.338135024408e-07
    89   -7.251513154760e-07
    90    4.227811673676e-06
    91   -1.761657010437e-06
    92    2.089355222142e-16
    93    4.729333567309e-06
    94   -1.854753585569e-05
    95    1.073641748991e-05
    96   -2.716577234584e-15
    97    2.000277506266e-04
    98   -9.839459379713e-05
    99    4.643830821466e-05
   100    3.759835647253e-15
   101   -7.565985162883e-04
   102   -1.173812872229e-04
   103    6.877326974834e-04
   104    1.792543570384e-14
   105   -3.049566661702e-06
   106   -1.524974543752e-18
   107   -3.334943568143e-17
   108    7.916231022979e-06
   109   -2.176378035189e-06
   110   -8.123525746220e-05
   111   -7.029597378362e-05
   112   -4.797861751356e-08
   113    6.865208937076e-07
   114   -1.443348065399e-15
   115    6.827919797559e-06
   116   -1.287387925689e-06
   117   -1.633276797569e-06
   118    1.206138734229e-15
   119   -3.674030173140e-05
   120    1.355369917904e-05
   121    6.720309411528e-06
   122    1.878224824052e-15
   123    1.871322835320e-04
   124   -8.565568170424e-05
   125   -7.261819496791e-05
   126   -7.338679600880e-15
   127   -2.567250173874e-07
   128   -4.753345494053e-16
   129   -1.080342620858e-15
   130   -7.506158682418e-07
   131   -3.469409216512e-07
   132   -2.760957490500e-07
   133   -1.618228161575e-06
   134   -1.105613614259e-05
   135    1.195969940630e-06
   136   -4.871531577742e-16
   137    2.768641270602e-05
   138    3.158932834649e-05
   139   -5.984331443054e-06
   140   -3.020861434314e-17
   141   -3.014145843872e-04
   142   -4.738686732298e-05
   143    2.531114570466e-04
   144    2.113161148489e-15
   145   -1.245308747329e-05
   146   -5.480643117783e-04
   147    8.543855415990e-05
   148   -1.231569127543e-14
   149    7.180025747054e-06
   150   -2.222587663018e-16
   151    7.344972918802e-16
   152   -2.287635806352e-05
   153   -6.926427493479e-06
   154   -3.700062091014e-07
   155   -1.491560479319e-06
   156   -5.234641134245e-06
   157    9.635752622473e-06
   158    6.753091215952e-16
   159    2.596534602212e-05
   160    1.588033813500e-05
   161   -2.554519804913e-05
   162   -7.988474510649e-17
   163   -2.737291904361e-04
   164   -2.300100966270e-04
   165   -7.113708590371e-05
   166    9.184878514459e-16
   167    3.027131347706e-05
   168   -2.947787792677e-04
   169    3.663054203101e-04
   170   -7.669981279690e-15
   171    7.679357542348e-06
   172    2.553914975235e-16
   173   -2.839827800688e-16
   174    1.831153563312e-05
   175    1.263796700677e-05
   176   -1.278758751830e-07
   177    6.311447799536e-07
   178   -1.255987541421e-06
   179    7.606381930050e-07
   180    1.365107094516e-15
   181   -1.225445824713e-05
   182    6.487928230852e-06
   183   -6.743851689272e-06
   184   -5.549644337518e-16
   185    6.163764774844e-05
   186   -4.865137427552e-05
   187    2.868493924707e-05
   188    8.399280841351e-16
   189    2.955074920026e-03
   190   -4.559418915854e-04
   191    2.992524929801e-04
   192   -1.533314909299e-14
   193   -5.184600920901e-06
   194    4.126967455459e-17
   195    3.977447557191e-16
   196   -1.373572635232e-08
   197    3.103751332955e-06
   198   -1.320535841515e-06
   199    8.483779546989e-06
   200    2.093015456639e-05
   201    1.794882132333e-04
   202    4.859425754931e-07
   203   -4.267589543152e-07
   204   -8.126709334723e-16
Sym=X
Ene= 0.818868
Spin=Alpha
Occup=0
     1    8.056990541690e-16
     2    3.574834049298e-15
     3   -2.323648096883e-15
     4   -1.153146108160e-14
     5   -7.139501842921e-02
     6    2.376565235657e-14
     7   -4.953696011843e-14
     8   -3.852026688808e-14
     9   -7.208654321201e-02
    10   -2.731511287269e-13
    11   -2.810783900737e-14
    12   -7.692656760840e-15
    13   -3.717854091655e-01
    14   -4.712615145431e-12
    15   -1.013306936467e-12
    16    3.715512676966e-12
    17    1.690722319038e+00
    18    1.435280484376e-14
    19   -1.410623046429e-03
    20   -1.593755770046e-02
    21    4.787089459754e-16
    22   -1.860438365989e-14
    23    6.130921626637e-15
    24   -1.440238991581e-13
    25   -2.307258344934e-13
    26    7.456975165855e-13
    27   -9.656739839944e-15
    28   -1.056195427071e-15
    29    5.373697998695e-03
    30   -3.243344741930e-15
    31   -8.873988103877e-14
    32    6.353702320957e-13
    33    3.279632032558e-12
    34    1.199758572141e-14
    35    5.091706779231e-15
    36    7.825204139564e-03
    37    1.914220265788e-14
    38    7.999496606570e-14
    39    1.131878984807e-12
    40   -1.290204512883e-12
    41   -5.834426012334e-15
    42    1.631506668878e-15
    43   -7.360475734952e-03
    44   -8.430130101949e-16
    45   -1.581605872405e-15
    46    1.365490761101e-14
    47   -5.582497446900e-15
    48    2.562103158273e-02
    49   -1.740844378282e-14
    50   -4.259329188326e-14
    51    6.965022582167e-17
    52    2.974948719204e-02
    53   -4.383219926754e-14
    54    4.969319154551e-13
    55    1.494669282163e-13
    56    1.182512298973e-01
    57   -2.272520434750e-12
    58    1.227626671925e-12
    59    3.777134478072e-12
    60   -9.315007028587e-01
    61   -2.464611040953e-15
    62   -8.395477007793e-03
    63   -6.699806377151e-04
    64    1.141053946642e-14
    65   -7.610213687460e-16
    66    3.079690310568e-15
    67    4.548107752820e-15
    68   -1.422357679909e-15
    69   -8.401405379606e-15
    70    3.882804831205e-02
    71   -1.204011219505e-14
    72   -2.167138373066e-14
    73   -1.456448924932e-14
    74    5.060174708953e-02
    75   -3.931245926253e-14
    76    1.842542260730e-14
    77    4.990280969358e-15
    78    4.360592613085e-02
    79    6.972229937168e-13
    80    2.091893810485e-14
    81   -7.116749654185e-13
    82   -7.277366772106e-02
    83    5.253050673166e-15
    84    4.165150000157e-03
    85   -5.044041414309e-03
    86   -2.660809175643e-15
    87    3.853869187593e-15
    88   -4.955722415916e-15
    89   -8.588824610390e-15
    90    7.120331120509e-15
    91    3.226923279680e-15
    92    2.507393927885e-02
    93    6.039156910819e-14
    94   -1.449108871658e-15
    95    2.393687085347e-14
    96    3.857675999492e-02
    97   -1.642289832277e-13
    98    2.671600487092e-13
    99    5.420332226118e-13
   100    1.091888677752e-01
   101    9.119676731508e-14
   102    8.058588263778e-13
   103    1.179357663637e-12
   104    3.823037127971e-01
   105    1.203329871826e-14
   106   -5.550620598145e-03
   107   -8.206990385681e-04
   108    1.861319516821e-14
   109   -2.608712785419e-15
   110    4.994271987734e-16
   111   -3.011949720879e-15
   112    1.417982795804e-14
   113   -2.321340792588e-14
   114   -2.061056995992e-02
   115    1.806471179917e-14
   116    1.057850846867e-15
   117   -1.467893470000e-14
   118   -3.082845637933e-02
   119   -1.383755017589e-13
   120    9.387301008910e-14
   121   -5.358390133240e-14
   122   -4.419478227671e-02
   123   -3.449023453142e-13
   124    1.569009138825e-13
   125    1.260131650806e-13
   126   -8.424425846435e-02
   127   -2.742699706695e-15
   128   -3.158215664146e-04
   129   -9.790863350258e-04
   130   -2.267001305076e-15
   131    4.621707715577e-15
   132    3.523152294029e-15
   133    4.200003968816e-15
   134    7.071417190321e-15
   135   -1.685425408481e-14
   136    3.855608486515e-03
   137    9.045814898940e-15
   138    8.323618393007e-17
   139    7.729966514007e-15
   140    4.306346187844e-03
   141   -2.945132491126e-13
   142    1.467285735247e-13
   143   -2.946798633526e-13
   144    1.615706316963e-02
   145   -2.761962301742e-12
   146    3.241740360455e-14
   147   -9.358063604191e-13
   148   -2.288006972140e-01
   149   -2.332067690678e-15
   150    2.981237965319e-03
   151   -6.011613067303e-03
   152   -9.369359536401e-16
   153   -3.631778455145e-16
   154    4.694573980006e-16
   155   -1.018924315797e-15
   156    5.918130354392e-15
   157   -1.355758060978e-14
   158   -1.775535921391e-02
   159    2.180195312291e-16
   160    2.050240134739e-14
   161   -2.082202366105e-14
   162   -3.004644472080e-02
   163    5.037253258930e-14
   164   -1.965642149055e-13
   165   -7.816309901581e-14
   166   -2.914510679823e-02
   167    1.532083489433e-12
   168   -8.163563422974e-13
   169   -9.791196713431e-14
   170    1.665031158509e-01
   171   -2.410803940149e-15
   172   -7.699030593685e-03
   173    6.759328905270e-04
   174    2.810043198809e-15
   175   -7.684542817953e-16
   176   -8.196247714283e-15
   177   -5.191582036165e-15
   178    3.647013452385e-14
   179   -1.853185435288e-14
   180   -3.513244645925e-02
   181   -3.185771957074e-14
   182    5.598750143932e-15
   183   -7.662175864201e-15
   184   -3.644475140433e-02
   185    9.571624548283e-13
   186    1.800728676751e-13
   187    1.853007710609e-13
   188   -1.323476726036e-01
   189    5.483252724397e-12
   190   -1.484981929854e-12
   191   -2.719936482617e-12
   192   -4.739142478173e-01
   193   -2.433024524494e-14
   194    1.000387498807e-02
   195    1.685645091982e-03
   196   -1.250581574109e-14
   197    9.171028998663e-15
   198   -1.008050152297e-14
   199   -2.899184526354e-14
   200   -8.353718231613e-13
   201   -1.165421560619e-12
   202    5.907165027015e-16
   203   -3.653577479147e-15
   204    2.376137748693e-03
[5D]
