[Molden Format]
[Atoms] (Angs)
  C      1    6     -0.00714236     -1.70213747     -0.00000000
  H      2    1     -2.06882847     -1.44022412      0.00000000
  H      3    1     -0.12337987     -2.77567521      0.00000000
  H      4    1      0.04651892      1.98813947     -0.00000000
  C      5    6     -1.21953563      0.40211669      0.00000000
  O      6    8     -2.25921553      1.03043814      0.00000000
  C      7    6      1.28797806      0.34644937     -0.00000000
  O      8    8      2.31273661      1.00537216     -0.00000000
  N      9    7      0.03446295      0.97739857     -0.00000000
  N     10    7     -1.17287765     -0.98229824      0.00000000
  C     11    6      1.20107039     -1.10433419     -0.00000000
  H     12    1      2.11220096     -1.67699125     -0.00000000
[GTO]
1    0
S    6    1.000000
   4.56324000E+03    1.96665000E-03 
   6.82024000E+02    1.52306000E-02 
   1.54973000E+02    7.61269000E-02 
   4.44553000E+01    2.60801000E-01 
   1.30290000E+01    6.16462000E-01 
   1.82773000E+00    2.21006000E-01 
SP   3    1.000000
   2.09642000E+01    1.14660000E-01   4.02487000E-02 
   4.80331000E+00    9.19999000E-01   2.37594000E-01 
   1.45933000E+00   -3.03068000E-03   8.15854000E-01 
SP   1    1.000000
   4.83456000E-01    1.00000000E+00   1.00000000E+00 
SP   1    1.000000
   1.45585000E-01    1.00000000E+00   1.00000000E+00 
SP   1    1.000000
   4.38000000E-02    1.00000000E+00   1.00000000E+00 
D    1    1.000000
   6.26000000E-01    1.00000000E+00 

2    0
S    3    1.000000
   3.38650000E+01    2.54938000E-02 
   5.09479000E+00    1.90373000E-01 
   1.15879000E+00    8.52161000E-01 
S    1    1.000000
   3.25840000E-01    1.00000000E+00 
S    1    1.000000
   1.02741000E-01    1.00000000E+00 
S    1    1.000000
   3.60000000E-02    1.00000000E+00 
P    1    1.000000
   7.50000000E-01    1.00000000E+00 

3    0
S    3    1.000000
   3.38650000E+01    2.54938000E-02 
   5.09479000E+00    1.90373000E-01 
   1.15879000E+00    8.52161000E-01 
S    1    1.000000
   3.25840000E-01    1.00000000E+00 
S    1    1.000000
   1.02741000E-01    1.00000000E+00 
S    1    1.000000
   3.60000000E-02    1.00000000E+00 
P    1    1.000000
   7.50000000E-01    1.00000000E+00 

4    0
S    3    1.000000
   3.38650000E+01    2.54938000E-02 
   5.09479000E+00    1.90373000E-01 
   1.15879000E+00    8.52161000E-01 
S    1    1.000000
   3.25840000E-01    1.00000000E+00 
S    1    1.000000
   1.02741000E-01    1.00000000E+00 
S    1    1.000000
   3.60000000E-02    1.00000000E+00 
P    1    1.000000
   7.50000000E-01    1.00000000E+00 

5    0
S    6    1.000000
   4.56324000E+03    1.96665000E-03 
   6.82024000E+02    1.52306000E-02 
   1.54973000E+02    7.61269000E-02 
   4.44553000E+01    2.60801000E-01 
   1.30290000E+01    6.16462000E-01 
   1.82773000E+00    2.21006000E-01 
SP   3    1.000000
   2.09642000E+01    1.14660000E-01   4.02487000E-02 
   4.80331000E+00    9.19999000E-01   2.37594000E-01 
   1.45933000E+00   -3.03068000E-03   8.15854000E-01 
SP   1    1.000000
   4.83456000E-01    1.00000000E+00   1.00000000E+00 
SP   1    1.000000
   1.45585000E-01    1.00000000E+00   1.00000000E+00 
SP   1    1.000000
   4.38000000E-02    1.00000000E+00   1.00000000E+00 
D    1    1.000000
   6.26000000E-01    1.00000000E+00 

6    0
S    6    1.000000
   8.58850000E+03    1.89515000E-03 
   1.29723000E+03    1.43859000E-02 
   2.99296000E+02    7.07320000E-02 
   8.73771000E+01    2.40001000E-01 
   2.56789000E+01    5.94797000E-01 
   3.74004000E+00    2.80802000E-01 
SP   3    1.000000
   4.21175000E+01    1.13889000E-01   3.65114000E-02 
   9.62837000E+00    9.20811000E-01   2.37153000E-01 
   2.85332000E+00   -3.27447000E-03   8.19702000E-01 
SP   1    1.000000
   9.05661000E-01    1.00000000E+00   1.00000000E+00 
SP   1    1.000000
   2.55611000E-01    1.00000000E+00   1.00000000E+00 
SP   1    1.000000
   8.45000000E-02    1.00000000E+00   1.00000000E+00 
D    1    1.000000
   1.29200000E+00    1.00000000E+00 

7    0
S    6    1.000000
   4.56324000E+03    1.96665000E-03 
   6.82024000E+02    1.52306000E-02 
   1.54973000E+02    7.61269000E-02 
   4.44553000E+01    2.60801000E-01 
   1.30290000E+01    6.16462000E-01 
   1.82773000E+00    2.21006000E-01 
SP   3    1.000000
   2.09642000E+01    1.14660000E-01   4.02487000E-02 
   4.80331000E+00    9.19999000E-01   2.37594000E-01 
   1.45933000E+00   -3.03068000E-03   8.15854000E-01 
SP   1    1.000000
   4.83456000E-01    1.00000000E+00   1.00000000E+00 
SP   1    1.000000
   1.45585000E-01    1.00000000E+00   1.00000000E+00 
SP   1    1.000000
   4.38000000E-02    1.00000000E+00   1.00000000E+00 
D    1    1.000000
   6.26000000E-01    1.00000000E+00 

8    0
S    6    1.000000
   8.58850000E+03    1.89515000E-03 
   1.29723000E+03    1.43859000E-02 
   2.99296000E+02    7.07320000E-02 
   8.73771000E+01    2.40001000E-01 
   2.56789000E+01    5.94797000E-01 
   3.74004000E+00    2.80802000E-01 
SP   3    1.000000
   4.21175000E+01    1.13889000E-01   3.65114000E-02 
   9.62837000E+00    9.20811000E-01   2.37153000E-01 
   2.85332000E+00   -3.27447000E-03   8.19702000E-01 
SP   1    1.000000
   9.05661000E-01    1.00000000E+00   1.00000000E+00 
SP   1    1.000000
   2.55611000E-01    1.00000000E+00   1.00000000E+00 
SP   1    1.000000
   8.45000000E-02    1.00000000E+00   1.00000000E+00 
D    1    1.000000
   1.29200000E+00    1.00000000E+00 

9    0
S    6    1.000000
   6.29348000E+03    1.96979000E-03 
   9.49044000E+02    1.49613000E-02 
   2.18776000E+02    7.35006000E-02 
   6.36916000E+01    2.48937000E-01 
   1.88282000E+01    6.02460000E-01 
   2.72023000E+00    2.56202000E-01 
SP   3    1.000000
   3.06331000E+01    1.11906000E-01   3.83119000E-02 
   7.02614000E+00    9.21666000E-01   2.37403000E-01 
   2.11205000E+00   -2.56919000E-03   8.17592000E-01 
SP   1    1.000000
   6.84009000E-01    1.00000000E+00   1.00000000E+00 
SP   1    1.000000
   2.00878000E-01    1.00000000E+00   1.00000000E+00 
SP   1    1.000000
   6.39000000E-02    1.00000000E+00   1.00000000E+00 
D    1    1.000000
   9.13000000E-01    1.00000000E+00 

10    0
S    6    1.000000
   6.29348000E+03    1.96979000E-03 
   9.49044000E+02    1.49613000E-02 
   2.18776000E+02    7.35006000E-02 
   6.36916000E+01    2.48937000E-01 
   1.88282000E+01    6.02460000E-01 
   2.72023000E+00    2.56202000E-01 
SP   3    1.000000
   3.06331000E+01    1.11906000E-01   3.83119000E-02 
   7.02614000E+00    9.21666000E-01   2.37403000E-01 
   2.11205000E+00   -2.56919000E-03   8.17592000E-01 
SP   1    1.000000
   6.84009000E-01    1.00000000E+00   1.00000000E+00 
SP   1    1.000000
   2.00878000E-01    1.00000000E+00   1.00000000E+00 
SP   1    1.000000
   6.39000000E-02    1.00000000E+00   1.00000000E+00 
D    1    1.000000
   9.13000000E-01    1.00000000E+00 

11    0
S    6    1.000000
   4.56324000E+03    1.96665000E-03 
   6.82024000E+02    1.52306000E-02 
   1.54973000E+02    7.61269000E-02 
   4.44553000E+01    2.60801000E-01 
   1.30290000E+01    6.16462000E-01 
   1.82773000E+00    2.21006000E-01 
SP   3    1.000000
   2.09642000E+01    1.14660000E-01   4.02487000E-02 
   4.80331000E+00    9.19999000E-01   2.37594000E-01 
   1.45933000E+00   -3.03068000E-03   8.15854000E-01 
SP   1    1.000000
   4.83456000E-01    1.00000000E+00   1.00000000E+00 
SP   1    1.000000
   1.45585000E-01    1.00000000E+00   1.00000000E+00 
SP   1    1.000000
   4.38000000E-02    1.00000000E+00   1.00000000E+00 
D    1    1.000000
   6.26000000E-01    1.00000000E+00 

12    0
S    3    1.000000
   3.38650000E+01    2.54938000E-02 
   5.09479000E+00    1.90373000E-01 
   1.15879000E+00    8.52161000E-01 
S    1    1.000000
   3.25840000E-01    1.00000000E+00 
S    1    1.000000
   1.02741000E-01    1.00000000E+00 
S    1    1.000000
   3.60000000E-02    1.00000000E+00 
P    1    1.000000
   7.50000000E-01    1.00000000E+00 

[MO]
Sym=X
Ene= -0.813497
Spin=Alpha
Occup=1
     1   -6.816171154252e-08
     2   -1.099096982905e-06
     3    3.206011480556e-06
     4    3.372650953459e-07
     5    5.389187678049e-16
     6    1.074893672303e-05
     7   -1.018489318775e-05
     8    1.136129648668e-06
     9   -9.284968539237e-16
    10   -6.215849811482e-04
    11   -1.369179595098e-04
    12   -2.583007444368e-04
    13    5.645313792122e-15
    14    8.046029165289e-05
    15    3.153591821371e-04
    16   -6.117230113883e-04
    17   -2.184150216854e-14
    18    9.275203759765e-07
    19    8.682690163065e-16
    20    9.378609082468e-16
    21   -3.944662522222e-06
    22    4.565831398364e-06
    23    1.024074706223e-07
    24    5.949855213014e-06
    25   -3.582364163678e-05
    26    7.427826269340e-05
    27   -3.366046101992e-06
    28    9.708809241230e-07
    29   -6.459150491755e-16
    30   -2.514040495468e-06
    31    3.848986776730e-06
    32   -1.320105358172e-04
    33   -3.102446572917e-04
    34    5.769163480367e-06
    35    6.272644068200e-07
    36    9.277731918824e-16
    37    2.099099464765e-06
    38    7.417819270967e-05
    39    1.043949462912e-04
    40    9.226508418182e-05
    41   -1.051944759780e-05
    42   -6.769941339503e-06
    43    4.426126796683e-16
    44   -6.625305884637e-07
    45    1.754627401802e-06
    46    7.026945955366e-06
    47    3.500913566027e-07
    48   -9.223171439946e-16
    49   -1.102129904245e-05
    50   -3.168858109026e-05
    51   -3.120786042922e-06
    52    2.275160684362e-15
    53   -3.114890884465e-04
    54   -1.470183791939e-04
    55    1.394800776324e-05
    56   -1.815747537758e-15
    57   -2.665748624317e-04
    58   -4.949428660567e-06
    59   -1.806866370207e-04
    60   -9.961084013610e-15
    61    4.562480569850e-06
    62   -3.105004492597e-16
    63    1.377532053969e-15
    64   -6.999269041544e-06
    65   -8.966432166548e-08
    66   -8.128748553565e-05
    67   -6.848681184152e-05
    68    2.055669944248e-07
    69   -1.037229939639e-07
    70    2.090405543626e-16
    71   -9.679573787065e-06
    72   -4.204286429940e-06
    73    5.940644777774e-07
    74    1.942111882130e-16
    75    2.864954639617e-05
    76    1.763312624167e-05
    77   -2.206380656826e-07
    78   -2.521807785083e-15
    79   -2.508189300511e-04
    80   -1.390682601285e-04
    81    4.495451112633e-05
    82    3.153649469392e-15
    83    3.579894182795e-07
    84   -3.352113800099e-16
    85    2.163911372381e-16
    86    3.915384646768e-07
    87   -6.064749503639e-08
    88    5.252319280616e-06
    89   -7.587409106814e-05
    90    5.788571084665e-05
    91    4.456217093329e-05
    92   -1.057830574524e-15
    93    3.117097685374e-04
    94    3.436953632044e-04
    95    2.110154467378e-04
    96    1.641734297030e-15
    97   -2.009276130449e-04
    98    6.309686494969e-04
    99    5.068164580902e-04
   100    2.446223325959e-16
   101   -2.198796777923e-03
   102   -6.660514617757e-04
   103    4.853116721597e-04
   104    1.764440852291e-15
   105   -5.259136493579e-05
   106    9.342636184032e-16
   107   -6.895521146731e-16
   108    8.628404119007e-05
   109    1.839018116036e-04
   110    5.514845331590e-01
   111    4.716808824004e-01
   112   -1.529672627537e-03
   113   -9.206177186704e-04
   114    1.679381148188e-15
   115    5.510060276317e-03
   116    6.170222697812e-04
   117    3.714905313381e-04
   118   -2.548565058786e-15
   119   -1.367256729141e-03
   120   -1.153031369921e-04
   121   -6.828265839941e-05
   122    3.605613214730e-15
   123    1.194733678962e-03
   124    1.205866511919e-05
   125    1.527096991070e-05
   126   -6.258638266461e-15
   127   -1.192653452850e-04
   128    8.903422926883e-16
   129    9.581976015383e-16
   130   -3.743113081483e-05
   131   -7.496163610254e-05
   132    3.266757823446e-07
   133    2.823823779380e-06
   134   -1.089042523681e-05
   135    6.074838030228e-07
   136    5.928337239550e-16
   137   -4.016547275995e-05
   138    2.884257188861e-05
   139    1.549171040111e-06
   140   -5.316671359225e-16
   141    3.635959605320e-04
   142   -7.247951603167e-05
   143   -3.033000693740e-04
   144    1.576141100252e-16
   145   -9.823069911639e-05
   146   -5.999429471648e-04
   147   -1.402521867120e-04
   148    2.377616060413e-15
   149   -8.931164117619e-06
   150    6.025098288993e-16
   151   -6.805412065932e-16
   152    2.146539124878e-05
   153   -1.164549024440e-05
   154   -2.073218775562e-08
   155    6.760933147895e-07
   156    3.400545463401e-07
   157    2.464411322552e-07
   158   -1.215975041893e-15
   159   -9.416562509731e-06
   160   -1.260817050278e-06
   161   -1.830149864164e-06
   162    2.848226662161e-15
   163    1.507019023544e-04
   164    7.201180101393e-05
   165    2.025177009928e-05
   166   -7.070567427274e-15
   167    2.170282698518e-04
   168   -4.955759539322e-05
   169    9.858032080571e-06
   170    1.838320816825e-14
   171    8.768131788882e-07
   172   -1.712001261155e-15
   173    1.160569309862e-16
   174    6.878213659054e-07
   175   -4.107051405491e-07
   176    9.950178343945e-07
   177    1.979608493851e-06
   178   -3.381726353003e-06
   179   -1.593822701596e-05
   180    6.097646823134e-16
   181   -2.978601375229e-05
   182    1.171498650888e-06
   183    7.381460778739e-05
   184   -5.747078040078e-16
   185    7.521188714795e-04
   186   -6.129971241823e-04
   187    1.599003130063e-04
   188   -4.311772281783e-15
   189    1.643167447218e-03
   190    7.072282182618e-05
   191    1.173263169360e-03
   192    1.412609464889e-14
   193   -6.326496403114e-06
   194    9.682143670391e-16
   195    1.011774535427e-15
   196   -2.959685994268e-05
   197    2.348898029333e-05
   198   -3.927821246374e-06
   199    1.319199263414e-04
   200    1.926939691989e-04
   201    3.705320488296e-04
   202   -1.913561793528e-05
   203    1.139901119608e-05
   204   -7.606725036282e-16
Sym=X
Ene= 0.813497
Spin=Alpha
Occup=0
     1    3.013619348019e-15
     2    1.440823262647e-14
     3   -3.642372698706e-15
     4    1.214401761615e-14
     5   -1.347221274667e-02
     6   -3.318952741963e-14
     7    1.378489730158e-14
     8    1.531956659503e-14
     9   -4.028083137377e-02
    10   -1.995323261202e-13
    11   -3.878543327290e-13
    12    1.372282625047e-13
    13   -2.492614573807e-02
    14    2.119504498147e-12
    15   -2.376054092102e-12
    16    2.068956908504e-12
    17    5.405474722341e-01
    18    1.574706342699e-14
    19    1.338617433636e-02
    20    7.896160264252e-03
    21    5.894659284656e-16
    22   -1.883023349146e-14
    23   -1.496615669701e-14
    24   -1.098670030041e-14
    25   -6.476827286195e-13
    26   -7.494908008079e-13
    27   -4.239448290245e-15
    28    1.031033913062e-15
    29   -7.941911327160e-04
    30   -1.865545422640e-14
    31    1.296113318044e-13
    32   -4.838584072314e-13
    33   -6.419771361212e-13
    34    1.350937209766e-14
    35    7.771740070668e-15
    36   -6.832739855844e-03
    37   -1.288854701233e-15
    38    2.481025501181e-14
    39   -5.293781918997e-13
    40    1.797363609601e-12
    41   -3.005105448347e-15
    42   -1.904251345783e-14
    43    2.787742790555e-04
    44    1.878981654057e-15
    45    3.665926929097e-15
    46   -1.668872646573e-14
    47   -3.622004364805e-15
    48    1.455285615610e-02
    49    1.047949772981e-14
    50   -2.296014562570e-14
    51    2.081568407895e-14
    52    2.567823975266e-02
    53   -9.197408026674e-14
    54   -6.645850646702e-13
    55    5.441873583279e-14
    56    6.977611766747e-02
    57   -3.900481237580e-12
    58   -1.878608410173e-12
    59    4.315536652198e-13
    60    1.772637043564e+00
    61   -1.309758810296e-14
    62    8.831607847119e-03
    63   -5.693665768588e-03
    64   -1.595682601431e-15
    65   -1.338789142449e-15
    66   -2.473097530429e-16
    67   -3.178087207996e-15
    68    4.375564278501e-15
    69   -4.992928139336e-15
    70   -4.644768405268e-02
    71    1.213889264737e-14
    72    1.221338219931e-14
    73   -9.611801309706e-15
    74   -8.205930378982e-02
    75   -7.405905130419e-14
    76   -9.266472544395e-14
    77    1.410679048679e-14
    78   -3.440280707899e-02
    79   -1.470319516037e-12
    80   -1.552654966477e-13
    81    5.371132857486e-13
    82   -4.968135782134e-01
    83   -1.220925347183e-15
    84   -1.142036166197e-03
    85    9.424494486079e-04
    86   -1.073194709574e-15
    87    4.508609726709e-16
    88   -7.988917787098e-16
    89   -6.609502548804e-16
    90    5.245294333039e-15
    91   -7.443147439976e-15
    92   -1.076095722483e-03
    93    3.977960884259e-14
    94   -5.988298999359e-15
    95    2.604823089096e-14
    96   -1.921958864079e-02
    97   -5.749606775757e-13
    98    4.109189204710e-13
    99   -5.245562478447e-14
   100    2.885253015477e-02
   101    1.878746689488e-12
   102    4.992866807333e-12
   103   -2.161446267187e-12
   104    4.487503058534e-01
   105    1.485715001990e-14
   106    6.096081445893e-03
   107   -1.481733431620e-02
   108   -8.231419695838e-15
   109    4.702377299475e-15
   110   -2.706747201790e-16
   111   -4.880954914098e-16
   112   -2.862577365954e-15
   113    1.408256854413e-14
   114    3.726194663359e-02
   115    2.260548226541e-15
   116   -2.090705283958e-14
   117    1.893573044853e-14
   118    4.550520179668e-02
   119   -2.997980230529e-14
   120    1.116756128642e-13
   121    5.587786253059e-14
   122    6.495738159456e-02
   123   -8.036296027970e-13
   124   -6.512979309065e-13
   125   -6.408890493544e-14
   126   -1.748166271321e-01
   127    2.277149488123e-15
   128   -2.721225822743e-03
   129    8.170063650534e-05
   130    1.151614474556e-15
   131    9.482222056331e-17
   132   -8.994370925229e-15
   133   -1.629643772014e-14
   134   -1.583580168778e-14
   135    2.115573766669e-14
   136   -4.258930354131e-02
   137    4.957632979501e-14
   138   -2.611262880027e-14
   139    5.629625886457e-14
   140   -7.055668458800e-02
   141    1.796130552441e-13
   142   -9.962828667610e-14
   143   -2.259914150191e-13
   144   -9.255730583225e-02
   145    7.834523448811e-12
   146   -1.356061295605e-16
   147   -1.025496675649e-12
   148   -2.499235998613e-01
   149    2.154817885743e-15
   150   -6.972298936043e-03
   151    4.424125112379e-04
   152    2.896532409219e-15
   153   -4.695103107217e-15
   154   -8.201412223892e-15
   155   -1.140900701488e-14
   156   -6.009487436048e-15
   157   -4.922221550153e-15
   158   -2.033461575483e-02
   159    1.858580011302e-14
   160    8.407747663290e-16
   161    1.567928304147e-14
   162   -4.256231268403e-02
   163    2.892749470364e-13
   164   -1.289171789271e-13
   165   -5.059249196793e-14
   166   -2.908135621759e-03
   167   -2.547022832853e-12
   168   -1.338557241061e-12
   169    8.207573430946e-13
   170   -5.492978279827e-01
   171   -1.742074838347e-15
   172   -2.898721984381e-03
   173    5.761763642887e-03
   174    2.044285980659e-15
   175   -5.733431986717e-16
   176    9.956568404433e-15
   177    2.222133485352e-14
   178   -8.526425338016e-16
   179    8.031176812896e-15
   180    7.663230433936e-02
   181   -7.720658546934e-14
   182   -3.799656117503e-14
   183    3.298592808851e-14
   184    9.023756081515e-02
   185    1.198790562460e-14
   186   -2.049007812806e-13
   187   -1.219751313070e-13
   188    3.837291624115e-01
   189    9.374248176743e-13
   190   -2.668301176146e-12
   191   -5.043411550445e-12
   192   -1.749512604758e+00
   193    3.414323084046e-15
   194   -6.003784030722e-03
   195    9.913068452394e-03
   196   -8.723483563640e-15
   197    6.766844944022e-15
   198   -1.616832593044e-14
   199   -4.063670161663e-15
   200   -3.786549111321e-13
   201   -2.340852791831e-12
   202    5.769188618260e-15
   203    1.843231139830e-15
   204   -4.091180324963e-03
[5D]
