[Molden Format]
[Atoms] (Angs)
  C      1    6     -0.00714236     -1.70213747     -0.00000000
  H      2    1     -2.06882847     -1.44022412      0.00000000
  H      3    1     -0.12337987     -2.77567521      0.00000000
  H      4    1      0.04651892      1.98813947     -0.00000000
  C      5    6     -1.21953563      0.40211669      0.00000000
  O      6    8     -2.25921553      1.03043814      0.00000000
  C      7    6      1.28797806      0.34644937     -0.00000000
  O      8    8      2.31273661      1.00537216     -0.00000000
  N      9    7      0.03446295      0.97739857     -0.00000000
  N     10    7     -1.17287765     -0.98229824      0.00000000
  C     11    6      1.20107039     -1.10433419     -0.00000000
  H     12    1      2.11220096     -1.67699125     -0.00000000
[GTO]
1    0
S    6    1.000000
   4.56324000E+03    1.96665000E-03 
   6.82024000E+02    1.52306000E-02 
   1.54973000E+02    7.61269000E-02 
   4.44553000E+01    2.60801000E-01 
   1.30290000E+01    6.16462000E-01 
   1.82773000E+00    2.21006000E-01 
SP   3    1.000000
   2.09642000E+01    1.14660000E-01   4.02487000E-02 
   4.80331000E+00    9.19999000E-01   2.37594000E-01 
   1.45933000E+00   -3.03068000E-03   8.15854000E-01 
SP   1    1.000000
   4.83456000E-01    1.00000000E+00   1.00000000E+00 
SP   1    1.000000
   1.45585000E-01    1.00000000E+00   1.00000000E+00 
SP   1    1.000000
   4.38000000E-02    1.00000000E+00   1.00000000E+00 
D    1    1.000000
   6.26000000E-01    1.00000000E+00 

2    0
S    3    1.000000
   3.38650000E+01    2.54938000E-02 
   5.09479000E+00    1.90373000E-01 
   1.15879000E+00    8.52161000E-01 
S    1    1.000000
   3.25840000E-01    1.00000000E+00 
S    1    1.000000
   1.02741000E-01    1.00000000E+00 
S    1    1.000000
   3.60000000E-02    1.00000000E+00 
P    1    1.000000
   7.50000000E-01    1.00000000E+00 

3    0
S    3    1.000000
   3.38650000E+01    2.54938000E-02 
   5.09479000E+00    1.90373000E-01 
   1.15879000E+00    8.52161000E-01 
S    1    1.000000
   3.25840000E-01    1.00000000E+00 
S    1    1.000000
   1.02741000E-01    1.00000000E+00 
S    1    1.000000
   3.60000000E-02    1.00000000E+00 
P    1    1.000000
   7.50000000E-01    1.00000000E+00 

4    0
S    3    1.000000
   3.38650000E+01    2.54938000E-02 
   5.09479000E+00    1.90373000E-01 
   1.15879000E+00    8.52161000E-01 
S    1    1.000000
   3.25840000E-01    1.00000000E+00 
S    1    1.000000
   1.02741000E-01    1.00000000E+00 
S    1    1.000000
   3.60000000E-02    1.00000000E+00 
P    1    1.000000
   7.50000000E-01    1.00000000E+00 

5    0
S    6    1.000000
   4.56324000E+03    1.96665000E-03 
   6.82024000E+02    1.52306000E-02 
   1.54973000E+02    7.61269000E-02 
   4.44553000E+01    2.60801000E-01 
   1.30290000E+01    6.16462000E-01 
   1.82773000E+00    2.21006000E-01 
SP   3    1.000000
   2.09642000E+01    1.14660000E-01   4.02487000E-02 
   4.80331000E+00    9.19999000E-01   2.37594000E-01 
   1.45933000E+00   -3.03068000E-03   8.15854000E-01 
SP   1    1.000000
   4.83456000E-01    1.00000000E+00   1.00000000E+00 
SP   1    1.000000
   1.45585000E-01    1.00000000E+00   1.00000000E+00 
SP   1    1.000000
   4.38000000E-02    1.00000000E+00   1.00000000E+00 
D    1    1.000000
   6.26000000E-01    1.00000000E+00 

6    0
S    6    1.000000
   8.58850000E+03    1.89515000E-03 
   1.29723000E+03    1.43859000E-02 
   2.99296000E+02    7.07320000E-02 
   8.73771000E+01    2.40001000E-01 
   2.56789000E+01    5.94797000E-01 
   3.74004000E+00    2.80802000E-01 
SP   3    1.000000
   4.21175000E+01    1.13889000E-01   3.65114000E-02 
   9.62837000E+00    9.20811000E-01   2.37153000E-01 
   2.85332000E+00   -3.27447000E-03   8.19702000E-01 
SP   1    1.000000
   9.05661000E-01    1.00000000E+00   1.00000000E+00 
SP   1    1.000000
   2.55611000E-01    1.00000000E+00   1.00000000E+00 
SP   1    1.000000
   8.45000000E-02    1.00000000E+00   1.00000000E+00 
D    1    1.000000
   1.29200000E+00    1.00000000E+00 

7    0
S    6    1.000000
   4.56324000E+03    1.96665000E-03 
   6.82024000E+02    1.52306000E-02 
   1.54973000E+02    7.61269000E-02 
   4.44553000E+01    2.60801000E-01 
   1.30290000E+01    6.16462000E-01 
   1.82773000E+00    2.21006000E-01 
SP   3    1.000000
   2.09642000E+01    1.14660000E-01   4.02487000E-02 
   4.80331000E+00    9.19999000E-01   2.37594000E-01 
   1.45933000E+00   -3.03068000E-03   8.15854000E-01 
SP   1    1.000000
   4.83456000E-01    1.00000000E+00   1.00000000E+00 
SP   1    1.000000
   1.45585000E-01    1.00000000E+00   1.00000000E+00 
SP   1    1.000000
   4.38000000E-02    1.00000000E+00   1.00000000E+00 
D    1    1.000000
   6.26000000E-01    1.00000000E+00 

8    0
S    6    1.000000
   8.58850000E+03    1.89515000E-03 
   1.29723000E+03    1.43859000E-02 
   2.99296000E+02    7.07320000E-02 
   8.73771000E+01    2.40001000E-01 
   2.56789000E+01    5.94797000E-01 
   3.74004000E+00    2.80802000E-01 
SP   3    1.000000
   4.21175000E+01    1.13889000E-01   3.65114000E-02 
   9.62837000E+00    9.20811000E-01   2.37153000E-01 
   2.85332000E+00   -3.27447000E-03   8.19702000E-01 
SP   1    1.000000
   9.05661000E-01    1.00000000E+00   1.00000000E+00 
SP   1    1.000000
   2.55611000E-01    1.00000000E+00   1.00000000E+00 
SP   1    1.000000
   8.45000000E-02    1.00000000E+00   1.00000000E+00 
D    1    1.000000
   1.29200000E+00    1.00000000E+00 

9    0
S    6    1.000000
   6.29348000E+03    1.96979000E-03 
   9.49044000E+02    1.49613000E-02 
   2.18776000E+02    7.35006000E-02 
   6.36916000E+01    2.48937000E-01 
   1.88282000E+01    6.02460000E-01 
   2.72023000E+00    2.56202000E-01 
SP   3    1.000000
   3.06331000E+01    1.11906000E-01   3.83119000E-02 
   7.02614000E+00    9.21666000E-01   2.37403000E-01 
   2.11205000E+00   -2.56919000E-03   8.17592000E-01 
SP   1    1.000000
   6.84009000E-01    1.00000000E+00   1.00000000E+00 
SP   1    1.000000
   2.00878000E-01    1.00000000E+00   1.00000000E+00 
SP   1    1.000000
   6.39000000E-02    1.00000000E+00   1.00000000E+00 
D    1    1.000000
   9.13000000E-01    1.00000000E+00 

10    0
S    6    1.000000
   6.29348000E+03    1.96979000E-03 
   9.49044000E+02    1.49613000E-02 
   2.18776000E+02    7.35006000E-02 
   6.36916000E+01    2.48937000E-01 
   1.88282000E+01    6.02460000E-01 
   2.72023000E+00    2.56202000E-01 
SP   3    1.000000
   3.06331000E+01    1.11906000E-01   3.83119000E-02 
   7.02614000E+00    9.21666000E-01   2.37403000E-01 
   2.11205000E+00   -2.56919000E-03   8.17592000E-01 
SP   1    1.000000
   6.84009000E-01    1.00000000E+00   1.00000000E+00 
SP   1    1.000000
   2.00878000E-01    1.00000000E+00   1.00000000E+00 
SP   1    1.000000
   6.39000000E-02    1.00000000E+00   1.00000000E+00 
D    1    1.000000
   9.13000000E-01    1.00000000E+00 

11    0
S    6    1.000000
   4.56324000E+03    1.96665000E-03 
   6.82024000E+02    1.52306000E-02 
   1.54973000E+02    7.61269000E-02 
   4.44553000E+01    2.60801000E-01 
   1.30290000E+01    6.16462000E-01 
   1.82773000E+00    2.21006000E-01 
SP   3    1.000000
   2.09642000E+01    1.14660000E-01   4.02487000E-02 
   4.80331000E+00    9.19999000E-01   2.37594000E-01 
   1.45933000E+00   -3.03068000E-03   8.15854000E-01 
SP   1    1.000000
   4.83456000E-01    1.00000000E+00   1.00000000E+00 
SP   1    1.000000
   1.45585000E-01    1.00000000E+00   1.00000000E+00 
SP   1    1.000000
   4.38000000E-02    1.00000000E+00   1.00000000E+00 
D    1    1.000000
   6.26000000E-01    1.00000000E+00 

12    0
S    3    1.000000
   3.38650000E+01    2.54938000E-02 
   5.09479000E+00    1.90373000E-01 
   1.15879000E+00    8.52161000E-01 
S    1    1.000000
   3.25840000E-01    1.00000000E+00 
S    1    1.000000
   1.02741000E-01    1.00000000E+00 
S    1    1.000000
   3.60000000E-02    1.00000000E+00 
P    1    1.000000
   7.50000000E-01    1.00000000E+00 

[MO]
Sym=X
Ene= -0.782532
Spin=Alpha
Occup=1
     1    6.822108357116e-08
     2    1.099048488917e-06
     3   -3.205246201103e-06
     4   -3.380560517777e-07
     5   -5.388683771415e-16
     6   -1.074843266035e-05
     7    1.018087637237e-05
     8   -1.133182735674e-06
     9    9.282380149481e-16
    10    6.216220076418e-04
    11    1.369057758555e-04
    12    2.582952412151e-04
    13   -5.645101845274e-15
    14   -8.056121537143e-05
    15   -3.154610256838e-04
    16    6.116942978305e-04
    17    2.184282387454e-14
    18   -9.277861870249e-07
    19   -8.682869321927e-16
    20   -9.378784911416e-16
    21    3.943995692016e-06
    22   -4.566682405863e-06
    23   -1.030168356785e-07
    24   -5.957975443021e-06
    25    3.580798339090e-05
    26   -7.432234066969e-05
    27    3.364509618545e-06
    28   -9.696050698583e-07
    29    6.459265732324e-16
    30    2.514863139356e-06
    31   -3.855295805384e-06
    32    1.320101330956e-04
    33    3.102288153300e-04
    34   -5.768882307315e-06
    35   -6.280212941762e-07
    36   -9.278827957720e-16
    37   -2.099652035451e-06
    38   -7.418711344472e-05
    39   -1.044100076934e-04
    40   -9.232071487883e-05
    41    1.051768376270e-05
    42    6.770808428515e-06
    43   -4.427481297066e-16
    44    6.617329290323e-07
    45   -1.742101343963e-06
    46   -7.017056215475e-06
    47   -3.561432801346e-07
    48    9.224634326241e-16
    49    1.097147177083e-05
    50    3.174695307228e-05
    51    3.085603009566e-06
    52   -2.275829705226e-15
    53    3.114978505441e-04
    54    1.470977652970e-04
    55   -1.399707466845e-05
    56    1.816518526935e-15
    57    2.665044059724e-04
    58    4.850301442616e-06
    59    1.807569363144e-04
    60    9.962149323434e-15
    61   -4.553243517958e-06
    62    3.106404297796e-16
    63   -1.377432114655e-15
    64    6.984257254133e-06
    65    1.185434768812e-07
    66   -7.742416811824e-06
    67   -7.659880998357e-06
    68   -4.581710483967e-07
    69    2.584486400736e-07
    70   -2.090762631424e-16
    71    8.786229120073e-06
    72    4.306659423835e-06
    73   -6.567880981699e-07
    74   -1.941595403674e-16
    75   -2.843343889823e-05
    76   -1.765466977190e-05
    77    2.349419490445e-07
    78    2.521973407411e-15
    79    2.505886024584e-04
    80    1.390593862649e-04
    81   -4.495295628787e-05
    82   -3.154004224114e-15
    83   -3.438797541755e-07
    84    3.352606183060e-16
    85   -2.164345604946e-16
    86   -3.852692247075e-07
    87    4.943610067816e-08
    88   -5.252249178207e-06
    89    7.587397301484e-05
    90   -5.788502756329e-05
    91   -4.456245475323e-05
    92    1.057864290990e-15
    93   -3.117090009906e-04
    94   -3.436983530221e-04
    95   -2.110137107256e-04
    96   -1.642172835535e-15
    97    2.009599025907e-04
    98   -6.309845259613e-04
    99   -5.068089545783e-04
   100   -2.440153476235e-16
   101    2.198674605306e-03
   102    6.660325032745e-04
   103   -4.852006393970e-04
   104   -1.761546975977e-15
   105    5.259087193521e-05
   106   -9.342638524511e-16
   107    6.895467218328e-16
   108   -8.628276208519e-05
   109   -1.839021605646e-04
   110   -5.514845391066e-01
   111   -4.716808876191e-01
   112    1.529672599912e-03
   113    9.206178175371e-04
   114   -1.679614138143e-15
   115   -5.510059102421e-03
   116   -6.170224695963e-04
   117   -3.714907901838e-04
   118    2.548759742755e-15
   119    1.367250780078e-03
   120    1.153053235810e-04
   121    6.828374242792e-05
   122   -3.605309950290e-15
   123   -1.194703453102e-03
   124   -1.207249307736e-05
   125   -1.528269307633e-05
   126    6.257453440545e-15
   127    1.192653022898e-04
   128   -8.904190183594e-16
   129   -9.583719978533e-16
   130    3.743100915017e-05
   131    7.496157911877e-05
   132   -3.267203505511e-07
   133   -2.824084986822e-06
   134    1.088864021052e-05
   135   -6.072907196729e-07
   136   -5.929123614695e-16
   137    4.016994188771e-05
   138   -2.883747178364e-05
   139   -1.550137120780e-06
   140    5.316622521832e-16
   141   -3.636446156904e-04
   142    7.247186503043e-05
   143    3.033409273371e-04
   144   -1.572729626546e-16
   145    9.822868743349e-05
   146    5.998544607509e-04
   147    1.402659779515e-04
   148   -2.379604254819e-15
   149    8.932323133310e-06
   150   -6.025457021655e-16
   151    6.806597738054e-16
   152   -2.146908409211e-05
   153    1.164437190179e-05
   154    2.067245428138e-08
   155   -6.763341011177e-07
   156   -3.408996139295e-07
   157   -2.448855487144e-07
   158    1.216084046904e-15
   159    9.420754190873e-06
   160    1.263380730028e-06
   161    1.826025864872e-06
   162   -2.848239521610e-15
   163   -1.507460907942e-04
   164   -7.204893253652e-05
   165   -2.026325409233e-05
   166    7.070715614582e-15
   167   -2.170233800794e-04
   168    4.951000613924e-05
   169   -9.798896197131e-06
   170   -1.838444615873e-14
   171   -8.755734244170e-07
   172    1.712042468897e-15
   173   -1.161027751992e-16
   174   -6.848651722341e-07
   175    4.127453881900e-07
   176   -9.950384655381e-07
   177   -1.979506577131e-06
   178    3.381523544455e-06
   179    1.593834960503e-05
   180   -6.095442937049e-16
   181    2.978403502525e-05
   182   -1.170451235010e-06
   183   -7.381569554463e-05
   184    5.746182039773e-16
   185   -7.521089110228e-04
   186    6.129892620167e-04
   187   -1.598956800780e-04
   188    4.311907822382e-15
   189   -1.642690363342e-03
   190   -7.079642742954e-05
   191   -1.173214843273e-03
   192   -1.412856982414e-14
   193    6.325659327299e-06
   194   -9.682076919468e-16
   195   -1.011710311007e-15
   196    2.959685734057e-05
   197   -2.348847892347e-05
   198    3.927608010155e-06
   199   -1.319185550193e-04
   200   -1.926905877643e-04
   201   -3.705030677270e-04
   202    1.913569613638e-05
   203   -1.139907994322e-05
   204    7.605412974599e-16
Sym=X
Ene= 0.782532
Spin=Alpha
Occup=0
     1    4.612952311616e-15
     2    9.146975806598e-15
     3    1.641435576538e-14
     4    2.619277885026e-14
     5    9.094384120685e-02
     6   -7.474065214897e-14
     7    2.339025353282e-14
     8    2.633263243491e-14
     9    1.473703639158e-01
    10    1.196183272569e-12
    11   -2.596617296982e-13
    12    9.512516269017e-13
    13    2.236415007713e-01
    14    4.330780690434e-11
    15    6.093946015090e-12
    16    1.328539464014e-11
    17    1.142957901199e-01
    18   -6.297388247155e-15
    19    8.584058352583e-03
    20   -3.517093114169e-03
    21   -9.925587964279e-15
    22   -6.376142529761e-15
    23   -2.712000359559e-15
    24   -3.218116514830e-13
    25   -1.044919733634e-12
    26   -2.587971057096e-12
    27   -2.427712043440e-14
    28   -1.462646725292e-14
    29   -7.675971321531e-03
    30   -8.424420426049e-15
    31    2.251611435414e-14
    32    8.298715564775e-13
    33    5.739313819604e-12
    34    1.232192727244e-15
    35   -3.382874065048e-15
    36    9.124914576292e-03
    37    9.083433457350e-15
    38    1.966665488759e-13
    39   -2.020841269182e-13
    40    2.920314627227e-12
    41    4.077564687928e-15
    42   -1.143230351074e-14
    43    1.099212612653e-02
    44    5.642340309290e-15
    45    7.492386912475e-15
    46   -9.100614249667e-15
    47    1.970397101167e-15
    48    1.685992862014e-02
    49   -4.854200787903e-14
    50   -5.718729951689e-15
    51   -2.671437367776e-14
    52    2.994404646193e-02
    53    2.828120120749e-13
    54    3.494212748285e-13
    55    4.614559617376e-13
    56    2.022147537418e-02
    57   -1.022101124128e-11
    58   -2.854598318782e-12
    59    7.718365547844e-13
    60   -1.020230685844e-02
    61   -1.806425367455e-14
    62    1.760836708070e-02
    63    1.650258313113e-02
    64   -9.099347206193e-15
    65   -1.374663196917e-14
    66   -4.607222417699e-15
    67   -7.448520454263e-15
    68   -2.117741438203e-15
    69   -2.141040142681e-14
    70   -1.578745591061e-02
    71    1.798475680806e-14
    72    1.594529536352e-14
    73   -3.310605106058e-15
    74   -2.358750594860e-02
    75    1.085046199997e-13
    76   -1.053612768563e-13
    77   -2.170942604316e-13
    78   -2.967264814661e-02
    79   -1.545542457470e-13
    80    1.364063602137e-13
    81    5.826881931289e-13
    82   -1.154302048658e-02
    83   -2.374780671576e-15
    84    7.825878134869e-04
    85    9.160880519023e-04
    86   -1.486446126071e-15
    87   -9.610033794121e-16
    88    3.068354748021e-15
    89    6.804572613751e-15
    90    1.603559121284e-15
    91   -1.615450082410e-14
    92   -2.237063200578e-01
    93    5.639444833697e-14
    94   -1.062250295805e-14
    95   -2.022675889502e-14
    96   -3.835994329332e-01
    97   -1.239086066799e-12
    98    2.075140512962e-13
    99   -2.932510675713e-13
   100   -5.403465769406e-01
   101    1.942505533498e-11
   102    5.288524289726e-13
   103   -4.904620708489e-12
   104   -1.554448624501e-01
   105    8.578336743996e-15
   106    1.094737678742e-03
   107    1.348702781183e-02
   108   -1.021018648664e-14
   109    6.791553455606e-15
   110   -9.606309087660e-16
   111   -1.190772016096e-15
   112   -1.888559349507e-14
   113    1.721503822564e-14
   114    2.330608937232e-01
   115   -1.701241150337e-14
   116   -3.563763547390e-14
   117    3.528988274544e-15
   118    2.988767802079e-01
   119    2.063592379685e-13
   120    3.343525707464e-14
   121   -3.733713399419e-14
   122    3.044924540866e-01
   123   -5.762103256815e-13
   124   -6.503935840565e-13
   125   -2.563248090877e-13
   126    1.050469238877e-01
   127    4.625866586399e-15
   128    8.523268057463e-03
   129    7.206264270351e-03
   130    1.172084151607e-15
   131   -2.260201571142e-15
   132    1.515070945195e-15
   133   -3.662215450362e-16
   134   -4.083174395438e-15
   135    3.691842157361e-15
   136    7.862484448874e-02
   137    1.886544974802e-14
   138   -2.262556191959e-14
   139    4.832772301555e-14
   140    1.188274277188e-01
   141   -5.160940577782e-13
   142    2.706497899318e-13
   143   -4.403346176256e-13
   144    2.181300448545e-01
   145    6.579502288885e-12
   146   -1.386387606990e-13
   147   -2.103848328474e-12
   148    1.686207024353e-01
   149    7.529559974749e-15
   150   -1.893567320973e-02
   151    8.458028769787e-03
   152   -3.505825167554e-15
   153   -6.565491033009e-15
   154   -2.257881434957e-15
   155   -7.458767947009e-15
   156   -2.039532543402e-15
   157    1.052190981275e-14
   158   -5.770889541103e-02
   159    9.686959819135e-15
   160    5.278966433591e-14
   161    2.776115985039e-14
   162   -8.807126775895e-02
   163    3.049909534081e-13
   164   -8.378493471971e-13
   165   -2.250434402487e-14
   166   -1.445955994955e-01
   167   -5.100034931036e-12
   168   -4.006047387222e-12
   169   -3.204652940018e-13
   170   -1.222448289944e-01
   171   -8.162434409157e-15
   172    7.696279731636e-03
   173   -4.150142207560e-03
   174    1.426441252209e-14
   175    1.172903844538e-14
   176    6.067410503395e-15
   177    1.019149739161e-14
   178   -8.891576965657e-15
   179    4.707444191166e-15
   180   -6.213471519376e-05
   181   -2.498387955341e-14
   182    3.654127332782e-14
   183    2.178607223415e-14
   184   -7.096422389584e-05
   185   -4.127508410154e-13
   186    4.910881882645e-14
   187   -9.836743930871e-14
   188    5.002087835998e-02
   189   -5.310255815282e-11
   190    1.117456127808e-11
   191   -6.383819464911e-12
   192    2.771253911829e-02
   193   -7.668256948846e-15
   194   -1.450847499513e-02
   195   -3.266540155595e-02
   196   -4.254696686918e-15
   197   -4.009688563404e-15
   198    1.502475268884e-14
   199   -1.902128283017e-14
   200    5.695674061074e-13
   201   -6.136949844674e-12
   202    1.951544127416e-14
   203   -1.023639525811e-15
   204    1.310204812141e-03
[5D]
