[Molden Format]
[Atoms] (Angs)
  C      1    6     -0.00714236     -1.70213747     -0.00000000
  H      2    1     -2.06882847     -1.44022412      0.00000000
  H      3    1     -0.12337987     -2.77567521      0.00000000
  H      4    1      0.04651892      1.98813947     -0.00000000
  C      5    6     -1.21953563      0.40211669      0.00000000
  O      6    8     -2.25921553      1.03043814      0.00000000
  C      7    6      1.28797806      0.34644937     -0.00000000
  O      8    8      2.31273661      1.00537216     -0.00000000
  N      9    7      0.03446295      0.97739857     -0.00000000
  N     10    7     -1.17287765     -0.98229824      0.00000000
  C     11    6      1.20107039     -1.10433419     -0.00000000
  H     12    1      2.11220096     -1.67699125     -0.00000000
[GTO]
1    0
S    6    1.000000
   4.56324000E+03    1.96665000E-03 
   6.82024000E+02    1.52306000E-02 
   1.54973000E+02    7.61269000E-02 
   4.44553000E+01    2.60801000E-01 
   1.30290000E+01    6.16462000E-01 
   1.82773000E+00    2.21006000E-01 
SP   3    1.000000
   2.09642000E+01    1.14660000E-01   4.02487000E-02 
   4.80331000E+00    9.19999000E-01   2.37594000E-01 
   1.45933000E+00   -3.03068000E-03   8.15854000E-01 
SP   1    1.000000
   4.83456000E-01    1.00000000E+00   1.00000000E+00 
SP   1    1.000000
   1.45585000E-01    1.00000000E+00   1.00000000E+00 
SP   1    1.000000
   4.38000000E-02    1.00000000E+00   1.00000000E+00 
D    1    1.000000
   6.26000000E-01    1.00000000E+00 

2    0
S    3    1.000000
   3.38650000E+01    2.54938000E-02 
   5.09479000E+00    1.90373000E-01 
   1.15879000E+00    8.52161000E-01 
S    1    1.000000
   3.25840000E-01    1.00000000E+00 
S    1    1.000000
   1.02741000E-01    1.00000000E+00 
S    1    1.000000
   3.60000000E-02    1.00000000E+00 
P    1    1.000000
   7.50000000E-01    1.00000000E+00 

3    0
S    3    1.000000
   3.38650000E+01    2.54938000E-02 
   5.09479000E+00    1.90373000E-01 
   1.15879000E+00    8.52161000E-01 
S    1    1.000000
   3.25840000E-01    1.00000000E+00 
S    1    1.000000
   1.02741000E-01    1.00000000E+00 
S    1    1.000000
   3.60000000E-02    1.00000000E+00 
P    1    1.000000
   7.50000000E-01    1.00000000E+00 

4    0
S    3    1.000000
   3.38650000E+01    2.54938000E-02 
   5.09479000E+00    1.90373000E-01 
   1.15879000E+00    8.52161000E-01 
S    1    1.000000
   3.25840000E-01    1.00000000E+00 
S    1    1.000000
   1.02741000E-01    1.00000000E+00 
S    1    1.000000
   3.60000000E-02    1.00000000E+00 
P    1    1.000000
   7.50000000E-01    1.00000000E+00 

5    0
S    6    1.000000
   4.56324000E+03    1.96665000E-03 
   6.82024000E+02    1.52306000E-02 
   1.54973000E+02    7.61269000E-02 
   4.44553000E+01    2.60801000E-01 
   1.30290000E+01    6.16462000E-01 
   1.82773000E+00    2.21006000E-01 
SP   3    1.000000
   2.09642000E+01    1.14660000E-01   4.02487000E-02 
   4.80331000E+00    9.19999000E-01   2.37594000E-01 
   1.45933000E+00   -3.03068000E-03   8.15854000E-01 
SP   1    1.000000
   4.83456000E-01    1.00000000E+00   1.00000000E+00 
SP   1    1.000000
   1.45585000E-01    1.00000000E+00   1.00000000E+00 
SP   1    1.000000
   4.38000000E-02    1.00000000E+00   1.00000000E+00 
D    1    1.000000
   6.26000000E-01    1.00000000E+00 

6    0
S    6    1.000000
   8.58850000E+03    1.89515000E-03 
   1.29723000E+03    1.43859000E-02 
   2.99296000E+02    7.07320000E-02 
   8.73771000E+01    2.40001000E-01 
   2.56789000E+01    5.94797000E-01 
   3.74004000E+00    2.80802000E-01 
SP   3    1.000000
   4.21175000E+01    1.13889000E-01   3.65114000E-02 
   9.62837000E+00    9.20811000E-01   2.37153000E-01 
   2.85332000E+00   -3.27447000E-03   8.19702000E-01 
SP   1    1.000000
   9.05661000E-01    1.00000000E+00   1.00000000E+00 
SP   1    1.000000
   2.55611000E-01    1.00000000E+00   1.00000000E+00 
SP   1    1.000000
   8.45000000E-02    1.00000000E+00   1.00000000E+00 
D    1    1.000000
   1.29200000E+00    1.00000000E+00 

7    0
S    6    1.000000
   4.56324000E+03    1.96665000E-03 
   6.82024000E+02    1.52306000E-02 
   1.54973000E+02    7.61269000E-02 
   4.44553000E+01    2.60801000E-01 
   1.30290000E+01    6.16462000E-01 
   1.82773000E+00    2.21006000E-01 
SP   3    1.000000
   2.09642000E+01    1.14660000E-01   4.02487000E-02 
   4.80331000E+00    9.19999000E-01   2.37594000E-01 
   1.45933000E+00   -3.03068000E-03   8.15854000E-01 
SP   1    1.000000
   4.83456000E-01    1.00000000E+00   1.00000000E+00 
SP   1    1.000000
   1.45585000E-01    1.00000000E+00   1.00000000E+00 
SP   1    1.000000
   4.38000000E-02    1.00000000E+00   1.00000000E+00 
D    1    1.000000
   6.26000000E-01    1.00000000E+00 

8    0
S    6    1.000000
   8.58850000E+03    1.89515000E-03 
   1.29723000E+03    1.43859000E-02 
   2.99296000E+02    7.07320000E-02 
   8.73771000E+01    2.40001000E-01 
   2.56789000E+01    5.94797000E-01 
   3.74004000E+00    2.80802000E-01 
SP   3    1.000000
   4.21175000E+01    1.13889000E-01   3.65114000E-02 
   9.62837000E+00    9.20811000E-01   2.37153000E-01 
   2.85332000E+00   -3.27447000E-03   8.19702000E-01 
SP   1    1.000000
   9.05661000E-01    1.00000000E+00   1.00000000E+00 
SP   1    1.000000
   2.55611000E-01    1.00000000E+00   1.00000000E+00 
SP   1    1.000000
   8.45000000E-02    1.00000000E+00   1.00000000E+00 
D    1    1.000000
   1.29200000E+00    1.00000000E+00 

9    0
S    6    1.000000
   6.29348000E+03    1.96979000E-03 
   9.49044000E+02    1.49613000E-02 
   2.18776000E+02    7.35006000E-02 
   6.36916000E+01    2.48937000E-01 
   1.88282000E+01    6.02460000E-01 
   2.72023000E+00    2.56202000E-01 
SP   3    1.000000
   3.06331000E+01    1.11906000E-01   3.83119000E-02 
   7.02614000E+00    9.21666000E-01   2.37403000E-01 
   2.11205000E+00   -2.56919000E-03   8.17592000E-01 
SP   1    1.000000
   6.84009000E-01    1.00000000E+00   1.00000000E+00 
SP   1    1.000000
   2.00878000E-01    1.00000000E+00   1.00000000E+00 
SP   1    1.000000
   6.39000000E-02    1.00000000E+00   1.00000000E+00 
D    1    1.000000
   9.13000000E-01    1.00000000E+00 

10    0
S    6    1.000000
   6.29348000E+03    1.96979000E-03 
   9.49044000E+02    1.49613000E-02 
   2.18776000E+02    7.35006000E-02 
   6.36916000E+01    2.48937000E-01 
   1.88282000E+01    6.02460000E-01 
   2.72023000E+00    2.56202000E-01 
SP   3    1.000000
   3.06331000E+01    1.11906000E-01   3.83119000E-02 
   7.02614000E+00    9.21666000E-01   2.37403000E-01 
   2.11205000E+00   -2.56919000E-03   8.17592000E-01 
SP   1    1.000000
   6.84009000E-01    1.00000000E+00   1.00000000E+00 
SP   1    1.000000
   2.00878000E-01    1.00000000E+00   1.00000000E+00 
SP   1    1.000000
   6.39000000E-02    1.00000000E+00   1.00000000E+00 
D    1    1.000000
   9.13000000E-01    1.00000000E+00 

11    0
S    6    1.000000
   4.56324000E+03    1.96665000E-03 
   6.82024000E+02    1.52306000E-02 
   1.54973000E+02    7.61269000E-02 
   4.44553000E+01    2.60801000E-01 
   1.30290000E+01    6.16462000E-01 
   1.82773000E+00    2.21006000E-01 
SP   3    1.000000
   2.09642000E+01    1.14660000E-01   4.02487000E-02 
   4.80331000E+00    9.19999000E-01   2.37594000E-01 
   1.45933000E+00   -3.03068000E-03   8.15854000E-01 
SP   1    1.000000
   4.83456000E-01    1.00000000E+00   1.00000000E+00 
SP   1    1.000000
   1.45585000E-01    1.00000000E+00   1.00000000E+00 
SP   1    1.000000
   4.38000000E-02    1.00000000E+00   1.00000000E+00 
D    1    1.000000
   6.26000000E-01    1.00000000E+00 

12    0
S    3    1.000000
   3.38650000E+01    2.54938000E-02 
   5.09479000E+00    1.90373000E-01 
   1.15879000E+00    8.52161000E-01 
S    1    1.000000
   3.25840000E-01    1.00000000E+00 
S    1    1.000000
   1.02741000E-01    1.00000000E+00 
S    1    1.000000
   3.60000000E-02    1.00000000E+00 
P    1    1.000000
   7.50000000E-01    1.00000000E+00 

[MO]
Sym=X
Ene= -0.815753
Spin=Alpha
Occup=1
     1   -6.821893428438e-08
     2   -1.099050244941e-06
     3    3.205273906327e-06
     4    3.380274186365e-07
     5    5.388702015713e-16
     6    1.074845091274e-05
     7   -1.018102178913e-05
     8    1.133289416945e-06
     9   -9.282473855610e-16
    10   -6.216206675339e-04
    11   -1.369062169764e-04
    12   -2.582954405539e-04
    13    5.645109520497e-15
    14    8.055756188369e-05
    15    3.154573390043e-04
    16   -6.116953375638e-04
    17   -2.184277603759e-14
    18    9.277765648607e-07
    19    8.682862840172e-16
    20    9.378778550523e-16
    21   -3.944019833629e-06
    22    4.566651600745e-06
    23    1.029947761927e-07
    24    5.957681486504e-06
    25   -3.580855024898e-05
    26    7.432074504329e-05
    27   -3.364565242081e-06
    28    9.696512573075e-07
    29   -6.459261563454e-16
    30   -2.514833360092e-06
    31    3.855067414939e-06
    32   -1.320101477345e-04
    33   -3.102293889635e-04
    34    5.768892488642e-06
    35    6.279938944966e-07
    36    9.278788284400e-16
    37    2.099632032877e-06
    38    7.418679054026e-05
    39    1.044094625053e-04
    40    9.231870104231e-05
    41   -1.051774761981e-05
    42   -6.770777042235e-06
    43    4.427432265014e-16
    44   -6.617618052824e-07
    45    1.742554798691e-06
    46    7.017414235652e-06
    47    3.559241955225e-07
    48   -9.224581372708e-16
    49   -1.097327556539e-05
    50   -3.174483997137e-05
    51   -3.086876666669e-06
    52    2.275805487137e-15
    53   -3.114975334903e-04
    54   -1.470948915195e-04
    55    1.399529841115e-05
    56   -1.816490617298e-15
    57   -2.665069566772e-04
    58   -4.853889934332e-06
    59   -1.807543915024e-04
    60   -9.962110762842e-15
    61    4.553577909155e-06
    62   -3.106353625071e-16
    63    1.377435733170e-15
    64   -6.984800696767e-06
    65   -1.174980269799e-07
    66    4.519458706957e-06
    67    4.903306023748e-06
    68    4.490265672286e-07
    69   -2.528474403408e-07
    70    2.090749705493e-16
    71   -8.818568960037e-06
    72   -4.302953436434e-06
    73    6.545174501178e-07
    74    1.941614101516e-16
    75    2.844126218621e-05
    76    1.765388988583e-05
    77   -2.344241364211e-07
    78   -2.521967412888e-15
    79   -2.505969406268e-04
    80   -1.390597075695e-04
    81    4.495301259478e-05
    82    3.153991383126e-15
    83    3.443905361605e-07
    84   -3.352588359903e-16
    85    2.164329886343e-16
    86    3.854961766962e-07
    87   -4.984196270205e-08
    88    5.252251718362e-06
    89   -7.587397732297e-05
    90    5.788505232505e-05
    91    4.456244449897e-05
    92   -1.057863070906e-15
    93    3.117090289181e-04
    94    3.436982449444e-04
    95    2.110137736666e-04
    96    1.642156960815e-15
    97   -2.009587337730e-04
    98    6.309839515066e-04
    99    5.068092264422e-04
   100    2.440373211062e-16
   101   -2.198679029058e-03
   102   -6.660331898912e-04
   103    4.852046590979e-04
   104    1.761651737560e-15
   105   -5.259088980617e-05
   106    9.342638444031e-16
   107   -6.895469173717e-16
   108    8.628280842911e-05
   109    1.839021480156e-04
   110    5.514845391420e-01
   111    4.716808876446e-01
   112   -1.529672601607e-03
   113   -9.206178143766e-04
   114    1.679605704473e-15
   115    5.510059147422e-03
   116    6.170224626434e-04
   117    3.714907809823e-04
   118   -2.548752696188e-15
   119   -1.367250996061e-03
   120   -1.153052444770e-04
   121   -6.828370321621e-05
   122    3.605320930360e-15
   123    1.194704547847e-03
   124    1.207199249901e-05
   125    1.528226869472e-05
   126   -6.257496335095e-15
   127   -1.192653039005e-04
   128    8.904162412298e-16
   129    9.583656849943e-16
   130   -3.743101357155e-05
   131   -7.496158121572e-05
   132    3.267187372928e-07
   133    2.824075532175e-06
   134   -1.088870483494e-05
   135    6.072977097304e-07
   136    5.929095149942e-16
   137   -4.016978011975e-05
   138    2.883765642488e-05
   139    1.550102148543e-06
   140   -5.316624292204e-16
   141    3.636428544977e-04
   142   -7.247214203613e-05
   143   -3.033394483821e-04
   144    1.572853125508e-16
   145   -9.822876030279e-05
   146   -5.998576643070e-04
   147   -1.402654787607e-04
   148    2.379532281574e-15
   149   -8.932281180018e-06
   150    6.025444037967e-16
   151   -6.806554818810e-16
   152    2.146895041781e-05
   153   -1.164441239203e-05
   154   -2.067461669328e-08
   155    6.763253847552e-07
   156    3.408690219199e-07
   157    2.449418622717e-07
   158   -1.216080101383e-15
   159   -9.420602452737e-06
   160   -1.263287923218e-06
   161   -1.826175157980e-06
   162    2.848239057382e-15
   163    1.507444912037e-04
   164    7.204758837661e-05
   165    2.026283837124e-05
   166   -7.070710253290e-15
   167    2.170235571920e-04
   168   -4.951172893318e-05
   169    9.801036970811e-06
   170    1.838440135079e-14
   171    8.756183049801e-07
   172   -1.712040977920e-15
   173    1.161011156525e-16
   174    6.849721892680e-07
   175   -4.126715296797e-07
   176    9.950377191255e-07
   177    1.979510267502e-06
   178   -3.381530887834e-06
   179   -1.593834517445e-05
   180    6.095522722369e-16
   181   -2.978410667040e-05
   182    1.170489152887e-06
   183    7.381565620046e-05
   184   -5.746214478358e-16
   185    7.521092719418e-04
   186   -6.129895469125e-04
   187    1.598958478666e-04
   188   -4.311902917657e-15
   189    1.642707634930e-03
   190    7.079376287635e-05
   191    1.173216593252e-03
   192    1.412848022711e-14
   193   -6.325689633030e-06
   194    9.682079340310e-16
   195    1.011712636446e-15
   196   -2.959685744823e-05
   197    2.348849708416e-05
   198   -3.927615731273e-06
   199    1.319186047223e-04
   200    1.926907102628e-04
   201    3.705041170360e-04
   202   -1.913569331413e-05
   203    1.139907745969e-05
   204   -7.605460475805e-16
Sym=X
Ene= 0.815753
Spin=Alpha
Occup=0
     1    2.675273162593e-15
     2    5.503867643470e-15
     3    5.699331388341e-16
     4    2.143944781305e-14
     5   -6.040466860124e-02
     6   -1.188604213295e-14
     7    3.294715633642e-15
     8    3.629031712750e-14
     9   -7.298250535865e-02
    10   -2.393912261764e-13
    11   -3.385075560269e-14
    12    2.666112815090e-14
    13   -2.627054593595e-01
    14   -9.326782942047e-12
    15   -9.927659157570e-13
    16   -1.055252506550e-12
    17    1.135836116775e+00
    18   -8.051564393064e-15
    19    3.514408291312e-03
    20   -1.490501624730e-02
    21   -4.831771794752e-15
    22    4.870105703759e-15
    23   -5.806645621675e-16
    24   -8.416118899898e-15
    25   -3.540244302842e-13
    26   -2.967060001830e-12
    27   -3.766702416782e-15
    28    2.303621213859e-15
    29    1.633468372478e-03
    30    7.534261676271e-15
    31    7.758014663618e-14
    32   -6.791269072189e-14
    33    1.980242879805e-12
    34    4.020971862874e-15
    35   -9.132908056762e-15
    36    6.241955925220e-03
    37   -4.929001767660e-15
    38    7.281068931242e-14
    39   -7.364508579932e-13
    40    2.029465339244e-12
    41    2.219270229797e-15
    42   -7.052697624290e-16
    43   -7.262557164767e-03
    44    1.588362290233e-15
    45    4.117791534507e-15
    46   -1.133745810522e-14
    47   -7.739431213297e-15
    48    2.762642809362e-02
    49   -2.900056503270e-14
    50    3.719790908024e-15
    51    1.768835199026e-14
    52    3.945213400844e-02
    53    1.650990010928e-13
    54   -5.536109200114e-13
    55   -1.881914192182e-13
    56    1.243916598663e-01
    57    5.042982034398e-12
    58   -1.304516387974e-12
    59   -3.807869942633e-12
    60    7.849262077027e-01
    61   -4.521301439328e-16
    62    7.394832390986e-03
    63   -2.004019351221e-03
    64    4.465091272521e-15
    65   -1.723858106919e-15
    66    5.194930367274e-17
    67   -1.303051866274e-15
    68    5.713616152121e-16
    69   -3.739433114209e-15
    70   -2.825856447287e-02
    71   -1.445812213450e-15
    72    1.561860646359e-14
    73    4.410012856827e-15
    74   -4.698620932929e-02
    75    1.210925700242e-15
    76   -7.023178754558e-14
    77   -2.413528606495e-14
    78   -3.806234343218e-02
    79   -1.124922089561e-12
    80    1.682671958176e-14
    81    6.281112862053e-13
    82   -2.297914784698e-01
    83    1.100552467318e-15
    84    9.641691591342e-05
    85   -7.435713026394e-04
    86   -6.242439466618e-16
    87   -2.364704670068e-15
    88    5.700139901130e-15
    89    5.722631216457e-15
    90    8.751068306950e-16
    91   -1.112453887769e-15
    92    4.175997510139e-02
    93    7.925077328087e-15
    94    3.188634749684e-14
    95    8.828282313081e-15
    96    5.317439314680e-02
    97   -4.897047592886e-13
    98    1.560678131343e-13
    99    7.714163622744e-14
   100    2.021651510286e-01
   101   -8.501541655291e-12
   102    3.324493046624e-12
   103    6.613594455889e-13
   104   -1.596711024224e+00
   105    5.001251474104e-15
   106    1.082450693356e-02
   107    2.253749643399e-03
   108    1.046313657333e-16
   109   -1.726511289412e-15
   110    1.116869685780e-15
   111    1.449270926420e-15
   112   -1.898110648462e-16
   113    7.459749154991e-15
   114    3.409797565783e-02
   115   -4.995859849522e-15
   116   -5.541195496286e-15
   117    1.374294280474e-15
   118    5.080618280707e-02
   119   -5.677756303996e-14
   120    9.025864973337e-14
   121    4.612359745573e-14
   122    2.462962924837e-03
   123   -2.465661648580e-13
   124   -5.270053457434e-13
   125   -2.766834071446e-13
   126    6.017504474293e-02
   127    3.250895887180e-15
   128   -5.829495117482e-03
   129   -5.819667967176e-03
   130   -8.821147023551e-16
   131   -3.383535490625e-15
   132   -9.899400512734e-16
   133   -3.480833791159e-15
   134   -1.101950693682e-14
   135   -2.151568167632e-15
   136   -6.731610945070e-03
   137    1.441326643163e-14
   138   -1.028611866966e-14
   139    1.720384033846e-14
   140   -9.162500997891e-03
   141    6.277227132994e-14
   142   -1.438565891555e-13
   143   -2.480559653493e-13
   144   -3.040609152676e-02
   145    5.920221221334e-12
   146   -9.358041093157e-14
   147   -4.924076861210e-14
   148   -1.078927544456e-01
   149    5.281144476412e-15
   150   -3.180909650880e-03
   151   -5.938445549580e-03
   152   -1.545569054551e-15
   153    1.331823795089e-15
   154   -1.675406402068e-15
   155   -4.945916165788e-15
   156   -2.361123595571e-15
   157   -3.319494366952e-15
   158   -2.711632732178e-02
   159   -9.411016482762e-15
   160    6.169878160638e-15
   161   -8.116642277946e-15
   162   -5.294191699810e-02
   163    3.095435150320e-13
   164   -2.481659745096e-14
   165   -2.002408334494e-14
   166   -1.110877412501e-02
   167   -2.783998934986e-12
   168   -1.308938774984e-13
   169   -1.598546459207e-12
   170   -4.951947091318e-01
   171   -1.005843547940e-14
   172   -6.686641665362e-03
   173    4.088660893637e-03
   174    2.709382363897e-15
   175   -2.776290403653e-15
   176    2.367713020250e-15
   177    1.157921551218e-15
   178   -1.452177978973e-14
   179   -1.522776472795e-15
   180   -2.129535726292e-02
   181   -3.453274331478e-15
   182    1.528322873513e-15
   183    3.023312018860e-14
   184   -2.730068527457e-02
   185   -4.704792201422e-15
   186   -3.874130854123e-13
   187   -3.286012647851e-14
   188   -7.947524642261e-02
   189    1.272140521851e-11
   190   -2.258954524667e-12
   191    7.212023733127e-13
   192    7.130265301905e-01
   193   -5.430103040371e-15
   194    9.076168512954e-03
   195   -1.012377611030e-03
   196    2.169017463458e-15
   197    2.081292287975e-15
   198    1.200030190191e-15
   199    8.323168857086e-14
   200    1.239572224008e-13
   201   -1.723139707689e-12
   202   -4.966956063856e-16
   203    3.352913143223e-15
   204    3.556796528363e-03
[5D]
