[Molden Format]
[Atoms] (Angs)
  C      1    6     -0.00714236     -1.70213747     -0.00000000
  H      2    1     -2.06882847     -1.44022412      0.00000000
  H      3    1     -0.12337987     -2.77567521      0.00000000
  H      4    1      0.04651892      1.98813947     -0.00000000
  C      5    6     -1.21953563      0.40211669      0.00000000
  O      6    8     -2.25921553      1.03043814      0.00000000
  C      7    6      1.28797806      0.34644937     -0.00000000
  O      8    8      2.31273661      1.00537216     -0.00000000
  N      9    7      0.03446295      0.97739857     -0.00000000
  N     10    7     -1.17287765     -0.98229824      0.00000000
  C     11    6      1.20107039     -1.10433419     -0.00000000
  H     12    1      2.11220096     -1.67699125     -0.00000000
[GTO]
1    0
S    6    1.000000
   4.56324000E+03    1.96665000E-03 
   6.82024000E+02    1.52306000E-02 
   1.54973000E+02    7.61269000E-02 
   4.44553000E+01    2.60801000E-01 
   1.30290000E+01    6.16462000E-01 
   1.82773000E+00    2.21006000E-01 
SP   3    1.000000
   2.09642000E+01    1.14660000E-01   4.02487000E-02 
   4.80331000E+00    9.19999000E-01   2.37594000E-01 
   1.45933000E+00   -3.03068000E-03   8.15854000E-01 
SP   1    1.000000
   4.83456000E-01    1.00000000E+00   1.00000000E+00 
SP   1    1.000000
   1.45585000E-01    1.00000000E+00   1.00000000E+00 
SP   1    1.000000
   4.38000000E-02    1.00000000E+00   1.00000000E+00 
D    1    1.000000
   6.26000000E-01    1.00000000E+00 

2    0
S    3    1.000000
   3.38650000E+01    2.54938000E-02 
   5.09479000E+00    1.90373000E-01 
   1.15879000E+00    8.52161000E-01 
S    1    1.000000
   3.25840000E-01    1.00000000E+00 
S    1    1.000000
   1.02741000E-01    1.00000000E+00 
S    1    1.000000
   3.60000000E-02    1.00000000E+00 
P    1    1.000000
   7.50000000E-01    1.00000000E+00 

3    0
S    3    1.000000
   3.38650000E+01    2.54938000E-02 
   5.09479000E+00    1.90373000E-01 
   1.15879000E+00    8.52161000E-01 
S    1    1.000000
   3.25840000E-01    1.00000000E+00 
S    1    1.000000
   1.02741000E-01    1.00000000E+00 
S    1    1.000000
   3.60000000E-02    1.00000000E+00 
P    1    1.000000
   7.50000000E-01    1.00000000E+00 

4    0
S    3    1.000000
   3.38650000E+01    2.54938000E-02 
   5.09479000E+00    1.90373000E-01 
   1.15879000E+00    8.52161000E-01 
S    1    1.000000
   3.25840000E-01    1.00000000E+00 
S    1    1.000000
   1.02741000E-01    1.00000000E+00 
S    1    1.000000
   3.60000000E-02    1.00000000E+00 
P    1    1.000000
   7.50000000E-01    1.00000000E+00 

5    0
S    6    1.000000
   4.56324000E+03    1.96665000E-03 
   6.82024000E+02    1.52306000E-02 
   1.54973000E+02    7.61269000E-02 
   4.44553000E+01    2.60801000E-01 
   1.30290000E+01    6.16462000E-01 
   1.82773000E+00    2.21006000E-01 
SP   3    1.000000
   2.09642000E+01    1.14660000E-01   4.02487000E-02 
   4.80331000E+00    9.19999000E-01   2.37594000E-01 
   1.45933000E+00   -3.03068000E-03   8.15854000E-01 
SP   1    1.000000
   4.83456000E-01    1.00000000E+00   1.00000000E+00 
SP   1    1.000000
   1.45585000E-01    1.00000000E+00   1.00000000E+00 
SP   1    1.000000
   4.38000000E-02    1.00000000E+00   1.00000000E+00 
D    1    1.000000
   6.26000000E-01    1.00000000E+00 

6    0
S    6    1.000000
   8.58850000E+03    1.89515000E-03 
   1.29723000E+03    1.43859000E-02 
   2.99296000E+02    7.07320000E-02 
   8.73771000E+01    2.40001000E-01 
   2.56789000E+01    5.94797000E-01 
   3.74004000E+00    2.80802000E-01 
SP   3    1.000000
   4.21175000E+01    1.13889000E-01   3.65114000E-02 
   9.62837000E+00    9.20811000E-01   2.37153000E-01 
   2.85332000E+00   -3.27447000E-03   8.19702000E-01 
SP   1    1.000000
   9.05661000E-01    1.00000000E+00   1.00000000E+00 
SP   1    1.000000
   2.55611000E-01    1.00000000E+00   1.00000000E+00 
SP   1    1.000000
   8.45000000E-02    1.00000000E+00   1.00000000E+00 
D    1    1.000000
   1.29200000E+00    1.00000000E+00 

7    0
S    6    1.000000
   4.56324000E+03    1.96665000E-03 
   6.82024000E+02    1.52306000E-02 
   1.54973000E+02    7.61269000E-02 
   4.44553000E+01    2.60801000E-01 
   1.30290000E+01    6.16462000E-01 
   1.82773000E+00    2.21006000E-01 
SP   3    1.000000
   2.09642000E+01    1.14660000E-01   4.02487000E-02 
   4.80331000E+00    9.19999000E-01   2.37594000E-01 
   1.45933000E+00   -3.03068000E-03   8.15854000E-01 
SP   1    1.000000
   4.83456000E-01    1.00000000E+00   1.00000000E+00 
SP   1    1.000000
   1.45585000E-01    1.00000000E+00   1.00000000E+00 
SP   1    1.000000
   4.38000000E-02    1.00000000E+00   1.00000000E+00 
D    1    1.000000
   6.26000000E-01    1.00000000E+00 

8    0
S    6    1.000000
   8.58850000E+03    1.89515000E-03 
   1.29723000E+03    1.43859000E-02 
   2.99296000E+02    7.07320000E-02 
   8.73771000E+01    2.40001000E-01 
   2.56789000E+01    5.94797000E-01 
   3.74004000E+00    2.80802000E-01 
SP   3    1.000000
   4.21175000E+01    1.13889000E-01   3.65114000E-02 
   9.62837000E+00    9.20811000E-01   2.37153000E-01 
   2.85332000E+00   -3.27447000E-03   8.19702000E-01 
SP   1    1.000000
   9.05661000E-01    1.00000000E+00   1.00000000E+00 
SP   1    1.000000
   2.55611000E-01    1.00000000E+00   1.00000000E+00 
SP   1    1.000000
   8.45000000E-02    1.00000000E+00   1.00000000E+00 
D    1    1.000000
   1.29200000E+00    1.00000000E+00 

9    0
S    6    1.000000
   6.29348000E+03    1.96979000E-03 
   9.49044000E+02    1.49613000E-02 
   2.18776000E+02    7.35006000E-02 
   6.36916000E+01    2.48937000E-01 
   1.88282000E+01    6.02460000E-01 
   2.72023000E+00    2.56202000E-01 
SP   3    1.000000
   3.06331000E+01    1.11906000E-01   3.83119000E-02 
   7.02614000E+00    9.21666000E-01   2.37403000E-01 
   2.11205000E+00   -2.56919000E-03   8.17592000E-01 
SP   1    1.000000
   6.84009000E-01    1.00000000E+00   1.00000000E+00 
SP   1    1.000000
   2.00878000E-01    1.00000000E+00   1.00000000E+00 
SP   1    1.000000
   6.39000000E-02    1.00000000E+00   1.00000000E+00 
D    1    1.000000
   9.13000000E-01    1.00000000E+00 

10    0
S    6    1.000000
   6.29348000E+03    1.96979000E-03 
   9.49044000E+02    1.49613000E-02 
   2.18776000E+02    7.35006000E-02 
   6.36916000E+01    2.48937000E-01 
   1.88282000E+01    6.02460000E-01 
   2.72023000E+00    2.56202000E-01 
SP   3    1.000000
   3.06331000E+01    1.11906000E-01   3.83119000E-02 
   7.02614000E+00    9.21666000E-01   2.37403000E-01 
   2.11205000E+00   -2.56919000E-03   8.17592000E-01 
SP   1    1.000000
   6.84009000E-01    1.00000000E+00   1.00000000E+00 
SP   1    1.000000
   2.00878000E-01    1.00000000E+00   1.00000000E+00 
SP   1    1.000000
   6.39000000E-02    1.00000000E+00   1.00000000E+00 
D    1    1.000000
   9.13000000E-01    1.00000000E+00 

11    0
S    6    1.000000
   4.56324000E+03    1.96665000E-03 
   6.82024000E+02    1.52306000E-02 
   1.54973000E+02    7.61269000E-02 
   4.44553000E+01    2.60801000E-01 
   1.30290000E+01    6.16462000E-01 
   1.82773000E+00    2.21006000E-01 
SP   3    1.000000
   2.09642000E+01    1.14660000E-01   4.02487000E-02 
   4.80331000E+00    9.19999000E-01   2.37594000E-01 
   1.45933000E+00   -3.03068000E-03   8.15854000E-01 
SP   1    1.000000
   4.83456000E-01    1.00000000E+00   1.00000000E+00 
SP   1    1.000000
   1.45585000E-01    1.00000000E+00   1.00000000E+00 
SP   1    1.000000
   4.38000000E-02    1.00000000E+00   1.00000000E+00 
D    1    1.000000
   6.26000000E-01    1.00000000E+00 

12    0
S    3    1.000000
   3.38650000E+01    2.54938000E-02 
   5.09479000E+00    1.90373000E-01 
   1.15879000E+00    8.52161000E-01 
S    1    1.000000
   3.25840000E-01    1.00000000E+00 
S    1    1.000000
   1.02741000E-01    1.00000000E+00 
S    1    1.000000
   3.60000000E-02    1.00000000E+00 
P    1    1.000000
   7.50000000E-01    1.00000000E+00 

[MO]
Sym=X
Ene= -0.823685
Spin=Alpha
Occup=1
     1   -3.745606858856e-07
     2    2.930815773302e-07
     3   -4.823884642169e-06
     4    4.808198805425e-06
     5   -3.123376863656e-16
     6   -3.329198459071e-06
     7    2.466275965923e-05
     8   -1.834545377556e-05
     9    1.603998597123e-15
    10   -2.297784408642e-04
    11    7.510840099977e-05
    12    3.292652241231e-05
    13   -1.314692508649e-15
    14    6.225470448965e-04
    15    6.299650583218e-04
    16    1.768102937757e-04
    17   -8.179339694915e-15
    18    1.752722040496e-06
    19    1.112525189462e-16
    20    1.085845647672e-16
    21    3.997321429368e-06
    22    5.384147631644e-06
    23    4.734480705552e-06
    24    5.206602122792e-05
    25    9.702097989226e-05
    26    2.728239108676e-04
    27    9.592117969563e-06
    28   -7.808157967697e-06
    29   -7.161650226570e-17
    30   -4.724894917260e-06
    31    3.966156369365e-05
    32    2.502922147640e-06
    33    9.765034474369e-05
    34   -1.785796486397e-06
    35    4.674218480687e-06
    36    6.789990342783e-16
    37    3.970580508349e-06
    38    5.624371662610e-05
    39    9.327824164985e-05
    40    3.442696990162e-04
    41    1.089850188317e-05
    42   -5.423535748677e-06
    43    8.385347103010e-16
    44    4.774867448660e-06
    45   -7.787304027603e-05
    46   -6.051413499422e-05
    47    3.705893765718e-05
    48   -9.060388921870e-16
    49    3.091664571427e-04
    50   -3.602604880138e-04
    51    2.172277132742e-04
    52    4.144159980197e-15
    53   -5.502824554060e-05
    54   -4.906568216908e-04
    55    3.027830393441e-04
    56   -4.775644008614e-15
    57    4.360114664871e-04
    58    6.135409928549e-04
    59   -4.355416198031e-04
    60   -6.603647797561e-15
    61   -5.700364057435e-05
    62   -8.674360469049e-16
    63   -6.186513940354e-16
    64    9.313143381529e-05
    65   -1.785762709368e-04
    66    5.514789556927e-01
    67    4.716761725974e-01
    68    1.563461540296e-03
    69   -9.582981174904e-04
    70    2.209023581203e-16
    71    5.533117980667e-03
    72   -6.362141043754e-04
    73    3.886948415727e-04
    74   -3.203665416679e-16
    75   -1.333497008856e-03
    76    1.315422645015e-04
    77   -8.917089553230e-05
    78   -1.026289784199e-15
    79    1.428042055304e-03
    80    5.501156097304e-05
    81   -9.760383245637e-06
    82    2.200876362681e-15
    83   -8.732507246864e-05
    84   -3.051239644239e-16
    85    2.686655404668e-16
    86   -3.892235829552e-05
    87    6.951725512975e-05
    88   -4.969052388208e-07
    89    6.278980082382e-07
    90   -4.250699820823e-06
    91    1.363827260013e-06
    92   -2.090197716847e-16
    93   -4.569813290971e-06
    94    1.845938961642e-05
    95   -1.146813916650e-05
    96    2.716075383141e-15
    97   -2.001660783794e-04
    98    9.835433583786e-05
    99   -4.574860381663e-05
   100   -3.758790959252e-15
   101    7.542161645409e-04
   102    1.170527307265e-04
   103   -6.864459867201e-04
   104   -1.791818593860e-14
   105    3.122314943031e-06
   106    1.622308934990e-18
   107    3.337441923749e-17
   108   -8.385054753271e-06
   109    2.440967728107e-06
   110    9.817265806662e-06
   111    9.181940061894e-06
   112   -3.741490507031e-07
   113    6.824125855609e-07
   114    1.443295047358e-15
   115   -7.492922852775e-06
   116    2.156429319543e-07
   117    3.579619338541e-06
   118   -1.205887571926e-15
   119    3.729650245878e-05
   120   -1.482720405871e-05
   121   -4.342023900983e-06
   122   -1.877440990714e-15
   123   -1.875345075595e-04
   124    8.566213650770e-05
   125    7.298226076074e-05
   126    7.334646558445e-15
   127    2.817455513731e-07
   128    4.753918029474e-16
   129    1.079919135755e-15
   130    8.341047168731e-07
   131    2.948879682127e-07
   132    3.823848808644e-07
   133    1.807281055903e-06
   134    1.045922926698e-05
   135   -1.067964281339e-06
   136    4.870432809963e-16
   137   -2.921884000790e-05
   138   -3.247646189742e-05
   139    6.127554621416e-06
   140    3.079860723938e-17
   141    3.014551688568e-04
   142    4.565657477651e-05
   143   -2.525248467271e-04
   144   -2.114743627399e-15
   145    1.219094748907e-05
   146    5.482372771980e-04
   147   -8.495488399509e-05
   148    1.231703106957e-14
   149   -7.168290706069e-06
   150    2.221539956359e-16
   151   -7.343959701394e-16
   152    2.285818087194e-05
   153    6.889238610258e-06
   154    5.092832984606e-07
   155    1.739181717513e-06
   156    5.184811813395e-06
   157   -9.525486023275e-06
   158   -6.750739795777e-16
   159   -2.806357118986e-05
   160   -1.587247430348e-05
   161    2.581099623800e-05
   162    7.931210097557e-17
   163    2.739345506236e-04
   164    2.291531640201e-04
   165    7.108319908970e-05
   166   -9.161010404313e-16
   167   -3.023718627816e-05
   168    2.943983311983e-04
   169   -3.659332563418e-04
   170    7.664781978243e-15
   171   -7.697151281026e-06
   172   -2.553071227319e-16
   173    2.840720201758e-16
   174   -1.833145100217e-05
   175   -1.265376984680e-05
   176   -6.770671208388e-09
   177   -8.529705442523e-07
   178    1.161760983975e-06
   179   -4.515623161104e-08
   180   -1.364983620967e-15
   181    1.244980712090e-05
   182   -6.650415194765e-06
   183    7.796431140767e-06
   184    5.548803741787e-16
   185   -5.861465961629e-05
   186    4.771452234916e-05
   187   -2.693488296968e-05
   188   -8.386327304896e-16
   189   -2.948610289405e-03
   190    4.547383321917e-04
   191   -2.983340529518e-04
   192    1.532372446178e-14
   193    5.252698403548e-06
   194   -4.083490620436e-17
   195   -3.980944385146e-16
   196    4.987421950944e-08
   197   -3.152076488108e-06
   198    1.154231217284e-06
   199   -8.736433427318e-06
   200   -2.089153895149e-05
   201   -1.789962456862e-04
   202   -4.637780075994e-07
   203    4.246448518989e-07
   204    8.127632298489e-16
Sym=X
Ene= 0.823685
Spin=Alpha
Occup=0
     1    1.511993751914e-03
     2    2.539385026662e-03
     3   -1.190174362436e-02
     4    1.738410991245e-02
     5    5.548593247831e-15
     6   -7.847070213164e-03
     7   -1.405624687753e-02
     8    2.736044963439e-02
     9    2.889535547172e-15
    10   -6.694820870106e-02
    11   -3.580718185723e-02
    12    7.240071039451e-02
    13   -4.247125625279e-14
    14    2.538598416560e+00
    15    4.171373861881e-01
    16    1.031826723602e+00
    17    6.302588153895e-13
    18    6.145007599020e-03
    19    1.064598101746e-14
    20   -4.265762044265e-15
    21   -5.291819887473e-03
    22   -2.734047869742e-04
    23    1.563894856421e-03
    24    1.808537295844e-02
    25    3.820750462068e-01
    26    9.448722524159e-01
    27   -1.448587577414e-02
    28   -4.483472313212e-03
    29   -1.177460904047e-14
    30   -5.212200964499e-03
    31   -3.567226485853e-03
    32    9.020059832900e-02
    33    5.406093520658e-01
    34   -2.973491475703e-03
    35   -1.574829229135e-03
    36    2.078853986614e-15
    37   -5.120206047095e-04
    38    2.434442321743e-03
    39    1.745075996704e-01
    40    3.924726423703e-01
    41   -2.030701890681e-03
    42    8.231751133208e-03
    43   -7.695645083764e-15
    44   -3.784807617768e-03
    45   -5.745090947102e-03
    46   -5.627468489945e-03
    47    1.597999127938e-03
    48    1.400694494144e-14
    49   -1.998958480766e-02
    50   -1.512331849455e-02
    51    8.235664129724e-03
    52    3.302678766992e-14
    53    2.492715534026e-01
    54   -1.093523858464e-01
    55    4.959801225132e-02
    56    4.307964184770e-14
    57    2.878042018528e-01
    58   -6.793751673146e-01
    59    4.000698977651e-01
    60   -4.101061084195e-13
    61    2.439145772315e-02
    62   -1.589571980061e-15
    63    5.834281540746e-15
    64   -5.699499964881e-04
    65   -7.077446291086e-03
    66    2.411422326799e-02
    67    4.305627264969e-02
    68    1.420352817128e-02
    69    8.584251560762e-03
    70   -2.216919350660e-14
    71   -1.544103333236e-01
    72    1.482982491648e-02
    73    1.260045471289e-02
    74   -1.613282182572e-14
    75   -2.713866499842e-01
    76   -2.734849760781e-02
    77    3.876774922848e-02
    78   -1.090227149927e-13
    79   -4.268356619739e-01
    80    7.426858547012e-02
    81   -7.601164719372e-02
    82    3.111615368874e-13
    83    4.134538110777e-03
    84   -1.077630083727e-16
    85    4.806975172839e-16
    86   -8.979078510975e-04
    87    3.656922516555e-03
    88    6.911276969741e-04
    89    1.324416548883e-03
    90   -5.902672893561e-03
    91    1.169660564993e-02
    92   -1.638622385000e-14
    93   -8.078618022024e-03
    94   -8.975605017671e-03
    95    1.459899577964e-02
    96   -4.352740867440e-14
    97    2.889951190097e-03
    98    6.385853073213e-03
    99    5.919412883504e-03
   100   -7.132160225347e-14
   101    2.393648914229e+00
   102   -2.547816359366e-01
   103   -5.493153504762e-01
   104    7.197679505835e-13
   105    4.712480098236e-03
   106    7.941238078569e-15
   107   -4.514897961649e-15
   108    2.589669069484e-03
   109    3.509833483224e-04
   110    1.697816077050e-03
   111    2.938169373418e-03
   112    4.771573319936e-03
   113   -8.439473034578e-03
   114    2.518779399747e-14
   115   -1.028150140595e-02
   116    5.938265708996e-03
   117   -1.271423120027e-02
   118    1.418971724817e-14
   119   -3.933439329612e-03
   120    1.296859788025e-02
   121   -1.524270525148e-02
   122    1.206846220444e-13
   123   -1.058683303414e-01
   124    1.336375711210e-02
   125    2.246553404552e-02
   126   -2.980209677926e-13
   127    3.153562623481e-04
   128    1.032443432529e-15
   129   -3.895004321799e-16
   130    1.788436369774e-04
   131   -2.858000130413e-04
   132    1.490966074285e-02
   133    2.580144806905e-02
   134    1.969012349157e-02
   135   -9.892493828416e-03
   136    1.051440791676e-15
   137   -8.309629085152e-02
   138    3.087537566645e-02
   139   -1.373052753235e-02
   140   -3.516544095787e-15
   141   -1.774758380395e-01
   142    6.989710724953e-02
   143   -2.399604824679e-02
   144   -1.190418887245e-16
   145   -5.399647190547e-01
   146    4.396084301396e-02
   147   -2.080658947036e-01
   148    1.505973586138e-14
   149    4.193391666548e-03
   150   -4.955630505417e-15
   151   -5.028010404480e-16
   152   -7.787068660144e-04
   153   -8.072540710962e-04
   154    2.137795479264e-02
   155    3.690162967994e-02
   156    3.367822998717e-02
   157    3.237546739611e-03
   158    2.806153036743e-17
   159   -1.156683759403e-01
   160    5.244684964074e-02
   161    1.764385548713e-03
   162   -5.934527414997e-15
   163   -3.097393842054e-01
   164    8.726945939676e-02
   165   -9.644876166601e-03
   166    3.517679250862e-14
   167   -9.466780386977e-01
   168    3.829121579859e-01
   169    6.450436722911e-02
   170   -2.462348030551e-13
   171    4.420490676467e-03
   172    1.678381555939e-15
   173    3.349621221544e-15
   174    3.487367462484e-03
   175    1.330496698006e-03
   176    5.352623573818e-03
   177    9.021009235279e-03
   178    3.381870589789e-03
   179   -3.470622817978e-03
   180    1.161891860260e-14
   181   -2.390619806122e-02
   182    9.042464053623e-04
   183   -5.651277960439e-03
   184    1.091865051591e-14
   185   -8.994824296380e-02
   186    4.960370685956e-02
   187   -4.633331533525e-02
   188    8.026034339656e-14
   189   -4.476793199952e+00
   190    8.132317169876e-01
   191   -5.665123692259e-01
   192   -7.428534888835e-13
   193    2.767416707186e-03
   194    3.608898002204e-15
   195   -3.466328263377e-15
   196    4.064906102753e-03
   197   -4.447774887146e-03
   198    6.381758561484e-03
   199    4.661933113169e-03
   200    4.647447452069e-03
   201   -1.589531493444e-01
   202    1.514728267464e-03
   203   -4.490995483041e-04
   204   -1.498104108239e-15
[5D]
