[Molden Format]
[Atoms] (Angs)
  C      1    6     -0.00714236     -1.70213747     -0.00000000
  H      2    1     -2.06882847     -1.44022412      0.00000000
  H      3    1     -0.12337987     -2.77567521      0.00000000
  H      4    1      0.04651892      1.98813947     -0.00000000
  C      5    6     -1.21953563      0.40211669      0.00000000
  O      6    8     -2.25921553      1.03043814      0.00000000
  C      7    6      1.28797806      0.34644937     -0.00000000
  O      8    8      2.31273661      1.00537216     -0.00000000
  N      9    7      0.03446295      0.97739857     -0.00000000
  N     10    7     -1.17287765     -0.98229824      0.00000000
  C     11    6      1.20107039     -1.10433419     -0.00000000
  H     12    1      2.11220096     -1.67699125     -0.00000000
[GTO]
1    0
S    6    1.000000
   4.56324000E+03    1.96665000E-03 
   6.82024000E+02    1.52306000E-02 
   1.54973000E+02    7.61269000E-02 
   4.44553000E+01    2.60801000E-01 
   1.30290000E+01    6.16462000E-01 
   1.82773000E+00    2.21006000E-01 
SP   3    1.000000
   2.09642000E+01    1.14660000E-01   4.02487000E-02 
   4.80331000E+00    9.19999000E-01   2.37594000E-01 
   1.45933000E+00   -3.03068000E-03   8.15854000E-01 
SP   1    1.000000
   4.83456000E-01    1.00000000E+00   1.00000000E+00 
SP   1    1.000000
   1.45585000E-01    1.00000000E+00   1.00000000E+00 
SP   1    1.000000
   4.38000000E-02    1.00000000E+00   1.00000000E+00 
D    1    1.000000
   6.26000000E-01    1.00000000E+00 

2    0
S    3    1.000000
   3.38650000E+01    2.54938000E-02 
   5.09479000E+00    1.90373000E-01 
   1.15879000E+00    8.52161000E-01 
S    1    1.000000
   3.25840000E-01    1.00000000E+00 
S    1    1.000000
   1.02741000E-01    1.00000000E+00 
S    1    1.000000
   3.60000000E-02    1.00000000E+00 
P    1    1.000000
   7.50000000E-01    1.00000000E+00 

3    0
S    3    1.000000
   3.38650000E+01    2.54938000E-02 
   5.09479000E+00    1.90373000E-01 
   1.15879000E+00    8.52161000E-01 
S    1    1.000000
   3.25840000E-01    1.00000000E+00 
S    1    1.000000
   1.02741000E-01    1.00000000E+00 
S    1    1.000000
   3.60000000E-02    1.00000000E+00 
P    1    1.000000
   7.50000000E-01    1.00000000E+00 

4    0
S    3    1.000000
   3.38650000E+01    2.54938000E-02 
   5.09479000E+00    1.90373000E-01 
   1.15879000E+00    8.52161000E-01 
S    1    1.000000
   3.25840000E-01    1.00000000E+00 
S    1    1.000000
   1.02741000E-01    1.00000000E+00 
S    1    1.000000
   3.60000000E-02    1.00000000E+00 
P    1    1.000000
   7.50000000E-01    1.00000000E+00 

5    0
S    6    1.000000
   4.56324000E+03    1.96665000E-03 
   6.82024000E+02    1.52306000E-02 
   1.54973000E+02    7.61269000E-02 
   4.44553000E+01    2.60801000E-01 
   1.30290000E+01    6.16462000E-01 
   1.82773000E+00    2.21006000E-01 
SP   3    1.000000
   2.09642000E+01    1.14660000E-01   4.02487000E-02 
   4.80331000E+00    9.19999000E-01   2.37594000E-01 
   1.45933000E+00   -3.03068000E-03   8.15854000E-01 
SP   1    1.000000
   4.83456000E-01    1.00000000E+00   1.00000000E+00 
SP   1    1.000000
   1.45585000E-01    1.00000000E+00   1.00000000E+00 
SP   1    1.000000
   4.38000000E-02    1.00000000E+00   1.00000000E+00 
D    1    1.000000
   6.26000000E-01    1.00000000E+00 

6    0
S    6    1.000000
   8.58850000E+03    1.89515000E-03 
   1.29723000E+03    1.43859000E-02 
   2.99296000E+02    7.07320000E-02 
   8.73771000E+01    2.40001000E-01 
   2.56789000E+01    5.94797000E-01 
   3.74004000E+00    2.80802000E-01 
SP   3    1.000000
   4.21175000E+01    1.13889000E-01   3.65114000E-02 
   9.62837000E+00    9.20811000E-01   2.37153000E-01 
   2.85332000E+00   -3.27447000E-03   8.19702000E-01 
SP   1    1.000000
   9.05661000E-01    1.00000000E+00   1.00000000E+00 
SP   1    1.000000
   2.55611000E-01    1.00000000E+00   1.00000000E+00 
SP   1    1.000000
   8.45000000E-02    1.00000000E+00   1.00000000E+00 
D    1    1.000000
   1.29200000E+00    1.00000000E+00 

7    0
S    6    1.000000
   4.56324000E+03    1.96665000E-03 
   6.82024000E+02    1.52306000E-02 
   1.54973000E+02    7.61269000E-02 
   4.44553000E+01    2.60801000E-01 
   1.30290000E+01    6.16462000E-01 
   1.82773000E+00    2.21006000E-01 
SP   3    1.000000
   2.09642000E+01    1.14660000E-01   4.02487000E-02 
   4.80331000E+00    9.19999000E-01   2.37594000E-01 
   1.45933000E+00   -3.03068000E-03   8.15854000E-01 
SP   1    1.000000
   4.83456000E-01    1.00000000E+00   1.00000000E+00 
SP   1    1.000000
   1.45585000E-01    1.00000000E+00   1.00000000E+00 
SP   1    1.000000
   4.38000000E-02    1.00000000E+00   1.00000000E+00 
D    1    1.000000
   6.26000000E-01    1.00000000E+00 

8    0
S    6    1.000000
   8.58850000E+03    1.89515000E-03 
   1.29723000E+03    1.43859000E-02 
   2.99296000E+02    7.07320000E-02 
   8.73771000E+01    2.40001000E-01 
   2.56789000E+01    5.94797000E-01 
   3.74004000E+00    2.80802000E-01 
SP   3    1.000000
   4.21175000E+01    1.13889000E-01   3.65114000E-02 
   9.62837000E+00    9.20811000E-01   2.37153000E-01 
   2.85332000E+00   -3.27447000E-03   8.19702000E-01 
SP   1    1.000000
   9.05661000E-01    1.00000000E+00   1.00000000E+00 
SP   1    1.000000
   2.55611000E-01    1.00000000E+00   1.00000000E+00 
SP   1    1.000000
   8.45000000E-02    1.00000000E+00   1.00000000E+00 
D    1    1.000000
   1.29200000E+00    1.00000000E+00 

9    0
S    6    1.000000
   6.29348000E+03    1.96979000E-03 
   9.49044000E+02    1.49613000E-02 
   2.18776000E+02    7.35006000E-02 
   6.36916000E+01    2.48937000E-01 
   1.88282000E+01    6.02460000E-01 
   2.72023000E+00    2.56202000E-01 
SP   3    1.000000
   3.06331000E+01    1.11906000E-01   3.83119000E-02 
   7.02614000E+00    9.21666000E-01   2.37403000E-01 
   2.11205000E+00   -2.56919000E-03   8.17592000E-01 
SP   1    1.000000
   6.84009000E-01    1.00000000E+00   1.00000000E+00 
SP   1    1.000000
   2.00878000E-01    1.00000000E+00   1.00000000E+00 
SP   1    1.000000
   6.39000000E-02    1.00000000E+00   1.00000000E+00 
D    1    1.000000
   9.13000000E-01    1.00000000E+00 

10    0
S    6    1.000000
   6.29348000E+03    1.96979000E-03 
   9.49044000E+02    1.49613000E-02 
   2.18776000E+02    7.35006000E-02 
   6.36916000E+01    2.48937000E-01 
   1.88282000E+01    6.02460000E-01 
   2.72023000E+00    2.56202000E-01 
SP   3    1.000000
   3.06331000E+01    1.11906000E-01   3.83119000E-02 
   7.02614000E+00    9.21666000E-01   2.37403000E-01 
   2.11205000E+00   -2.56919000E-03   8.17592000E-01 
SP   1    1.000000
   6.84009000E-01    1.00000000E+00   1.00000000E+00 
SP   1    1.000000
   2.00878000E-01    1.00000000E+00   1.00000000E+00 
SP   1    1.000000
   6.39000000E-02    1.00000000E+00   1.00000000E+00 
D    1    1.000000
   9.13000000E-01    1.00000000E+00 

11    0
S    6    1.000000
   4.56324000E+03    1.96665000E-03 
   6.82024000E+02    1.52306000E-02 
   1.54973000E+02    7.61269000E-02 
   4.44553000E+01    2.60801000E-01 
   1.30290000E+01    6.16462000E-01 
   1.82773000E+00    2.21006000E-01 
SP   3    1.000000
   2.09642000E+01    1.14660000E-01   4.02487000E-02 
   4.80331000E+00    9.19999000E-01   2.37594000E-01 
   1.45933000E+00   -3.03068000E-03   8.15854000E-01 
SP   1    1.000000
   4.83456000E-01    1.00000000E+00   1.00000000E+00 
SP   1    1.000000
   1.45585000E-01    1.00000000E+00   1.00000000E+00 
SP   1    1.000000
   4.38000000E-02    1.00000000E+00   1.00000000E+00 
D    1    1.000000
   6.26000000E-01    1.00000000E+00 

12    0
S    3    1.000000
   3.38650000E+01    2.54938000E-02 
   5.09479000E+00    1.90373000E-01 
   1.15879000E+00    8.52161000E-01 
S    1    1.000000
   3.25840000E-01    1.00000000E+00 
S    1    1.000000
   1.02741000E-01    1.00000000E+00 
S    1    1.000000
   3.60000000E-02    1.00000000E+00 
P    1    1.000000
   7.50000000E-01    1.00000000E+00 

[MO]
Sym=X
Ene= -0.791291
Spin=Alpha
Occup=1
     1    3.677640200362e-07
     2   -3.004667463885e-07
     3    4.740613662071e-06
     4   -4.899407736527e-06
     5    3.121746912219e-16
     6    3.123102537622e-06
     7   -2.488215356668e-05
     8    1.825418582484e-05
     9   -1.603397192031e-15
    10    2.293085969002e-04
    11   -7.547931451747e-05
    12   -3.410742937864e-05
    13    1.313275009746e-15
    14   -6.251473263098e-04
    15   -6.308279802777e-04
    16   -1.779051844759e-04
    17    8.185476108916e-15
    18   -1.646449678215e-06
    19   -1.109135954443e-16
    20   -1.088458914881e-16
    21   -4.130841765244e-06
    22   -5.271075950587e-06
    23   -3.774590846610e-06
    24   -5.029881965829e-05
    25   -9.699468630092e-05
    26   -2.730274184546e-04
    27   -9.517704699111e-06
    28    7.903111945326e-06
    29    7.133673923146e-17
    30    5.095531776064e-06
    31   -3.907982289155e-05
    32   -2.504165793831e-06
    33   -9.815259853267e-05
    34    1.742092819547e-06
    35   -4.688352146625e-06
    36   -6.788535270439e-16
    37   -3.422643775932e-06
    38   -5.525244662747e-05
    39   -9.328747160799e-05
    40   -3.445872884703e-04
    41   -1.092651134974e-05
    42    5.370529906554e-06
    43   -8.389878930171e-16
    44   -4.941000786603e-06
    45    7.759045831846e-05
    46    6.126066077496e-05
    47   -3.748748708635e-05
    48    9.060907074618e-16
    49   -3.086465483419e-04
    50    3.615720645278e-04
    51   -2.179349700228e-04
    52   -4.143959922920e-15
    53    5.425257162302e-05
    54    4.917317504983e-04
    55   -3.039347879490e-04
    56    4.775616985217e-15
    57   -4.364487564148e-04
    58   -6.140254377576e-04
    59    4.354427591458e-04
    60    6.598140156887e-15
    61    5.721752771809e-05
    62    8.670607065113e-16
    63    6.191554427512e-16
    64   -9.298822759298e-05
    65    1.788865386294e-04
    66   -5.514791446110e-01
    67   -4.716765032683e-01
    68   -1.564708722774e-03
    69    9.584191730289e-04
    70   -2.211762084346e-16
    71   -5.533657760892e-03
    72    6.341301275485e-04
    73   -3.885297343895e-04
    74    3.199370511516e-16
    75    1.338639702295e-03
    76   -1.334461033257e-04
    77    8.860272382852e-05
    78    1.025733597824e-15
    79   -1.426739555347e-03
    80   -5.497758862737e-05
    81    9.634420048908e-06
    82   -2.197233105561e-15
    83    8.739971083768e-05
    84    3.049731184712e-16
    85   -2.689615638341e-16
    86    3.883366708949e-05
    87   -6.944689742758e-05
    88    4.346175447248e-07
    89   -7.367664356256e-07
    90    4.236673014889e-06
    91   -1.754835223018e-06
    92    2.087735825541e-16
    93    4.777051369287e-06
    94   -1.849492128927e-05
    95    1.076872050611e-05
    96   -2.716325878990e-15
    97    1.999969894222e-04
    98   -9.829800127554e-05
    99    4.651589328864e-05
   100    3.759873050899e-15
   101   -7.569351085632e-04
   102   -1.174832478351e-04
   103    6.878069829775e-04
   104    1.792570560131e-14
   105   -3.057617535763e-06
   106   -1.381953476255e-18
   107   -3.345499486099e-17
   108    7.929439658081e-06
   109   -2.148225537874e-06
   110    3.188342147057e-06
   111    1.910943310314e-06
   112   -2.821474108423e-07
   113    5.455888084517e-07
   114   -1.443090961627e-15
   115    7.671423187252e-06
   116   -1.192931516350e-06
   117   -1.576407427314e-06
   118    1.205748574873e-15
   119   -3.694960677683e-05
   120    1.353604792499e-05
   121    6.709856332699e-06
   122    1.878776764593e-15
   123    1.873151762476e-04
   124   -8.565383470594e-05
   125   -7.261585636953e-05
   126   -7.339637613617e-15
   127   -2.749826608471e-07
   128   -4.751982464335e-16
   129   -1.080195923198e-15
   130   -7.563459761789e-07
   131   -3.584163637568e-07
   132   -2.760457368871e-07
   133   -1.617795859601e-06
   134   -1.105780316530e-05
   135    1.196062922782e-06
   136   -4.870623985410e-16
   137    2.768026367922e-05
   138    3.159374331890e-05
   139   -5.984094219038e-06
   140   -3.029000385533e-17
   141   -3.013589200287e-04
   142   -4.739796223882e-05
   143    2.530650236073e-04
   144    2.113185251895e-15
   145   -1.246812490030e-05
   146   -5.481561471569e-04
   147    8.541708275446e-05
   148   -1.231532715513e-14
   149    7.178658442081e-06
   150   -2.221665289220e-16
   151    7.343931031059e-16
   152   -2.287307178128e-05
   153   -6.928210153280e-06
   154   -3.700093785250e-07
   155   -1.491456962550e-06
   156   -5.234589015736e-06
   157    9.635790235500e-06
   158    6.751229670268e-16
   159    2.596390418955e-05
   160    1.588014493715e-05
   161   -2.554547791608e-05
   162   -7.944872551240e-17
   163   -2.737061171311e-04
   164   -2.299990700513e-04
   165   -7.113398484065e-05
   166    9.174054481089e-16
   167    3.030453673225e-05
   168   -2.947863622914e-04
   169    3.663069251151e-04
   170   -7.667167009841e-15
   171    7.679491678400e-06
   172    2.551294140855e-16
   173   -2.839650102430e-16
   174    1.831164071256e-05
   175    1.263790398577e-05
   176   -1.277235521169e-07
   177    6.314478194276e-07
   178   -1.256505215719e-06
   179    7.581982924650e-07
   180    1.365200423846e-15
   181   -1.225901787284e-05
   182    6.488107492610e-06
   183   -6.732551755816e-06
   184   -5.550524059462e-16
   185    6.175278458092e-05
   186   -4.874521391162e-05
   187    2.870941713021e-05
   188    8.392680098195e-16
   189    2.955326428365e-03
   190   -4.559310596772e-04
   191    2.994320975813e-04
   192   -1.533098643014e-14
   193   -5.185569346963e-06
   194    4.141789244426e-17
   195    3.978996377958e-16
   196   -1.826653943200e-08
   197    3.107347089521e-06
   198   -1.321137113585e-06
   199    8.503974310881e-06
   200    2.095965273307e-05
   201    1.795449337466e-04
   202    4.830132079763e-07
   203   -4.250139401684e-07
   204   -8.127873709058e-16
Sym=X
Ene= 0.791291
Spin=Alpha
Occup=0
     1   -1.370741592976e-14
     2   -2.321440159149e-14
     3    1.471486466208e-14
     4    1.047954150627e-14
     5    2.971095260110e-02
     6    1.152691651375e-13
     7   -1.112475661497e-13
     8    6.168181757599e-14
     9    5.044584600504e-02
    10    5.206527759735e-13
    11    1.098146955757e-13
    12    6.570325329594e-13
    13    4.841119765087e-02
    14    2.972428025778e-11
    15    1.016275701688e-11
    16    4.159623005505e-12
    17    4.100117717485e-02
    18   -1.251417875543e-14
    19   -2.400619102104e-02
    20    1.397343255882e-03
    21   -1.674611077988e-14
    22    6.285686485190e-15
    23    1.367890358017e-14
    24   -3.251869901997e-13
    25   -3.086294189547e-13
    26   -4.448253993138e-13
    27   -2.050407857580e-14
    28   -7.039597430076e-15
    29    1.128179992869e-02
    30    2.456630960292e-14
    31    1.173318990572e-13
    32    1.046649013879e-12
    33    4.542199131395e-12
    34   -8.078076428540e-15
    35    1.149585665827e-14
    36    3.067303795963e-03
    37    1.004448048106e-14
    38    1.413878613530e-13
    39    1.606309939462e-12
    40   -1.149239975220e-12
    41    9.865532423174e-15
    42   -4.724933257931e-15
    43    1.168951772022e-02
    44   -1.158301630996e-16
    45    1.081684163552e-16
    46    8.688495871074e-15
    47   -1.707799011154e-15
    48   -2.496318040209e-01
    49   -5.328102797220e-14
    50   -1.576464920464e-14
    51    1.987033440678e-14
    52   -4.276686618745e-01
    53    1.912053902247e-13
    54    1.374111483806e-12
    55    5.338282554626e-13
    56   -6.325106991071e-01
    57    1.801921296973e-12
    58    3.311500064716e-13
    59   -8.287815889613e-13
    60   -1.770762552028e-01
    61    1.150376113197e-14
    62    2.646616551953e-03
    63    2.819320891577e-03
    64    1.531497673377e-14
    65    3.724848296628e-15
    66    2.747594032330e-15
    67    3.451230747405e-15
    68   -2.889633111020e-15
    69    1.037464920840e-14
    70    2.260796698755e-01
    71   -2.344135497166e-14
    72   -1.211908527977e-14
    73    2.211523579131e-14
    74    2.894908295496e-01
    75    1.252855019813e-13
    76   -1.610606495309e-14
    77   -1.429121015946e-13
    78    3.090710931478e-01
    79    1.916652614602e-12
    80    5.664682505909e-13
    81   -5.136260484844e-13
    82    1.225122495568e-01
    83    3.515177981059e-15
    84   -1.231124984351e-02
    85    7.474580171395e-03
    86   -1.582066074184e-15
    87    3.182847597101e-15
    88    5.893735057857e-15
    89    1.371556215916e-14
    90    5.092920746476e-15
    91    9.235112657971e-15
    92    2.312866259628e-02
    93   -4.818370089924e-14
    94    4.839069643653e-14
    95   -2.291312612521e-16
    96    4.117013209093e-02
    97    8.729973573702e-14
    98    1.886394222708e-13
    99   -3.773182098728e-15
   100    3.126229324796e-02
   101    3.124084569989e-12
   102   -9.188967197755e-12
   103    2.759387854523e-12
   104    2.776043271121e-02
   105    1.102850827581e-14
   106   -1.840825609491e-02
   107    1.471049666487e-02
   108    9.980821851186e-15
   109   -1.642565769621e-14
   110    1.259591010251e-15
   111    1.926590722325e-15
   112    8.947403904066e-15
   113   -2.207161240582e-14
   114   -2.217394125339e-02
   115   -1.869457774282e-14
   116    1.335467469047e-14
   117   -3.819933084882e-14
   118   -3.342592965872e-02
   119   -3.255924033758e-14
   120   -7.006599079315e-14
   121    7.765171149658e-14
   122   -4.143378787534e-02
   123    5.391800832966e-13
   124    7.370761789038e-13
   125   -2.234863496111e-14
   126   -2.460529240741e-02
   127   -1.570095539648e-15
   128   -9.480677723640e-04
   129    8.912094457787e-04
   130   -2.891080671519e-15
   131    1.935561399234e-15
   132    4.376609273910e-15
   133    6.671435396936e-15
   134    2.137490402867e-14
   135    8.762502388732e-15
   136    8.536622384458e-02
   137    3.118712015712e-14
   138    2.139907240785e-14
   139    1.020402165150e-13
   140    1.284392745064e-01
   141   -7.226141269093e-13
   142    5.874776208659e-13
   143   -4.751641745015e-13
   144    2.518032671912e-01
   145   -8.234242885196e-12
   146   -1.369583087435e-14
   147   -1.225081294358e-12
   148    1.655676654293e-01
   149    6.654272077402e-15
   150    2.198586917172e-02
   151    7.863125192545e-03
   152    4.215748154220e-15
   153    2.974867074637e-15
   154    1.666041281774e-14
   155    2.823425271336e-14
   156    8.277883314545e-15
   157    7.875708381067e-15
   158    7.126613884585e-02
   159   -1.199617629456e-13
   160    8.750167092907e-14
   161    1.121274291828e-14
   162    1.065957540725e-01
   163    1.538654802320e-14
   164   -9.494386752258e-13
   165    1.391885828071e-13
   166    2.168435836362e-01
   167    1.070954382913e-12
   168    5.789371525740e-15
   169   -2.574533868273e-12
   170    1.621959550703e-01
   171   -7.636946548140e-15
   172    3.803255452786e-03
   173   -2.506384020742e-02
   174    1.208545872951e-14
   175    1.274328938270e-14
   176   -1.029377802447e-14
   177   -1.254934045978e-14
   178    7.725875675140e-15
   179   -7.305885371610e-15
   180   -5.640892413755e-02
   181   -6.584666632835e-14
   182    4.405854882701e-14
   183    4.812252162888e-14
   184   -8.842402539703e-02
   185    7.147797561324e-13
   186    1.936158138495e-13
   187   -5.093597806397e-13
   188   -1.570827940970e-01
   189   -3.580374581707e-11
   190    1.496345263201e-11
   191    8.182696746508e-12
   192   -1.100359418430e-01
   193   -2.095349532729e-14
   194   -3.301080193383e-03
   195    2.294741324850e-04
   196    2.853873199412e-14
   197   -1.056878760682e-15
   198    3.301348381677e-14
   199   -1.775424918400e-13
   200    6.356890214503e-13
   201   -3.050313349768e-13
   202    2.369913096998e-14
   203    1.210891667695e-15
   204   -5.807810126729e-03
[5D]
