[Molden Format]
[Atoms] (Angs)
  C      1    6     -0.00714236     -1.70213747     -0.00000000
  H      2    1     -2.06882847     -1.44022412      0.00000000
  H      3    1     -0.12337987     -2.77567521      0.00000000
  H      4    1      0.04651892      1.98813947     -0.00000000
  C      5    6     -1.21953563      0.40211669      0.00000000
  O      6    8     -2.25921553      1.03043814      0.00000000
  C      7    6      1.28797806      0.34644937     -0.00000000
  O      8    8      2.31273661      1.00537216     -0.00000000
  N      9    7      0.03446295      0.97739857     -0.00000000
  N     10    7     -1.17287765     -0.98229824      0.00000000
  C     11    6      1.20107039     -1.10433419     -0.00000000
  H     12    1      2.11220096     -1.67699125     -0.00000000
[GTO]
1    0
S    6    1.000000
   4.56324000E+03    1.96665000E-03 
   6.82024000E+02    1.52306000E-02 
   1.54973000E+02    7.61269000E-02 
   4.44553000E+01    2.60801000E-01 
   1.30290000E+01    6.16462000E-01 
   1.82773000E+00    2.21006000E-01 
SP   3    1.000000
   2.09642000E+01    1.14660000E-01   4.02487000E-02 
   4.80331000E+00    9.19999000E-01   2.37594000E-01 
   1.45933000E+00   -3.03068000E-03   8.15854000E-01 
SP   1    1.000000
   4.83456000E-01    1.00000000E+00   1.00000000E+00 
SP   1    1.000000
   1.45585000E-01    1.00000000E+00   1.00000000E+00 
SP   1    1.000000
   4.38000000E-02    1.00000000E+00   1.00000000E+00 
D    1    1.000000
   6.26000000E-01    1.00000000E+00 

2    0
S    3    1.000000
   3.38650000E+01    2.54938000E-02 
   5.09479000E+00    1.90373000E-01 
   1.15879000E+00    8.52161000E-01 
S    1    1.000000
   3.25840000E-01    1.00000000E+00 
S    1    1.000000
   1.02741000E-01    1.00000000E+00 
S    1    1.000000
   3.60000000E-02    1.00000000E+00 
P    1    1.000000
   7.50000000E-01    1.00000000E+00 

3    0
S    3    1.000000
   3.38650000E+01    2.54938000E-02 
   5.09479000E+00    1.90373000E-01 
   1.15879000E+00    8.52161000E-01 
S    1    1.000000
   3.25840000E-01    1.00000000E+00 
S    1    1.000000
   1.02741000E-01    1.00000000E+00 
S    1    1.000000
   3.60000000E-02    1.00000000E+00 
P    1    1.000000
   7.50000000E-01    1.00000000E+00 

4    0
S    3    1.000000
   3.38650000E+01    2.54938000E-02 
   5.09479000E+00    1.90373000E-01 
   1.15879000E+00    8.52161000E-01 
S    1    1.000000
   3.25840000E-01    1.00000000E+00 
S    1    1.000000
   1.02741000E-01    1.00000000E+00 
S    1    1.000000
   3.60000000E-02    1.00000000E+00 
P    1    1.000000
   7.50000000E-01    1.00000000E+00 

5    0
S    6    1.000000
   4.56324000E+03    1.96665000E-03 
   6.82024000E+02    1.52306000E-02 
   1.54973000E+02    7.61269000E-02 
   4.44553000E+01    2.60801000E-01 
   1.30290000E+01    6.16462000E-01 
   1.82773000E+00    2.21006000E-01 
SP   3    1.000000
   2.09642000E+01    1.14660000E-01   4.02487000E-02 
   4.80331000E+00    9.19999000E-01   2.37594000E-01 
   1.45933000E+00   -3.03068000E-03   8.15854000E-01 
SP   1    1.000000
   4.83456000E-01    1.00000000E+00   1.00000000E+00 
SP   1    1.000000
   1.45585000E-01    1.00000000E+00   1.00000000E+00 
SP   1    1.000000
   4.38000000E-02    1.00000000E+00   1.00000000E+00 
D    1    1.000000
   6.26000000E-01    1.00000000E+00 

6    0
S    6    1.000000
   8.58850000E+03    1.89515000E-03 
   1.29723000E+03    1.43859000E-02 
   2.99296000E+02    7.07320000E-02 
   8.73771000E+01    2.40001000E-01 
   2.56789000E+01    5.94797000E-01 
   3.74004000E+00    2.80802000E-01 
SP   3    1.000000
   4.21175000E+01    1.13889000E-01   3.65114000E-02 
   9.62837000E+00    9.20811000E-01   2.37153000E-01 
   2.85332000E+00   -3.27447000E-03   8.19702000E-01 
SP   1    1.000000
   9.05661000E-01    1.00000000E+00   1.00000000E+00 
SP   1    1.000000
   2.55611000E-01    1.00000000E+00   1.00000000E+00 
SP   1    1.000000
   8.45000000E-02    1.00000000E+00   1.00000000E+00 
D    1    1.000000
   1.29200000E+00    1.00000000E+00 

7    0
S    6    1.000000
   4.56324000E+03    1.96665000E-03 
   6.82024000E+02    1.52306000E-02 
   1.54973000E+02    7.61269000E-02 
   4.44553000E+01    2.60801000E-01 
   1.30290000E+01    6.16462000E-01 
   1.82773000E+00    2.21006000E-01 
SP   3    1.000000
   2.09642000E+01    1.14660000E-01   4.02487000E-02 
   4.80331000E+00    9.19999000E-01   2.37594000E-01 
   1.45933000E+00   -3.03068000E-03   8.15854000E-01 
SP   1    1.000000
   4.83456000E-01    1.00000000E+00   1.00000000E+00 
SP   1    1.000000
   1.45585000E-01    1.00000000E+00   1.00000000E+00 
SP   1    1.000000
   4.38000000E-02    1.00000000E+00   1.00000000E+00 
D    1    1.000000
   6.26000000E-01    1.00000000E+00 

8    0
S    6    1.000000
   8.58850000E+03    1.89515000E-03 
   1.29723000E+03    1.43859000E-02 
   2.99296000E+02    7.07320000E-02 
   8.73771000E+01    2.40001000E-01 
   2.56789000E+01    5.94797000E-01 
   3.74004000E+00    2.80802000E-01 
SP   3    1.000000
   4.21175000E+01    1.13889000E-01   3.65114000E-02 
   9.62837000E+00    9.20811000E-01   2.37153000E-01 
   2.85332000E+00   -3.27447000E-03   8.19702000E-01 
SP   1    1.000000
   9.05661000E-01    1.00000000E+00   1.00000000E+00 
SP   1    1.000000
   2.55611000E-01    1.00000000E+00   1.00000000E+00 
SP   1    1.000000
   8.45000000E-02    1.00000000E+00   1.00000000E+00 
D    1    1.000000
   1.29200000E+00    1.00000000E+00 

9    0
S    6    1.000000
   6.29348000E+03    1.96979000E-03 
   9.49044000E+02    1.49613000E-02 
   2.18776000E+02    7.35006000E-02 
   6.36916000E+01    2.48937000E-01 
   1.88282000E+01    6.02460000E-01 
   2.72023000E+00    2.56202000E-01 
SP   3    1.000000
   3.06331000E+01    1.11906000E-01   3.83119000E-02 
   7.02614000E+00    9.21666000E-01   2.37403000E-01 
   2.11205000E+00   -2.56919000E-03   8.17592000E-01 
SP   1    1.000000
   6.84009000E-01    1.00000000E+00   1.00000000E+00 
SP   1    1.000000
   2.00878000E-01    1.00000000E+00   1.00000000E+00 
SP   1    1.000000
   6.39000000E-02    1.00000000E+00   1.00000000E+00 
D    1    1.000000
   9.13000000E-01    1.00000000E+00 

10    0
S    6    1.000000
   6.29348000E+03    1.96979000E-03 
   9.49044000E+02    1.49613000E-02 
   2.18776000E+02    7.35006000E-02 
   6.36916000E+01    2.48937000E-01 
   1.88282000E+01    6.02460000E-01 
   2.72023000E+00    2.56202000E-01 
SP   3    1.000000
   3.06331000E+01    1.11906000E-01   3.83119000E-02 
   7.02614000E+00    9.21666000E-01   2.37403000E-01 
   2.11205000E+00   -2.56919000E-03   8.17592000E-01 
SP   1    1.000000
   6.84009000E-01    1.00000000E+00   1.00000000E+00 
SP   1    1.000000
   2.00878000E-01    1.00000000E+00   1.00000000E+00 
SP   1    1.000000
   6.39000000E-02    1.00000000E+00   1.00000000E+00 
D    1    1.000000
   9.13000000E-01    1.00000000E+00 

11    0
S    6    1.000000
   4.56324000E+03    1.96665000E-03 
   6.82024000E+02    1.52306000E-02 
   1.54973000E+02    7.61269000E-02 
   4.44553000E+01    2.60801000E-01 
   1.30290000E+01    6.16462000E-01 
   1.82773000E+00    2.21006000E-01 
SP   3    1.000000
   2.09642000E+01    1.14660000E-01   4.02487000E-02 
   4.80331000E+00    9.19999000E-01   2.37594000E-01 
   1.45933000E+00   -3.03068000E-03   8.15854000E-01 
SP   1    1.000000
   4.83456000E-01    1.00000000E+00   1.00000000E+00 
SP   1    1.000000
   1.45585000E-01    1.00000000E+00   1.00000000E+00 
SP   1    1.000000
   4.38000000E-02    1.00000000E+00   1.00000000E+00 
D    1    1.000000
   6.26000000E-01    1.00000000E+00 

12    0
S    3    1.000000
   3.38650000E+01    2.54938000E-02 
   5.09479000E+00    1.90373000E-01 
   1.15879000E+00    8.52161000E-01 
S    1    1.000000
   3.25840000E-01    1.00000000E+00 
S    1    1.000000
   1.02741000E-01    1.00000000E+00 
S    1    1.000000
   3.60000000E-02    1.00000000E+00 
P    1    1.000000
   7.50000000E-01    1.00000000E+00 

[MO]
Sym=X
Ene= -0.824947
Spin=Alpha
Occup=1
     1    3.677646764377e-07
     2   -3.004561709188e-07
     3    4.740582819471e-06
     4   -4.899410988811e-06
     5    3.121695060014e-16
     6    3.122999112023e-06
     7   -2.488205559960e-05
     8    1.825417491868e-05
     9   -1.603388259998e-15
    10    2.293145783379e-04
    11   -7.547799715241e-05
    12   -3.410494396648e-05
    13    1.313220690422e-15
    14   -6.251481014204e-04
    15   -6.308310156763e-04
    16   -1.778992985155e-04
    17    8.185686287251e-15
    18   -1.646458605496e-06
    19   -1.109219503936e-16
    20   -1.088549160722e-16
    21   -4.130803814213e-06
    22   -5.271119892159e-06
    23   -3.774591837405e-06
    24   -5.029887698177e-05
    25   -9.699434173179e-05
    26   -2.730281335763e-04
    27   -9.517672323427e-06
    28    7.903102614461e-06
    29    7.134295455587e-17
    30    5.095555974330e-06
    31   -3.907985998370e-05
    32   -2.502895545459e-06
    33   -9.814961338938e-05
    34    1.742037309111e-06
    35   -4.688358189084e-06
    36   -6.788624553748e-16
    37   -3.422663979098e-06
    38   -5.525316047516e-05
    39   -9.328847626629e-05
    40   -3.445881767698e-04
    41   -1.092641014352e-05
    42    5.370595056992e-06
    43   -8.389921531912e-16
    44   -4.940994418560e-06
    45    7.759044154569e-05
    46    6.126059324674e-05
    47   -3.748749050862e-05
    48    9.060995836174e-16
    49   -3.086464427321e-04
    50    3.615723699631e-04
    51   -2.179349403049e-04
    52   -4.143981821240e-15
    53    5.425556895844e-05
    54    4.917331658636e-04
    55   -3.039349225959e-04
    56    4.775634463804e-15
    57   -4.364461919610e-04
    58   -6.140253910098e-04
    59    4.354444983986e-04
    60    6.598236015380e-15
    61    5.721748389805e-05
    62    8.670636954951e-16
    63    6.191421885364e-16
    64   -9.298816037641e-05
    65    1.788865397478e-04
    66   -5.514791446168e-01
    67   -4.716765032832e-01
    68   -1.564708726988e-03
    69    9.584191753964e-04
    70   -2.211782202126e-16
    71   -5.533657675658e-03
    72    6.341301689097e-04
    73   -3.885297406609e-04
    74    3.199351828402e-16
    75    1.338639428532e-03
    76   -1.334462731885e-04
    77    8.860272607818e-05
    78    1.025757865013e-15
    79   -1.426737143917e-03
    80   -5.497625054206e-05
    81    9.633987494508e-06
    82   -2.197263454228e-15
    83    8.739970751786e-05
    84    3.049763444292e-16
    85   -2.689636464102e-16
    86    3.883366337746e-05
    87   -6.944689694324e-05
    88    4.345670056767e-07
    89   -7.360363494055e-07
    90    4.236116024210e-06
    91   -1.755264018456e-06
    92    2.087837616714e-16
    93    4.774051994748e-06
    94   -1.849822847374e-05
    95    1.076669005642e-05
    96   -2.716341680218e-15
    97    1.999989231044e-04
    98   -9.830407281895e-05
    99    4.651101658833e-05
   100    3.759870702429e-15
   101   -7.569139520464e-04
   102   -1.174768390208e-04
   103    6.878023141201e-04
   104    1.792568864885e-14
   105   -3.057111487464e-06
   106   -1.390943292379e-18
   107   -3.344835979507e-17
   108    7.928609413925e-06
   109   -2.149995109056e-06
   110   -2.118236592461e-06
   111   -2.627736548348e-06
   112   -2.674283615486e-07
   113    5.544473177180e-07
   114   -1.443107123287e-15
   115    7.618403454261e-06
   116   -1.198868724023e-06
   117   -1.579982042523e-06
   118    1.205773099788e-15
   119   -3.693645060300e-05
   120    1.353715743180e-05
   121    6.710513382116e-06
   122    1.878742072795e-15
   123    1.873036803663e-04
   124   -8.565395086105e-05
   125   -7.261600341595e-05
   126   -7.339577401279e-15
   127   -2.738350480105e-07
   128   -4.752068143001e-16
   129   -1.080205144856e-15
   130   -7.559858017132e-07
   131   -3.576950569598e-07
   132   -2.760488806711e-07
   133   -1.617823033741e-06
   134   -1.105769838958e-05
   135    1.196057079067e-06
   136   -4.870681036922e-16
   137    2.768065020512e-05
   138    3.159346583064e-05
   139   -5.984109134259e-06
   140   -3.028488800985e-17
   141   -3.013624191079e-04
   142   -4.739726488307e-05
   143    2.530679424291e-04
   144    2.113183738296e-15
   145   -1.246717970767e-05
   146   -5.481503750774e-04
   147    8.541843243252e-05
   148   -1.231535005099e-14
   149    7.178744391150e-06
   150   -2.221723268016e-16
   151    7.343996525628e-16
   152   -2.287327836153e-05
   153   -6.928098106164e-06
   154   -3.700091795613e-07
   155   -1.491463470290e-06
   156   -5.234592295341e-06
   157    9.635787877925e-06
   158    6.751346685323e-16
   159    2.596399483613e-05
   160    1.588015709187e-05
   161   -2.554546034223e-05
   162   -7.947613226772e-17
   163   -2.737075676291e-04
   164   -2.299997633029e-04
   165   -7.113417981196e-05
   166    9.174734849140e-16
   167    3.030244845297e-05
   168   -2.947858858519e-04
   169    3.663068307811e-04
   170   -7.667343910511e-15
   171    7.679483252367e-06
   172    2.551458879302e-16
   173   -2.839661273894e-16
   174    1.831163412027e-05
   175    1.263790795578e-05
   176   -1.277331267119e-07
   177    6.314287718386e-07
   178   -1.256472677351e-06
   179    7.583516567915e-07
   180    1.365194558426e-15
   181   -1.225873127882e-05
   182    6.488096229307e-06
   183   -6.733262035635e-06
   184   -5.550468766981e-16
   185    6.174554751603e-05
   186   -4.873931550668e-05
   187    2.870787855400e-05
   188    8.393095004128e-16
   189    2.955310621451e-03
   190   -4.559317408486e-04
   191    2.994208084570e-04
   192   -1.533112237831e-14
   193   -5.185508478592e-06
   194    4.140857600321e-17
   195    3.978899027128e-16
   196   -1.798174802951e-08
   197    3.107121074706e-06
   198   -1.321099320591e-06
   199    8.502704942958e-06
   200    2.095779859366e-05
   201    1.795413686131e-04
   202    4.831973383332e-07
   203   -4.251236260832e-07
   204   -8.127800526080e-16
Sym=X
Ene= 0.824947
Spin=Alpha
Occup=0
     1   -2.171077386764e-16
     2    5.629486048515e-15
     3    1.870393333845e-15
     4    1.857268890489e-14
     5   -3.069803295581e-02
     6   -3.612466277655e-14
     7    8.343525530066e-15
     8    6.208408150619e-15
     9   -4.909895502234e-02
    10   -3.029648986647e-13
    11   -6.365796951116e-14
    12    1.035438465109e-14
    13   -8.728742896408e-02
    14    1.314003087868e-11
    15    3.776927614419e-12
    16    2.310828616065e-12
    17    4.563578577032e-01
    18    8.903766440287e-19
    19    2.719011096675e-03
    20   -4.372751770249e-03
    21   -3.196305101641e-15
    22    1.166374980033e-14
    23   -6.971497905497e-16
    24    2.564568506394e-13
    25   -6.422685190670e-13
    26   -2.131958236178e-12
    27    1.503197617514e-14
    28    6.378808207677e-15
    29    4.876881856792e-03
    30    7.886817647219e-15
    31    5.962429551414e-14
    32   -9.713200511498e-16
    33    2.300942362362e-12
    34    1.729812191795e-15
    35   -4.961702863812e-15
    36   -5.403921468348e-04
    37   -4.033349052921e-15
    38   -1.392251955150e-13
    39   -2.494281131294e-13
    40    1.412476185160e-12
    41    2.206072808045e-18
    42    1.303118992370e-14
    43    1.615094985904e-03
    44    8.929059859402e-16
    45    5.121715206111e-15
    46   -8.194848919858e-15
    47   -2.256212327181e-15
    48   -5.764348978080e-02
    49   -2.556099061765e-14
    50    4.239225786348e-15
    51    2.364695598333e-14
    52   -1.060479629531e-01
    53    3.197901146224e-13
    54   -5.579944428622e-13
    55   -2.896342521807e-13
    56   -1.072269872806e-01
    57    8.666062080073e-13
    58   -1.235990246724e-12
    59   -2.099909111413e-12
    60    1.731119098733e+00
    61    1.030068731409e-15
    62    1.866644200014e-03
    63   -4.715123494753e-03
    64    1.249967190977e-15
    65   -2.772670741030e-15
    66   -1.528277966391e-15
    67   -5.133934636329e-15
    68   -2.239303977711e-15
    69   -4.681195851976e-15
    70   -4.993518577338e-02
    71    1.327484384653e-14
    72    8.584960898926e-15
    73   -6.898386617160e-15
    74   -7.233600293459e-02
    75   -2.526896123498e-14
    76   -4.741719882288e-14
    77    2.921596514945e-14
    78   -2.070393498846e-02
    79   -7.881961497265e-13
    80   -3.384816539337e-14
    81    4.991192272715e-13
    82   -1.035550153092e-01
    83   -5.404783177587e-16
    84   -8.617972287898e-03
    85    4.651562070224e-03
    86    1.803009641985e-15
    87   -1.393745047104e-15
    88    5.962169897206e-15
    89    7.523066162237e-15
    90   -1.026733994644e-15
    91   -7.073583439304e-15
    92   -1.844917165506e-03
    93   -2.866184931262e-14
    94    1.454956704107e-14
    95    4.407934722648e-15
    96   -9.899745632032e-03
    97   -1.655881811980e-13
    98   -7.433790728717e-14
    99   -4.264215564532e-13
   100    2.941757994881e-02
   101   -2.851796430416e-12
   102   -4.145879794036e-13
   103    6.629619051644e-13
   104    3.896181601638e-01
   105    9.658556915597e-16
   106    1.094879164422e-03
   107   -2.836773754926e-03
   108    2.158045878054e-15
   109    6.490044646952e-15
   110   -3.024987012008e-16
   111   -2.045780918186e-15
   112   -6.072359693540e-15
   113    6.630041127651e-15
   114   -1.211118963159e-02
   115    1.977286407144e-15
   116    6.115123807890e-16
   117    3.108653363393e-15
   118   -1.823950722244e-02
   119    6.008569655689e-14
   120   -3.817256023771e-14
   121    3.980252849873e-14
   122   -2.307815320308e-02
   123    3.653105529315e-13
   124   -2.566464240314e-13
   125   -2.594278633546e-13
   126   -2.661874296228e-02
   127    1.148208856445e-15
   128    8.257731605669e-04
   129    5.287930290596e-04
   130   -9.119643335591e-16
   131   -3.531642344292e-15
   132    1.558068953348e-15
   133    3.307501214667e-15
   134   -4.153508777966e-15
   135   -9.899074323268e-15
   136   -2.339498278885e-02
   137   -3.853061845276e-14
   138   -1.442009337735e-15
   139   -3.179870786744e-14
   140   -5.365872676420e-02
   141    3.039125112607e-13
   142   -9.821351205461e-14
   143    1.541575535393e-13
   144    1.805387978893e-02
   145    3.132042385555e-12
   146   -3.333280122123e-13
   147   -7.299156613712e-13
   148   -6.587892901933e-01
   149    1.080843768972e-16
   150    3.179423825604e-03
   151    3.088733485337e-03
   152   -5.553854671570e-15
   153    2.382993225209e-17
   154   -2.092547887381e-15
   155    2.007436681791e-15
   156   -6.756209028483e-15
   157    3.988347979699e-15
   158   -1.773131108559e-02
   159   -8.270321555251e-15
   160   -3.993969444431e-14
   161    9.555372509585e-15
   162   -4.335495717881e-02
   163    1.319390784492e-14
   164    3.785060821509e-13
   165    4.312200940926e-14
   166    2.703503497979e-02
   167   -1.873707332436e-12
   168   -1.192764286551e-12
   169   -1.529300169725e-12
   170   -5.240289102037e-01
   171   -1.902745641405e-15
   172   -5.360975263434e-03
   173   -2.556095818886e-03
   174   -1.649283283725e-15
   175   -4.957393609879e-15
   176    2.150386877228e-15
   177    3.714512920119e-15
   178   -1.468674503176e-14
   179   -8.388627665249e-16
   180   -8.127855681042e-03
   181   -2.492029287597e-14
   182   -9.461202410460e-15
   183    3.492551966748e-15
   184   -1.190588271898e-02
   185   -1.814419396566e-13
   186   -3.730719885951e-13
   187   -2.518045486155e-13
   188   -9.095025864680e-03
   189   -1.175183356475e-11
   190    4.575554057262e-12
   191    2.685459770072e-12
   192   -4.397371831391e-01
   193   -8.524857368223e-15
   194    2.869234546428e-03
   195    2.183493517693e-03
   196    9.916926752649e-15
   197   -1.131776750903e-15
   198    1.176525779381e-14
   199    2.368204654616e-14
   200    6.638190073493e-13
   201   -1.576022162378e-12
   202   -1.221450786778e-15
   203    7.749457417278e-16
   204    2.674884547313e-04
[5D]
