[Molden Format]
[Atoms] (Angs)
  C      1    6     -0.00714236     -1.70213747     -0.00000000
  H      2    1     -2.06882847     -1.44022412      0.00000000
  H      3    1     -0.12337987     -2.77567521      0.00000000
  H      4    1      0.04651892      1.98813947     -0.00000000
  C      5    6     -1.21953563      0.40211669      0.00000000
  O      6    8     -2.25921553      1.03043814      0.00000000
  C      7    6      1.28797806      0.34644937     -0.00000000
  O      8    8      2.31273661      1.00537216     -0.00000000
  N      9    7      0.03446295      0.97739857     -0.00000000
  N     10    7     -1.17287765     -0.98229824      0.00000000
  C     11    6      1.20107039     -1.10433419     -0.00000000
  H     12    1      2.11220096     -1.67699125     -0.00000000
[GTO]
1    0
S    6    1.000000
   4.56324000E+03    1.96665000E-03 
   6.82024000E+02    1.52306000E-02 
   1.54973000E+02    7.61269000E-02 
   4.44553000E+01    2.60801000E-01 
   1.30290000E+01    6.16462000E-01 
   1.82773000E+00    2.21006000E-01 
SP   3    1.000000
   2.09642000E+01    1.14660000E-01   4.02487000E-02 
   4.80331000E+00    9.19999000E-01   2.37594000E-01 
   1.45933000E+00   -3.03068000E-03   8.15854000E-01 
SP   1    1.000000
   4.83456000E-01    1.00000000E+00   1.00000000E+00 
SP   1    1.000000
   1.45585000E-01    1.00000000E+00   1.00000000E+00 
SP   1    1.000000
   4.38000000E-02    1.00000000E+00   1.00000000E+00 
D    1    1.000000
   6.26000000E-01    1.00000000E+00 

2    0
S    3    1.000000
   3.38650000E+01    2.54938000E-02 
   5.09479000E+00    1.90373000E-01 
   1.15879000E+00    8.52161000E-01 
S    1    1.000000
   3.25840000E-01    1.00000000E+00 
S    1    1.000000
   1.02741000E-01    1.00000000E+00 
S    1    1.000000
   3.60000000E-02    1.00000000E+00 
P    1    1.000000
   7.50000000E-01    1.00000000E+00 

3    0
S    3    1.000000
   3.38650000E+01    2.54938000E-02 
   5.09479000E+00    1.90373000E-01 
   1.15879000E+00    8.52161000E-01 
S    1    1.000000
   3.25840000E-01    1.00000000E+00 
S    1    1.000000
   1.02741000E-01    1.00000000E+00 
S    1    1.000000
   3.60000000E-02    1.00000000E+00 
P    1    1.000000
   7.50000000E-01    1.00000000E+00 

4    0
S    3    1.000000
   3.38650000E+01    2.54938000E-02 
   5.09479000E+00    1.90373000E-01 
   1.15879000E+00    8.52161000E-01 
S    1    1.000000
   3.25840000E-01    1.00000000E+00 
S    1    1.000000
   1.02741000E-01    1.00000000E+00 
S    1    1.000000
   3.60000000E-02    1.00000000E+00 
P    1    1.000000
   7.50000000E-01    1.00000000E+00 

5    0
S    6    1.000000
   4.56324000E+03    1.96665000E-03 
   6.82024000E+02    1.52306000E-02 
   1.54973000E+02    7.61269000E-02 
   4.44553000E+01    2.60801000E-01 
   1.30290000E+01    6.16462000E-01 
   1.82773000E+00    2.21006000E-01 
SP   3    1.000000
   2.09642000E+01    1.14660000E-01   4.02487000E-02 
   4.80331000E+00    9.19999000E-01   2.37594000E-01 
   1.45933000E+00   -3.03068000E-03   8.15854000E-01 
SP   1    1.000000
   4.83456000E-01    1.00000000E+00   1.00000000E+00 
SP   1    1.000000
   1.45585000E-01    1.00000000E+00   1.00000000E+00 
SP   1    1.000000
   4.38000000E-02    1.00000000E+00   1.00000000E+00 
D    1    1.000000
   6.26000000E-01    1.00000000E+00 

6    0
S    6    1.000000
   8.58850000E+03    1.89515000E-03 
   1.29723000E+03    1.43859000E-02 
   2.99296000E+02    7.07320000E-02 
   8.73771000E+01    2.40001000E-01 
   2.56789000E+01    5.94797000E-01 
   3.74004000E+00    2.80802000E-01 
SP   3    1.000000
   4.21175000E+01    1.13889000E-01   3.65114000E-02 
   9.62837000E+00    9.20811000E-01   2.37153000E-01 
   2.85332000E+00   -3.27447000E-03   8.19702000E-01 
SP   1    1.000000
   9.05661000E-01    1.00000000E+00   1.00000000E+00 
SP   1    1.000000
   2.55611000E-01    1.00000000E+00   1.00000000E+00 
SP   1    1.000000
   8.45000000E-02    1.00000000E+00   1.00000000E+00 
D    1    1.000000
   1.29200000E+00    1.00000000E+00 

7    0
S    6    1.000000
   4.56324000E+03    1.96665000E-03 
   6.82024000E+02    1.52306000E-02 
   1.54973000E+02    7.61269000E-02 
   4.44553000E+01    2.60801000E-01 
   1.30290000E+01    6.16462000E-01 
   1.82773000E+00    2.21006000E-01 
SP   3    1.000000
   2.09642000E+01    1.14660000E-01   4.02487000E-02 
   4.80331000E+00    9.19999000E-01   2.37594000E-01 
   1.45933000E+00   -3.03068000E-03   8.15854000E-01 
SP   1    1.000000
   4.83456000E-01    1.00000000E+00   1.00000000E+00 
SP   1    1.000000
   1.45585000E-01    1.00000000E+00   1.00000000E+00 
SP   1    1.000000
   4.38000000E-02    1.00000000E+00   1.00000000E+00 
D    1    1.000000
   6.26000000E-01    1.00000000E+00 

8    0
S    6    1.000000
   8.58850000E+03    1.89515000E-03 
   1.29723000E+03    1.43859000E-02 
   2.99296000E+02    7.07320000E-02 
   8.73771000E+01    2.40001000E-01 
   2.56789000E+01    5.94797000E-01 
   3.74004000E+00    2.80802000E-01 
SP   3    1.000000
   4.21175000E+01    1.13889000E-01   3.65114000E-02 
   9.62837000E+00    9.20811000E-01   2.37153000E-01 
   2.85332000E+00   -3.27447000E-03   8.19702000E-01 
SP   1    1.000000
   9.05661000E-01    1.00000000E+00   1.00000000E+00 
SP   1    1.000000
   2.55611000E-01    1.00000000E+00   1.00000000E+00 
SP   1    1.000000
   8.45000000E-02    1.00000000E+00   1.00000000E+00 
D    1    1.000000
   1.29200000E+00    1.00000000E+00 

9    0
S    6    1.000000
   6.29348000E+03    1.96979000E-03 
   9.49044000E+02    1.49613000E-02 
   2.18776000E+02    7.35006000E-02 
   6.36916000E+01    2.48937000E-01 
   1.88282000E+01    6.02460000E-01 
   2.72023000E+00    2.56202000E-01 
SP   3    1.000000
   3.06331000E+01    1.11906000E-01   3.83119000E-02 
   7.02614000E+00    9.21666000E-01   2.37403000E-01 
   2.11205000E+00   -2.56919000E-03   8.17592000E-01 
SP   1    1.000000
   6.84009000E-01    1.00000000E+00   1.00000000E+00 
SP   1    1.000000
   2.00878000E-01    1.00000000E+00   1.00000000E+00 
SP   1    1.000000
   6.39000000E-02    1.00000000E+00   1.00000000E+00 
D    1    1.000000
   9.13000000E-01    1.00000000E+00 

10    0
S    6    1.000000
   6.29348000E+03    1.96979000E-03 
   9.49044000E+02    1.49613000E-02 
   2.18776000E+02    7.35006000E-02 
   6.36916000E+01    2.48937000E-01 
   1.88282000E+01    6.02460000E-01 
   2.72023000E+00    2.56202000E-01 
SP   3    1.000000
   3.06331000E+01    1.11906000E-01   3.83119000E-02 
   7.02614000E+00    9.21666000E-01   2.37403000E-01 
   2.11205000E+00   -2.56919000E-03   8.17592000E-01 
SP   1    1.000000
   6.84009000E-01    1.00000000E+00   1.00000000E+00 
SP   1    1.000000
   2.00878000E-01    1.00000000E+00   1.00000000E+00 
SP   1    1.000000
   6.39000000E-02    1.00000000E+00   1.00000000E+00 
D    1    1.000000
   9.13000000E-01    1.00000000E+00 

11    0
S    6    1.000000
   4.56324000E+03    1.96665000E-03 
   6.82024000E+02    1.52306000E-02 
   1.54973000E+02    7.61269000E-02 
   4.44553000E+01    2.60801000E-01 
   1.30290000E+01    6.16462000E-01 
   1.82773000E+00    2.21006000E-01 
SP   3    1.000000
   2.09642000E+01    1.14660000E-01   4.02487000E-02 
   4.80331000E+00    9.19999000E-01   2.37594000E-01 
   1.45933000E+00   -3.03068000E-03   8.15854000E-01 
SP   1    1.000000
   4.83456000E-01    1.00000000E+00   1.00000000E+00 
SP   1    1.000000
   1.45585000E-01    1.00000000E+00   1.00000000E+00 
SP   1    1.000000
   4.38000000E-02    1.00000000E+00   1.00000000E+00 
D    1    1.000000
   6.26000000E-01    1.00000000E+00 

12    0
S    3    1.000000
   3.38650000E+01    2.54938000E-02 
   5.09479000E+00    1.90373000E-01 
   1.15879000E+00    8.52161000E-01 
S    1    1.000000
   3.25840000E-01    1.00000000E+00 
S    1    1.000000
   1.02741000E-01    1.00000000E+00 
S    1    1.000000
   3.60000000E-02    1.00000000E+00 
P    1    1.000000
   7.50000000E-01    1.00000000E+00 

[MO]
Sym=X
Ene= -0.822106
Spin=Alpha
Occup=1
     1   -3.341722584501e-07
     2    3.601841151834e-07
     3   -4.517474415068e-06
     4    4.895080661714e-06
     5   -3.118042745441e-16
     6   -3.471188867213e-06
     7    2.524777261286e-05
     8   -1.821429545302e-05
     9    1.603023691303e-15
    10   -2.289738498219e-04
    11    7.568330777299e-05
    12    3.405857673111e-05
    13   -1.312946906379e-15
    14    6.278121440809e-04
    15    6.310695131514e-04
    16    1.784505843966e-04
    17   -8.187768980881e-15
    18    1.623151933112e-06
    19    1.109720938345e-16
    20    1.089693143775e-16
    21    4.135809694413e-06
    22    5.206284736340e-06
    23    3.509585631654e-06
    24    4.971249668306e-05
    25    9.707703984079e-05
    26    2.730772643340e-04
    27    9.463645429843e-06
    28   -7.902005531125e-06
    29   -7.132938272617e-17
    30   -4.861526769431e-06
    31    3.960647283249e-05
    32    2.602302072027e-06
    33    9.827853569034e-05
    34   -1.694084831849e-06
    35    4.678795341235e-06
    36    6.787613101133e-16
    37    3.134522286026e-06
    38    5.473604449440e-05
    39    9.346909080667e-05
    40    3.446050492102e-04
    41    1.088157681973e-05
    42   -5.353381567108e-06
    43    8.388698507276e-16
    44    5.029703777452e-06
    45   -7.743368087804e-05
    46   -6.118631581729e-05
    47    3.761756834481e-05
    48   -9.061936138651e-16
    49    3.081351971911e-04
    50   -3.614604242883e-04
    51    2.181626359278e-04
    52    4.143892714969e-15
    53   -5.528718682853e-05
    54   -4.910332724933e-04
    55    3.040381812602e-04
    56   -4.776409635276e-15
    57    4.354347784961e-04
    58    6.138472552557e-04
    59   -4.350332077951e-04
    60   -6.595964502615e-15
    61   -5.724251210620e-05
    62   -8.670326211618e-16
    63   -6.192230359108e-16
    64    9.280244576188e-05
    65   -1.789151694436e-04
    66    5.514790537559e-01
    67    4.716763424856e-01
    68    1.564687783286e-03
    69   -9.579949178482e-04
    70    2.213213355344e-16
    71    5.533577045258e-03
    72   -6.342222459728e-04
    73    3.892994103595e-04
    74   -3.198185280600e-16
    75   -1.336609619688e-03
    76    1.334107589566e-04
    77   -8.755940161768e-05
    78   -1.024972092482e-15
    79    1.427300384469e-03
    80    5.509658451584e-05
    81   -9.642733206911e-06
    82    2.195735395669e-15
    83   -8.741828623870e-05
    84   -3.047739790052e-16
    85    2.692259734925e-16
    86   -3.876548400631e-05
    87    6.945645402263e-05
    88   -4.336875477279e-07
    89    7.345032576101e-07
    90   -4.214073991320e-06
    91    1.908025961627e-06
    92   -2.085794035666e-16
    93   -4.529583898545e-06
    94    1.847755169395e-05
    95   -1.044616149727e-05
    96    2.716200110251e-15
    97   -1.993922901955e-04
    98    9.845284274521e-05
    99   -4.663215168078e-05
   100   -3.760144190132e-15
   101    7.597690253980e-04
   102    1.170944730707e-04
   103   -6.883868325717e-04
   104   -1.792822903852e-14
   105    3.008419025040e-06
   106    1.415955809881e-18
   107    3.328307147249e-17
   108   -7.741576537832e-06
   109    2.085271222371e-06
   110    8.560389742120e-07
   111    1.588029795697e-06
   112    3.891919735269e-07
   113   -1.029030659922e-06
   114    1.442975238096e-15
   115   -7.674962350745e-06
   116    1.398129231393e-06
   117    7.961438729782e-07
   118   -1.205878091378e-15
   119    3.616318236950e-05
   120   -1.309783284551e-05
   121   -7.741089758985e-06
   122   -1.879033342628e-15
   123   -1.874585391970e-04
   124    8.568661063138e-05
   125    7.250401644932e-05
   126    7.341239410949e-15
   127    2.696840978670e-07
   128    4.750290799112e-16
   129    1.080563411182e-15
   130    7.473321695457e-07
   131    3.850734128461e-07
   132    2.389283868412e-07
   133    1.549639409327e-06
   134    1.107378423330e-05
   135   -1.110161652492e-06
   136    4.870942975618e-16
   137   -2.714547454642e-05
   138   -3.161209524352e-05
   139    6.131864828926e-06
   140    3.003284297320e-17
   141    3.010306700177e-04
   142    4.762640044852e-05
   143   -2.531590982009e-04
   144   -2.112034804067e-15
   145    1.187239846913e-05
   146    5.478320523963e-04
   147   -8.569436731601e-05
   148    1.231452063627e-14
   149   -7.210271591837e-06
   150    2.222332082413e-16
   151   -7.344962775602e-16
   152    2.294277118461e-05
   153    6.867470734436e-06
   154    2.917682417959e-07
   155    1.355222859155e-06
   156    5.066367230208e-06
   157   -9.447397118692e-06
   158   -6.752359770785e-16
   159   -2.502410017719e-05
   160   -1.618930612940e-05
   161    2.581291095993e-05
   162    7.900625861991e-17
   163    2.738375513687e-04
   164    2.297640659455e-04
   165    7.164736231666e-05
   166   -9.167501543048e-16
   167   -3.011567887188e-05
   168    2.948935805949e-04
   169   -3.661439996455e-04
   170    7.667679549487e-15
   171   -7.636112474168e-06
   172   -2.550274537285e-16
   173    2.839262036909e-16
   174   -1.824451381009e-05
   175   -1.265949890867e-05
   176    1.978933531667e-07
   177   -5.113836100274e-07
   178    1.138549554626e-06
   179   -9.862675153411e-07
   180   -1.365427051726e-15
   181    1.182345625314e-05
   182   -6.732601005162e-06
   183    6.428005915337e-06
   184    5.551854127015e-16
   185   -6.266985937127e-05
   186    4.907456244201e-05
   187   -2.953069816503e-05
   188   -8.397032703083e-16
   189   -2.959518517472e-03
   190    4.569788661069e-04
   191   -3.000118015375e-04
   192    1.533389750597e-14
   193    5.145866337830e-06
   194   -4.149787228991e-17
   195   -3.978387720257e-16
   196   -4.266660362328e-08
   197   -3.100203256676e-06
   198    1.514945777841e-06
   199   -8.090939389869e-06
   200   -2.101006439506e-05
   201   -1.798837977928e-04
   202   -4.872113058811e-07
   203    3.951093470553e-07
   204    8.126873933891e-16
Sym=X
Ene= 0.822106
Spin=Alpha
Occup=0
     1   -4.869390993338e-03
     2   -7.852981438036e-03
     3   -1.431523764169e-03
     4   -2.131436622278e-02
     5   -1.629995308797e-14
     6    4.800245569710e-03
     7    6.298725338463e-04
     8   -2.470021231531e-02
     9   -6.471302111168e-15
    10    3.584733390395e-01
    11   -1.391012711420e-01
    12   -5.694875754466e-02
    13   -3.716185437921e-14
    14   -3.498888712537e+00
    15   -1.018490487783e+00
    16   -3.387675708951e+00
    17    8.631976646242e-13
    18    2.189912592862e-03
    19    4.008537304526e-16
    20   -3.854234037854e-16
    21    2.651897777083e-03
    22    1.204133634922e-03
    23    1.117462460798e-02
    24    9.225078417561e-03
    25    2.957078556829e-01
    26    1.188042682533e+00
    27   -7.280881740256e-03
    28   -9.809003572259e-03
    29    4.699309422697e-15
    30   -1.889266859346e-03
    31   -1.284530569108e-03
    32   -4.188177972973e-01
    33   -3.931697766981e+00
    34   -3.252042566516e-03
    35    4.839665924971e-03
    36   -6.892298163911e-16
    37    1.041332844839e-02
    38    3.605412109954e-03
    39    2.368261889110e-01
    40    8.475077026358e-01
    41    6.333699353566e-03
    42    1.089513144419e-02
    43    5.104050490875e-15
    44   -1.035694407062e-03
    45   -1.523046172402e-03
    46    2.070247866681e-02
    47   -3.236277449105e-02
    48    4.726830868967e-14
    49   -2.525680092647e-03
    50    3.862227453865e-02
    51   -6.133620876482e-02
    52    7.949750267220e-14
    53   -1.216288740561e-01
    54    4.596431690950e-01
    55   -3.846330340156e-01
    56    2.634449614833e-13
    57    4.447804504774e+00
    58    3.353261489806e+00
    59   -2.058808453837e+00
    60    1.781459397885e-14
    61    1.165133453221e-02
    62    6.466286797000e-15
    63   -6.016516681913e-15
    64    1.111350226071e-02
    65   -1.080670686240e-02
    66   -1.509812686114e-02
    67   -2.683514402426e-02
    68   -7.874704008231e-03
    69    2.234118449442e-02
    70   -2.655397719936e-14
    71    9.232936541441e-02
    72   -1.573343060251e-02
    73    3.266296171734e-02
    74   -5.624749426175e-14
    75    2.576705022531e-01
    76    1.122960528922e-01
    77   -3.654108052109e-02
    78   -6.681400755448e-14
    79    1.399809423083e+00
    80    6.284412492900e-02
    81   -1.061837975546e-02
    82   -9.712259368147e-14
    83    2.284181497047e-03
    84   -4.193394869669e-16
    85   -3.856320156888e-15
    86   -2.501409774394e-03
    87    1.408682767515e-03
    88    6.655941443454e-03
    89    1.217930115186e-02
    90    1.429735396246e-02
    91    1.965144367988e-03
    92   -1.293916568278e-14
    93   -5.302285089760e-02
    94    2.806395219779e-02
    95    2.672091766322e-03
    96   -1.444018468848e-14
    97    1.068323670778e-01
    98    1.993039971201e-02
    99    8.362034187834e-02
   100    3.814764692910e-14
   101   -3.780894850162e+00
   102    7.155045992656e-01
   103    6.226289469257e-01
   104    2.889324234929e-13
   105    2.850533090588e-03
   106    2.794457956558e-15
   107    1.778447300138e-15
   108    5.929052637860e-03
   109   -4.177832527826e-03
   110    3.938230569649e-03
   111    6.682846132379e-03
   112    3.376788714218e-03
   113   -1.017469533381e-02
   114    3.169486476689e-15
   115   -1.968650653228e-02
   116    1.900740820496e-03
   117   -1.503148746073e-02
   118    3.567414307934e-14
   119   -6.417968915922e-02
   120    4.003731160620e-02
   121   -5.469370296369e-03
   122    2.669136698419e-15
   123   -1.530158440317e-01
   124   -6.249204151107e-02
   125   -1.341527892028e-02
   126   -2.142243354896e-14
   127    6.382308856984e-04
   128   -1.633265859426e-15
   129   -3.053480362637e-15
   130   -1.712718836905e-03
   131   -7.200351211880e-04
   132    7.239786054939e-03
   133    1.240728033849e-02
   134    9.610214860745e-03
   135   -1.916254634648e-02
   136   -2.427657196435e-14
   137   -3.804627187392e-02
   138    1.326205056198e-02
   139   -3.140528307527e-02
   140   -2.542291335342e-15
   141   -1.752621013601e-01
   142    2.522633709758e-02
   143    4.561686506036e-02
   144   -1.537542681742e-13
   145   -1.907810487388e+00
   146    6.233218272602e-02
   147    8.783389594031e-02
   148    6.018920247109e-14
   149    4.178931620941e-03
   150   -8.189742466207e-15
   151    1.303744336952e-15
   152   -8.147705083426e-03
   153    8.174216318965e-03
   154    1.492027731553e-02
   155    2.547380107128e-02
   156    1.264215272373e-02
   157    2.030753178501e-03
   158   -1.647020475162e-14
   159   -7.099873272276e-02
   160    2.074400259169e-02
   161    6.975815500852e-03
   162   -1.222219720580e-14
   163   -3.867477487470e-01
   164   -6.253217732560e-02
   165   -6.696583483832e-02
   166   -7.704023549951e-14
   167   -2.018030089198e+00
   168   -4.917094077498e-02
   169    5.145591261776e-02
   170   -3.091723670027e-13
   171    8.938907763331e-04
   172   -1.416786567996e-15
   173    8.763666538633e-15
   174   -4.127423054538e-03
   175    6.401727790595e-03
   176   -2.512677638522e-03
   177   -3.968928448540e-03
   178    1.666275550106e-02
   179   -1.399353815414e-02
   180    2.466970765430e-14
   181    6.889148858569e-03
   182    3.087204403631e-02
   183   -2.551507908917e-02
   184    2.952980911063e-14
   185    1.467605256277e-01
   186    1.479517162936e-02
   187   -5.605071237300e-03
   188    1.554850184320e-13
   189    7.891027510419e+00
   190   -5.518638709468e-01
   191    5.762778871333e-01
   192   -1.065730048363e-12
   193    4.327978410404e-03
   194   -1.523639624336e-15
   195   -1.519044759168e-15
   196    4.408258650071e-04
   197    5.583133517540e-03
   198    2.037108810423e-03
   199    1.921548721656e-02
   200   -2.229281026742e-01
   201   -1.042379516263e+00
   202   -3.406631150316e-03
   203    5.873546039828e-03
   204    1.594637938162e-15
[5D]
