n-62-23-30 10.66.23
Q-Chem Developer Version! Running on 10.66.23.*
                  Welcome to Q-Chem
     A Quantum Leap Into The Future Of Chemistry


 Q-Chem 5.1, Q-Chem, Inc., Pleasanton, CA (2018)

 Yihan Shao,  Zhengting Gan,  E. Epifanovsky,  A. T. B. Gilbert,  M. Wormit,  
 J. Kussmann,  A. W. Lange,  A. Behn,  Jia Deng,  Xintian Feng,  D. Ghosh,  
 M. Goldey,  P. R. Horn,  L. D. Jacobson,  I. Kaliman,  T. Kus,  A. Landau,  
 Jie Liu,  E. I. Proynov,  R. M. Richard,  R. P. Steele,  E. J. Sundstrom,  
 H. L. Woodcock III,  P. M. Zimmerman,  D. Zuev,  B. Albrecht,  E. Alguire,  
 S. A. Baeppler,  D. Barton,  Z. Benda,  Y. A. Bernard,  E. J. Berquist,  
 K. B. Bravaya,  H. Burton,  D. Casanova,  Chun-Min Chang,  Yunqing Chen,  
 A. Chien,  K. D. Closser,  M. P. Coons,  S. Coriani,  S. Dasgupta,  
 A. L. Dempwolff,  M. Diedenhofen,  Hainam Do,  R. G. Edgar,  Po-Tung Fang,  
 S. Faraji,  S. Fatehi,  Qingguo Feng,  K. D. Fenk,  J. Fosso-Tande,  
 Qinghui Ge,  A. Ghysels,  G. Gidofalvi,  J. Gomes,  J. Gonthier,  A. Gunina,  
 M. W. D. Hanson-Heine,  P. H. P. Harbach,  A. W. Hauser,  J. E. Herr,  
 E. G. Hohenstein,  Z. C. Holden,  Kerwin Hui,  T.-C. Jagau,  Hyunjun Ji,  
 B. Kaduk,  K. Khistyaev,  Jaehoon Kim,  P. Klunzinger,  K. Koh,  
 D. Kosenkov,  L. Koulias,  T. Kowalczyk,  C. M. Krauter,  A. Kunitsa,  
 Ka Un Lao,  A. Laurent,  K. V. Lawler,  Joonho Lee,  D. Lefrancois,  
 S. Lehtola,  D. S. Levine,  Yi-Pei Li,  You-Sheng Lin,  Fenglai Liu,  
 E. Livshits,  A. Luenser,  P. Manohar,  E. Mansoor,  S. F. Manzer,  
 Shan-Ping Mao,  Yuezhi Mao,  N. Mardirossian,  A. V. Marenich,  
 T. Markovich,  L. A. Martinez-Martinez,  S. A. Maurer,  N. J. Mayhall,  
 S. C. McKenzie,  J.-M. Mewes,  A. F. Morrison,  J. W. Mullinax,  K. Nanda,  
 T. S. Nguyen-Beck,  R. Olivares-Amaya,  J. A. Parkhill,  T. M. Perrine,  
 F. Plasser,  P. Pokhilko,  S. Prager,  A. Prociuk,  E. Ramos,  D. R. Rehn,  
 F. Rob,  M. Schneider,  N. Sergueev,  S. M. Sharada,  S. Sharma,  
 D. W. Small,  T. Stauch,  T. Stein,  Yu-Chuan Su,  A. J. W. Thom,  
 A. Tkatchenko,  T. Tsuchimochi,  N. M. Tubman,  L. Vogt,  M. L. Vidal,  
 O. Vydrov,  M. A. Watson,  J. Wenzel,  M. de Wergifosse,  T. A. Wesolowski,  
 A. White,  J. Witte,  A. Yamada,  Jun Yang,  K. Yao,  S. Yeganeh,  
 S. R. Yost,  Zhi-Qiang You,  A. Zech,  Igor Ying Zhang,  Xing Zhang,  
 Yan Zhao,  Ying Zhu,  B. R. Brooks,  G. K. L. Chan,  C. J. Cramer,  
 M. S. Gordon,  W. J. Hehre,  A. Klamt,  M. W. Schmidt,  C. D. Sherrill,  
 D. G. Truhlar,  A. Aspuru-Guzik,  R. Baer,  A. T. Bell,  N. A. Besley,  
 Jeng-Da Chai,  R. A. DiStasio Jr.,  A. Dreuw,  B. D. Dunietz,  
 T. R. Furlani,  Chao-Ping Hsu,  Yousung Jung,  Jing Kong,  D. S. Lambrecht,  
 WanZhen Liang,  C. Ochsenfeld,  V. A. Rassolov,  L. V. Slipchenko,  
 J. E. Subotnik,  T. Van Voorhis,  J. M. Herbert,  A. I. Krylov,  
 P. M. W. Gill,  M. Head-Gordon

 Contributors to earlier versions of Q-Chem not listed above: 
 R. D. Adamson,  B. Austin,  J. Baker,  G. J. O. Beran,  K. Brandhorst,  
 S. T. Brown,  E. F. C. Byrd,  A. K. Chakraborty,  C.-L. Cheng,  
 Siu Hung Chien,  D. M. Chipman,  D. L. Crittenden,  H. Dachsel,  
 R. J. Doerksen,  A. D. Dutoi,  L. Fusti-Molnar,  W. A. Goddard III,  
 A. Golubeva-Zadorozhnaya,  S. R. Gwaltney,  G. Hawkins,  A. Heyden,  
 S. Hirata,  G. Kedziora,  F. J. Keil,  C. Kelley,  Jihan Kim,  R. A. King,  
 R. Z. Khaliullin,  P. P. Korambath,  W. Kurlancheek,  A. M. Lee,  M. S. Lee,  
 S. V. Levchenko,  Ching Yeh Lin,  D. Liotard,  R. C. Lochan,  I. Lotan,  
 P. E. Maslen,  N. Nair,  D. P. O'Neill,  D. Neuhauser,  E. Neuscamman,  
 C. M. Oana,  R. Olson,  B. Peters,  R. Peverati,  P. A. Pieniazek,  
 Y. M. Rhee,  J. Ritchie,  M. A. Rohrdanz,  E. Rosta,  N. J. Russ,  
 H. F. Schaefer III,  N. E. Schultz,  N. Shenvi,  A. C. Simmonett,  A. Sodt,  
 D. Stuck,  K. S. Thanthiriwatte,  V. Vanovschi,  Tao Wang,  A. Warshel,  
 C. F. Williams,  Q. Wu,  X. Xu,  W. Zhang

 Please cite Q-Chem as follows:
 Y. Shao et al., Mol. Phys. 113, 184-215 (2015)
 DOI: 10.1080/00268976.2014.952696

 Q-Chem 5.1.0 for Intel X86 EM64T Linux

 Parts of Q-Chem use Armadillo 8.300.2 (Tropical Shenanigans).
 http://arma.sourceforge.net/

 Q-Chem begins on Fri Jun 15 17:42:37 2018  

Host: 
0

     Scratch files written to /work1/malop/qc_6447136.hnode2//

Checking the input file for inconsistencies... 	...done.

--------------------------------------------------------------
User input:
--------------------------------------------------------------
$comment 
NEXAFS VINYLFLUORIDE / aug-cc-pVTZ
Optimized geometry with CFour
$end

$molecule
0 1
C
Gh   1 nc2
F    2 fn3         1 fnc3
C    3 cf4         2 cfn4          1 dih4
H    4 hc5         1 hcc5          2 dih5
H    1 hc6         4 hcc6          3 dih6
H    1 hc7         4 hcc7          3 dih7

nc2         1.196145
fn3         1.174610
fnc3        159.355
cf4         1.342808
cfn4         18.424
dih4        180.000
hc5         1.080830
hcc5        125.835
dih5        180.000
hc6         1.080059
hcc6        121.377
dih6          0.000
hc7         1.078980
hcc7        118.942
dih7        180.000
$end

$rem
!    input_bohr = true
    jobtype = sp
    method = eom-ccsd
    cvs_ee_singlets    [5,5]
    basis = gen
    n_frozen_core = fc 
    cc_trans_prop = true
    EOM_DAVIDSON_MAXVECTORS = 1000
    eom_preconv_singles = true
    eom_davidson_convergence = 3
    eom_davidson_threshold = 00103
    !EOM_GPLMR_MSUBSIZE = 5
state_analysis = true
molden_format  = true
nto_pairs      = 4
pop_mulliken   = true
$end

$basis
C    0
S    8    1.000000
   8.23600000E+03    5.31000000E-04
   1.23500000E+03    4.10800000E-03
   2.80800000E+02    2.10870000E-02
   7.92700000E+01    8.18530000E-02
   2.55900000E+01    2.34817000E-01
   8.99700000E+00    4.34401000E-01
   3.31900000E+00    3.46129000E-01
   3.64300000E-01   -8.98300000E-03
S    8    1.000000
   8.23600000E+03   -1.13000000E-04
   1.23500000E+03   -8.78000000E-04
   2.80800000E+02   -4.54000000E-03
   7.92700000E+01   -1.81330000E-02
   2.55900000E+01   -5.57600000E-02
   8.99700000E+00   -1.26895000E-01
   3.31900000E+00   -1.70352000E-01
   3.64300000E-01    5.98684000E-01
S    1    1.000000
   9.05900000E-01    1.00000000E+00
S    1    1.000000
   1.28500000E-01    1.00000000E+00
P    3    1.000000
   1.87100000E+01    1.40310000E-02
   4.13300000E+00    8.68660000E-02
   1.20000000E+00    2.90216000E-01
P    1    1.000000
   3.82700000E-01    1.00000000E+00
P    1    1.000000
   1.20900000E-01    1.00000000E+00
D    1    1.000000
   1.09700000E+00    1.00000000E+00
D    1    1.000000
   3.18000000E-01    1.00000000E+00
F    1    1.000000
   7.61000000E-01    1.00000000E+00
S    1    1.000000
   4.40200000E-02    1.00000000E+00
P    1    1.000000
   3.56900000E-02    1.00000000E+00
D    1    1.000000
   1.00000000E-01    1.00000000E+00
F    1    1.000000
   2.68000000E-01    1.00000000E+00
****
C    0
S    8    1.000000
   8.23600000E+03    5.31000000E-04
   1.23500000E+03    4.10800000E-03
   2.80800000E+02    2.10870000E-02
   7.92700000E+01    8.18530000E-02
   2.55900000E+01    2.34817000E-01
   8.99700000E+00    4.34401000E-01
   3.31900000E+00    3.46129000E-01
   3.64300000E-01   -8.98300000E-03
S    8    1.000000
   8.23600000E+03   -1.13000000E-04
   1.23500000E+03   -8.78000000E-04
   2.80800000E+02   -4.54000000E-03
   7.92700000E+01   -1.81330000E-02
   2.55900000E+01   -5.57600000E-02
   8.99700000E+00   -1.26895000E-01
   3.31900000E+00   -1.70352000E-01
   3.64300000E-01    5.98684000E-01
S    1    1.000000
   9.05900000E-01    1.00000000E+00
S    1    1.000000
   1.28500000E-01    1.00000000E+00
P    3    1.000000
   1.87100000E+01    1.40310000E-02
   4.13300000E+00    8.68660000E-02
   1.20000000E+00    2.90216000E-01
P    1    1.000000
   3.82700000E-01    1.00000000E+00
P    1    1.000000
   1.20900000E-01    1.00000000E+00
D    1    1.000000
   1.09700000E+00    1.00000000E+00
D    1    1.000000
   3.18000000E-01    1.00000000E+00
F    1    1.000000
   7.61000000E-01    1.00000000E+00
S    1    1.000000
   4.40200000E-02    1.00000000E+00
P    1    1.000000
   3.56900000E-02    1.00000000E+00
D    1    1.000000
   1.00000000E-01    1.00000000E+00
F    1    1.000000
   2.68000000E-01    1.00000000E+00
****
F    0
S    8    1.000000
   1.95000000E+04    5.07000000E-04
   2.92300000E+03    3.92300000E-03
   6.64500000E+02    2.02000000E-02
   1.87500000E+02    7.90100000E-02
   6.06200000E+01    2.30439000E-01
   2.14200000E+01    4.32872000E-01
   7.95000000E+00    3.49964000E-01
   8.81500000E-01   -7.89200000E-03
S    8    1.000000
   1.95000000E+04   -1.17000000E-04
   2.92300000E+03   -9.12000000E-04
   6.64500000E+02   -4.71700000E-03
   1.87500000E+02   -1.90860000E-02
   6.06200000E+01   -5.96550000E-02
   2.14200000E+01   -1.40010000E-01
   7.95000000E+00   -1.76782000E-01
   8.81500000E-01    6.05043000E-01
S    1    1.000000
   2.25700000E+00    1.00000000E+00
S    1    1.000000
   3.04100000E-01    1.00000000E+00
P    3    1.000000
   4.38800000E+01    1.66650000E-02
   9.92600000E+00    1.04472000E-01
   2.93000000E+00    3.17260000E-01
P    1    1.000000
   9.13200000E-01    1.00000000E+00
P    1    1.000000
   2.67200000E-01    1.00000000E+00
D    1    1.000000
   3.10700000E+00    1.00000000E+00
D    1    1.000000
   8.55000000E-01    1.00000000E+00
F    1    1.000000
   1.91700000E+00    1.00000000E+00
S    1    1.000000
   9.15800000E-02    1.00000000E+00
P    1    1.000000
   7.36100000E-02    1.00000000E+00
D    1    1.000000
   2.92000000E-01    1.00000000E+00
F    1    1.000000
   7.24000000E-01    1.00000000E+00
****
H    0
S    3    1.000000
   3.38700000E+01    6.06800000E-03
   5.09500000E+00    4.53080000E-02
   1.15900000E+00    2.02822000E-01
S    1    1.000000
   3.25800000E-01    1.00000000E+00
S    1    1.000000
   1.02700000E-01    1.00000000E+00
P    1    1.000000
   1.40700000E+00    1.00000000E+00
P    1    1.000000
   3.88000000E-01    1.00000000E+00
D    1    1.000000
   1.05700000E+00    1.00000000E+00
S    1    1.000000
   2.52600000E-02    1.00000000E+00
P    1    1.000000
   1.02000000E-01    1.00000000E+00
D    1    1.000000
   2.47000000E-01    1.00000000E+00
****
H    0
S    3    1.000000
   3.38700000E+01    6.06800000E-03
   5.09500000E+00    4.53080000E-02
   1.15900000E+00    2.02822000E-01
S    1    1.000000
   3.25800000E-01    1.00000000E+00
S    1    1.000000
   1.02700000E-01    1.00000000E+00
P    1    1.000000
   1.40700000E+00    1.00000000E+00
P    1    1.000000
   3.88000000E-01    1.00000000E+00
D    1    1.000000
   1.05700000E+00    1.00000000E+00
S    1    1.000000
   2.52600000E-02    1.00000000E+00
P    1    1.000000
   1.02000000E-01    1.00000000E+00
D    1    1.000000
   2.47000000E-01    1.00000000E+00
****
H    0
S    3    1.000000
   3.38700000E+01    6.06800000E-03
   5.09500000E+00    4.53080000E-02
   1.15900000E+00    2.02822000E-01
S    1    1.000000
   3.25800000E-01    1.00000000E+00
S    1    1.000000
   1.02700000E-01    1.00000000E+00
P    1    1.000000
   1.40700000E+00    1.00000000E+00
P    1    1.000000
   3.88000000E-01    1.00000000E+00
D    1    1.000000
   1.05700000E+00    1.00000000E+00
S    1    1.000000
   2.52600000E-02    1.00000000E+00
P    1    1.000000
   1.02000000E-01    1.00000000E+00
D    1    1.000000
   2.47000000E-01    1.00000000E+00
****
Gh   0
S   1   1.00
        0.0058583805        1.0000000000
S   1   1.00
        0.0033459739        1.0000000000
S   1   1.00
        0.0020484225        1.0000000000
P   1   1.00
        0.0099882106        1.0000000000
P   1   1.00
        0.0056893607        1.0000000000
P   1   1.00
        0.0034756797        1.0000000000
D   1   1.00
        0.0142043987        1.0000000000
D   1   1.00
        0.0080765930        1.0000000000
D   1   1.00
        0.0049271863        1.0000000000
****
$end

--------------------------------------------------------------
 ----------------------------------------------------------------
             Standard Nuclear Orientation (Angstroms)
    I     Atom           X                Y                Z
 ----------------------------------------------------------------
    1      C       1.1793501531     0.1997297036     0.0000000000
    2      GH     -0.0000008629    -0.0000052260     0.0000000000
    3      F      -1.1529022759     0.2247768549    -0.0000000000
    4      C       0.0163188924    -0.4355678917     0.0000000000
    5      H      -0.1189529826    -1.5078994676    -0.0000000000
    6      H       1.2308255218     1.2785613540    -0.0000000000
    7      H       2.0902345342    -0.3786192262     0.0000000000
 ----------------------------------------------------------------
 Molecular Point Group                 Cs    NOp =  2
 Largest Abelian Subgroup              Cs    NOp =  2
 Nuclear Repulsion Energy =    67.5482146678 hartrees
 There are       12 alpha and       12 beta electrons

 Q-Chem warning in module forms1/BasisType.C, line 1685:

 Setting pure/cartesian flag to 2111 for general basis


 Requested basis set is non-standard
 There are 78 shells and 234 basis functions
 Total memory of 2000MB is distributed as follows: 
   QALLOC including MEM_STATIC uses 192MB
   MEM_STATIC is set to 192MB
   CCMAN JOB total memory use is  1808MB
 Warning: actual memory use might exceed 2000MB

 Total QAlloc Memory Limit    192 MB
 Mega-Array Size       188 MB
 MEM_STATIC part       192 MB

                       Distance Matrix (Angstroms)
             C (  1)   GH(  2)   F (  3)   C (  4)   H (  5)   H (  6)
   GH(  2)  1.196145
   F (  3)  2.332387  1.174610
   C (  4)  1.325234  0.435868  1.342808
   H (  5)  2.145131  1.512579  2.017726  1.080830
   H (  6)  1.080059  1.774730  2.606266  2.100777  3.096170
   H (  7)  1.078980  2.124249  3.298791  2.074697  2.481085  1.866770

 
 A cutoff of  1.0D-14 yielded   3078 shell pairs
 There are     27846 function pairs (     37167 Cartesian)
 Smallest overlap matrix eigenvalue = 1.44E-05

 Scale SEOQF with 1.000000e-02/1.000000e-02/1.000000e-02

 Standard Electronic Orientation quadrupole field applied
 Nucleus-field energy     =     0.0000000001 hartrees
 Guess MOs from core Hamiltonian diagonalization

 -----------------------------------------------------------------------
  General SCF calculation program by
  Eric Jon Sundstrom, Paul Horn, Yuezhi Mao, Dmitri Zuev, Alec White,
  David Stuck, Shaama M.S., Shane Yost, Joonho Lee, David Small,
  Daniel Levine, Susi Lehtola, Hugh Burton, Evgeny Epifanovsky
 -----------------------------------------------------------------------
 Hartree-Fock
 A restricted SCF calculation will be
 performed using DIIS
 SCF converges when DIIS error is below 1.0e-08
 ---------------------------------------
  Cycle       Energy         DIIS error
 ---------------------------------------
                                                                                                                                                                                                                                                                                                                                                                                                                                                                                                                                                                                                                                                                                                                                                                                                                                                                                                                                                                                                                                                                                                                                                                                                                                                                                                                                                                                                                                                                                                                                                                                                                                                                                                                                                                                                                                                                                                                                                                                                                                                                                                                                                                                                                                                                                                                                                                                                                                                                                                                                                                                                                                                                                                                                                                                                                                                                                                                                                                                                                                                                                                                                                                                                                                                                                                                                                                                                                                                                                                                                                                                                                                                                                                                                                                                                                                                                                                                                                                                                                                                                                                                                                                                                                                                                                                                                                                                                                                                                                                                                                                                                                                                                                                                                                                                                                                                                                                                                                                                                                                                                                                                                                                                                                                                                                                                                                                                                                                                                                                                                                                                                                                                                                                                                                                                                                                                                                                                                                                                                                                                                                                                                                                                                                                                                                                                                                                                                                                                                                                                                                                                                                                                                                                                                                                                                                                                                                                                                                                                                                                                                                                                                                                                                                                                                                                                                                                                                                                                                                                                                                                                                                                                                                                                                                                                                                                                                                                                                                                                                                                                                                                                                                                                                                                                                                                                                                                                                                                                                                                                                                                                                                                                                                                                                                                                                                                                                                                                                                                                                                                                                                                                                                                                                                                                                                                                                                                                                                                                                                                                                                                                                                                                                                                                                                                                                                                                                                                                                                                                                                                                                                                                                                                                                                                                                                                                                                                                                                                                                                                                                                                                                                                                                                                                                                                                                                                                                                                                                                                                                                                                                                                                                                                                                                                                                                                                                                                                                                                                                                                                                                                                                                                                                                                                                                                                                                                                                                                                                                                                                                                                           Import integrals:   CPU 217.84 s  wall 279.17 s

 MP2 amplitudes:   CPU 1.68 s  wall 4.63 s

           CCSD T amplitudes will be solved using DIIS.

           Start     Size      MaxIter   EConv     TConv     
           3         7         100       1.00e-06  1.00e-04  
 ------------------------------------------------------------------------------
           Energy (a.u.)   Ediff      Tdiff       Comment
 ------------------------------------------------------------------------------
          -177.54317037                           
     1    -177.54432868   1.16e-03   6.58e-01     Step took 02.52.
     2    -177.55900103   1.47e-02   7.60e-02     
     3    -177.55905467   5.36e-05   2.98e-02     
     4    -177.56048289   1.43e-03   1.08e-02     Switched to DIIS steps.
     5    -177.56100449   5.22e-04   8.62e-03     
     6    -177.56102067   1.62e-05   1.55e-03     
     7    -177.56101635   4.32e-06   6.62e-04     
     8    -177.56101546   8.91e-07   1.17e-04     
     9    -177.56101561   1.50e-07   4.46e-05     
 ------------------------------------------------------------------------------
          -177.56101561                           CCSD T converged.

 SCF energy                 = -176.95631975
 MP2 energy                 = -177.54317037
 CCSD correlation energy     =   -0.60469586
 CCSD total energy           = -177.56101561

 CCSD  T1^2 = 0.0056  T2^2 = 0.1758  Leading amplitudes:

 Amplitude    Orbitals with energies
  0.0175       1 (A") A                  ->    12 (A") A                  
              -0.6906                          0.1299                     
  0.0175       1 (A") B                  ->    12 (A") B                  
              -0.6906                          0.1299                     
  0.0141       2 (A") A                  ->    22 (A") A                  
              -0.3848                          0.5854                     
  0.0141       2 (A") B                  ->    22 (A") B                  
              -0.3848                          0.5854                     

 Amplitude    Orbitals with energies
 -0.0552       2 (A") A      2 (A") B    ->    12 (A") A     12 (A") B    
              -0.3848       -0.3848            0.1299        0.1299       
  0.0552       2 (A") A      2 (A") B    ->    12 (A") B     12 (A") A    
              -0.3848       -0.3848            0.1299        0.1299       
  0.0552       2 (A") B      2 (A") A    ->    12 (A") A     12 (A") B    
              -0.3848       -0.3848            0.1299        0.1299       
 -0.0552       2 (A") B      2 (A") A    ->    12 (A") B     12 (A") A    
              -0.3848       -0.3848            0.1299        0.1299       

 Computing CCSD intermediates for later calculations
 Finished.

           CCSD Lambda amplitudes will be solved using DIIS.
           Start     Size      MaxIter   EConv     LConv     
           3         7         100       1.00e-06  1.00e-04  
 ------------------------------------------------------------------------------
            Enorm      Ldiff       Comment
 ------------------------------------------------------------------------------
     1     3.96e-02   2.65e-02     
     2     1.13e-02   4.49e-03     
     3     4.39e-03   6.20e-04     
     4     2.12e-03   6.83e-04     Switched to DIIS steps.
     5     5.30e-04   3.59e-04     
     6     2.38e-04   6.83e-05     
     7     6.87e-05   1.60e-05     
     8     2.99e-05   2.02e-07     
     9     1.07e-05   2.26e-06     
    10     4.19e-06   8.40e-07     
    11     1.65e-06   2.29e-07     
    12     4.82e-07   1.40e-07     
 ------------------------------------------------------------------------------
                                   CCSD Lambda converged.

 CCSD calculation:   CPU 2909.67 s  wall 5616.30 s

        Solving for CVS-EOMEE-CCSD A' singlet states.

       EOMEE-CCSD-SINGLES right amplitudes will be solved using Davidson.
      Amplitudes will be solved using standard  algorithm
      Roots     MaxVec    MaxIter   Precond   Conv      Thresh    Shift    
      5         1000      60        1         1.00e-03  1.00e-103 0.00e+00  
 ------------------------------------------------------------------------------
      Iter ConvRoots NVecs ResNorm Current eigenvalues (eV)
 ------------------------------------------------------------------------------
      0    4      5     4.16e-04   303.4471   304.1322*  304.1938*  304.3610*  304.5028*  
      1    2      6     2.28e-02   302.1438   304.0826   304.1362   304.1939*  304.3614*  
      2    3      9     1.76e-03   300.6605   303.2286   303.7021*  304.1752*  304.3595*  
      3    2      11    5.16e-03   300.2674   302.1376   303.2558   303.9366*  304.1725*  
      4    2      14    2.88e-03   300.2097*  300.8901   303.0744   303.5013*  304.0842   
      5    2      17    1.37e-03   300.1853*  300.4513*  302.8774   303.3501   303.5173   
      6    4      20    6.65e-04   300.1837*  300.4279*  302.8096*  302.9549   303.3602*  
      7    5      21    5.13e-04   300.1828*  300.4230*  302.8031*  302.8743*  303.3526*  

     Davidson procedure converged

        CVS-EOMEE-CCSD/MP2 right amplitudes will be solved using Davidson.
      Amplitudes will be solved using standard  algorithm
      Roots     MaxVec    MaxIter   Precond   Conv      Thresh    Shift    
      5         1000      60        1         1.00e-03  1.00e-103 0.00e+00  
 ------------------------------------------------------------------------------
      Iter ConvRoots NVecs ResNorm Current eigenvalues (eV)
 ------------------------------------------------------------------------------
      0    0      5     1.72e+00   300.1828   300.4230   302.8031   302.8743   303.3526   
      1    0      10    1.08e+00   296.7201   297.0303   298.9850   299.0852   299.5752   
      2    0      15    5.05e-02   288.3356   289.0921   289.4964   290.2198   290.6534   
      3    0      20    1.30e-02   287.9116   288.6242   289.0906   289.6618   290.1040   
      4    0      25    3.35e-03   287.8454   288.5228   289.0575   289.5227   289.9814   
      5    1      30    2.90e-03   287.8174   288.4662   289.0379*  289.4374   289.9121   
      6    2      34    1.55e-03   287.8039*  288.4344   289.0323*  289.3760   289.8589   
      7    3      37    1.34e-03   287.7987*  288.4120*  289.0257*  289.3328   289.8112   
      8    4      39    7.60e-04   287.7978*  288.4110*  289.0218*  289.3157*  289.7848   
      9    4      40    7.38e-04   287.7978*  288.4109*  289.0215*  289.3156*  289.7645   
      10   5      41    6.11e-04   287.7979*  288.4109*  289.0212*  289.3152*  289.7506*  

     Davidson procedure converged

 EOMEE transition 1/A'
 Total energy = -166.98463892 a.u.  Excitation energy = 287.7978 eV.
 R0^2 = 0.0000  R1^2 = 0.8165  R2_CCVV^2 = 0.0016  R2_COVV^2 = 0.0909  Res^2 = 1.28e-04
 Conv-d = yes

 Amplitude    Transitions between orbitals
  0.3303       3 (A') A                  ->    26 (A') A                  
  0.3303       3 (A') B                  ->    26 (A') B                  
 -0.2949       3 (A') A                  ->    20 (A') A                  
 -0.2949       3 (A') B                  ->    20 (A') B                  
 -0.2145       3 (A') A                  ->    14 (A') A                  
 -0.2145       3 (A') B                  ->    14 (A') B                  
 -0.1832       3 (A') A                  ->    35 (A') A                  
 -0.1832       3 (A') B                  ->    35 (A') B                  
  0.1369       3 (A') A                  ->    19 (A') A                  
  0.1369       3 (A') B                  ->    19 (A') B                  
  0.1366       3 (A') A                  ->    25 (A') A                  
  0.1366       3 (A') B                  ->    25 (A') B                  
  0.1273       3 (A') A                  ->    11 (A') A                  
  0.1273       3 (A') B                  ->    11 (A') B                  

              Summary of significant orbitals:

               Number  Type             Irrep      Energy
               3       Occ  Alpha       3 (A')    -11.2367
               3       Occ  Beta        3 (A')    -11.2367
               13      Vir  Alpha      11 (A')      0.0020
               17      Vir  Alpha      14 (A')      0.0096
               24      Vir  Alpha      19 (A')      0.0204
               26      Vir  Alpha      20 (A')      0.0272
               33      Vir  Alpha      25 (A')      0.0497
               35      Vir  Alpha      26 (A')      0.0735
               48      Vir  Alpha      35 (A')      0.1860
               13      Vir  Beta       11 (A')      0.0020
               17      Vir  Beta       14 (A')      0.0096
               24      Vir  Beta       19 (A')      0.0204
               26      Vir  Beta       20 (A')      0.0272
               33      Vir  Beta       25 (A')      0.0497
               35      Vir  Beta       26 (A')      0.0735
               48      Vir  Beta       35 (A')      0.1860


 EOMEE transition 2/A'
 Total energy = -166.96211058 a.u.  Excitation energy = 288.4109 eV.
 R0^2 = 0.0000  R1^2 = 0.8179  R2_CCVV^2 = 0.0016  R2_COVV^2 = 0.0902  Res^2 = 8.44e-04
 Conv-d = yes

 Amplitude    Transitions between orbitals
 -0.3069       3 (A') A                  ->    24 (A') A                  
 -0.3069       3 (A') B                  ->    24 (A') B                  
 -0.2877       3 (A') A                  ->    31 (A') A                  
 -0.2877       3 (A') B                  ->    31 (A') B                  
 -0.2259       3 (A') A                  ->    18 (A') A                  
 -0.2259       3 (A') B                  ->    18 (A') B                  
  0.1558       3 (A') A                  ->    39 (A') A                  
  0.1558       3 (A') B                  ->    39 (A') B                  
 -0.1541       3 (A') A                  ->    35 (A') A                  
 -0.1541       3 (A') B                  ->    35 (A') B                  
 -0.1506       3 (A') A                  ->    36 (A') A                  
 -0.1506       3 (A') B                  ->    36 (A') B                  
  0.1175       3 (A') A                  ->    37 (A') A                  
  0.1175       3 (A') B                  ->    37 (A') B                  
  0.1122       3 (A') A                  ->    30 (A') A                  
  0.1122       3 (A') B                  ->    30 (A') B                  
 -0.1030       3 (A') A                  ->    48 (A') A                  
 -0.1030       3 (A') B                  ->    48 (A') B                  
  0.1002       3 (A') A                  ->    12 (A') A                  
  0.1002       3 (A') B                  ->    12 (A') B                  

              Summary of significant orbitals:

               Number  Type             Irrep      Energy
               3       Occ  Alpha       3 (A')    -11.2367
               3       Occ  Beta        3 (A')    -11.2367
               14      Vir  Alpha      12 (A')      0.0058
               23      Vir  Alpha      18 (A')      0.0191
               32      Vir  Alpha      24 (A')      0.0459
               41      Vir  Alpha      30 (A')      0.0928
               42      Vir  Alpha      31 (A')      0.0961
               48      Vir  Alpha      35 (A')      0.1860
               49      Vir  Alpha      36 (A')      0.1916
               51      Vir  Alpha      37 (A')      0.2138
               53      Vir  Alpha      39 (A')      0.2559
               67      Vir  Alpha      48 (A')      0.4219
               14      Vir  Beta       12 (A')      0.0058
               23      Vir  Beta       18 (A')      0.0191
               32      Vir  Beta       24 (A')      0.0459
               41      Vir  Beta       30 (A')      0.0928
               42      Vir  Beta       31 (A')      0.0961
               48      Vir  Beta       35 (A')      0.1860
               49      Vir  Beta       36 (A')      0.1916
               51      Vir  Beta       37 (A')      0.2138
               53      Vir  Beta       39 (A')      0.2559
               67      Vir  Beta       48 (A')      0.4219


 EOMEE transition 3/A'
 Total energy = -166.93968141 a.u.  Excitation energy = 289.0212 eV.
 R0^2 = 0.0000  R1^2 = 0.8075  R2_CCVV^2 = 0.0016  R2_COVV^2 = 0.0955  Res^2 = 7.69e-04
 Conv-d = yes

 Amplitude    Transitions between orbitals
  0.2707       3 (A') A                  ->    25 (A') A                  
  0.2707       3 (A') B                  ->    25 (A') B                  
  0.2339       3 (A') A                  ->    19 (A') A                  
  0.2339       3 (A') B                  ->    19 (A') B                  
  0.1801       3 (A') A                  ->    20 (A') A                  
  0.1801       3 (A') B                  ->    20 (A') B                  
 -0.1797       3 (A') A                  ->    26 (A') A                  
 -0.1797       3 (A') B                  ->    26 (A') B                  
 -0.1704       3 (A') A                  ->    29 (A') A                  
 -0.1704       3 (A') B                  ->    29 (A') B                  
 -0.1681       3 (A') A                  ->    32 (A') A                  
 -0.1681       3 (A') B                  ->    32 (A') B                  
  0.1438       3 (A') A                  ->    30 (A') A                  
  0.1438       3 (A') B                  ->    30 (A') B                  
 -0.1277       3 (A') A                  ->    13 (A') A                  
 -0.1277       3 (A') B                  ->    13 (A') B                  
 -0.1260       3 (A') A                  ->    23 (A') A                  
 -0.1260       3 (A') B                  ->    23 (A') B                  
 -0.1214       3 (A') A                  ->    36 (A') A                  
 -0.1214       3 (A') B                  ->    36 (A') B                  
 -0.1007       3 (A') A                  ->    37 (A') A                  
 -0.1007       3 (A') B                  ->    37 (A') B                  

              Summary of significant orbitals:

               Number  Type             Irrep      Energy
               3       Occ  Alpha       3 (A')    -11.2367
               3       Occ  Beta        3 (A')    -11.2367
               15      Vir  Alpha      13 (A')      0.0061
               24      Vir  Alpha      19 (A')      0.0204
               26      Vir  Alpha      20 (A')      0.0272
               30      Vir  Alpha      23 (A')      0.0373
               33      Vir  Alpha      25 (A')      0.0497
               35      Vir  Alpha      26 (A')      0.0735
               39      Vir  Alpha      29 (A')      0.0846
               41      Vir  Alpha      30 (A')      0.0928
               43      Vir  Alpha      32 (A')      0.1238
               49      Vir  Alpha      36 (A')      0.1916
               51      Vir  Alpha      37 (A')      0.2138
               15      Vir  Beta       13 (A')      0.0061
               24      Vir  Beta       19 (A')      0.0204
               26      Vir  Beta       20 (A')      0.0272
               30      Vir  Beta       23 (A')      0.0373
               33      Vir  Beta       25 (A')      0.0497
               35      Vir  Beta       26 (A')      0.0735
               39      Vir  Beta       29 (A')      0.0846
               41      Vir  Beta       30 (A')      0.0928
               43      Vir  Beta       32 (A')      0.1238
               49      Vir  Beta       36 (A')      0.1916
               51      Vir  Beta       37 (A')      0.2138


 EOMEE transition 4/A'
 Total energy = -166.92887841 a.u.  Excitation energy = 289.3152 eV.
 R0^2 = 0.0000  R1^2 = 0.8108  R2_CCVV^2 = 0.0016  R2_COVV^2 = 0.0938  Res^2 = 8.17e-04
 Conv-d = yes

 Amplitude    Transitions between orbitals
  0.2557       3 (A') A                  ->    33 (A') A                  
  0.2557       3 (A') B                  ->    33 (A') B                  
  0.2209       3 (A') A                  ->    28 (A') A                  
  0.2209       3 (A') B                  ->    28 (A') B                  
 -0.1759       3 (A') A                  ->    18 (A') A                  
 -0.1759       3 (A') B                  ->    18 (A') B                  
  0.1679       3 (A') A                  ->    41 (A') A                  
  0.1679       3 (A') B                  ->    41 (A') B                  
  0.1651       3 (A') A                  ->    38 (A') A                  
  0.1651       3 (A') B                  ->    38 (A') B                  
  0.1542       3 (A') A                  ->    22 (A') A                  
  0.1542       3 (A') B                  ->    22 (A') B                  
 -0.1404       3 (A') A                  ->    39 (A') A                  
 -0.1404       3 (A') B                  ->    39 (A') B                  
  0.1393       3 (A') A                  ->    35 (A') A                  
  0.1393       3 (A') B                  ->    35 (A') B                  
 -0.1388       3 (A') A                  ->    24 (A') A                  
 -0.1388       3 (A') B                  ->    24 (A') B                  
 -0.1176       3 (A') A                  ->    27 (A') A                  
 -0.1176       3 (A') B                  ->    27 (A') B                  
  0.1137       3 (A') A                  ->    12 (A') A                  
  0.1137       3 (A') B                  ->    12 (A') B                  
  0.1067       3 (A') A                  ->    36 (A') A                  
  0.1067       3 (A') B                  ->    36 (A') B                  

              Summary of significant orbitals:

               Number  Type             Irrep      Energy
               3       Occ  Alpha       3 (A')    -11.2367
               3       Occ  Beta        3 (A')    -11.2367
               14      Vir  Alpha      12 (A')      0.0058
               23      Vir  Alpha      18 (A')      0.0191
               28      Vir  Alpha      22 (A')      0.0361
               32      Vir  Alpha      24 (A')      0.0459
               37      Vir  Alpha      27 (A')      0.0801
               38      Vir  Alpha      28 (A')      0.0816
               45      Vir  Alpha      33 (A')      0.1467
               48      Vir  Alpha      35 (A')      0.1860
               49      Vir  Alpha      36 (A')      0.1916
               52      Vir  Alpha      38 (A')      0.2333
               53      Vir  Alpha      39 (A')      0.2559
               57      Vir  Alpha      41 (A')      0.2951
               14      Vir  Beta       12 (A')      0.0058
               23      Vir  Beta       18 (A')      0.0191
               28      Vir  Beta       22 (A')      0.0361
               32      Vir  Beta       24 (A')      0.0459
               37      Vir  Beta       27 (A')      0.0801
               38      Vir  Beta       28 (A')      0.0816
               45      Vir  Beta       33 (A')      0.1467
               48      Vir  Beta       35 (A')      0.1860
               49      Vir  Beta       36 (A')      0.1916
               52      Vir  Beta       38 (A')      0.2333
               53      Vir  Beta       39 (A')      0.2559
               57      Vir  Beta       41 (A')      0.2951


 EOMEE transition 5/A'
 Total energy = -166.91287784 a.u.  Excitation energy = 289.7506 eV.
 R0^2 = 0.0000  R1^2 = 0.8109  R2_CCVV^2 = 0.0016  R2_COVV^2 = 0.0938  Res^2 = 4.95e-04
 Conv-d = yes

 Amplitude    Transitions between orbitals
 -0.2407       3 (A') A                  ->    11 (A') A                  
 -0.2407       3 (A') B                  ->    11 (A') B                  
  0.2403       3 (A') A                  ->    14 (A') A                  
  0.2403       3 (A') B                  ->    14 (A') B                  
 -0.2339       3 (A') A                  ->    29 (A') A                  
 -0.2339       3 (A') B                  ->    29 (A') B                  
 -0.1942       3 (A') A                  ->    19 (A') A                  
 -0.1942       3 (A') B                  ->    19 (A') B                  
  0.1908       3 (A') A                  ->    13 (A') A                  
  0.1908       3 (A') B                  ->    13 (A') B                  
  0.1804       3 (A') A                  ->    38 (A') A                  
  0.1804       3 (A') B                  ->    38 (A') B                  
  0.1522       3 (A') A                  ->    26 (A') A                  
  0.1522       3 (A') B                  ->    26 (A') B                  
 -0.1284       3 (A') A                  ->    35 (A') A                  
 -0.1284       3 (A') B                  ->    35 (A') B                  

              Summary of significant orbitals:

               Number  Type             Irrep      Energy
               3       Occ  Alpha       3 (A')    -11.2367
               3       Occ  Beta        3 (A')    -11.2367
               13      Vir  Alpha      11 (A')      0.0020
               15      Vir  Alpha      13 (A')      0.0061
               17      Vir  Alpha      14 (A')      0.0096
               24      Vir  Alpha      19 (A')      0.0204
               35      Vir  Alpha      26 (A')      0.0735
               39      Vir  Alpha      29 (A')      0.0846
               48      Vir  Alpha      35 (A')      0.1860
               52      Vir  Alpha      38 (A')      0.2333
               13      Vir  Beta       11 (A')      0.0020
               15      Vir  Beta       13 (A')      0.0061
               17      Vir  Beta       14 (A')      0.0096
               24      Vir  Beta       19 (A')      0.0204
               35      Vir  Beta       26 (A')      0.0735
               39      Vir  Beta       29 (A')      0.0846
               48      Vir  Beta       35 (A')      0.1860
               52      Vir  Beta       38 (A')      0.2333


      CVS-EOM-CCSD/MP2 left amplitudes will be solved using Davidson.
      Amplitudes will be solved using MOM  algorithm
      Roots     MaxVec    MaxIter   Precond   Conv      Thresh    Shift    
      5         1000      60        1         1.00e-03  1.00e-103 0.00e+00  
 ------------------------------------------------------------------------------
      Iter ConvRoots NVecs ResNorm Current eigenvalues (eV)
 ------------------------------------------------------------------------------
      0    0      5     2.51e-02   287.7979   288.4109   289.0212   289.3152   289.7506   
      1    0      10    2.31e-02   287.7961   288.4058   289.0105   289.3086   289.7447   
      2    3      15    9.00e-04   287.7970*  288.4096*  289.0128   289.3086   289.7474*  
      3    5      17    5.89e-04   287.7970*  288.4093*  289.0089*  289.3044*  289.7473*  

     Davidson procedure converged

 Excited state properties for  CVS-EOMEE-CCSD transition 1/A'
 Dipole moment (a.u.): 1.674360 (X -1.580875, Y 0.551648, Z 0.000000)
 R-squared (a.u.): 189.942688 (XX 124.585517, YY 42.215334, ZZ 23.141837)

State OPDM analysis using libwa module will be excecuted
Created directory /work1/malop/qc_6447074.hnode2/plots
 NOs
   Occupation of frontier NOs:
      0.0052   0.0071   0.0103   0.9861   1.0074   1.9904   1.9929   1.9944
   Number of electrons: 24.000000
   Number of unpaired electrons: n_u =  2.03744, n_u,nl =  2.00129
   NO participation ratio (PR_NO):  2.119973
 
 Mulliken Population Analysis
 Atom      Charge (e)
 --------------------
 1  C        0.048287
 2 GH       -0.079543
 3  F       -0.292378
 4  C        0.103211
 5  H        0.674214
 6  H       -0.006077
 7  H       -0.447715
 --------------------
 Sum:       -0.000000
 

 Excited state properties for  CVS-EOMEE-CCSD transition 2/A'
 Dipole moment (a.u.): 1.779020 (X -0.315374, Y -1.750843, Z 0.000000)
 R-squared (a.u.): 187.798723 (XX 114.352784, YY 53.958239, ZZ 19.487700)

State OPDM analysis using libwa module will be excecuted
 NOs
   Occupation of frontier NOs:
      0.0053   0.0087   0.0098   0.9912   1.0031   1.9902   1.9928   1.9944
   Number of electrons: 24.000000
   Number of unpaired electrons: n_u =  2.04839, n_u,nl =  2.00204
   NO participation ratio (PR_NO):  2.122422
 
 Mulliken Population Analysis
 Atom      Charge (e)
 --------------------
 1  C        0.101969
 2 GH       -0.072902
 3  F       -0.278279
 4  C       -0.192226
 5  H        0.597206
 6  H       -0.348468
 7  H        0.192699
 --------------------
 Sum:       -0.000000
 

 Excited state properties for  CVS-EOMEE-CCSD transition 3/A'
 Dipole moment (a.u.): 1.018561 (X 1.017598, Y -0.044274, Z 0.000000)
 R-squared (a.u.): 207.675764 (XX 130.977031, YY 43.415419, ZZ 33.283315)

State OPDM analysis using libwa module will be excecuted
 NOs
   Occupation of frontier NOs:
      0.0079   0.0102   0.0135   0.9937   1.0004   1.9922   1.9939   1.9946
   Number of electrons: 24.000000
   Number of unpaired electrons: n_u =  2.04831, n_u,nl =  2.00399
   NO participation ratio (PR_NO):  2.110800
 
 Mulliken Population Analysis
 Atom      Charge (e)
 --------------------
 1  C        0.075759
 2 GH       -0.265041
 3  F       -0.331216
 4  C        0.068364
 5  H        0.274823
 6  H        0.041139
 7  H        0.136172
 --------------------
 Sum:       -0.000000
 

 Excited state properties for  CVS-EOMEE-CCSD transition 4/A'
 Dipole moment (a.u.): 1.051644 (X 0.052704, Y 1.050323, Z 0.000000)
 R-squared (a.u.): 197.671595 (XX 120.214442, YY 54.627598, ZZ 22.829555)

State OPDM analysis using libwa module will be excecuted
 NOs
   Occupation of frontier NOs:
      0.0084   0.0095   0.0158   0.9936   1.0000   1.9921   1.9931   1.9937
   Number of electrons: 24.000000
   Number of unpaired electrons: n_u =  2.05932, n_u,nl =  2.00469
   NO participation ratio (PR_NO):  2.132841
 
 Mulliken Population Analysis
 Atom      Charge (e)
 --------------------
 1  C        0.597262
 2 GH       -0.372965
 3  F       -0.277931
 4  C       -0.778132
 5  H        0.716289
 6  H        0.143042
 7  H       -0.027565
 --------------------
 Sum:       -0.000000
 

 Excited state properties for  CVS-EOMEE-CCSD transition 5/A'
 Dipole moment (a.u.): 3.060574 (X -2.764001, Y 1.314312, Z 0.000000)
 R-squared (a.u.): 277.668253 (XX 157.388141, YY 69.737570, ZZ 50.542541)

State OPDM analysis using libwa module will be excecuted
 NOs
   Occupation of frontier NOs:
      0.0057   0.0091   0.0100   0.9927   1.0047   1.9911   1.9932   1.9944
   Number of electrons: 24.000000
   Number of unpaired electrons: n_u =  2.04090, n_u,nl =  2.00205
   NO participation ratio (PR_NO):  2.107315
 
 Mulliken Population Analysis
 Atom      Charge (e)
 --------------------
 1  C       -0.089954
 2 GH       -0.803379
 3  F       -0.311964
 4  C        0.220321
 5  H        0.388482
 6  H        0.112762
 7  H        0.483732
 --------------------
 Sum:       -0.000000
 

        Solving for CVS-EOMEE-CCSD A" singlet states.

       EOMEE-CCSD-SINGLES right amplitudes will be solved using Davidson.
      Amplitudes will be solved using standard  algorithm
      Roots     MaxVec    MaxIter   Precond   Conv      Thresh    Shift    
      5         1000      60        1         1.00e-03  1.00e-103 0.00e+00  
 ------------------------------------------------------------------------------
      Iter ConvRoots NVecs ResNorm Current eigenvalues (eV)
 ------------------------------------------------------------------------------
      0    5      5     3.21e-04   303.6736*  304.0872*  304.3490*  304.5046*  304.7024*  

     Davidson procedure converged

        CVS-EOMEE-CCSD/MP2 right amplitudes will be solved using Davidson.
      Amplitudes will be solved using standard  algorithm
      Roots     MaxVec    MaxIter   Precond   Conv      Thresh    Shift    
      5         1000      60        1         1.00e-03  1.00e-103 0.00e+00  
 ------------------------------------------------------------------------------
      Iter ConvRoots NVecs ResNorm Current eigenvalues (eV)
 ------------------------------------------------------------------------------
      0    0      5     1.73e+00   303.6736   304.0872   304.3490   304.5046   304.7024   
      1    0      10    1.16e+00   299.8841   300.2904   300.5570   300.7142   300.9087   
      2    0      15    5.52e-02   290.2600   290.6359   290.9402   291.1078   291.2821   
      3    0      20    2.81e-03   289.7984   290.1983   290.5197   290.6809   290.8455   
      4    0      25    3.58e-03   289.7534   290.1560   290.5024   290.6611   290.8156   
      5    0      30    3.59e-02   289.1200   289.6566   290.4814   290.5022   290.6320   
      6    0      35    1.48e-02   286.9972   289.2225   290.2928   290.4268   290.4389   
      7    0      40    7.72e-03   286.2376   289.0449   290.1918   290.2501   290.3086   
      8    1      45    6.46e-03   285.7107   289.0117   290.1015   290.1958   290.2842*  
      9    2      49    1.53e-03   285.4661   288.9911*  290.0517   290.1183   290.2696*  
      10   5      52    5.98e-04   285.4413*  288.9903*  290.0186*  290.0975*  290.2691*  

     Davidson procedure converged

 EOMEE transition 1/A"
 Total energy = -167.07124051 a.u.  Excitation energy = 285.4413 eV.
 R0^2 = 0.0000  R1^2 = 0.8297  R2_CCVV^2 = 0.0017  R2_COVV^2 = 0.0843  Res^2 = 3.81e-04
 Conv-d = yes

 Amplitude    Transitions between orbitals
 -0.4682       3 (A') A                  ->    12 (A") A                  
 -0.4682       3 (A') B                  ->    12 (A") B                  
 -0.3590       3 (A') A                  ->    14 (A") A                  
 -0.3590       3 (A') B                  ->    14 (A") B                  
  0.1738       3 (A') A                  ->    10 (A") A                  
  0.1738       3 (A') B                  ->    10 (A") B                  

              Summary of significant orbitals:

               Number  Type             Irrep      Energy
               3       Occ  Alpha       3 (A')    -11.2367
               3       Occ  Beta        3 (A')    -11.2367
               36      Vir  Alpha      10 (A")      0.0792
               44      Vir  Alpha      12 (A")      0.1299
               50      Vir  Alpha      14 (A")      0.2111
               36      Vir  Beta       10 (A")      0.0792
               44      Vir  Beta       12 (A")      0.1299
               50      Vir  Beta       14 (A")      0.2111


 EOMEE transition 2/A"
 Total energy = -166.94081848 a.u.  Excitation energy = 288.9903 eV.
 R0^2 = 0.0000  R1^2 = 0.8101  R2_CCVV^2 = 0.0016  R2_COVV^2 = 0.0942  Res^2 = 5.91e-04
 Conv-d = yes

 Amplitude    Transitions between orbitals
  0.4139       3 (A') A                  ->    9 (A") A                   
  0.4139       3 (A') B                  ->    9 (A") B                   
 -0.3291       3 (A') A                  ->    6 (A") A                   
 -0.3291       3 (A') B                  ->    6 (A") B                   
  0.2508       3 (A') A                  ->    13 (A") A                  
  0.2508       3 (A') B                  ->    13 (A") B                  
 -0.1630       3 (A') A                  ->    3 (A") A                   
 -0.1630       3 (A') B                  ->    3 (A") B                   

              Summary of significant orbitals:

               Number  Type             Irrep      Energy
               3       Occ  Alpha       3 (A')    -11.2367
               3       Occ  Beta        3 (A')    -11.2367
               16      Vir  Alpha       3 (A")      0.0063
               25      Vir  Alpha       6 (A")      0.0210
               34      Vir  Alpha       9 (A")      0.0524
               46      Vir  Alpha      13 (A")      0.1504
               16      Vir  Beta        3 (A")      0.0063
               25      Vir  Beta        6 (A")      0.0210
               34      Vir  Beta        9 (A")      0.0524
               46      Vir  Beta       13 (A")      0.1504


 EOMEE transition 3/A"
 Total energy = -166.90302848 a.u.  Excitation energy = 290.0186 eV.
 R0^2 = 0.0000  R1^2 = 0.8063  R2_CCVV^2 = 0.0016  R2_COVV^2 = 0.0961  Res^2 = 7.58e-04
 Conv-d = yes

 Amplitude    Transitions between orbitals
  0.3649       3 (A') A                  ->    7 (A") A                   
  0.3649       3 (A') B                  ->    7 (A") B                   
  0.2790       3 (A') A                  ->    4 (A") A                   
  0.2790       3 (A') B                  ->    4 (A") B                   
 -0.2738       3 (A') A                  ->    8 (A") A                   
 -0.2738       3 (A') B                  ->    8 (A") B                   
 -0.2349       3 (A') A                  ->    10 (A") A                  
 -0.2349       3 (A') B                  ->    10 (A") B                  
 -0.1819       3 (A') A                  ->    5 (A") A                   
 -0.1819       3 (A') B                  ->    5 (A") B                   
 -0.1055       3 (A') A                  ->    11 (A") A                  
 -0.1055       3 (A') B                  ->    11 (A") B                  

              Summary of significant orbitals:

               Number  Type             Irrep      Energy
               3       Occ  Alpha       3 (A')    -11.2367
               3       Occ  Beta        3 (A')    -11.2367
               20      Vir  Alpha       4 (A")      0.0130
               22      Vir  Alpha       5 (A")      0.0133
               29      Vir  Alpha       7 (A")      0.0362
               31      Vir  Alpha       8 (A")      0.0376
               36      Vir  Alpha      10 (A")      0.0792
               40      Vir  Alpha      11 (A")      0.0862
               20      Vir  Beta        4 (A")      0.0130
               22      Vir  Beta        5 (A")      0.0133
               29      Vir  Beta        7 (A")      0.0362
               31      Vir  Beta        8 (A")      0.0376
               36      Vir  Beta       10 (A")      0.0792
               40      Vir  Beta       11 (A")      0.0862


 EOMEE transition 4/A"
 Total energy = -166.90012671 a.u.  Excitation energy = 290.0975 eV.
 R0^2 = 0.0000  R1^2 = 0.8055  R2_CCVV^2 = 0.0016  R2_COVV^2 = 0.0965  Res^2 = 5.53e-04
 Conv-d = yes

 Amplitude    Transitions between orbitals
  0.3802       3 (A') A                  ->    8 (A") A                   
  0.3802       3 (A') B                  ->    8 (A") B                   
  0.3063       3 (A') A                  ->    5 (A") A                   
  0.3063       3 (A') B                  ->    5 (A") B                   
  0.2458       3 (A') A                  ->    7 (A") A                   
  0.2458       3 (A') B                  ->    7 (A") B                   
  0.1773       3 (A') A                  ->    11 (A") A                  
  0.1773       3 (A') B                  ->    11 (A") B                  
  0.1667       3 (A') A                  ->    4 (A") A                   
  0.1667       3 (A') B                  ->    4 (A") B                   
 -0.1212       3 (A') A                  ->    10 (A") A                  
 -0.1212       3 (A') B                  ->    10 (A") B                  

              Summary of significant orbitals:

               Number  Type             Irrep      Energy
               3       Occ  Alpha       3 (A')    -11.2367
               3       Occ  Beta        3 (A')    -11.2367
               20      Vir  Alpha       4 (A")      0.0130
               22      Vir  Alpha       5 (A")      0.0133
               29      Vir  Alpha       7 (A")      0.0362
               31      Vir  Alpha       8 (A")      0.0376
               36      Vir  Alpha      10 (A")      0.0792
               40      Vir  Alpha      11 (A")      0.0862
               20      Vir  Beta        4 (A")      0.0130
               22      Vir  Beta        5 (A")      0.0133
               29      Vir  Beta        7 (A")      0.0362
               31      Vir  Beta        8 (A")      0.0376
               36      Vir  Beta       10 (A")      0.0792
               40      Vir  Beta       11 (A")      0.0862


 EOMEE transition 5/A"
 Total energy = -166.89382390 a.u.  Excitation energy = 290.2690 eV.
 R0^2 = 0.0000  R1^2 = 0.8071  R2_CCVV^2 = 0.0015  R2_COVV^2 = 0.0957  Res^2 = 7.08e-04
 Conv-d = yes

 Amplitude    Transitions between orbitals
 -0.4974       3 (A') A                  ->    3 (A") A                   
 -0.4974       3 (A') B                  ->    3 (A") B                   
 -0.2432       3 (A') A                  ->    9 (A") A                   
 -0.2432       3 (A') B                  ->    9 (A") B                   
 -0.2173       3 (A') A                  ->    6 (A") A                   
 -0.2173       3 (A') B                  ->    6 (A") B                   
 -0.1722       3 (A') A                  ->    13 (A") A                  
 -0.1722       3 (A') B                  ->    13 (A") B                  

              Summary of significant orbitals:

               Number  Type             Irrep      Energy
               3       Occ  Alpha       3 (A')    -11.2367
               3       Occ  Beta        3 (A')    -11.2367
               16      Vir  Alpha       3 (A")      0.0063
               25      Vir  Alpha       6 (A")      0.0210
               34      Vir  Alpha       9 (A")      0.0524
               46      Vir  Alpha      13 (A")      0.1504
               16      Vir  Beta        3 (A")      0.0063
               25      Vir  Beta        6 (A")      0.0210
               34      Vir  Beta        9 (A")      0.0524
               46      Vir  Beta       13 (A")      0.1504


      CVS-EOM-CCSD/MP2 left amplitudes will be solved using Davidson.
      Amplitudes will be solved using MOM  algorithm
      Roots     MaxVec    MaxIter   Precond   Conv      Thresh    Shift    
      5         1000      60        1         1.00e-03  1.00e-103 0.00e+00  
 ------------------------------------------------------------------------------
      Iter ConvRoots NVecs ResNorm Current eigenvalues (eV)
 ------------------------------------------------------------------------------
      0    0      5     2.48e-02   285.4413   288.9903   290.0186   290.0975   290.2691   
      1    0      10    1.82e-02   285.4390   288.9820   290.0099   290.0920   290.2605   
      2    5      15    7.70e-04   285.4396*  288.9846*  290.0100*  290.0927*  290.2617*  

     Davidson procedure converged

 Excited state properties for  CVS-EOMEE-CCSD transition 1/A"
 Dipole moment (a.u.): 1.132200 (X 1.130885, Y 0.054550, Z 0.000000)
 R-squared (a.u.): 153.818340 (XX 105.600565, YY 32.648005, ZZ 15.569770)

State OPDM analysis using libwa module will be excecuted
 NOs
   Occupation of frontier NOs:
      0.0049   0.0061   0.0073   0.9931   0.9997   1.9879   1.9939   1.9946
   Number of electrons: 24.000000
   Number of unpaired electrons: n_u =  2.06380, n_u,nl =  2.00167
   NO participation ratio (PR_NO):  2.144505
 
 Mulliken Population Analysis
 Atom      Charge (e)
 --------------------
 1  C        0.103962
 2 GH        0.003955
 3  F       -0.356194
 4  C       -0.634452
 5  H        0.650713
 6  H        0.082363
 7  H        0.149654
 --------------------
 Sum:       -0.000000
 

 Excited state properties for  CVS-EOMEE-CCSD transition 2/A"
 Dipole moment (a.u.): 0.160459 (X -0.159931, Y 0.013003, Z 0.000000)
 R-squared (a.u.): 214.984259 (XX 117.950838, YY 43.681503, ZZ 53.351918)

State OPDM analysis using libwa module will be excecuted
 NOs
   Occupation of frontier NOs:
      0.0043   0.0058   0.0097   0.9998   1.0005   1.9916   1.9943   1.9950
   Number of electrons: 24.000000
   Number of unpaired electrons: n_u =  2.04461, n_u,nl =  2.00158
   NO participation ratio (PR_NO):  2.091272
 
 Mulliken Population Analysis
 Atom      Charge (e)
 --------------------
 1  C        0.151744
 2 GH       -0.583516
 3  F       -0.270766
 4  C       -0.319174
 5  H        0.713829
 6  H        0.145116
 7  H        0.162767
 --------------------
 Sum:       -0.000000
 

 Excited state properties for  CVS-EOMEE-CCSD transition 3/A"
 Dipole moment (a.u.): 2.046943 (X 2.046638, Y 0.035280, Z 0.000000)
 R-squared (a.u.): 298.760354 (XX 124.420968, YY 94.811854, ZZ 79.527532)

State OPDM analysis using libwa module will be excecuted
 NOs
   Occupation of frontier NOs:
      0.0054   0.0055   0.0100   0.9994   0.9997   1.9917   1.9942   1.9954
   Number of electrons: 24.000000
   Number of unpaired electrons: n_u =  2.04381, n_u,nl =  2.00161
   NO participation ratio (PR_NO):  2.089968
 
 Mulliken Population Analysis
 Atom      Charge (e)
 --------------------
 1  C        0.398770
 2 GH       -0.931073
 3  F       -0.265798
 4  C       -0.280399
 5  H        0.717119
 6  H        0.155719
 7  H        0.205661
 --------------------
 Sum:       -0.000000
 

 Excited state properties for  CVS-EOMEE-CCSD transition 4/A"
 Dipole moment (a.u.): 4.437109 (X 4.364588, Y -0.798940, Z 0.000000)
 R-squared (a.u.): 316.051130 (XX 169.443291, YY 57.892240, ZZ 88.715599)

State OPDM analysis using libwa module will be excecuted
 NOs
   Occupation of frontier NOs:
      0.0057   0.0057   0.0101   0.9997   1.0001   1.9918   1.9942   1.9951
   Number of electrons: 24.000000
   Number of unpaired electrons: n_u =  2.04389, n_u,nl =  2.00167
   NO participation ratio (PR_NO):  2.089113
 
 Mulliken Population Analysis
 Atom      Charge (e)
 --------------------
 1  C        0.436199
 2 GH       -0.921423
 3  F       -0.251277
 4  C       -0.332590
 5  H        0.727868
 6  H        0.158621
 7  H        0.182601
 --------------------
 Sum:       -0.000000
 

 Excited state properties for  CVS-EOMEE-CCSD transition 5/A"
 Dipole moment (a.u.): 1.646276 (X -1.646042, Y -0.027791, Z 0.000000)
 R-squared (a.u.): 469.393027 (XX 170.588620, YY 93.838756, ZZ 204.965651)

State OPDM analysis using libwa module will be excecuted
 NOs
   Occupation of frontier NOs:
      0.0047   0.0054   0.0099   0.9998   1.0004   1.9918   1.9941   1.9954
   Number of electrons: 24.000000
   Number of unpaired electrons: n_u =  2.04273, n_u,nl =  2.00151
   NO participation ratio (PR_NO):  2.087193
 
 Mulliken Population Analysis
 Atom      Charge (e)
 --------------------
 1  C        0.329746
 2 GH       -0.912245
 3  F       -0.264643
 4  C       -0.275832
 5  H        0.725678
 6  H        0.178814
 7  H        0.218482
 --------------------
 Sum:       -0.000000
 

 CVS-EOMEE-CCSD calculation:   CPU 10197.72 s  wall 20860.65 s


 Start computing the transition properties

 ------------------------------------------------------------------------------
 State A: ccsd: 0/A'
 State B: cvs_eomee_ccsd/rhfref/singlets: 1/A'
 Transition dipole moment (a.u.):
   A->B: 0.027828 (X 0.027816, Y -0.000823, Z 0.000000)
   B->A: 0.027577 (X 0.027571, Y -0.000592, Z 0.000000)
 Oscillator strength (a.u.): 0.005411
 Norm of one-particle transition density matrix:
   A->B: 0.905578;   B->A: 0.873484
   ||gamma^AB||*||gamma^BA||: 0.791008

State analysis of transition OPDM (A->B) using libwa module will be excecuted
 NTOs
   Leading SVs and ENEs:
        0.8201   0.0000   0.0000   0.0000   0.0000   0.0000   0.0000   0.0000
 E(h) -11.2367 -11.3288  -0.2315  -0.0966  -0.4353  -0.1827  -0.4394  -0.3598
 E(e)   0.0877   0.2791  -0.1244   0.2428  -0.0655  -0.3773  -0.3610  -0.2134
 
   Sum of SVs (Omega):               0.820072
   Participation ratio (PR_NTO):     1.000032
   Entanglement entropy (S_HE):      0.234917
   Nr of entangled states (Z_HE):    1.176839
   Renormalized S_HE/Z_HE:  0.000282 /  1.000195
 
 Atomic CT numbers
   omega =     0.8201
 
 Exciton analysis of the transition density matrix
   <r_h> [Ang]:                        [  1.179221,   0.199655,   0.000000]
   <r_e> [Ang]:                        [  2.050225,  -0.409686,  -0.000000]
   |<r_e - r_h>| [Ang]:                  1.062989
   Hole size [Ang]:                      0.166045
     Cartesian components [Ang]:       [  0.096364,   0.095778,   0.095454]
   Electron size [Ang]:                  2.953972
     Cartesian components [Ang]:       [  1.624814,   1.802183,   1.684655]
   RMS electron-hole separation [Ang]:   3.143749
     Cartesian components [Ang]:       [  1.846005,   1.904795,   1.687359]
   Covariance(r_h, r_e) [Ang^2]:         0.000152
   Correlation coefficient:              0.000310
   Center-of-mass size [Ang]:            1.479343
     Cartesian components [Ang]:       [  0.813869,   0.902375,   0.843678]

 ------------------------------------------------------------------------------
 State A: ccsd: 0/A'
 State B: cvs_eomee_ccsd/rhfref/singlets: 2/A'
 Transition dipole moment (a.u.):
   A->B: 0.042131 (X 0.009790, Y -0.040978, Z 0.000000)
   B->A: 0.041435 (X 0.009187, Y -0.040403, Z 0.000000)
 Oscillator strength (a.u.): 0.012334
 Norm of one-particle transition density matrix:
   A->B: 0.905592;   B->A: 0.874835
   ||gamma^AB||*||gamma^BA||: 0.792244

State analysis of transition OPDM (A->B) using libwa module will be excecuted
 NTOs
   Leading SVs and ENEs:
        0.8201   0.0000   0.0000   0.0000   0.0000   0.0000   0.0000   0.0000
 E(h) -11.2367 -11.3289  -0.2315  -0.0966  -0.4092  -0.1827  -0.3958  -0.4088
 E(e)   0.1235   0.3767  -0.1244   0.2428  -0.1836  -0.3773  -0.2365  -0.2998
 
   Sum of SVs (Omega):               0.820098
   Participation ratio (PR_NTO):     1.000067
   Entanglement entropy (S_HE):      0.235102
   Nr of entangled states (Z_HE):    1.176990
   Renormalized S_HE/Z_HE:  0.000543 /  1.000376
 
 Atomic CT numbers
   omega =     0.8201
 
 Exciton analysis of the transition density matrix
   <r_h> [Ang]:                        [  1.179168,   0.199625,   0.000000]
   <r_e> [Ang]:                        [  1.351168,   0.847169,  -0.000000]
   |<r_e - r_h>| [Ang]:                  0.669998
   Hole size [Ang]:                      0.166289
     Cartesian components [Ang]:       [  0.096687,   0.095875,   0.095454]
   Electron size [Ang]:                  3.139225
     Cartesian components [Ang]:       [  1.439544,   2.442079,   1.348589]
   RMS electron-hole separation [Ang]:   3.214149
     Cartesian components [Ang]:       [  1.452913,   2.528239,   1.351963]
   Covariance(r_h, r_e) [Ang^2]:         0.000264
   Correlation coefficient:              0.000506
   Center-of-mass size [Ang]:            1.571855
     Cartesian components [Ang]:       [  0.721439,   1.222007,   0.675982]

 ------------------------------------------------------------------------------
 State A: ccsd: 0/A'
 State B: cvs_eomee_ccsd/rhfref/singlets: 3/A'
 Transition dipole moment (a.u.):
   A->B: 0.021271 (X 0.018075, Y -0.011213, Z 0.000000)
   B->A: 0.021242 (X 0.017742, Y -0.011680, Z 0.000000)
 Oscillator strength (a.u.): 0.003198
 Norm of one-particle transition density matrix:
   A->B: 0.902303;   B->A: 0.866232
   ||gamma^AB||*||gamma^BA||: 0.781604

State analysis of transition OPDM (A->B) using libwa module will be excecuted
 NTOs
   Leading SVs and ENEs:
        0.8141   0.0000   0.0000   0.0000   0.0000   0.0000   0.0000   0.0000
 E(h) -11.2367 -11.3290  -0.2315  -0.0966  -0.4665  -0.5131  -0.1827  -0.3820
 E(e)   0.0807   0.2336  -0.1244   0.2428  -0.1601  -0.1197  -0.3773  -0.3006
 
   Sum of SVs (Omega):               0.814150
   Participation ratio (PR_NTO):     1.000040
   Entanglement entropy (S_HE):      0.241784
   Nr of entangled states (Z_HE):    1.182454
   Renormalized S_HE/Z_HE:  0.000344 /  1.000239
 
 Atomic CT numbers
   omega =     0.8142
 
 Exciton analysis of the transition density matrix
   <r_h> [Ang]:                        [  1.179199,   0.199642,   0.000000]
   <r_e> [Ang]:                        [  0.596828,  -0.087162,  -0.000000]
   |<r_e - r_h>| [Ang]:                  0.649162
   Hole size [Ang]:                      0.166148
     Cartesian components [Ang]:       [  0.096500,   0.095819,   0.095454]
   Electron size [Ang]:                  4.220617
     Cartesian components [Ang]:       [  2.873566,   1.945363,   2.402456]
   RMS electron-hole separation [Ang]:   4.273439
     Cartesian components [Ang]:       [  2.933525,   1.968706,   2.404352]
   Covariance(r_h, r_e) [Ang^2]:         0.000173
   Correlation coefficient:              0.000247
   Center-of-mass size [Ang]:            2.111964
     Cartesian components [Ang]:       [  1.437617,   0.973870,   1.202176]

 ------------------------------------------------------------------------------
 State A: ccsd: 0/A'
 State B: cvs_eomee_ccsd/rhfref/singlets: 4/A'
 Transition dipole moment (a.u.):
   A->B: 0.025304 (X 0.002941, Y 0.025133, Z 0.000000)
   B->A: 0.025655 (X 0.002711, Y 0.025511, Z 0.000000)
 Oscillator strength (a.u.): 0.004601
 Norm of one-particle transition density matrix:
   A->B: 0.900854;   B->A: 0.868781
   ||gamma^AB||*||gamma^BA||: 0.782645

State analysis of transition OPDM (A->B) using libwa module will be excecuted
 NTOs
   Leading SVs and ENEs:
        0.8114   0.0001   0.0000   0.0000   0.0000   0.0000   0.0000   0.0000
 E(h) -11.2367 -11.3290  -0.2315  -0.0966  -0.5720  -0.1827  -0.4458  -0.4836
 E(e)   0.1485   0.3097  -0.1244   0.2428  -0.1616  -0.3773  -0.1296  -0.4155
 
   Sum of SVs (Omega):               0.811538
   Participation ratio (PR_NTO):     1.000220
   Entanglement entropy (S_HE):      0.245795
   Nr of entangled states (Z_HE):    1.185746
   Renormalized S_HE/Z_HE:  0.001606 /  1.001114
 
 Atomic CT numbers
   omega =     0.8115
 
 Exciton analysis of the transition density matrix
   <r_h> [Ang]:                        [  1.178901,   0.199479,   0.000000]
   <r_e> [Ang]:                        [  1.103055,  -0.696045,  -0.000000]
   |<r_e - r_h>| [Ang]:                  0.898731
   Hole size [Ang]:                      0.167500
     Cartesian components [Ang]:       [  0.098284,   0.096358,   0.095454]
   Electron size [Ang]:                  3.691668
     Cartesian components [Ang]:       [  2.063843,   2.553212,   1.688215]
   RMS electron-hole separation [Ang]:   3.803079
     Cartesian components [Ang]:       [  2.067341,   2.707459,   1.690911]
   Covariance(r_h, r_e) [Ang^2]:         0.000386
   Correlation coefficient:              0.000624
   Center-of-mass size [Ang]:            1.847785
     Cartesian components [Ang]:       [  1.033208,   1.277496,   0.845456]

 ------------------------------------------------------------------------------
 State A: ccsd: 0/A'
 State B: cvs_eomee_ccsd/rhfref/singlets: 5/A'
 Transition dipole moment (a.u.):
   A->B: 0.019475 (X 0.018567, Y -0.005877, Z 0.000000)
   B->A: 0.019392 (X 0.018595, Y -0.005503, Z 0.000000)
 Oscillator strength (a.u.): 0.002680
 Norm of one-particle transition density matrix:
   A->B: 0.903735;   B->A: 0.868426
   ||gamma^AB||*||gamma^BA||: 0.784827

State analysis of transition OPDM (A->B) using libwa module will be excecuted
 NTOs
   Leading SVs and ENEs:
        0.8167   0.0000   0.0000   0.0000   0.0000   0.0000   0.0000   0.0000
 E(h) -11.2367 -11.3290  -0.2315  -0.0966  -0.4284  -0.1827  -0.3971  -0.4054
 E(e)   0.0854   0.2052  -0.1244   0.2428  -0.0933  -0.3773  -0.2253  -0.3246
 
   Sum of SVs (Omega):               0.816737
   Participation ratio (PR_NTO):     1.000078
   Entanglement entropy (S_HE):      0.239048
   Nr of entangled states (Z_HE):    1.180214
   Renormalized S_HE/Z_HE:  0.000631 /  1.000437
 
 Atomic CT numbers
   omega =     0.8167
 
 Exciton analysis of the transition density matrix
   <r_h> [Ang]:                        [  1.179182,   0.199633,   0.000000]
   <r_e> [Ang]:                        [  2.641769,  -0.815495,  -0.000000]
   |<r_e - r_h>| [Ang]:                  1.780351
   Hole size [Ang]:                      0.166223
     Cartesian components [Ang]:       [  0.096600,   0.095849,   0.095454]
   Electron size [Ang]:                  5.491590
     Cartesian components [Ang]:       [  3.020749,   3.248107,   3.237660]
   RMS electron-hole separation [Ang]:   5.775357
     Cartesian components [Ang]:       [  3.357572,   3.404395,   3.239066]
   Covariance(r_h, r_e) [Ang^2]:         0.000049
   Correlation coefficient:              0.000053
   Center-of-mass size [Ang]:            2.747057
     Cartesian components [Ang]:       [  1.511157,   1.624758,   1.619533]

 ------------------------------------------------------------------------------
 State A: ccsd: 0/A'
 State B: cvs_eomee_ccsd/rhfref/singlets: 1/A"
 Transition dipole moment (a.u.):
   A->B: 0.079587 (X 0.000000, Y 0.000000, Z 0.079587)
   B->A: 0.081882 (X 0.000000, Y 0.000000, Z 0.081882)
 Oscillator strength (a.u.): 0.045573
 Norm of one-particle transition density matrix:
   A->B: 0.888657;   B->A: 0.891590
   ||gamma^AB||*||gamma^BA||: 0.792319

State analysis of transition OPDM (A->B) using libwa module will be excecuted
 NTOs
   Leading SVs and ENEs:
        0.7897   0.0000   0.0000   0.0000   0.0000   0.0000   0.0000   0.0000
 E(h) -11.2367 -11.3290 -26.3105  -0.1587  -0.0923  -0.0732   0.4148   0.4563
 E(e)   0.1851   0.2091   4.1113   0.2440   0.0030   0.6167   1.3114   0.5232
 
   Sum of SVs (Omega):               0.789712
   Participation ratio (PR_NTO):     1.000009
   Entanglement entropy (S_HE):      0.269044
   Nr of entangled states (Z_HE):    1.205009
   Renormalized S_HE/Z_HE:  0.000085 /  1.000059
 
 Atomic CT numbers
   omega =     0.7897
 
 Exciton analysis of the transition density matrix
   <r_h> [Ang]:                        [  1.179277,   0.199685,   0.000000]
   <r_e> [Ang]:                        [  0.670726,  -0.097814,   0.000000]
   |<r_e - r_h>| [Ang]:                  0.589178
   Hole size [Ang]:                      0.165789
     Cartesian components [Ang]:       [  0.096023,   0.095677,   0.095455]
[...]

 ------------------------------------------------------------------------------
 State A: ccsd: 0/A'
 State B: cvs_eomee_ccsd/rhfref/singlets: 2/A"
 Transition dipole moment (a.u.):
   A->B: 0.022639 (X 0.000000, Y 0.000000, Z 0.022639)
   B->A: 0.023249 (X 0.000000, Y 0.000000, Z 0.023249)
 Oscillator strength (a.u.): 0.003726
 Norm of one-particle transition density matrix:
   A->B: 0.903636;   B->A: 0.867684
   ||gamma^AB||*||gamma^BA||: 0.784070

State analysis of transition OPDM (A->B) using libwa module will be excecuted
 NTOs
   Leading SVs and ENEs:
        0.8165   0.0000   0.0000   0.0000   0.0000   0.0000   0.0000   0.0000
 E(h) -11.2367 -11.3290 -26.3105   0.2693  -0.2162  -0.7225   0.5208   0.5575
 E(e)   0.0682   0.2207   4.0784   0.1276   0.0848   0.1541   0.8573   0.5071
 
   Sum of SVs (Omega):               0.816557
   Participation ratio (PR_NTO):     1.000101
   Entanglement entropy (S_HE):      0.239391
   Nr of entangled states (Z_HE):    1.180494
   Renormalized S_HE/Z_HE:  0.000797 /  1.000553
 
 Atomic CT numbers
   omega =     0.8166
 
 Exciton analysis of the transition density matrix
   <r_h> [Ang]:                        [  1.179137,   0.199609,   0.000000]
   <r_e> [Ang]:                        [  1.242586,  -0.111304,   0.000000]
   |<r_e - r_h>| [Ang]:                  0.317321
   Hole size [Ang]:                      0.166427
     Cartesian components [Ang]:       [  0.096870,   0.095930,   0.095454]
   Electron size [Ang]:                  4.317912
     Cartesian components [Ang]:       [  1.853545,   1.968990,   3.366276]
   RMS electron-hole separation [Ang]:   4.332739
     Cartesian components [Ang]:       [  1.857124,   1.995693,   3.367629]
   Covariance(r_h, r_e) [Ang^2]:         0.000065
   Correlation coefficient:              0.000091
   Center-of-mass size [Ang]:            2.160567
     Cartesian components [Ang]:       [  0.928055,   0.985663,   1.683815]

 ------------------------------------------------------------------------------
 State A: ccsd: 0/A'
 State B: cvs_eomee_ccsd/rhfref/singlets: 3/A"
 Transition dipole moment (a.u.):
   A->B: 0.009742 (X 0.000000, Y 0.000000, Z 0.009742)
   B->A: 0.009877 (X 0.000000, Y 0.000000, Z 0.009877)
 Oscillator strength (a.u.): 0.000684
 Norm of one-particle transition density matrix:
   A->B: 0.902517;   B->A: 0.863983
   ||gamma^AB||*||gamma^BA||: 0.779759

State analysis of transition OPDM (A->B) using libwa module will be excecuted
 NTOs
   Leading SVs and ENEs:
        0.8145   0.0000   0.0000   0.0000   0.0000   0.0000   0.0000   0.0000
 E(h) -11.2367 -11.3290 -26.3105  -0.6375  -0.1257   0.1735   0.2993   0.0877
 E(e)   0.0458   0.0376   3.9833   0.0134   0.1247   0.1327   0.1700   0.2798
 
   Sum of SVs (Omega):               0.814536
   Participation ratio (PR_NTO):     1.000014
   Entanglement entropy (S_HE):      0.241169
   Nr of entangled states (Z_HE):    1.181950
   Renormalized S_HE/Z_HE:  0.000132 /  1.000091
 
 Atomic CT numbers
   omega =     0.8145
 
 Exciton analysis of the transition density matrix
   <r_h> [Ang]:                        [  1.179166,   0.199625,   0.000000]
   <r_e> [Ang]:                        [  0.041208,  -0.114390,   0.000000]
   |<r_e - r_h>| [Ang]:                  1.180489
   Hole size [Ang]:                      0.166296
     Cartesian components [Ang]:       [  0.096697,   0.095878,   0.095454]
   Electron size [Ang]:                  6.620772
     Cartesian components [Ang]:       [  2.606782,   4.277167,   4.329567]
   RMS electron-hole separation [Ang]:   6.727252
     Cartesian components [Ang]:       [  2.845987,   4.289757,   4.330619]
   Covariance(r_h, r_e) [Ang^2]:        -0.000046
   Correlation coefficient:             -0.000042
   Center-of-mass size [Ang]:            3.311426
     Cartesian components [Ang]:       [  1.304284,   2.139117,   2.165310]

 ------------------------------------------------------------------------------
 State A: ccsd: 0/A'
 State B: cvs_eomee_ccsd/rhfref/singlets: 4/A"
 Transition dipole moment (a.u.):
   A->B: 0.006154 (X 0.000000, Y 0.000000, Z 0.006154)
   B->A: 0.006276 (X 0.000000, Y 0.000000, Z 0.006276)
 Oscillator strength (a.u.): 0.000274
 Norm of one-particle transition density matrix:
   A->B: 0.902235;   B->A: 0.863560
   ||gamma^AB||*||gamma^BA||: 0.779134

State analysis of transition OPDM (A->B) using libwa module will be excecuted
 NTOs
   Leading SVs and ENEs:
        0.8140   0.0000   0.0000   0.0000   0.0000   0.0000   0.0000   0.0000
 E(h) -11.2367 -11.3290 -26.3105   0.4047   0.0342  -0.0594  -0.0571   0.4699
 E(e)   0.0399   0.0479   4.0185   0.1228   0.1278   0.0316   0.1578   0.2298
 
   Sum of SVs (Omega):               0.814028
   Participation ratio (PR_NTO):     1.000013
   Entanglement entropy (S_HE):      0.241745
   Nr of entangled states (Z_HE):    1.182422
   Renormalized S_HE/Z_HE:  0.000123 /  1.000085
 
 Atomic CT numbers
   omega =     0.8140
 
 Exciton analysis of the transition density matrix
   <r_h> [Ang]:                        [  1.179192,   0.199639,   0.000000]
   <r_e> [Ang]:                        [ -1.171335,   0.305605,   0.000000]
   |<r_e - r_h>| [Ang]:                  2.352915
   Hole size [Ang]:                      0.166177
     Cartesian components [Ang]:       [  0.096538,   0.095831,   0.095454]
   Electron size [Ang]:                  6.879023
     Cartesian components [Ang]:       [  4.255966,   2.805237,   4.619345]
   RMS electron-hole separation [Ang]:   7.272192
     Cartesian components [Ang]:       [  4.862877,   2.808869,   4.620331]
   Covariance(r_h, r_e) [Ang^2]:        -0.000001
   Correlation coefficient:             -0.000000
   Center-of-mass size [Ang]:            3.440515
     Cartesian components [Ang]:       [  2.128529,   1.403439,   2.310166]

 ------------------------------------------------------------------------------
 State A: ccsd: 0/A'
 State B: cvs_eomee_ccsd/rhfref/singlets: 5/A"
 Transition dipole moment (a.u.):
   A->B: 0.011447 (X 0.000000, Y 0.000000, Z -0.011447)
   B->A: 0.011686 (X 0.000000, Y 0.000000, Z -0.011686)
 Oscillator strength (a.u.): 0.000951
 Norm of one-particle transition density matrix:
   A->B: 0.902871;   B->A: 0.864693
   ||gamma^AB||*||gamma^BA||: 0.780707

State analysis of transition OPDM (A->B) using libwa module will be excecuted
 NTOs
   Leading SVs and ENEs:
        0.8151   0.0000   0.0000   0.0000   0.0000   0.0000   0.0000   0.0000
 E(h) -11.2367 -11.3290 -26.3105   0.2689   0.0157  -0.2034   0.2652   0.0262
 E(e)   0.0312   0.1820   4.0885   0.0599  -0.1328   0.0098   0.2910   0.3526
 
   Sum of SVs (Omega):               0.815177
   Participation ratio (PR_NTO):     1.000068
   Entanglement entropy (S_HE):      0.240781
   Nr of entangled states (Z_HE):    1.181632
   Renormalized S_HE/Z_HE:  0.000557 /  1.000386
 
 Atomic CT numbers
   omega =     0.8152
 
 Exciton analysis of the transition density matrix
   <r_h> [Ang]:                        [  1.179136,   0.199608,   0.000000]
   <r_e> [Ang]:                        [  2.025364,  -0.098136,  -0.000000]
   |<r_e - r_h>| [Ang]:                  0.897081
   Hole size [Ang]:                      0.166434
     Cartesian components [Ang]:       [  0.096879,   0.095933,   0.095454]
   Electron size [Ang]:                  9.356198
     Cartesian components [Ang]:       [  3.960898,   4.239782,   7.339889]
   RMS electron-hole separation [Ang]:   9.400579
     Cartesian components [Ang]:       [  4.051441,   4.251310,   7.340510]
   Covariance(r_h, r_e) [Ang^2]:        -0.000003
   Correlation coefficient:             -0.000002
   Center-of-mass size [Ang]:            4.678839
     Cartesian components [Ang]:       [  1.981043,   2.120431,   3.670255]


 All requested transition properties have been computed

 Transition Properties:   CPU 60.90 s  wall 137.15 s

 Total ccman2 time:   CPU 13400.13 s  wall 26913.14 s

 
 --------------------------------------------------------------
             Orbital Energies (a.u.) and Symmetries
 --------------------------------------------------------------
 
 Alpha MOs, Restricted
 -- Occupied --                  
-26.311 -11.329 -11.237  -1.627  -1.052  -0.838  -0.739  -0.691
  1 A'    2 A'    3 A'    4 A'    5 A'    6 A'    7 A'    1 A"                 
 -0.684  -0.589  -0.560  -0.385
  8 A'    9 A'   10 A'    2 A"                                                 
 -- Virtual --                   
  0.002   0.006   0.006   0.006   0.010   0.013   0.013   0.013
 11 A'   12 A'   13 A'    3 A"   14 A'   15 A'   16 A'    4 A"                 
  0.013   0.013   0.019   0.020   0.021   0.027   0.036   0.036
 17 A'    5 A"   18 A'   19 A'    6 A"   20 A'   21 A'   22 A'                 
  0.036   0.037   0.038   0.046   0.050   0.052   0.074   0.079
  7 A"   23 A'    8 A"   24 A'   25 A'    9 A"   26 A'   10 A"                 
  0.080   0.082   0.085   0.086   0.093   0.096   0.124   0.130
 27 A'   28 A'   29 A'   11 A"   30 A'   31 A'   32 A'   12 A"                 
  0.147   0.150   0.174   0.186   0.192   0.211   0.214   0.233
 33 A'   13 A"   34 A'   35 A'   36 A'   14 A"   37 A'   38 A'                 
  0.256   0.268   0.274   0.280   0.295   0.311   0.319   0.323
 39 A'   40 A'   15 A"   16 A"   41 A'   42 A'   17 A"   43 A'                 
  0.353   0.363   0.385   0.390   0.409   0.412   0.422   0.448
 44 A'   45 A'   46 A'   18 A"   47 A'   19 A"   48 A'   49 A'                 
  0.453   0.456   0.459   0.481   0.489   0.510   0.532   0.585
 20 A"   21 A"   50 A'   51 A'   52 A'   53 A'   54 A'   22 A"                 
  0.610   0.613   0.628   0.650   0.734   0.735   0.774   0.823
 55 A'   23 A"   56 A'   57 A'   58 A'   24 A"   59 A'   60 A'                 
  0.848   0.862   0.865   0.895   0.908   0.912   0.934   0.952
 61 A'   62 A'   25 A"   63 A'   64 A'   26 A"   65 A'   27 A"                 
  0.961   0.962   0.984   0.988   0.994   1.007   1.037   1.063
 66 A'   67 A'   28 A"   29 A"   68 A'   69 A'   70 A'   30 A"                 
  1.066   1.078   1.093   1.095   1.120   1.123   1.143   1.150
 71 A'   31 A"   72 A'   32 A"   33 A"   73 A'   74 A'   34 A"                 
  1.187   1.247   1.282   1.300   1.319   1.338   1.375   1.436
 75 A'   76 A'   77 A'   78 A'   35 A"   79 A'   36 A"   37 A"                 
  1.439   1.465   1.512   1.552   1.566   1.603   1.608   1.634
 80 A'   81 A'   82 A'   38 A"   83 A'   39 A"   84 A'   40 A"                 
  1.699   1.734   1.740   1.745   1.766   1.793   1.852   1.871
 85 A'   86 A'   87 A'   41 A"   88 A'   42 A"   89 A'   90 A'                 
  1.911   1.915   1.987   2.021   2.033   2.054   2.087   2.132
 91 A'   43 A"   92 A'   44 A"   93 A'   94 A'   45 A"   95 A'                 
  2.249   2.283   2.292   2.413   2.449   2.660   2.772   2.788
 96 A'   46 A"   97 A'   98 A'   99 A'  100 A'  101 A'   47 A"                 
  2.943   2.986   2.989   3.058   3.064   3.077   3.099   3.163
 48 A"   49 A"  102 A'   50 A"  103 A'  104 A'  105 A'  106 A'                 
  3.200   3.215   3.250   3.275   3.318   3.361   3.379   3.427
 51 A"  107 A'  108 A'   52 A"  109 A'   53 A"   54 A"  110 A'                 
  3.436   3.517   3.542   3.559   3.573   3.624   3.660   3.672
 55 A"   56 A"  111 A'  112 A'   57 A"  113 A'   58 A"  114 A'                 
  3.716   3.749   3.760   3.769   3.810   3.828   3.919   3.997
115 A'   59 A"  116 A'   60 A"  117 A'  118 A'  119 A'  120 A'                 
  4.066   4.075   4.148   4.189   4.236   4.253   4.318   4.348
 61 A"  121 A'  122 A'  123 A'  124 A'   62 A"   63 A"  125 A'                 
  4.411   4.460   4.521   4.583   4.647   4.693   4.792   4.793
126 A'   64 A"  127 A'   65 A"  128 A'   66 A"  129 A'  130 A'                 
  4.875   4.913   4.962   4.994   5.016   5.124   5.124   5.246
 67 A"  131 A'   68 A"   69 A"  132 A'  133 A'   70 A"  134 A'                 
  5.305   5.346   5.385   5.481   5.494   5.644   5.645   5.706
135 A'   71 A"  136 A'  137 A'   72 A"  138 A'   73 A"  139 A'                 
  5.853   6.120   6.297   6.568   6.697   6.895   7.317   8.914
140 A'  141 A'  142 A'  143 A'  144 A'  145 A'  146 A'   74 A"                 
  8.942   9.170   9.204   9.326   9.373   9.405   9.486   9.497
147 A'   75 A"  148 A'   76 A"  149 A'   77 A"  150 A'  151 A'                 
  9.637   9.875   9.896  14.798  17.093  17.366
 78 A"  152 A'  153 A'  154 A'  155 A'  156 A'                                 
 
 Beta MOs, Restricted
 -- Occupied --                  
-26.311 -11.329 -11.237  -1.627  -1.052  -0.838  -0.739  -0.691
  1 A'    2 A'    3 A'    4 A'    5 A'    6 A'    7 A'    1 A"                 
 -0.684  -0.589  -0.560  -0.385
  8 A'    9 A'   10 A'    2 A"                                                 
 -- Virtual --                   
  0.002   0.006   0.006   0.006   0.010   0.013   0.013   0.013
 11 A'   12 A'   13 A'    3 A"   14 A'   15 A'   16 A'    4 A"                 
  0.013   0.013   0.019   0.020   0.021   0.027   0.036   0.036
 17 A'    5 A"   18 A'   19 A'    6 A"   20 A'   21 A'   22 A'                 
  0.036   0.037   0.038   0.046   0.050   0.052   0.074   0.079
  7 A"   23 A'    8 A"   24 A'   25 A'    9 A"   26 A'   10 A"                 
  0.080   0.082   0.085   0.086   0.093   0.096   0.124   0.130
 27 A'   28 A'   29 A'   11 A"   30 A'   31 A'   32 A'   12 A"                 
  0.147   0.150   0.174   0.186   0.192   0.211   0.214   0.233
 33 A'   13 A"   34 A'   35 A'   36 A'   14 A"   37 A'   38 A'                 
  0.256   0.268   0.274   0.280   0.295   0.311   0.319   0.323
 39 A'   40 A'   15 A"   16 A"   41 A'   42 A'   17 A"   43 A'                 
  0.353   0.363   0.385   0.390   0.409   0.412   0.422   0.448
 44 A'   45 A'   46 A'   18 A"   47 A'   19 A"   48 A'   49 A'                 
  0.453   0.456   0.459   0.481   0.489   0.510   0.532   0.585
 20 A"   21 A"   50 A'   51 A'   52 A'   53 A'   54 A'   22 A"                 
  0.610   0.613   0.628   0.650   0.734   0.735   0.774   0.823
 55 A'   23 A"   56 A'   57 A'   58 A'   24 A"   59 A'   60 A'                 
  0.848   0.862   0.865   0.895   0.908   0.912   0.934   0.952
 61 A'   62 A'   25 A"   63 A'   64 A'   26 A"   65 A'   27 A"                 
  0.961   0.962   0.984   0.988   0.994   1.007   1.037   1.063
 66 A'   67 A'   28 A"   29 A"   68 A'   69 A'   70 A'   30 A"                 
  1.066   1.078   1.093   1.095   1.120   1.123   1.143   1.150
 71 A'   31 A"   72 A'   32 A"   33 A"   73 A'   74 A'   34 A"                 
  1.187   1.247   1.282   1.300   1.319   1.338   1.375   1.436
 75 A'   76 A'   77 A'   78 A'   35 A"   79 A'   36 A"   37 A"                 
  1.439   1.465   1.512   1.552   1.566   1.603   1.608   1.634
 80 A'   81 A'   82 A'   38 A"   83 A'   39 A"   84 A'   40 A"                 
  1.699   1.734   1.740   1.745   1.766   1.793   1.852   1.871
 85 A'   86 A'   87 A'   41 A"   88 A'   42 A"   89 A'   90 A'                 
  1.911   1.915   1.987   2.021   2.033   2.054   2.087   2.132
 91 A'   43 A"   92 A'   44 A"   93 A'   94 A'   45 A"   95 A'                 
  2.249   2.283   2.292   2.413   2.449   2.660   2.772   2.788
 96 A'   46 A"   97 A'   98 A'   99 A'  100 A'  101 A'   47 A"                 
  2.943   2.986   2.989   3.058   3.064   3.077   3.099   3.163
 48 A"   49 A"  102 A'   50 A"  103 A'  104 A'  105 A'  106 A'                 
  3.200   3.215   3.250   3.275   3.318   3.361   3.379   3.427
 51 A"  107 A'  108 A'   52 A"  109 A'   53 A"   54 A"  110 A'                 
  3.436   3.517   3.542   3.559   3.573   3.624   3.660   3.672
 55 A"   56 A"  111 A'  112 A'   57 A"  113 A'   58 A"  114 A'                 
  3.716   3.749   3.760   3.769   3.810   3.828   3.919   3.997
115 A'   59 A"  116 A'   60 A"  117 A'  118 A'  119 A'  120 A'                 
  4.066   4.075   4.148   4.189   4.236   4.253   4.318   4.348
 61 A"  121 A'  122 A'  123 A'  124 A'   62 A"   63 A"  125 A'                 
  4.411   4.460   4.521   4.583   4.647   4.693   4.792   4.793
126 A'   64 A"  127 A'   65 A"  128 A'   66 A"  129 A'  130 A'                 
  4.875   4.913   4.962   4.994   5.016   5.124   5.124   5.246
 67 A"  131 A'   68 A"   69 A"  132 A'  133 A'   70 A"  134 A'                 
  5.305   5.346   5.385   5.481   5.494   5.644   5.645   5.706
135 A'   71 A"  136 A'  137 A'   72 A"  138 A'   73 A"  139 A'                 
  5.853   6.120   6.297   6.568   6.697   6.895   7.317   8.914
140 A'  141 A'  142 A'  143 A'  144 A'  145 A'  146 A'   74 A"                 
  8.942   9.170   9.204   9.326   9.373   9.405   9.486   9.497
147 A'   75 A"  148 A'   76 A"  149 A'   77 A"  150 A'  151 A'                 
  9.637   9.875   9.896  14.798  17.093  17.366
 78 A"  152 A'  153 A'  154 A'  155 A'  156 A'                                 
 --------------------------------------------------------------
 
          Ground-State Mulliken Net Atomic Charges

     Atom                 Charge (a.u.)
  ----------------------------------------
      1 C                    -1.075383
      2 GH                   -0.001301
      3 F                    -0.403235
      4 C                    -0.179720
      5 H                     0.735397
      6 H                     0.473465
      7 H                     0.450778
  ----------------------------------------
  Sum of atomic charges =    -0.000000

 -----------------------------------------------------------------
                    Cartesian Multipole Moments
 -----------------------------------------------------------------
    Charge (ESU x 10^10)
                -0.0000
    Dipole Moment (Debye)
         X       1.3472      Y      -0.8364      Z       0.0000
       Tot       1.5857
    Quadrupole Moments (Debye-Ang)
        XX     -17.8339     XY       0.9539     YY     -15.3415
        XZ       0.0000     YZ      -0.0000     ZZ     -19.3742
    Octopole Moments (Debye-Ang^2)
       XXX      -3.8584    XXY      -0.1832    XYY      -2.3114
       YYY       0.5559    XXZ       0.0000    XYZ       0.0000
       YYZ       0.0000    XZZ      -5.0456    YZZ       0.7876
       ZZZ       0.0000
    Hexadecapole Moments (Debye-Ang^3)
      XXXX    -118.4086   XXXY      -3.8733   XXYY     -26.0900
      XYYY       0.5909   YYYY     -34.7234   XXXZ      -0.0000
      XXYZ      -0.0000   XYYZ       0.0000   YYYZ       0.0000
      XXZZ     -26.1718   XYZZ      -0.3760   YYZZ     -10.9553
      XZZZ       0.0000   YZZZ      -0.0000   ZZZZ     -21.2567
 -----------------------------------------------------------------
Archival summary:
1\1\n-62-24-3\SP\ProcedureUnspecified\BasisUnspecified\123h1\malop\SatJun1601:10:222018SatJun1601:10:222018\0\\#,ProcedureUnspecified,BasisUnspecified,\\0,1\C\Gh,1,0.435868\H,1,1.08083,2,170.664\F,2,1.17461,1,103.178,3,0,0\C,2,1.19615,1,97.4666,3,-180,0\H,5,1.07898,2,137.975,1,-0,0\H,5,1.08006,2,102.344,1,180,0\\HF=-176.95632\\@

 Total job time:  27117.97s(wall), 13603.57s(cpu) 
 Sat Jun 16 01:10:22 2018

======= MOLDEN-FORMATTED INPUT FILE FOLLOWS =======
[Molden Format]
[Atoms] (Angs)
  C      1    6      1.17935015      0.19972970      0.00000000
 GH      2    0     -0.00000086     -0.00000523      0.00000000
  F      3    9     -1.15290228      0.22477685     -0.00000000
  C      4    6      0.01631889     -0.43556789      0.00000000
  H      5    1     -0.11895298     -1.50789947     -0.00000000
  H      6    1      1.23082552      1.27856135     -0.00000000
  H      7    1      2.09023453     -0.37861923      0.00000000

======= END OF MOLDEN-FORMATTED INPUT FILE =======


        *************************************************************
        *                                                           *
        *  Thank you very much for using Q-Chem.  Have a nice day.  *
        *                                                           *
        *************************************************************


