n-62-24-5 10.66.24
Q-Chem Developer Version! Running on 10.66.24.*
                  Welcome to Q-Chem
     A Quantum Leap Into The Future Of Chemistry


 Q-Chem 5.1, Q-Chem, Inc., Pleasanton, CA (2018)

 Yihan Shao,  Zhengting Gan,  E. Epifanovsky,  A. T. B. Gilbert,  M. Wormit,  
 J. Kussmann,  A. W. Lange,  A. Behn,  Jia Deng,  Xintian Feng,  D. Ghosh,  
 M. Goldey,  P. R. Horn,  L. D. Jacobson,  I. Kaliman,  T. Kus,  A. Landau,  
 Jie Liu,  E. I. Proynov,  R. M. Richard,  R. P. Steele,  E. J. Sundstrom,  
 H. L. Woodcock III,  P. M. Zimmerman,  D. Zuev,  B. Albrecht,  E. Alguire,  
 S. A. Baeppler,  D. Barton,  Z. Benda,  Y. A. Bernard,  E. J. Berquist,  
 K. B. Bravaya,  H. Burton,  D. Casanova,  Chun-Min Chang,  Yunqing Chen,  
 A. Chien,  K. D. Closser,  M. P. Coons,  S. Coriani,  S. Dasgupta,  
 A. L. Dempwolff,  M. Diedenhofen,  Hainam Do,  R. G. Edgar,  Po-Tung Fang,  
 S. Faraji,  S. Fatehi,  Qingguo Feng,  K. D. Fenk,  J. Fosso-Tande,  
 Qinghui Ge,  A. Ghysels,  G. Gidofalvi,  J. Gomes,  J. Gonthier,  A. Gunina,  
 M. W. D. Hanson-Heine,  P. H. P. Harbach,  A. W. Hauser,  J. E. Herr,  
 E. G. Hohenstein,  Z. C. Holden,  Kerwin Hui,  T.-C. Jagau,  Hyunjun Ji,  
 B. Kaduk,  K. Khistyaev,  Jaehoon Kim,  P. Klunzinger,  K. Koh,  
 D. Kosenkov,  L. Koulias,  T. Kowalczyk,  C. M. Krauter,  A. Kunitsa,  
 Ka Un Lao,  A. Laurent,  K. V. Lawler,  Joonho Lee,  D. Lefrancois,  
 S. Lehtola,  D. S. Levine,  Yi-Pei Li,  You-Sheng Lin,  Fenglai Liu,  
 E. Livshits,  A. Luenser,  P. Manohar,  E. Mansoor,  S. F. Manzer,  
 Shan-Ping Mao,  Yuezhi Mao,  N. Mardirossian,  A. V. Marenich,  
 T. Markovich,  L. A. Martinez-Martinez,  S. A. Maurer,  N. J. Mayhall,  
 S. C. McKenzie,  J.-M. Mewes,  A. F. Morrison,  J. W. Mullinax,  K. Nanda,  
 T. S. Nguyen-Beck,  R. Olivares-Amaya,  J. A. Parkhill,  T. M. Perrine,  
 F. Plasser,  P. Pokhilko,  S. Prager,  A. Prociuk,  E. Ramos,  D. R. Rehn,  
 F. Rob,  M. Schneider,  N. Sergueev,  S. M. Sharada,  S. Sharma,  
 D. W. Small,  T. Stauch,  T. Stein,  Yu-Chuan Su,  A. J. W. Thom,  
 A. Tkatchenko,  T. Tsuchimochi,  N. M. Tubman,  L. Vogt,  M. L. Vidal,  
 O. Vydrov,  M. A. Watson,  J. Wenzel,  M. de Wergifosse,  T. A. Wesolowski,  
 A. White,  J. Witte,  A. Yamada,  Jun Yang,  K. Yao,  S. Yeganeh,  
 S. R. Yost,  Zhi-Qiang You,  A. Zech,  Igor Ying Zhang,  Xing Zhang,  
 Yan Zhao,  Ying Zhu,  B. R. Brooks,  G. K. L. Chan,  C. J. Cramer,  
 M. S. Gordon,  W. J. Hehre,  A. Klamt,  M. W. Schmidt,  C. D. Sherrill,  
 D. G. Truhlar,  A. Aspuru-Guzik,  R. Baer,  A. T. Bell,  N. A. Besley,  
 Jeng-Da Chai,  R. A. DiStasio Jr.,  A. Dreuw,  B. D. Dunietz,  
 T. R. Furlani,  Chao-Ping Hsu,  Yousung Jung,  Jing Kong,  D. S. Lambrecht,  
 WanZhen Liang,  C. Ochsenfeld,  V. A. Rassolov,  L. V. Slipchenko,  
 J. E. Subotnik,  T. Van Voorhis,  J. M. Herbert,  A. I. Krylov,  
 P. M. W. Gill,  M. Head-Gordon

 Contributors to earlier versions of Q-Chem not listed above: 
 R. D. Adamson,  B. Austin,  J. Baker,  G. J. O. Beran,  K. Brandhorst,  
 S. T. Brown,  E. F. C. Byrd,  A. K. Chakraborty,  C.-L. Cheng,  
 Siu Hung Chien,  D. M. Chipman,  D. L. Crittenden,  H. Dachsel,  
 R. J. Doerksen,  A. D. Dutoi,  L. Fusti-Molnar,  W. A. Goddard III,  
 A. Golubeva-Zadorozhnaya,  S. R. Gwaltney,  G. Hawkins,  A. Heyden,  
 S. Hirata,  G. Kedziora,  F. J. Keil,  C. Kelley,  Jihan Kim,  R. A. King,  
 R. Z. Khaliullin,  P. P. Korambath,  W. Kurlancheek,  A. M. Lee,  M. S. Lee,  
 S. V. Levchenko,  Ching Yeh Lin,  D. Liotard,  R. C. Lochan,  I. Lotan,  
 P. E. Maslen,  N. Nair,  D. P. O'Neill,  D. Neuhauser,  E. Neuscamman,  
 C. M. Oana,  R. Olson,  B. Peters,  R. Peverati,  P. A. Pieniazek,  
 Y. M. Rhee,  J. Ritchie,  M. A. Rohrdanz,  E. Rosta,  N. J. Russ,  
 H. F. Schaefer III,  N. E. Schultz,  N. Shenvi,  A. C. Simmonett,  A. Sodt,  
 D. Stuck,  K. S. Thanthiriwatte,  V. Vanovschi,  Tao Wang,  A. Warshel,  
 C. F. Williams,  Q. Wu,  X. Xu,  W. Zhang

 Please cite Q-Chem as follows:
 Y. Shao et al., Mol. Phys. 113, 184-215 (2015)
 DOI: 10.1080/00268976.2014.952696

 Q-Chem 5.1.0 for Intel X86 EM64T Linux

 Parts of Q-Chem use Armadillo 8.300.2 (Tropical Shenanigans).
 http://arma.sourceforge.net/

 Q-Chem begins on Mon Jun 25 13:56:42 2018  

Host: 
0

     Scratch files written to /work1/malop/qc_6613359.hnode2//

Checking the input file for inconsistencies... 	...done.

--------------------------------------------------------------
User input:
--------------------------------------------------------------
$comment 
NEXAFS VINYLFLUORIDE
Optimized geometry with CFour
$end

$molecule
0 1
C
Gh   1 nc2
F    2 fn3         1 fnc3
C    3 cf4         2 cfn4          1 dih4
H    4 hc5         1 hcc5          2 dih5
H    1 hc6         4 hcc6          3 dih6
H    1 hc7         4 hcc7          3 dih7

nc2         1.196145
fn3         1.174610
fnc3        159.355
cf4         1.342808
cfn4         18.424
dih4        180.000
hc5         1.080830
hcc5        125.835
dih5        180.000
hc6         1.080059
hcc6        121.377
dih6          0.000
hc7         1.078980
hcc7        118.942
dih7        180.000
$end

$rem
!    input_bohr = true
    jobtype = sp
    method = eom-ccsd
    cvs_ee_singlets    [10,10]
    basis = gen
    n_frozen_core = fc 
    cc_trans_prop = true
   EOM_DAVIDSON_MAXVECTORS = 120
   EOM_NGUESS_SINGLES = 10 !start with larger subspace
!!   eom_davidson_convergence = 4   !as we discussed, this is good for core
   use_libqints = 1   !use new int library (will be def in trunk)
   thresh = 14   !this already should be default, but just in case
!   scf_convergence = 13   !v. tight scf convergence, to reduce noise
!   cc_convergence = 12   !tight CC, for the same reason
!   basis_lin_dep_thresh = 8  !default is 6, use smaller, just in case
$end

$basis
C    0
S    6    1.000000
   4.56324000E+03    1.96665000E-03
   6.82024000E+02    1.52306000E-02
   1.54973000E+02    7.61269000E-02
   4.44553000E+01    2.60801000E-01
   1.30290000E+01    6.16462000E-01
   1.82773000E+00    2.21006000E-01
SP   3    1.000000
   2.09642000E+01    1.14660000E-01   4.02487000E-02
   4.80331000E+00    9.19999000E-01   2.37594000E-01
   1.45933000E+00   -3.03068000E-03   8.15854000E-01
SP   1    1.000000
   4.83456000E-01    1.00000000E+00   1.00000000E+00
SP   1    1.000000
   1.45585000E-01    1.00000000E+00   1.00000000E+00
SP   1    1.000000
   4.38000000E-02    1.00000000E+00   1.00000000E+00
D    1    1.000000
   6.26000000E-01    1.00000000E+00
****
Gh   0
S   1   1.00
        0.0058583805        1.0000000000
S   1   1.00
        0.0033459739        1.0000000000
S   1   1.00
        0.0020484225        1.0000000000
P   1   1.00
        0.0099882106        1.0000000000
P   1   1.00
        0.0056893607        1.0000000000
P   1   1.00
        0.0034756797        1.0000000000
D   1   1.00
        0.0142043987        1.0000000000
D   1   1.00
        0.0080765930        1.0000000000
D   1   1.00
        0.0049271863        1.0000000000
****
F    0
S    6    1.000000
   1.14271000E+04    1.80093000E-03
   1.72235000E+03    1.37419000E-02
   3.95746000E+02    6.81334000E-02
   1.15139000E+02    2.33325000E-01
   3.36026000E+01    5.89086000E-01
   4.91901000E+00    2.99505000E-01
SP   3    1.000000
   5.54441000E+01    1.14536000E-01   3.54609000E-02
   1.26323000E+01    9.20512000E-01   2.37451000E-01
   3.71756000E+00   -3.37804000E-03   8.20458000E-01
SP   1    1.000000
   1.16545000E+00    1.00000000E+00   1.00000000E+00
SP   1    1.000000
   3.21892000E-01    1.00000000E+00   1.00000000E+00
SP   1    1.000000
   1.07600000E-01    1.00000000E+00   1.00000000E+00
D    1    1.000000
   1.75000000E+00    1.00000000E+00
****
C    0
S    6    1.000000
   4.56324000E+03    1.96665000E-03
   6.82024000E+02    1.52306000E-02
   1.54973000E+02    7.61269000E-02
   4.44553000E+01    2.60801000E-01
   1.30290000E+01    6.16462000E-01
   1.82773000E+00    2.21006000E-01
SP   3    1.000000
   2.09642000E+01    1.14660000E-01   4.02487000E-02
   4.80331000E+00    9.19999000E-01   2.37594000E-01
   1.45933000E+00   -3.03068000E-03   8.15854000E-01
SP   1    1.000000
   4.83456000E-01    1.00000000E+00   1.00000000E+00
SP   1    1.000000
   1.45585000E-01    1.00000000E+00   1.00000000E+00
SP   1    1.000000
   4.38000000E-02    1.00000000E+00   1.00000000E+00
D    1    1.000000
   6.26000000E-01    1.00000000E+00
****
H    0
S    3    1.000000
   3.38650000E+01    2.54938000E-02
   5.09479000E+00    1.90373000E-01
   1.15879000E+00    8.52161000E-01
S    1    1.000000
   3.25840000E-01    1.00000000E+00
S    1    1.000000
   1.02741000E-01    1.00000000E+00
S    1    1.000000
   3.60000000E-02    1.00000000E+00
P    1    1.000000
   7.50000000E-01    1.00000000E+00
****
H    0
S    3    1.000000
   3.38650000E+01    2.54938000E-02
   5.09479000E+00    1.90373000E-01
   1.15879000E+00    8.52161000E-01
S    1    1.000000
   3.25840000E-01    1.00000000E+00
S    1    1.000000
   1.02741000E-01    1.00000000E+00
S    1    1.000000
   3.60000000E-02    1.00000000E+00
P    1    1.000000
   7.50000000E-01    1.00000000E+00
****
$end

--------------------------------------------------------------
 ----------------------------------------------------------------
             Standard Nuclear Orientation (Angstroms)
    I     Atom           X                Y                Z
 ----------------------------------------------------------------
    1      C       1.1793501531     0.1997297036     0.0000000000
    2      GH     -0.0000008629    -0.0000052260     0.0000000000
    3      F      -1.1529022759     0.2247768549    -0.0000000000
    4      C       0.0163188924    -0.4355678917     0.0000000000
    5      H      -0.1189529826    -1.5078994676    -0.0000000000
    6      H       1.2308255218     1.2785613540    -0.0000000000
    7      H       2.0902345342    -0.3786192262     0.0000000000
 ----------------------------------------------------------------
 Molecular Point Group                 Cs    NOp =  2
 Largest Abelian Subgroup              Cs    NOp =  2
 Nuclear Repulsion Energy =    67.5482146678 hartrees
 There are       12 alpha and       12 beta electrons

 Q-Chem warning in module forms1/BasisType.C, line 1685:

 Setting pure/cartesian flag to 2111 for general basis


 Requested basis set is non-standard
 There are 42 shells and 114 basis functions
 Total memory of 2000MB is distributed as follows: 
   QALLOC including MEM_STATIC uses 192MB
   MEM_STATIC is set to 192MB
   CCMAN JOB total memory use is  1808MB
 Warning: actual memory use might exceed 2000MB

 Total QAlloc Memory Limit    192 MB
 Mega-Array Size       188 MB
 MEM_STATIC part       192 MB

                       Distance Matrix (Angstroms)
             C (  1)   GH(  2)   F (  3)   C (  4)   H (  5)   H (  6)
   GH(  2)  1.196145
   F (  3)  2.332387  1.174610
   C (  4)  1.325234  0.435868  1.342808
   H (  5)  2.145131  1.512579  2.017726  1.080830
   H (  6)  1.080059  1.774730  2.606266  2.100777  3.096170
   H (  7)  1.078980  2.124249  3.298791  2.074697  2.481085  1.866770

 
 A cutoff of  1.0D-14 yielded    901 shell pairs
 There are      6700 function pairs (      7435 Cartesian)
 Smallest overlap matrix eigenvalue = 1.12E-04

 Scale SEOQF with 1.000000e-02/1.000000e-02/1.000000e-02

 Standard Electronic Orientation quadrupole field applied
 Nucleus-field energy     =     0.0000000001 hartrees
 Guess MOs from core Hamiltonian diagonalization

 -----------------------------------------------------------------------
  General SCF calculation program by
  Eric Jon Sundstrom, Paul Horn, Yuezhi Mao, Dmitri Zuev, Alec White,
  David Stuck, Shaama M.S., Shane Yost, Joonho Lee, David Small,
  Daniel Levine, Susi Lehtola, Hugh Burton, Evgeny Epifanovsky
 -----------------------------------------------------------------------
 Hartree-Fock
 A restricted SCF calculation will be
 performed using DIIS
 SCF converges when DIIS error is below 1.0e-08
 ---------------------------------------
  Cycle       Energy         DIIS error
 ---------------------------------------
    1    -141.8954519422      1.99e-01  
    2    -135.1087734257      7.25e-02  
    3    -154.4309820706      1.12e-01  
    4    -161.0039874333      8.70e-02  
    5    -168.1312001356      6.99e-02  
    6    -170.7415522043      5.81e-02  
    7    -173.6092805005      4.28e-02  
    8    -175.7938023394      2.56e-02  
    9    -176.7260419015      1.02e-02  
   10    -176.9133564107      2.56e-03  
   11    -176.9334683744      7.79e-04  
   12    -176.9361519502      5.24e-04  
   13    -176.9366053484      2.48e-04  
   14    -176.9367656635      5.93e-05  
   15    -176.9367736492      7.63e-06  
   16    -176.9367738072      1.30e-06  
   17    -176.9367738135      2.82e-07  
   18    -176.9367738138      7.19e-08  
   19    -176.9367738139      1.46e-08  
   20    -176.9367738139      2.69e-09  Convergence criterion met
 ---------------------------------------
 SCF time:   CPU 19.02s  wall 19.00s 
 SCF   energy in the final basis set =     -176.9367738139


 ------------------------------------------------------------------------------

   CCMAN2: suite of methods based on coupled cluster
           and equation of motion theories.

   Components:
   * libvmm-1.3-trunk
     by Evgeny Epifanovsky, Ilya Kaliman.
   * libtensor-2.5-trunk
     by Evgeny Epifanovsky, Michael Wormit, Dmitry Zuev, Sam Manzer, 
        Ilya Kaliman.
   * libcc-2.5-trunk
     by Evgeny Epifanovsky, Arik Landau, Tomasz Kus, Kirill Khistyaev, 
        Dmitry Zuev, Prashant Manohar, Xintian Feng, Anna Krylov, 
        Matthew Goldey, Alec White, Thomas Jagau, Kaushik Nanda, 
        Anastasia Gunina, Alexander Kunitsa, Joonho Lee.

   CCMAN original authors:
   Anna I. Krylov, C. David Sherrill, Steven R. Gwaltney,
   Edward F. C. Byrd (2000)
   Sergey V. Levchenko, Lyudmila V. Slipchenko, Tao Wang,
   Ana-Maria C. Cristian (2003)
   Piotr A. Pieniazek, C. Melania Oana, Evgeny Epifanovsky (2007)
   Prashant Manohar (2009)

 ------------------------------------------------------------------------------


 Calculation will run on 1 core with 1808MB of RAM.

 
 Alpha MOs, Restricted
 -- Occupied --                  
-26.310 -11.332 -11.240  -1.628  -1.055  -0.840  -0.740  -0.690
  1 A'    2 A'    3 A'    4 A'    5 A'    6 A'    7 A'    1 A"                 
 -0.686  -0.591  -0.562  -0.386
  8 A'    9 A'   10 A'    2 A"                                                 
 -- Virtual --                   
  0.002   0.006   0.006   0.006   0.010   0.013   0.013   0.013
 11 A'   12 A'   13 A'    3 A"   14 A'   15 A'   16 A'    4 A"                 
  0.013   0.013   0.020   0.021   0.021   0.029   0.036   0.037
 17 A'    5 A"   18 A'   19 A'    6 A"   20 A'   21 A'   22 A'                 
  0.037   0.038   0.038   0.049   0.052   0.054   0.081   0.082
  7 A"   23 A'    8 A"   24 A'   25 A'    9 A"   10 A"   26 A'                 
  0.083   0.085   0.088   0.094   0.117   0.123   0.137   0.159
 27 A'   28 A'   11 A"   29 A'   30 A'   31 A'   12 A"   32 A'                 
  0.174   0.177   0.210   0.221   0.230   0.238   0.257   0.297
 33 A'   13 A"   34 A'   35 A'   36 A'   37 A'   14 A"   38 A'                 
  0.312   0.357   0.405   0.405   0.477   0.484   0.523   0.565
 39 A'   40 A'   41 A'   15 A"   42 A'   43 A'   44 A'   45 A'                 
  0.645   0.667   0.720   0.744   0.822   0.860   0.921   0.932
 46 A'   47 A'   48 A'   16 A"   17 A"   49 A'   50 A'   51 A'                 
  0.978   1.019   1.088   1.250   1.312   1.465   1.584   1.648
 52 A'   53 A'   54 A'   18 A"   19 A"   20 A"   55 A'   56 A'                 
  1.679   1.686   1.738   1.819   1.847   1.909   1.953   2.030
 57 A'   21 A"   58 A'   59 A'   60 A'   22 A"   61 A'   23 A"                 
  2.148   2.233   2.312   2.348   2.401   2.442   2.568   2.754
 62 A'   63 A'   24 A"   64 A'   25 A"   65 A'   66 A'   67 A'                 
  2.868   2.921   3.004   3.053   3.089   3.273   3.370   3.586
 68 A'   69 A'   70 A'   71 A'   26 A"   27 A"   72 A'   73 A'                 
  3.880   4.147   4.225   4.249   4.432   4.443   4.591   5.319
 74 A'   75 A'   28 A"   76 A'   77 A'   29 A"   78 A'   79 A'                 
  6.941   7.017   7.333  24.837  25.410  68.758
 30 A"   80 A'   81 A'   82 A'   83 A'   84 A'                                 
 
 Beta MOs, Restricted
 -- Occupied --                  
-26.310 -11.332 -11.240  -1.628  -1.055  -0.840  -0.740  -0.690
  1 A'    2 A'    3 A'    4 A'    5 A'    6 A'    7 A'    1 A"                 
 -0.686  -0.591  -0.562  -0.386
  8 A'    9 A'   10 A'    2 A"                                                 
 -- Virtual --                   
  0.002   0.006   0.006   0.006   0.010   0.013   0.013   0.013
 11 A'   12 A'   13 A'    3 A"   14 A'   15 A'   16 A'    4 A"                 
  0.013   0.013   0.020   0.021   0.021   0.029   0.036   0.037
 17 A'    5 A"   18 A'   19 A'    6 A"   20 A'   21 A'   22 A'                 
  0.037   0.038   0.038   0.049   0.052   0.054   0.081   0.082
  7 A"   23 A'    8 A"   24 A'   25 A'    9 A"   10 A"   26 A'                 
  0.083   0.085   0.088   0.094   0.117   0.123   0.137   0.159
 27 A'   28 A'   11 A"   29 A'   30 A'   31 A'   12 A"   32 A'                 
  0.174   0.177   0.210   0.221   0.230   0.238   0.257   0.297
 33 A'   13 A"   34 A'   35 A'   36 A'   37 A'   14 A"   38 A'                 
  0.312   0.357   0.405   0.405   0.477   0.484   0.523   0.565
 39 A'   40 A'   41 A'   15 A"   42 A'   43 A'   44 A'   45 A'                 
  0.645   0.667   0.720   0.744   0.822   0.860   0.921   0.932
 46 A'   47 A'   48 A'   16 A"   17 A"   49 A'   50 A'   51 A'                 
  0.978   1.019   1.088   1.250   1.312   1.465   1.584   1.648
 52 A'   53 A'   54 A'   18 A"   19 A"   20 A"   55 A'   56 A'                 
  1.679   1.686   1.738   1.819   1.847   1.909   1.953   2.030
 57 A'   21 A"   58 A'   59 A'   60 A'   22 A"   61 A'   23 A"                 
  2.148   2.233   2.312   2.348   2.401   2.442   2.568   2.754
 62 A'   63 A'   24 A"   64 A'   25 A"   65 A'   66 A'   67 A'                 
  2.868   2.921   3.004   3.053   3.089   3.273   3.370   3.586
 68 A'   69 A'   70 A'   71 A'   26 A"   27 A"   72 A'   73 A'                 
  3.880   4.147   4.225   4.249   4.432   4.443   4.591   5.319
 74 A'   75 A'   28 A"   76 A'   77 A'   29 A"   78 A'   79 A'                 
  6.941   7.017   7.333  24.837  25.410  68.758
 30 A"   80 A'   81 A'   82 A'   83 A'   84 A'                                 

 Occupation and symmetry of molecular orbitals

 Point group: Cs (2 irreducible representations).

                           A'   A"    All 
 ------------------------------------------
 All molecular orbitals:
  - Alpha                  84   30    114 
  - Beta                   84   30    114 
 ------------------------------------------
 Alpha orbitals:
  - Frozen occupied        3    0     3   
  - Active occupied        7    2     9   
  - Active virtual         74   28    102 
  - Frozen virtual         0    0     0   
 ------------------------------------------
 Beta orbitals:
  - Frozen occupied        3    0     3   
  - Active occupied        7    2     9   
  - Active virtual         74   28    102 
  - Frozen virtual         0    0     0   
 ------------------------------------------

 Import integrals:   CPU 0.00 s  wall 0.00 s

 Import integrals:   CPU 7.26 s  wall 12.12 s

 MP2 amplitudes:   CPU 0.22 s  wall 0.24 s

           CCSD T amplitudes will be solved using DIIS.

           Start     Size      MaxIter   EConv     TConv     
           3         7         100       1.00e-06  1.00e-04  
 ------------------------------------------------------------------------------
           Energy (a.u.)   Ediff      Tdiff       Comment
 ------------------------------------------------------------------------------
          -177.42557924                           
     1    -177.43151090   5.93e-03   6.17e-01     
     2    -177.44504724   1.35e-02   7.48e-02     
     3    -177.44579903   7.52e-04   2.95e-02     
     4    -177.44729845   1.50e-03   1.07e-02     Switched to DIIS steps.
     5    -177.44788326   5.85e-04   9.17e-03     
     6    -177.44789938   1.61e-05   1.55e-03     
     7    -177.44789430   5.08e-06   6.64e-04     
     8    -177.44789344   8.68e-07   1.06e-04     
     9    -177.44789356   1.24e-07   4.25e-05     
 ------------------------------------------------------------------------------
          -177.44789356                           CCSD T converged.

 SCF energy                 = -176.93677381
 MP2 energy                 = -177.42557924
 CCSD correlation energy     =   -0.51111975
 CCSD total energy           = -177.44789356

 CCSD  T1^2 = 0.0059  T2^2 = 0.1646  Leading amplitudes:

 Amplitude    Orbitals with energies
 -0.0205       1 (A") A                  ->    12 (A") A                  
              -0.6905                          0.1365                     
 -0.0205       1 (A") B                  ->    12 (A") B                  
              -0.6905                          0.1365                     
  0.0201       2 (A") A                  ->    16 (A") A                  
              -0.3861                          0.7436                     
  0.0201       2 (A") B                  ->    16 (A") B                  
              -0.3861                          0.7436                     

 Amplitude    Orbitals with energies
 -0.0736       2 (A") A      2 (A") B    ->    12 (A") A     12 (A") B    
              -0.3861       -0.3861            0.1365        0.1365       
  0.0736       2 (A") A      2 (A") B    ->    12 (A") B     12 (A") A    
              -0.3861       -0.3861            0.1365        0.1365       
  0.0736       2 (A") B      2 (A") A    ->    12 (A") A     12 (A") B    
              -0.3861       -0.3861            0.1365        0.1365       
 -0.0736       2 (A") B      2 (A") A    ->    12 (A") B     12 (A") A    
              -0.3861       -0.3861            0.1365        0.1365       

 Computing CCSD intermediates for later calculations
 Finished.

           CCSD Lambda amplitudes will be solved using DIIS.
           Start     Size      MaxIter   EConv     LConv     
           3         7         100       1.00e-06  1.00e-04  
 ------------------------------------------------------------------------------
            Enorm      Ldiff       Comment
 ------------------------------------------------------------------------------
     1     3.66e-02   2.32e-02     
     2     1.08e-02   4.90e-03     
     3     4.07e-03   7.02e-04     
     4     2.06e-03   6.97e-04     Switched to DIIS steps.
     5     5.06e-04   3.86e-04     
     6     2.22e-04   6.83e-05     
     7     5.95e-05   1.43e-05     
     8     2.44e-05   1.04e-06     
     9     8.88e-06   2.35e-06     
    10     3.33e-06   9.55e-07     
    11     1.26e-06   2.98e-07     
    12     3.61e-07   1.40e-07     
 ------------------------------------------------------------------------------
                                   CCSD Lambda converged.

 CCSD calculation:   CPU 55.43 s  wall 68.83 s

        Solving for CVS-EOMEE-CCSD A' singlet states.

        CVS-EOMEE-CCSD/MP2 right amplitudes will be solved using Davidson.
      Amplitudes will be solved using standard  algorithm
      Roots     MaxVec    MaxIter   Precond   Conv      Thresh    Shift    
      10        120       60        1         1.00e-05  1.00e-05  0.00e+00  
 ------------------------------------------------------------------------------
      Iter ConvRoots NVecs ResNorm Current eigenvalues (eV)
 ------------------------------------------------------------------------------
      0    0      10    1.88e+00   302.8719   303.7591   303.8967   304.3151   304.4714   304.4847   304.5061   304.6368   304.6688   304.7870   
      1    0      20    1.14e+00   299.9907   300.8794   301.0155   301.4383   301.5951   301.6077   301.6285   301.7600   301.7915   301.9104   
      2    0      30    6.58e-02   289.6620   290.5736   290.7003   291.1538   291.3199   291.3287   291.3461   291.4873   291.5152   291.6394   
      3    0      40    3.72e-03   289.0286   290.0089   290.1694   290.6490   290.8279   290.8381   290.8580   290.9873   291.0189   291.1454   
      4    0      50    3.85e-03   288.9113   289.9437   290.1224   290.6152   290.8049   290.8156   290.8366   290.9624   290.9955   291.1231   
      5    0      60    7.09e-03   288.5156   289.6803   289.9815   290.4944   290.7817   290.7926   290.8163   290.9039   290.9549   291.0712   
      6    0      70    7.80e-03   288.2373   289.1075   289.6077   290.2834   290.6333   290.7133   290.7399   290.7601   290.7891   290.9535   
      7    0      80    5.09e-03   288.1830   288.9280   289.4349   290.2062   290.3965   290.4659   290.5202   290.5511   290.6626   290.9080   
      8    0      90    1.27e-03   288.1661   288.8731   289.3962   290.1716   290.2451   290.3446   290.4181   290.5073   290.6363   290.8934   
      9    0      100   1.49e-03   288.1578   288.8254   289.3718   290.1541   290.1999   290.3235   290.4005   290.4874   290.6214   290.8840   
      10   0      110   2.15e-03   288.1529   288.7933   289.3591   290.0311   290.1167   290.2764   290.3706   290.4632   290.6063   290.8664   
      11   0      120   1.30e-03   288.1522   288.7775   289.3543   289.7994   290.0791   290.2226   290.3448   290.4512   290.5969   290.7492   
      12   1      20    3.00e-04   288.1520*  288.7731   289.3530   289.7548   290.0745   290.2073   290.3383   290.4484   290.5952   290.7245   
      13   1      29    2.06e-04   288.1520*  288.7708   289.3525   289.7360   290.0705   290.2029   290.3364   290.4472   290.5937   290.7105   
      14   2      38    1.43e-04   288.1520*  288.7699   289.3526*  289.7191   290.0683   290.1982   290.3341   290.4464   290.5929   290.7028   
      15   2      46    1.05e-04   288.1520*  288.7690   289.3523*  289.7154   290.0676   290.1966   290.3331   290.4449   290.5914   290.6943   
      16   4      54    3.35e-05   288.1519*  288.7690*  289.3522*  289.7080   290.0665   290.1929   290.3325   290.4451*  290.5908   290.6903   
      17   5      60    2.59e-05   288.1519*  288.7686*  289.3522*  289.7092   290.0670   290.1922   290.3320   290.4450*  290.5910*  290.6867   
      18   6      65    1.81e-05   288.1519*  288.7688*  289.3522*  289.7074   290.0663*  290.1934   290.3320   290.4450*  290.5908*  290.6869   
      19   7      69    1.32e-05   288.1519*  288.7686*  289.3522*  289.7072   290.0658*  290.1893   290.3312*  290.4451*  290.5905*  290.6843   
      20   8      72    1.06e-05   288.1519*  288.7686*  289.3522*  289.7070*  290.0659*  290.1920   290.3313*  290.4450*  290.5909*  290.6846   
      21   9      74    9.06e-06   288.1519*  288.7687*  289.3522*  289.7065*  290.0659*  290.1905*  290.3313*  290.4451*  290.5902*  290.6815   
      22   9      75    6.93e-06   288.1519*  288.7686*  289.3522*  289.7069*  290.0659*  290.1905*  290.3313*  290.4450*  290.5906*  290.6818   
      23   9      76    4.59e-06   288.1519*  288.7686*  289.3522*  289.7068*  290.0659*  290.1905*  290.3313*  290.4451*  290.5906*  290.6816   
      24   9      77    3.75e-06   288.1519*  288.7686*  289.3522*  289.7066*  290.0659*  290.1905*  290.3313*  290.4450*  290.5903*  290.6809   
      25   9      78    3.66e-06   288.1519*  288.7686*  289.3522*  289.7067*  290.0659*  290.1905*  290.3313*  290.4450*  290.5905*  290.6807   
      26   10     79    3.08e-06   288.1519*  288.7686*  289.3522*  289.7067*  290.0659*  290.1905*  290.3313*  290.4450*  290.5903*  290.6808*  

     Davidson procedure converged

 EOMEE transition 1/A'
 Total energy = -166.85850452 a.u.  Excitation energy = 288.1519 eV.
 R0^2 = 0.0000  R1^2 = 0.8139  R2_CCVV^2 = 0.0012  R2_COVV^2 = 0.0925  Res^2 = 2.97e-07
 Conv-d = yes

 Amplitude    Transitions between orbitals
  0.3272       3 (A') A                  ->    29 (A') A                  
  0.3272       3 (A') B                  ->    29 (A') B                  
  0.3232       3 (A') A                  ->    20 (A') A                  
  0.3232       3 (A') B                  ->    20 (A') B                  
 -0.2213       3 (A') A                  ->    14 (A') A                  
 -0.2213       3 (A') B                  ->    14 (A') B                  
  0.1652       3 (A') A                  ->    38 (A') A                  
  0.1652       3 (A') B                  ->    38 (A') B                  
 -0.1447       3 (A') A                  ->    25 (A') A                  
 -0.1447       3 (A') B                  ->    25 (A') B                  
  0.1429       3 (A') A                  ->    19 (A') A                  
  0.1429       3 (A') B                  ->    19 (A') B                  
  0.1332       3 (A') A                  ->    11 (A') A                  
  0.1332       3 (A') B                  ->    11 (A') B                  

              Summary of significant orbitals:

               Number  Type             Irrep      Energy
               3       Occ  Alpha       3 (A')    -11.2400
               3       Occ  Beta        3 (A')    -11.2400
               13      Vir  Alpha      11 (A')      0.0020
               17      Vir  Alpha      14 (A')      0.0098
               24      Vir  Alpha      19 (A')      0.0208
               26      Vir  Alpha      20 (A')      0.0289
               33      Vir  Alpha      25 (A')      0.0524
               40      Vir  Alpha      29 (A')      0.0939
               52      Vir  Alpha      38 (A')      0.2969
               13      Vir  Beta       11 (A')      0.0020
               17      Vir  Beta       14 (A')      0.0098
               24      Vir  Beta       19 (A')      0.0208
               26      Vir  Beta       20 (A')      0.0289
               33      Vir  Beta       25 (A')      0.0524
               40      Vir  Beta       29 (A')      0.0939
               52      Vir  Beta       38 (A')      0.2969


 EOMEE transition 2/A'
 Total energy = -166.83584186 a.u.  Excitation energy = 288.7686 eV.
 R0^2 = 0.0000  R1^2 = 0.8143  R2_CCVV^2 = 0.0012  R2_COVV^2 = 0.0922  Res^2 = 3.41e-07
 Conv-d = yes

 Amplitude    Transitions between orbitals
 -0.3511       3 (A') A                  ->    24 (A') A                  
 -0.3511       3 (A') B                  ->    24 (A') B                  
 -0.3128       3 (A') A                  ->    30 (A') A                  
 -0.3128       3 (A') B                  ->    30 (A') B                  
  0.2550       3 (A') A                  ->    18 (A') A                  
  0.2550       3 (A') B                  ->    18 (A') B                  
  0.1788       3 (A') A                  ->    39 (A') A                  
  0.1788       3 (A') B                  ->    39 (A') B                  
 -0.1181       3 (A') A                  ->    36 (A') A                  
 -0.1181       3 (A') B                  ->    36 (A') B                  
 -0.1144       3 (A') A                  ->    12 (A') A                  
 -0.1144       3 (A') B                  ->    12 (A') B                  

              Summary of significant orbitals:

               Number  Type             Irrep      Energy
               3       Occ  Alpha       3 (A')    -11.2400
               3       Occ  Beta        3 (A')    -11.2400
               14      Vir  Alpha      12 (A')      0.0059
               23      Vir  Alpha      18 (A')      0.0196
               32      Vir  Alpha      24 (A')      0.0487
               41      Vir  Alpha      30 (A')      0.1169
               49      Vir  Alpha      36 (A')      0.2298
               53      Vir  Alpha      39 (A')      0.3122
               14      Vir  Beta       12 (A')      0.0059
               23      Vir  Beta       18 (A')      0.0196
               32      Vir  Beta       24 (A')      0.0487
               41      Vir  Beta       30 (A')      0.1169
               49      Vir  Beta       36 (A')      0.2298
               53      Vir  Beta       39 (A')      0.3122


 EOMEE transition 3/A'
 Total energy = -166.81439520 a.u.  Excitation energy = 289.3522 eV.
 R0^2 = 0.0000  R1^2 = 0.8043  R2_CCVV^2 = 0.0012  R2_COVV^2 = 0.0973  Res^2 = 3.50e-07
 Conv-d = yes

 Amplitude    Transitions between orbitals
  0.3327       3 (A') A                  ->    25 (A') A                  
  0.3327       3 (A') B                  ->    25 (A') B                  
 -0.2545       3 (A') A                  ->    19 (A') A                  
 -0.2545       3 (A') B                  ->    19 (A') B                  
  0.2125       3 (A') A                  ->    31 (A') A                  
  0.2125       3 (A') B                  ->    31 (A') B                  
  0.2003       3 (A') A                  ->    20 (A') A                  
  0.2003       3 (A') B                  ->    20 (A') B                  
  0.1579       3 (A') A                  ->    28 (A') A                  
  0.1579       3 (A') B                  ->    28 (A') B                  
 -0.1361       3 (A') A                  ->    32 (A') A                  
 -0.1361       3 (A') B                  ->    32 (A') B                  
  0.1193       3 (A') A                  ->    13 (A') A                  
  0.1193       3 (A') B                  ->    13 (A') B                  
 -0.1140       3 (A') A                  ->    37 (A') A                  
 -0.1140       3 (A') B                  ->    37 (A') B                  
 -0.1137       3 (A') A                  ->    14 (A') A                  
 -0.1137       3 (A') B                  ->    14 (A') B                  

              Summary of significant orbitals:

               Number  Type             Irrep      Energy
               3       Occ  Alpha       3 (A')    -11.2400
               3       Occ  Beta        3 (A')    -11.2400
               15      Vir  Alpha      13 (A')      0.0062
               17      Vir  Alpha      14 (A')      0.0098
               24      Vir  Alpha      19 (A')      0.0208
               26      Vir  Alpha      20 (A')      0.0289
               33      Vir  Alpha      25 (A')      0.0524
               38      Vir  Alpha      28 (A')      0.0852
               42      Vir  Alpha      31 (A')      0.1228
               44      Vir  Alpha      32 (A')      0.1590
               50      Vir  Alpha      37 (A')      0.2379
               15      Vir  Beta       13 (A')      0.0062
               17      Vir  Beta       14 (A')      0.0098
               24      Vir  Beta       19 (A')      0.0208
               26      Vir  Beta       20 (A')      0.0289
               33      Vir  Beta       25 (A')      0.0524
               38      Vir  Beta       28 (A')      0.0852
               42      Vir  Beta       31 (A')      0.1228
               44      Vir  Beta       32 (A')      0.1590
               50      Vir  Beta       37 (A')      0.2379


 EOMEE transition 4/A'
 Total energy = -166.80136969 a.u.  Excitation energy = 289.7066 eV.
 R0^2 = 0.0000  R1^2 = 0.8060  R2_CCVV^2 = 0.0012  R2_COVV^2 = 0.0964  Res^2 = 5.40e-07
 Conv-d = yes

 Amplitude    Transitions between orbitals
  0.2744       3 (A') A                  ->    33 (A') A                  
  0.2744       3 (A') B                  ->    33 (A') B                  
 -0.2426       3 (A') A                  ->    27 (A') A                  
 -0.2426       3 (A') B                  ->    27 (A') B                  
 -0.2005       3 (A') A                  ->    32 (A') A                  
 -0.2005       3 (A') B                  ->    32 (A') B                  
  0.1895       3 (A') A                  ->    21 (A') A                  
  0.1895       3 (A') B                  ->    21 (A') B                  
 -0.1638       3 (A') A                  ->    40 (A') A                  
 -0.1638       3 (A') B                  ->    40 (A') B                  
 -0.1572       3 (A') A                  ->    39 (A') A                  
 -0.1572       3 (A') B                  ->    39 (A') B                  
  0.1524       3 (A') A                  ->    18 (A') A                  
  0.1524       3 (A') B                  ->    18 (A') B                  
  0.1476       3 (A') A                  ->    26 (A') A                  
  0.1476       3 (A') B                  ->    26 (A') B                  
 -0.1319       3 (A') A                  ->    22 (A') A                  
 -0.1319       3 (A') B                  ->    22 (A') B                  
 -0.1243       3 (A') A                  ->    24 (A') A                  
 -0.1243       3 (A') B                  ->    24 (A') B                  
  0.1036       3 (A') A                  ->    25 (A') A                  
  0.1036       3 (A') B                  ->    25 (A') B                  

              Summary of significant orbitals:

               Number  Type             Irrep      Energy
               3       Occ  Alpha       3 (A')    -11.2400
               3       Occ  Beta        3 (A')    -11.2400
               23      Vir  Alpha      18 (A')      0.0196
               27      Vir  Alpha      21 (A')      0.0362
               28      Vir  Alpha      22 (A')      0.0366
               32      Vir  Alpha      24 (A')      0.0487
               33      Vir  Alpha      25 (A')      0.0524
               36      Vir  Alpha      26 (A')      0.0816
               37      Vir  Alpha      27 (A')      0.0835
               44      Vir  Alpha      32 (A')      0.1590
               45      Vir  Alpha      33 (A')      0.1737
               53      Vir  Alpha      39 (A')      0.3122
               54      Vir  Alpha      40 (A')      0.3574
               23      Vir  Beta       18 (A')      0.0196
               27      Vir  Beta       21 (A')      0.0362
               28      Vir  Beta       22 (A')      0.0366
               32      Vir  Beta       24 (A')      0.0487
               33      Vir  Beta       25 (A')      0.0524
               36      Vir  Beta       26 (A')      0.0816
               37      Vir  Beta       27 (A')      0.0835
               44      Vir  Beta       32 (A')      0.1590
               45      Vir  Beta       33 (A')      0.1737
               53      Vir  Beta       39 (A')      0.3122
               54      Vir  Beta       40 (A')      0.3574


 EOMEE transition 5/A'
 Total energy = -166.78816699 a.u.  Excitation energy = 290.0659 eV.
 R0^2 = 0.0000  R1^2 = 0.8066  R2_CCVV^2 = 0.0012  R2_COVV^2 = 0.0961  Res^2 = 5.44e-06
 Conv-d = yes

 Amplitude    Transitions between orbitals
  0.2615       3 (A') A                  ->    11 (A') A                  
  0.2615       3 (A') B                  ->    11 (A') B                  
 -0.2556       3 (A') A                  ->    14 (A') A                  
 -0.2556       3 (A') B                  ->    14 (A') B                  
 -0.2005       3 (A') A                  ->    29 (A') A                  
 -0.2005       3 (A') B                  ->    29 (A') B                  
 -0.1949       3 (A') A                  ->    22 (A') A                  
 -0.1949       3 (A') B                  ->    22 (A') B                  
 -0.1584       3 (A') A                  ->    26 (A') A                  
 -0.1584       3 (A') B                  ->    26 (A') B                  
 -0.1534       3 (A') A                  ->    27 (A') A                  
 -0.1534       3 (A') B                  ->    27 (A') B                  
 -0.1401       3 (A') A                  ->    38 (A') A                  
 -0.1401       3 (A') B                  ->    38 (A') B                  
 -0.1371       3 (A') A                  ->    13 (A') A                  
 -0.1371       3 (A') B                  ->    13 (A') B                  
  0.1120       3 (A') A                  ->    19 (A') A                  
  0.1120       3 (A') B                  ->    19 (A') B                  
  0.1033       3 (A') A                  ->    32 (A') A                  
  0.1033       3 (A') B                  ->    32 (A') B                  

              Summary of significant orbitals:

               Number  Type             Irrep      Energy
               3       Occ  Alpha       3 (A')    -11.2400
               3       Occ  Beta        3 (A')    -11.2400
               13      Vir  Alpha      11 (A')      0.0020
               15      Vir  Alpha      13 (A')      0.0062
               17      Vir  Alpha      14 (A')      0.0098
               24      Vir  Alpha      19 (A')      0.0208
               28      Vir  Alpha      22 (A')      0.0366
               36      Vir  Alpha      26 (A')      0.0816
               37      Vir  Alpha      27 (A')      0.0835
               40      Vir  Alpha      29 (A')      0.0939
               44      Vir  Alpha      32 (A')      0.1590
               52      Vir  Alpha      38 (A')      0.2969
               13      Vir  Beta       11 (A')      0.0020
               15      Vir  Beta       13 (A')      0.0062
               17      Vir  Beta       14 (A')      0.0098
               24      Vir  Beta       19 (A')      0.0208
               28      Vir  Beta       22 (A')      0.0366
               36      Vir  Beta       26 (A')      0.0816
               37      Vir  Beta       27 (A')      0.0835
               40      Vir  Beta       29 (A')      0.0939
               44      Vir  Beta       32 (A')      0.1590
               52      Vir  Beta       38 (A')      0.2969


 EOMEE transition 6/A'
 Total energy = -166.78358815 a.u.  Excitation energy = 290.1905 eV.
 R0^2 = 0.0000  R1^2 = 0.8040  R2_CCVV^2 = 0.0012  R2_COVV^2 = 0.0974  Res^2 = 4.11e-06
 Conv-d = yes

 Amplitude    Transitions between orbitals
  0.2582       3 (A') A                  ->    26 (A') A                  
  0.2582       3 (A') B                  ->    26 (A') B                  
  0.2490       3 (A') A                  ->    23 (A') A                  
  0.2490       3 (A') B                  ->    23 (A') B                  
  0.1949       3 (A') A                  ->    22 (A') A                  
  0.1949       3 (A') B                  ->    22 (A') B                  
 -0.1929       3 (A') A                  ->    29 (A') A                  
 -0.1929       3 (A') B                  ->    29 (A') B                  
  0.1819       3 (A') A                  ->    21 (A') A                  
  0.1819       3 (A') B                  ->    21 (A') B                  
  0.1742       3 (A') A                  ->    15 (A') A                  
  0.1742       3 (A') B                  ->    15 (A') B                  
 -0.1363       3 (A') A                  ->    17 (A') A                  
 -0.1363       3 (A') B                  ->    17 (A') B                  
  0.1299       3 (A') A                  ->    19 (A') A                  
  0.1299       3 (A') B                  ->    19 (A') B                  
  0.1254       3 (A') A                  ->    34 (A') A                  
  0.1254       3 (A') B                  ->    34 (A') B                  
 -0.1169       3 (A') A                  ->    38 (A') A                  
 -0.1169       3 (A') B                  ->    38 (A') B                  
 -0.1158       3 (A') A                  ->    13 (A') A                  
 -0.1158       3 (A') B                  ->    13 (A') B                  
  0.1048       3 (A') A                  ->    28 (A') A                  
  0.1048       3 (A') B                  ->    28 (A') B                  

              Summary of significant orbitals:

               Number  Type             Irrep      Energy
               3       Occ  Alpha       3 (A')    -11.2400
               3       Occ  Beta        3 (A')    -11.2400
               15      Vir  Alpha      13 (A')      0.0062
               18      Vir  Alpha      15 (A')      0.0130
               21      Vir  Alpha      17 (A')      0.0134
               24      Vir  Alpha      19 (A')      0.0208
               27      Vir  Alpha      21 (A')      0.0362
               28      Vir  Alpha      22 (A')      0.0366
               30      Vir  Alpha      23 (A')      0.0376
               36      Vir  Alpha      26 (A')      0.0816
               38      Vir  Alpha      28 (A')      0.0852
               40      Vir  Alpha      29 (A')      0.0939
               47      Vir  Alpha      34 (A')      0.2096
               52      Vir  Alpha      38 (A')      0.2969
               15      Vir  Beta       13 (A')      0.0062
               18      Vir  Beta       15 (A')      0.0130
               21      Vir  Beta       17 (A')      0.0134
               24      Vir  Beta       19 (A')      0.0208
               27      Vir  Beta       21 (A')      0.0362
               28      Vir  Beta       22 (A')      0.0366
               30      Vir  Beta       23 (A')      0.0376
               36      Vir  Beta       26 (A')      0.0816
               38      Vir  Beta       28 (A')      0.0852
               40      Vir  Beta       29 (A')      0.0939
               47      Vir  Beta       34 (A')      0.2096
               52      Vir  Beta       38 (A')      0.2969


 EOMEE transition 7/A'
 Total energy = -166.77841460 a.u.  Excitation energy = 290.3313 eV.
 R0^2 = 0.0000  R1^2 = 0.8039  R2_CCVV^2 = 0.0012  R2_COVV^2 = 0.0975  Res^2 = 4.63e-06
 Conv-d = yes

 Amplitude    Transitions between orbitals
  0.2584       3 (A') A                  ->    11 (A') A                  
  0.2584       3 (A') B                  ->    11 (A') B                  
 -0.2550       3 (A') A                  ->    28 (A') A                  
 -0.2550       3 (A') B                  ->    28 (A') B                  
 -0.2101       3 (A') A                  ->    14 (A') A                  
 -0.2101       3 (A') B                  ->    14 (A') B                  
 -0.2095       3 (A') A                  ->    23 (A') A                  
 -0.2095       3 (A') B                  ->    23 (A') B                  
  0.2087       3 (A') A                  ->    22 (A') A                  
  0.2087       3 (A') B                  ->    22 (A') B                  
  0.1774       3 (A') A                  ->    17 (A') A                  
  0.1774       3 (A') B                  ->    17 (A') B                  
 -0.1220       3 (A') A                  ->    16 (A') A                  
 -0.1220       3 (A') B                  ->    16 (A') B                  
  0.1173       3 (A') A                  ->    25 (A') A                  
  0.1173       3 (A') B                  ->    25 (A') B                  
  0.1133       3 (A') A                  ->    18 (A') A                  
  0.1133       3 (A') B                  ->    18 (A') B                  
 -0.1064       3 (A') A                  ->    35 (A') A                  
 -0.1064       3 (A') B                  ->    35 (A') B                  
  0.1026       3 (A') A                  ->    27 (A') A                  
  0.1026       3 (A') B                  ->    27 (A') B                  

              Summary of significant orbitals:

               Number  Type             Irrep      Energy
               3       Occ  Alpha       3 (A')    -11.2400
               3       Occ  Beta        3 (A')    -11.2400
               13      Vir  Alpha      11 (A')      0.0020
               17      Vir  Alpha      14 (A')      0.0098
               19      Vir  Alpha      16 (A')      0.0131
               21      Vir  Alpha      17 (A')      0.0134
               23      Vir  Alpha      18 (A')      0.0196
               28      Vir  Alpha      22 (A')      0.0366
               30      Vir  Alpha      23 (A')      0.0376
               33      Vir  Alpha      25 (A')      0.0524
               37      Vir  Alpha      27 (A')      0.0835
               38      Vir  Alpha      28 (A')      0.0852
               48      Vir  Alpha      35 (A')      0.2210
               13      Vir  Beta       11 (A')      0.0020
               17      Vir  Beta       14 (A')      0.0098
               19      Vir  Beta       16 (A')      0.0131
               21      Vir  Beta       17 (A')      0.0134
               23      Vir  Beta       18 (A')      0.0196
               28      Vir  Beta       22 (A')      0.0366
               30      Vir  Beta       23 (A')      0.0376
               33      Vir  Beta       25 (A')      0.0524
               37      Vir  Beta       27 (A')      0.0835
               38      Vir  Beta       28 (A')      0.0852
               48      Vir  Beta       35 (A')      0.2210


 EOMEE transition 8/A'
 Total energy = -166.77423468 a.u.  Excitation energy = 290.4450 eV.
 R0^2 = 0.0000  R1^2 = 0.8045  R2_CCVV^2 = 0.0012  R2_COVV^2 = 0.0972  Res^2 = 5.30e-06
 Conv-d = yes

 Amplitude    Transitions between orbitals
 -0.4044       3 (A') A                  ->    12 (A') A                  
 -0.4044       3 (A') B                  ->    12 (A') B                  
  0.2767       3 (A') A                  ->    18 (A') A                  
  0.2767       3 (A') B                  ->    18 (A') B                  
  0.2006       3 (A') A                  ->    30 (A') A                  
  0.2006       3 (A') B                  ->    30 (A') B                  
 -0.1688       3 (A') A                  ->    21 (A') A                  
 -0.1688       3 (A') B                  ->    21 (A') B                  
 -0.1393       3 (A') A                  ->    15 (A') A                  
 -0.1393       3 (A') B                  ->    15 (A') B                  
  0.1109       3 (A') A                  ->    24 (A') A                  
  0.1109       3 (A') B                  ->    24 (A') B                  

              Summary of significant orbitals:

               Number  Type             Irrep      Energy
               3       Occ  Alpha       3 (A')    -11.2400
               3       Occ  Beta        3 (A')    -11.2400
               14      Vir  Alpha      12 (A')      0.0059
               18      Vir  Alpha      15 (A')      0.0130
               23      Vir  Alpha      18 (A')      0.0196
               27      Vir  Alpha      21 (A')      0.0362
               32      Vir  Alpha      24 (A')      0.0487
               41      Vir  Alpha      30 (A')      0.1169
               14      Vir  Beta       12 (A')      0.0059
               18      Vir  Beta       15 (A')      0.0130
               23      Vir  Beta       18 (A')      0.0196
               27      Vir  Beta       21 (A')      0.0362
               32      Vir  Beta       24 (A')      0.0487
               41      Vir  Beta       30 (A')      0.1169


 EOMEE transition 9/A'
 Total energy = -166.76889713 a.u.  Excitation energy = 290.5903 eV.
 R0^2 = 0.0000  R1^2 = 0.8033  R2_CCVV^2 = 0.0012  R2_COVV^2 = 0.0978  Res^2 = 2.58e-06
 Conv-d = yes

 Amplitude    Transitions between orbitals
 -0.4193       3 (A') A                  ->    13 (A') A                  
 -0.4193       3 (A') B                  ->    13 (A') B                  
  0.2266       3 (A') A                  ->    19 (A') A                  
  0.2266       3 (A') B                  ->    19 (A') B                  
  0.1789       3 (A') A                  ->    14 (A') A                  
  0.1789       3 (A') B                  ->    14 (A') B                  
  0.1655       3 (A') A                  ->    25 (A') A                  
  0.1655       3 (A') B                  ->    25 (A') B                  
  0.1572       3 (A') A                  ->    17 (A') A                  
  0.1572       3 (A') B                  ->    17 (A') B                  
  0.1396       3 (A') A                  ->    31 (A') A                  
  0.1396       3 (A') B                  ->    31 (A') B                  
 -0.1394       3 (A') A                  ->    32 (A') A                  
 -0.1394       3 (A') B                  ->    32 (A') B                  

              Summary of significant orbitals:

               Number  Type             Irrep      Energy
               3       Occ  Alpha       3 (A')    -11.2400
               3       Occ  Beta        3 (A')    -11.2400
               15      Vir  Alpha      13 (A')      0.0062
               17      Vir  Alpha      14 (A')      0.0098
               21      Vir  Alpha      17 (A')      0.0134
               24      Vir  Alpha      19 (A')      0.0208
               33      Vir  Alpha      25 (A')      0.0524
               42      Vir  Alpha      31 (A')      0.1228
               44      Vir  Alpha      32 (A')      0.1590
               15      Vir  Beta       13 (A')      0.0062
               17      Vir  Beta       14 (A')      0.0098
               21      Vir  Beta       17 (A')      0.0134
               24      Vir  Beta       19 (A')      0.0208
               33      Vir  Beta       25 (A')      0.0524
               42      Vir  Beta       31 (A')      0.1228
               44      Vir  Beta       32 (A')      0.1590


 EOMEE transition 10/A'
 Total energy = -166.76556942 a.u.  Excitation energy = 290.6808 eV.
 R0^2 = 0.0000  R1^2 = 0.8040  R2_CCVV^2 = 0.0012  R2_COVV^2 = 0.0974  Res^2 = 7.20e-06
 Conv-d = yes

 Amplitude    Transitions between orbitals
  0.3531       3 (A') A                  ->    16 (A') A                  
  0.3531       3 (A') B                  ->    16 (A') B                  
  0.2699       3 (A') A                  ->    15 (A') A                  
  0.2699       3 (A') B                  ->    15 (A') B                  
  0.2120       3 (A') A                  ->    21 (A') A                  
  0.2120       3 (A') B                  ->    21 (A') B                  
 -0.2080       3 (A') A                  ->    12 (A') A                  
 -0.2080       3 (A') B                  ->    12 (A') B                  
 -0.1571       3 (A') A                  ->    33 (A') A                  
 -0.1571       3 (A') B                  ->    33 (A') B                  
  0.1449       3 (A') A                  ->    24 (A') A                  
  0.1449       3 (A') B                  ->    24 (A') B                  
 -0.1219       3 (A') A                  ->    22 (A') A                  
 -0.1219       3 (A') B                  ->    22 (A') B                  

              Summary of significant orbitals:

               Number  Type             Irrep      Energy
               3       Occ  Alpha       3 (A')    -11.2400
               3       Occ  Beta        3 (A')    -11.2400
               14      Vir  Alpha      12 (A')      0.0059
               18      Vir  Alpha      15 (A')      0.0130
               19      Vir  Alpha      16 (A')      0.0131
               27      Vir  Alpha      21 (A')      0.0362
               28      Vir  Alpha      22 (A')      0.0366
               32      Vir  Alpha      24 (A')      0.0487
               45      Vir  Alpha      33 (A')      0.1737
               14      Vir  Beta       12 (A')      0.0059
               18      Vir  Beta       15 (A')      0.0130
               19      Vir  Beta       16 (A')      0.0131
               27      Vir  Beta       21 (A')      0.0362
               28      Vir  Beta       22 (A')      0.0366
               32      Vir  Beta       24 (A')      0.0487
               45      Vir  Beta       33 (A')      0.1737


      CVS-EOM-CCSD/MP2 left amplitudes will be solved using Davidson.
      Amplitudes will be solved using MOM  algorithm
      Roots     MaxVec    MaxIter   Precond   Conv      Thresh    Shift    
      10        120       60        1         1.00e-05  1.00e-05  0.00e+00  
 ------------------------------------------------------------------------------
      Iter ConvRoots NVecs ResNorm Current eigenvalues (eV)
 ------------------------------------------------------------------------------
      0    0      10    2.62e-02   288.1519   288.7686   289.3522   289.7067   290.0659   290.1905   290.3313   290.4450   290.5903   290.6808   
      1    0      20    1.27e-02   288.1519   288.7686   289.3522   289.7066   290.0662   290.1906   290.3315   290.4448   290.5903   290.6806   
      2    0      30    5.28e-04   288.1519   288.7687   289.3522   289.7066   290.0662   290.1906   290.3315   290.4449   290.5903   290.6806   
      3    0      40    8.37e-04   288.1519   288.7687   289.3522   289.7066   290.0662   290.1907   290.3315   290.4448   290.5903   290.6803   
      4    7      50    3.32e-05   288.1519*  288.7687*  289.3522*  289.7066   290.0662*  290.1906*  290.3315*  290.4448*  290.5903   290.6807   
      5    9      53    6.19e-06   288.1519*  288.7687*  289.3522*  289.7066*  290.0662*  290.1906*  290.3315*  290.4448*  290.5903*  290.6807   
      6    10     54    5.26e-06   288.1519*  288.7687*  289.3522*  289.7066*  290.0662*  290.1906*  290.3315*  290.4448*  290.5903*  290.6807*  

     Davidson procedure converged

        Solving for CVS-EOMEE-CCSD A" singlet states.

        CVS-EOMEE-CCSD/MP2 right amplitudes will be solved using Davidson.
      Amplitudes will be solved using standard  algorithm
      Roots     MaxVec    MaxIter   Precond   Conv      Thresh    Shift    
      10        120       60        1         1.00e-05  1.00e-05  0.00e+00  
 ------------------------------------------------------------------------------
      Iter ConvRoots NVecs ResNorm Current eigenvalues (eV)
 ------------------------------------------------------------------------------
      0    0      10    1.88e+00   303.2720   303.8354   304.1185   304.3667   304.5597   304.7026   304.9039   305.1702   305.3993   306.7482   
      1    0      20    1.14e+00   300.3966   300.9473   301.2358   301.4918   301.6795   301.8237   302.0277   302.2900   302.5164   303.8947   
      2    0      30    6.59e-02   290.0938   290.5156   290.8971   291.2112   291.3510   291.5236   291.7442   291.9533   292.1898   293.7166   
      3    0      40    4.13e-03   289.4853   289.7797   290.4516   290.7188   290.8139   291.0621   291.2499   291.4029   291.7151   293.1857   
      4    0      50    2.08e-02   288.6736   289.6076   290.4349   290.6564   290.7358   291.0466   291.2217   291.2928   291.6926   293.1443   
      5    0      60    7.52e-03   286.2959   289.4583   290.4050   290.4615   290.6635   291.0347   291.0675   291.1776   291.6611   291.8524   
      6    0      70    1.44e-03   285.9738   289.3708   290.3771   290.4409   290.6113   291.0175   291.0443   291.1264   291.6427   291.7390   
      7    0      80    4.89e-04   285.9184   289.3527   290.3640   290.4353   290.5939   291.0059   291.0402   291.1075   291.6355   291.6994   
      8    0      90    2.36e-04   285.9062   289.3504   290.3575   290.4325   290.5919   290.9996   291.0385   291.1057   291.6290   291.6796   
      9    4      100   4.56e-05   285.9038   289.3496*  290.3553   290.4314   290.5913*  290.9971   291.0378*  291.1054*  291.6229   291.6715   
      10   6      106   1.28e-05   285.9039*  289.3495*  290.3547*  290.4314*  290.5912   290.9965*  291.0377*  291.1053   291.6210   291.6704   
      11   6      110   9.67e-03   285.9040*  289.3497   289.5330   290.3547*  290.4314*  290.5914   290.9964*  291.0378*  291.1056   291.6210*  
      12   9      114   3.24e-03   285.9040*  288.3438   289.3498*  290.3547*  290.4314*  290.5914*  290.9964*  291.0378*  291.1055*  291.6210*  
      13   9      115   4.74e-04   285.9040*  288.0924   289.3499*  290.3547*  290.4314*  290.5914*  290.9964*  291.0378*  291.1055*  291.6210*  
      14   9      116   8.41e-05   285.9040*  288.0436   289.3499*  290.3547*  290.4314*  290.5914*  290.9964*  291.0378*  291.1055*  291.6210*  
      15   9      117   1.58e-05   285.9040*  288.0360   289.3499*  290.3547*  290.4314*  290.5914*  290.9964*  291.0378*  291.1055*  291.6210*  
      16   9      118   8.53e-06   285.9040*  288.0355   289.3499*  290.3547*  290.4314*  290.5914*  290.9964*  291.0378*  291.1055*  291.6210*  
      17   9      119   3.35e-06   285.9040*  288.0341   289.3499*  290.3547*  290.4314*  290.5914*  290.9964*  291.0378*  291.1055*  291.6210*  
      18   10     120   9.84e-07   285.9040*  288.0340*  289.3499*  290.3547*  290.4314*  290.5914*  290.9964*  291.0378*  291.1055*  291.6210*  

     Davidson procedure converged

 EOMEE transition 1/A"
 Total energy = -166.94111454 a.u.  Excitation energy = 285.9040 eV.
 R0^2 = 0.0000  R1^2 = 0.8249  R2_CCVV^2 = 0.0013  R2_COVV^2 = 0.0869  Res^2 = 4.77e-07
 Conv-d = yes

 Amplitude    Transitions between orbitals
 -0.5066       3 (A') A                  ->    12 (A") A                  
 -0.5066       3 (A') B                  ->    12 (A") B                  
  0.3210       3 (A') A                  ->    14 (A") A                  
  0.3210       3 (A') B                  ->    14 (A") B                  
  0.1896       3 (A') A                  ->    10 (A") A                  
  0.1896       3 (A') B                  ->    10 (A") B                  
 -0.1077       3 (A') A                  ->    17 (A") A                  
 -0.1077       3 (A') B                  ->    17 (A") B                  

              Summary of significant orbitals:

               Number  Type             Irrep      Energy
               3       Occ  Alpha       3 (A')    -11.2400
               3       Occ  Beta        3 (A')    -11.2400
               35      Vir  Alpha      10 (A")      0.0807
               43      Vir  Alpha      12 (A")      0.1365
               51      Vir  Alpha      14 (A")      0.2574
               65      Vir  Alpha      17 (A")      0.8225
               35      Vir  Beta       10 (A")      0.0807
               43      Vir  Beta       12 (A")      0.1365
               51      Vir  Beta       14 (A")      0.2574
               65      Vir  Beta       17 (A")      0.8225


 EOMEE transition 2/A"
 Total energy = -166.86283848 a.u.  Excitation energy = 288.0340 eV.
 R0^2 = 0.0000  R1^2 = 0.8290  R2_CCVV^2 = 0.0013  R2_COVV^2 = 0.0849  Res^2 = 7.53e-06
 Conv-d = yes

 Amplitude    Transitions between orbitals
 -0.5041       2 (A') A                  ->    12 (A") A                  
 -0.5041       2 (A') B                  ->    12 (A") B                  
  0.3144       2 (A') A                  ->    14 (A") A                  
  0.3144       2 (A') B                  ->    14 (A") B                  
  0.1858       2 (A') A                  ->    10 (A") A                  
  0.1858       2 (A') B                  ->    10 (A") B                  
 -0.1009       2 (A') A                  ->    17 (A") A                  
 -0.1009       2 (A') B                  ->    17 (A") B                  

              Summary of significant orbitals:

               Number  Type             Irrep      Energy
               2       Occ  Alpha       2 (A')    -11.3324
               2       Occ  Beta        2 (A')    -11.3324
               35      Vir  Alpha      10 (A")      0.0807
               43      Vir  Alpha      12 (A")      0.1365
               51      Vir  Alpha      14 (A")      0.2574
               65      Vir  Alpha      17 (A")      0.8225
               35      Vir  Beta       10 (A")      0.0807
               43      Vir  Beta       12 (A")      0.1365
               51      Vir  Beta       14 (A")      0.2574
               65      Vir  Beta       17 (A")      0.8225


 EOMEE transition 3/A"
 Total energy = -166.81447987 a.u.  Excitation energy = 289.3499 eV.
 R0^2 = 0.0000  R1^2 = 0.8075  R2_CCVV^2 = 0.0012  R2_COVV^2 = 0.0956  Res^2 = 7.78e-08
 Conv-d = yes

 Amplitude    Transitions between orbitals
  0.4161       3 (A') A                  ->    9 (A") A                   
  0.4161       3 (A') B                  ->    9 (A") B                   
  0.3357       3 (A') A                  ->    6 (A") A                   
  0.3357       3 (A') B                  ->    6 (A") B                   
 -0.2429       3 (A') A                  ->    13 (A") A                  
 -0.2429       3 (A') B                  ->    13 (A") B                  
 -0.1705       3 (A') A                  ->    3 (A") A                   
 -0.1705       3 (A') B                  ->    3 (A") B                   

              Summary of significant orbitals:

               Number  Type             Irrep      Energy
               3       Occ  Alpha       3 (A')    -11.2400
               3       Occ  Beta        3 (A')    -11.2400
               16      Vir  Alpha       3 (A")      0.0063
               25      Vir  Alpha       6 (A")      0.0211
               34      Vir  Alpha       9 (A")      0.0539
               46      Vir  Alpha      13 (A")      0.1770
               16      Vir  Beta        3 (A")      0.0063
               25      Vir  Beta        6 (A")      0.0211
               34      Vir  Beta        9 (A")      0.0539
               46      Vir  Beta       13 (A")      0.1770


 EOMEE transition 4/A"
 Total energy = -166.77755516 a.u.  Excitation energy = 290.3547 eV.
 R0^2 = 0.0000  R1^2 = 0.8034  R2_CCVV^2 = 0.0012  R2_COVV^2 = 0.0977  Res^2 = 2.87e-07
 Conv-d = yes

 Amplitude    Transitions between orbitals
 -0.4055       3 (A') A                  ->    7 (A") A                   
 -0.4055       3 (A') B                  ->    7 (A") B                   
 -0.3196       3 (A') A                  ->    4 (A") A                   
 -0.3196       3 (A') B                  ->    4 (A") B                   
  0.2556       3 (A') A                  ->    10 (A") A                  
  0.2556       3 (A') B                  ->    10 (A") B                  
  0.1743       3 (A') A                  ->    8 (A") A                   
  0.1743       3 (A') B                  ->    8 (A") B                   
 -0.1078       3 (A') A                  ->    5 (A") A                   
 -0.1078       3 (A') B                  ->    5 (A") B                   
 -0.1067       3 (A') A                  ->    14 (A") A                  
 -0.1067       3 (A') B                  ->    14 (A") B                  

              Summary of significant orbitals:

               Number  Type             Irrep      Energy
               3       Occ  Alpha       3 (A')    -11.2400
               3       Occ  Beta        3 (A')    -11.2400
               20      Vir  Alpha       4 (A")      0.0131
               22      Vir  Alpha       5 (A")      0.0134
               29      Vir  Alpha       7 (A")      0.0366
               31      Vir  Alpha       8 (A")      0.0378
               35      Vir  Alpha      10 (A")      0.0807
               51      Vir  Alpha      14 (A")      0.2574
               20      Vir  Beta        4 (A")      0.0131
               22      Vir  Beta        5 (A")      0.0134
               29      Vir  Beta        7 (A")      0.0366
               31      Vir  Beta        8 (A")      0.0378
               35      Vir  Beta       10 (A")      0.0807
               51      Vir  Beta       14 (A")      0.2574


 EOMEE transition 5/A"
 Total energy = -166.77473648 a.u.  Excitation energy = 290.4314 eV.
 R0^2 = 0.0000  R1^2 = 0.8027  R2_CCVV^2 = 0.0011  R2_COVV^2 = 0.0981  Res^2 = 6.84e-08
 Conv-d = yes

 Amplitude    Transitions between orbitals
 -0.3938       3 (A') A                  ->    8 (A") A                   
 -0.3938       3 (A') B                  ->    8 (A") B                   
  0.3401       3 (A') A                  ->    5 (A") A                   
  0.3401       3 (A') B                  ->    5 (A") B                   
 -0.2562       3 (A') A                  ->    11 (A") A                  
 -0.2562       3 (A') B                  ->    11 (A") B                  
 -0.1713       3 (A') A                  ->    7 (A") A                   
 -0.1713       3 (A') B                  ->    7 (A") B                   

              Summary of significant orbitals:

               Number  Type             Irrep      Energy
               3       Occ  Alpha       3 (A')    -11.2400
               3       Occ  Beta        3 (A')    -11.2400
               22      Vir  Alpha       5 (A")      0.0134
               29      Vir  Alpha       7 (A")      0.0366
               31      Vir  Alpha       8 (A")      0.0378
               39      Vir  Alpha      11 (A")      0.0877
               22      Vir  Beta        5 (A")      0.0134
               29      Vir  Beta        7 (A")      0.0366
               31      Vir  Beta        8 (A")      0.0378
               39      Vir  Beta       11 (A")      0.0877


 EOMEE transition 6/A"
 Total energy = -166.76885542 a.u.  Excitation energy = 290.5914 eV.
 R0^2 = 0.0000  R1^2 = 0.8047  R2_CCVV^2 = 0.0012  R2_COVV^2 = 0.0971  Res^2 = 1.15e-07
 Conv-d = yes

 Amplitude    Transitions between orbitals
  0.4921       3 (A') A                  ->    3 (A") A                   
  0.4921       3 (A') B                  ->    3 (A") B                   
  0.2455       3 (A') A                  ->    9 (A") A                   
  0.2455       3 (A') B                  ->    9 (A") B                   
 -0.2141       3 (A') A                  ->    6 (A") A                   
 -0.2141       3 (A') B                  ->    6 (A") B                   
 -0.1885       3 (A') A                  ->    13 (A") A                  
 -0.1885       3 (A') B                  ->    13 (A") B                  

              Summary of significant orbitals:

               Number  Type             Irrep      Energy
               3       Occ  Alpha       3 (A')    -11.2400
               3       Occ  Beta        3 (A')    -11.2400
               16      Vir  Alpha       3 (A")      0.0063
               25      Vir  Alpha       6 (A")      0.0211
               34      Vir  Alpha       9 (A")      0.0539
               46      Vir  Alpha      13 (A")      0.1770
               16      Vir  Beta        3 (A")      0.0063
               25      Vir  Beta        6 (A")      0.0211
               34      Vir  Beta        9 (A")      0.0539
               46      Vir  Beta       13 (A")      0.1770


 EOMEE transition 7/A"
 Total energy = -166.75397264 a.u.  Excitation energy = 290.9964 eV.
 R0^2 = 0.0000  R1^2 = 0.8035  R2_CCVV^2 = 0.0011  R2_COVV^2 = 0.0977  Res^2 = 3.52e-07
 Conv-d = yes

 Amplitude    Transitions between orbitals
  0.5168       3 (A') A                  ->    4 (A") A                   
  0.5168       3 (A') B                  ->    4 (A") B                   
  0.2677       3 (A') A                  ->    10 (A") A                  
  0.2677       3 (A') B                  ->    10 (A") B                  
 -0.1877       3 (A') A                  ->    7 (A") A                   
 -0.1877       3 (A') B                  ->    7 (A") B                   

              Summary of significant orbitals:

               Number  Type             Irrep      Energy
               3       Occ  Alpha       3 (A')    -11.2400
               3       Occ  Beta        3 (A')    -11.2400
               20      Vir  Alpha       4 (A")      0.0131
               29      Vir  Alpha       7 (A")      0.0366
               35      Vir  Alpha      10 (A")      0.0807
               20      Vir  Beta        4 (A")      0.0131
               29      Vir  Beta        7 (A")      0.0366
               35      Vir  Beta       10 (A")      0.0807


 EOMEE transition 8/A"
 Total energy = -166.75245177 a.u.  Excitation energy = 291.0378 eV.
 R0^2 = 0.0000  R1^2 = 0.8031  R2_CCVV^2 = 0.0011  R2_COVV^2 = 0.0979  Res^2 = 5.91e-08
 Conv-d = yes

 Amplitude    Transitions between orbitals
 -0.5028       3 (A') A                  ->    5 (A") A                   
 -0.5028       3 (A') B                  ->    5 (A") B                   
 -0.2794       3 (A') A                  ->    11 (A") A                  
 -0.2794       3 (A') B                  ->    11 (A") B                  
 -0.2193       3 (A') A                  ->    8 (A") A                   
 -0.2193       3 (A') B                  ->    8 (A") B                   

              Summary of significant orbitals:

               Number  Type             Irrep      Energy
               3       Occ  Alpha       3 (A')    -11.2400
               3       Occ  Beta        3 (A')    -11.2400
               22      Vir  Alpha       5 (A")      0.0134
               31      Vir  Alpha       8 (A")      0.0378
               39      Vir  Alpha      11 (A")      0.0877
               22      Vir  Beta        5 (A")      0.0134
               31      Vir  Beta        8 (A")      0.0378
               39      Vir  Beta       11 (A")      0.0877


 EOMEE transition 9/A"
 Total energy = -166.74996325 a.u.  Excitation energy = 291.1055 eV.
 R0^2 = 0.0000  R1^2 = 0.8040  R2_CCVV^2 = 0.0012  R2_COVV^2 = 0.0974  Res^2 = 1.20e-07
 Conv-d = yes

 Amplitude    Transitions between orbitals
 -0.4714       3 (A') A                  ->    6 (A") A                   
 -0.4714       3 (A') B                  ->    6 (A") B                   
 -0.3372       3 (A') A                  ->    3 (A") A                   
 -0.3372       3 (A') B                  ->    3 (A") B                   
 -0.1802       3 (A') A                  ->    13 (A") A                  
 -0.1802       3 (A') B                  ->    13 (A") B                  
  0.1406       3 (A') A                  ->    9 (A") A                   
  0.1406       3 (A') B                  ->    9 (A") B                   

              Summary of significant orbitals:

               Number  Type             Irrep      Energy
               3       Occ  Alpha       3 (A')    -11.2400
               3       Occ  Beta        3 (A')    -11.2400
               16      Vir  Alpha       3 (A")      0.0063
               25      Vir  Alpha       6 (A")      0.0211
               34      Vir  Alpha       9 (A")      0.0539
               46      Vir  Alpha      13 (A")      0.1770
               16      Vir  Beta        3 (A")      0.0063
               25      Vir  Beta        6 (A")      0.0211
               34      Vir  Beta        9 (A")      0.0539
               46      Vir  Beta       13 (A")      0.1770


 EOMEE transition 10/A"
 Total energy = -166.73101924 a.u.  Excitation energy = 291.6210 eV.
 R0^2 = 0.0000  R1^2 = 0.8035  R2_CCVV^2 = 0.0012  R2_COVV^2 = 0.0977  Res^2 = 7.54e-07
 Conv-d = yes

 Amplitude    Transitions between orbitals
  0.3861       3 (A') A                  ->    10 (A") A                  
  0.3861       3 (A') B                  ->    10 (A") B                  
  0.3286       3 (A') A                  ->    7 (A") A                   
  0.3286       3 (A') B                  ->    7 (A") B                   
  0.2415       3 (A') A                  ->    11 (A") A                  
  0.2415       3 (A') B                  ->    11 (A") B                  
 -0.2353       3 (A') A                  ->    8 (A") A                   
 -0.2353       3 (A') B                  ->    8 (A") B                   
 -0.1208       3 (A') A                  ->    14 (A") A                  
 -0.1208       3 (A') B                  ->    14 (A") B                  
 -0.1007       3 (A') A                  ->    4 (A") A                   
 -0.1007       3 (A') B                  ->    4 (A") B                   

              Summary of significant orbitals:

               Number  Type             Irrep      Energy
               3       Occ  Alpha       3 (A')    -11.2400
               3       Occ  Beta        3 (A')    -11.2400
               20      Vir  Alpha       4 (A")      0.0131
               29      Vir  Alpha       7 (A")      0.0366
               31      Vir  Alpha       8 (A")      0.0378
               35      Vir  Alpha      10 (A")      0.0807
               39      Vir  Alpha      11 (A")      0.0877
               51      Vir  Alpha      14 (A")      0.2574
               20      Vir  Beta        4 (A")      0.0131
               29      Vir  Beta        7 (A")      0.0366
               31      Vir  Beta        8 (A")      0.0378
               35      Vir  Beta       10 (A")      0.0807
               39      Vir  Beta       11 (A")      0.0877
               51      Vir  Beta       14 (A")      0.2574


      CVS-EOM-CCSD/MP2 left amplitudes will be solved using Davidson.
      Amplitudes will be solved using MOM  algorithm
      Roots     MaxVec    MaxIter   Precond   Conv      Thresh    Shift    
      10        120       60        1         1.00e-05  1.00e-05  0.00e+00  
 ------------------------------------------------------------------------------
      Iter ConvRoots NVecs ResNorm Current eigenvalues (eV)
 ------------------------------------------------------------------------------
      0    0      10    2.45e-02   285.9040   288.0340   289.3499   290.3547   290.4314   290.5914   290.9964   291.0378   291.1055   291.6210   
      1    0      20    1.19e-02   285.9040   288.0340   289.3499   290.3547   290.4314   290.5914   290.9964   291.0378   291.1055   291.6210   
      2    0      30    4.54e-04   285.9040   288.0340   289.3499   290.3547   290.4314   290.5914   290.9964   291.0378   291.1055   291.6210   
      3    0      40    6.88e-05   285.9040   288.0341   289.3499   290.3547   290.4314   290.5914   290.9964   291.0378   291.1055   291.6210   
      4    8      50    9.62e-06   285.9040   288.0341   289.3499*  290.3547*  290.4314*  290.5914*  290.9964*  291.0378*  291.1055*  291.6210*  
      5    9      52    4.16e-06   285.9040*  288.0341   289.3499*  290.3547*  290.4314*  290.5914*  290.9964*  291.0378*  291.1055*  291.6210*  
      6    10     53    3.11e-06   285.9040*  288.0341*  289.3499*  290.3547*  290.4314*  290.5914*  290.9964*  291.0378*  291.1055*  291.6210*  

     Davidson procedure converged

 CVS-EOMEE-CCSD calculation:   CPU 2361.35 s  wall 6288.30 s


 Start computing the transition properties

 ------------------------------------------------------------------------------
 State A: ccsd: 0/A'
 State B: cvs_eomee_ccsd/rhfref/singlets: 1/A'
 Transition dipole moment (a.u.):
   A->B: 0.027892 (X 0.027876, Y -0.000941, Z 0.000000)
   B->A: 0.027431 (X 0.027421, Y -0.000736, Z 0.000000)
 Oscillator strength (a.u.): 0.005401
 Norm of one-particle transition density matrix:
   A->B: 0.903554;   B->A: 0.869865
   ||gamma^AB||*||gamma^BA||: 0.785969

 ------------------------------------------------------------------------------
 State A: ccsd: 0/A'
 State B: cvs_eomee_ccsd/rhfref/singlets: 2/A'
 Transition dipole moment (a.u.):
   A->B: 0.039937 (X -0.009146, Y 0.038876, Z 0.000000)
   B->A: 0.038894 (X -0.008618, Y 0.037927, Z 0.000000)
 Oscillator strength (a.u.): 0.010989
 Norm of one-particle transition density matrix:
   A->B: 0.903356;   B->A: 0.870249
   ||gamma^AB||*||gamma^BA||: 0.786145

 ------------------------------------------------------------------------------
 State A: ccsd: 0/A'
 State B: cvs_eomee_ccsd/rhfref/singlets: 3/A'
 Transition dipole moment (a.u.):
   A->B: 0.020958 (X -0.016351, Y 0.013111, Z 0.000000)
   B->A: 0.020648 (X -0.015878, Y 0.013200, Z 0.000000)
 Oscillator strength (a.u.): 0.003067
 Norm of one-particle transition density matrix:
   A->B: 0.900155;   B->A: 0.862000
   ||gamma^AB||*||gamma^BA||: 0.775933

 ------------------------------------------------------------------------------
 State A: ccsd: 0/A'
 State B: cvs_eomee_ccsd/rhfref/singlets: 4/A'
 Transition dipole moment (a.u.):
   A->B: 0.024775 (X -0.002295, Y -0.024668, Z 0.000000)
   B->A: 0.024420 (X -0.002020, Y -0.024336, Z 0.000000)
 Oscillator strength (a.u.): 0.004294
 Norm of one-particle transition density matrix:
   A->B: 0.898093;   B->A: 0.863724
   ||gamma^AB||*||gamma^BA||: 0.775705

 ------------------------------------------------------------------------------
 State A: ccsd: 0/A'
 State B: cvs_eomee_ccsd/rhfref/singlets: 5/A'
 Transition dipole moment (a.u.):
   A->B: 0.014203 (X -0.013086, Y 0.005521, Z 0.000000)
   B->A: 0.014077 (X -0.013044, Y 0.005293, Z 0.000000)
 Oscillator strength (a.u.): 0.001421
 Norm of one-particle transition density matrix:
   A->B: 0.901241;   B->A: 0.863479
   ||gamma^AB||*||gamma^BA||: 0.778202

 ------------------------------------------------------------------------------
 State A: ccsd: 0/A'
 State B: cvs_eomee_ccsd/rhfref/singlets: 6/A'
 Transition dipole moment (a.u.):
   A->B: 0.013587 (X -0.013433, Y -0.002034, Z 0.000000)
   B->A: 0.013343 (X -0.013199, Y -0.001954, Z 0.000000)
 Oscillator strength (a.u.): 0.001289
 Norm of one-particle transition density matrix:
   A->B: 0.900081;   B->A: 0.861104
   ||gamma^AB||*||gamma^BA||: 0.775064

 ------------------------------------------------------------------------------
 State A: ccsd: 0/A'
 State B: cvs_eomee_ccsd/rhfref/singlets: 7/A'
 Transition dipole moment (a.u.):
   A->B: 0.005812 (X -0.002029, Y -0.005447, Z 0.000000)
   B->A: 0.005639 (X -0.001967, Y -0.005284, Z 0.000000)
 Oscillator strength (a.u.): 0.000233
 Norm of one-particle transition density matrix:
   A->B: 0.900626;   B->A: 0.860850
   ||gamma^AB||*||gamma^BA||: 0.775304

 ------------------------------------------------------------------------------
 State A: ccsd: 0/A'
 State B: cvs_eomee_ccsd/rhfref/singlets: 8/A'
 Transition dipole moment (a.u.):
   A->B: 0.012694 (X 0.002708, Y -0.012402, Z 0.000000)
   B->A: 0.012329 (X 0.002563, Y -0.012059, Z 0.000000)
 Oscillator strength (a.u.): 0.001114
 Norm of one-particle transition density matrix:
   A->B: 0.900608;   B->A: 0.861322
   ||gamma^AB||*||gamma^BA||: 0.775714

 ------------------------------------------------------------------------------
 State A: ccsd: 0/A'
 State B: cvs_eomee_ccsd/rhfref/singlets: 9/A'
 Transition dipole moment (a.u.):
   A->B: 0.010318 (X -0.008736, Y 0.005489, Z 0.000000)
   B->A: 0.009993 (X -0.008442, Y 0.005347, Z 0.000000)
 Oscillator strength (a.u.): 0.000734
 Norm of one-particle transition density matrix:
   A->B: 0.900075;   B->A: 0.860616
   ||gamma^AB||*||gamma^BA||: 0.774619

 ------------------------------------------------------------------------------
 State A: ccsd: 0/A'
 State B: cvs_eomee_ccsd/rhfref/singlets: 10/A'
 Transition dipole moment (a.u.):
   A->B: 0.011156 (X 0.000196, Y 0.011155, Z 0.000000)
   B->A: 0.011043 (X 0.000020, Y 0.011043, Z 0.000000)
 Oscillator strength (a.u.): 0.000877
 Norm of one-particle transition density matrix:
   A->B: 0.899984;   B->A: 0.861193
   ||gamma^AB||*||gamma^BA||: 0.775061

 ------------------------------------------------------------------------------
 State A: ccsd: 0/A'
 State B: cvs_eomee_ccsd/rhfref/singlets: 1/A"
 Transition dipole moment (a.u.):
   A->B: 0.080075 (X 0.000000, Y 0.000000, Z 0.080075)
   B->A: 0.081803 (X 0.000000, Y 0.000000, Z 0.081803)
 Oscillator strength (a.u.): 0.045882
 Norm of one-particle transition density matrix:
   A->B: 0.884170;   B->A: 0.887298
   ||gamma^AB||*||gamma^BA||: 0.784522

 ------------------------------------------------------------------------------
 State A: ccsd: 0/A'
 State B: cvs_eomee_ccsd/rhfref/singlets: 2/A"
 Transition dipole moment (a.u.):
   A->B: 0.090689 (X 0.000000, Y 0.000000, Z 0.090689)
   B->A: 0.091972 (X 0.000000, Y 0.000000, Z 0.091972)
 Oscillator strength (a.u.): 0.058859
 Norm of one-particle transition density matrix:
   A->B: 0.886872;   B->A: 0.890417
   ||gamma^AB||*||gamma^BA||: 0.789687

 ------------------------------------------------------------------------------
 State A: ccsd: 0/A'
 State B: cvs_eomee_ccsd/rhfref/singlets: 3/A"
 Transition dipole moment (a.u.):
   A->B: 0.023887 (X 0.000000, Y 0.000000, Z -0.023887)
   B->A: 0.024272 (X 0.000000, Y 0.000000, Z -0.024272)
 Oscillator strength (a.u.): 0.004110
 Norm of one-particle transition density matrix:
   A->B: 0.901608;   B->A: 0.864102
   ||gamma^AB||*||gamma^BA||: 0.779081

 ------------------------------------------------------------------------------
 State A: ccsd: 0/A'
 State B: cvs_eomee_ccsd/rhfref/singlets: 4/A"
 Transition dipole moment (a.u.):
   A->B: 0.010771 (X 0.000000, Y 0.000000, Z -0.010771)
   B->A: 0.010538 (X 0.000000, Y 0.000000, Z -0.010538)
 Oscillator strength (a.u.): 0.000807
 Norm of one-particle transition density matrix:
   A->B: 0.900331;   B->A: 0.860410
   ||gamma^AB||*||gamma^BA||: 0.774653

 ------------------------------------------------------------------------------
 State A: ccsd: 0/A'
 State B: cvs_eomee_ccsd/rhfref/singlets: 5/A"
 Transition dipole moment (a.u.):
   A->B: 0.005160 (X 0.000000, Y 0.000000, Z -0.005160)
   B->A: 0.005031 (X 0.000000, Y 0.000000, Z -0.005031)
 Oscillator strength (a.u.): 0.000185
 Norm of one-particle transition density matrix:
   A->B: 0.900150;   B->A: 0.859834
   ||gamma^AB||*||gamma^BA||: 0.773979

 ------------------------------------------------------------------------------
 State A: ccsd: 0/A'
 State B: cvs_eomee_ccsd/rhfref/singlets: 6/A"
 Transition dipole moment (a.u.):
   A->B: 0.013447 (X 0.000000, Y 0.000000, Z -0.013447)
   B->A: 0.013587 (X 0.000000, Y 0.000000, Z -0.013587)
 Oscillator strength (a.u.): 0.001301
 Norm of one-particle transition density matrix:
   A->B: 0.900905;   B->A: 0.861503
   ||gamma^AB||*||gamma^BA||: 0.776132

 ------------------------------------------------------------------------------
 State A: ccsd: 0/A'
 State B: cvs_eomee_ccsd/rhfref/singlets: 7/A"
 Transition dipole moment (a.u.):
   A->B: 0.009034 (X 0.000000, Y 0.000000, Z -0.009034)
   B->A: 0.008835 (X 0.000000, Y 0.000000, Z -0.008835)
 Oscillator strength (a.u.): 0.000569
 Norm of one-particle transition density matrix:
   A->B: 0.900433;   B->A: 0.860433
   ||gamma^AB||*||gamma^BA||: 0.774762

 ------------------------------------------------------------------------------
 State A: ccsd: 0/A'
 State B: cvs_eomee_ccsd/rhfref/singlets: 8/A"
 Transition dipole moment (a.u.):
   A->B: 0.004149 (X 0.000000, Y 0.000000, Z -0.004149)
   B->A: 0.004100 (X 0.000000, Y 0.000000, Z -0.004100)
 Oscillator strength (a.u.): 0.000121
 Norm of one-particle transition density matrix:
   A->B: 0.900366;   B->A: 0.860098
   ||gamma^AB||*||gamma^BA||: 0.774403

 ------------------------------------------------------------------------------
 State A: ccsd: 0/A'
 State B: cvs_eomee_ccsd/rhfref/singlets: 9/A"
 Transition dipole moment (a.u.):
   A->B: 0.009615 (X 0.000000, Y 0.000000, Z -0.009615)
   B->A: 0.009816 (X 0.000000, Y 0.000000, Z -0.009816)
 Oscillator strength (a.u.): 0.000673
 Norm of one-particle transition density matrix:
   A->B: 0.900631;   B->A: 0.860908
   ||gamma^AB||*||gamma^BA||: 0.775360

 ------------------------------------------------------------------------------
 State A: ccsd: 0/A'
 State B: cvs_eomee_ccsd/rhfref/singlets: 10/A"
 Transition dipole moment (a.u.):
   A->B: 0.009681 (X 0.000000, Y 0.000000, Z -0.009681)
   B->A: 0.009343 (X 0.000000, Y 0.000000, Z -0.009343)
 Oscillator strength (a.u.): 0.000646
 Norm of one-particle transition density matrix:
   A->B: 0.900405;   B->A: 0.860366
   ||gamma^AB||*||gamma^BA||: 0.774678


 All requested transition properties have been computed

 Transition Properties:   CPU 8.26 s  wall 12.93 s

 Total ccman2 time:   CPU 2434.46 s  wall 6384.44 s

 
 --------------------------------------------------------------
             Orbital Energies (a.u.) and Symmetries
 --------------------------------------------------------------
 
 Alpha MOs, Restricted
 -- Occupied --                  
-26.310 -11.332 -11.240  -1.628  -1.055  -0.840  -0.740  -0.690
  1 A'    2 A'    3 A'    4 A'    5 A'    6 A'    7 A'    1 A"                 
 -0.686  -0.591  -0.562  -0.386
  8 A'    9 A'   10 A'    2 A"                                                 
 -- Virtual --                   
  0.002   0.006   0.006   0.006   0.010   0.013   0.013   0.013
 11 A'   12 A'   13 A'    3 A"   14 A'   15 A'   16 A'    4 A"                 
  0.013   0.013   0.020   0.021   0.021   0.029   0.036   0.037
 17 A'    5 A"   18 A'   19 A'    6 A"   20 A'   21 A'   22 A'                 
  0.037   0.038   0.038   0.049   0.052   0.054   0.081   0.082
  7 A"   23 A'    8 A"   24 A'   25 A'    9 A"   10 A"   26 A'                 
  0.083   0.085   0.088   0.094   0.117   0.123   0.137   0.159
 27 A'   28 A'   11 A"   29 A'   30 A'   31 A'   12 A"   32 A'                 
  0.174   0.177   0.210   0.221   0.230   0.238   0.257   0.297
 33 A'   13 A"   34 A'   35 A'   36 A'   37 A'   14 A"   38 A'                 
  0.312   0.357   0.405   0.405   0.477   0.484   0.523   0.565
 39 A'   40 A'   41 A'   15 A"   42 A'   43 A'   44 A'   45 A'                 
  0.645   0.667   0.720   0.744   0.822   0.860   0.921   0.932
 46 A'   47 A'   48 A'   16 A"   17 A"   49 A'   50 A'   51 A'                 
  0.978   1.019   1.088   1.250   1.312   1.465   1.584   1.648
 52 A'   53 A'   54 A'   18 A"   19 A"   20 A"   55 A'   56 A'                 
  1.679   1.686   1.738   1.819   1.847   1.909   1.953   2.030
 57 A'   21 A"   58 A'   59 A'   60 A'   22 A"   61 A'   23 A"                 
  2.148   2.233   2.312   2.348   2.401   2.442   2.568   2.754
 62 A'   63 A'   24 A"   64 A'   25 A"   65 A'   66 A'   67 A'                 
  2.868   2.921   3.004   3.053   3.089   3.273   3.370   3.586
 68 A'   69 A'   70 A'   71 A'   26 A"   27 A"   72 A'   73 A'                 
  3.880   4.147   4.225   4.249   4.432   4.443   4.591   5.319
 74 A'   75 A'   28 A"   76 A'   77 A'   29 A"   78 A'   79 A'                 
  6.941   7.017   7.333  24.837  25.410  68.758
 30 A"   80 A'   81 A'   82 A'   83 A'   84 A'                                 
 
 Beta MOs, Restricted
 -- Occupied --                  
-26.310 -11.332 -11.240  -1.628  -1.055  -0.840  -0.740  -0.690
  1 A'    2 A'    3 A'    4 A'    5 A'    6 A'    7 A'    1 A"                 
 -0.686  -0.591  -0.562  -0.386
  8 A'    9 A'   10 A'    2 A"                                                 
 -- Virtual --                   
  0.002   0.006   0.006   0.006   0.010   0.013   0.013   0.013
 11 A'   12 A'   13 A'    3 A"   14 A'   15 A'   16 A'    4 A"                 
  0.013   0.013   0.020   0.021   0.021   0.029   0.036   0.037
 17 A'    5 A"   18 A'   19 A'    6 A"   20 A'   21 A'   22 A'                 
  0.037   0.038   0.038   0.049   0.052   0.054   0.081   0.082
  7 A"   23 A'    8 A"   24 A'   25 A'    9 A"   10 A"   26 A'                 
  0.083   0.085   0.088   0.094   0.117   0.123   0.137   0.159
 27 A'   28 A'   11 A"   29 A'   30 A'   31 A'   12 A"   32 A'                 
  0.174   0.177   0.210   0.221   0.230   0.238   0.257   0.297
 33 A'   13 A"   34 A'   35 A'   36 A'   37 A'   14 A"   38 A'                 
  0.312   0.357   0.405   0.405   0.477   0.484   0.523   0.565
 39 A'   40 A'   41 A'   15 A"   42 A'   43 A'   44 A'   45 A'                 
  0.645   0.667   0.720   0.744   0.822   0.860   0.921   0.932
 46 A'   47 A'   48 A'   16 A"   17 A"   49 A'   50 A'   51 A'                 
  0.978   1.019   1.088   1.250   1.312   1.465   1.584   1.648
 52 A'   53 A'   54 A'   18 A"   19 A"   20 A"   55 A'   56 A'                 
  1.679   1.686   1.738   1.819   1.847   1.909   1.953   2.030
 57 A'   21 A"   58 A'   59 A'   60 A'   22 A"   61 A'   23 A"                 
  2.148   2.233   2.312   2.348   2.401   2.442   2.568   2.754
 62 A'   63 A'   24 A"   64 A'   25 A"   65 A'   66 A'   67 A'                 
  2.868   2.921   3.004   3.053   3.089   3.273   3.370   3.586
 68 A'   69 A'   70 A'   71 A'   26 A"   27 A"   72 A'   73 A'                 
  3.880   4.147   4.225   4.249   4.432   4.443   4.591   5.319
 74 A'   75 A'   28 A"   76 A'   77 A'   29 A"   78 A'   79 A'                 
  6.941   7.017   7.333  24.837  25.410  68.758
 30 A"   80 A'   81 A'   82 A'   83 A'   84 A'                                 
 --------------------------------------------------------------
 
          Ground-State Mulliken Net Atomic Charges

     Atom                 Charge (a.u.)
  ----------------------------------------
      1 C                    -0.227533
      2 GH                    0.007844
      3 F                    -0.151639
      4 C                    -0.030325
      5 H                     0.166304
      6 H                     0.135869
      7 H                     0.099481
  ----------------------------------------
  Sum of atomic charges =     0.000000

 -----------------------------------------------------------------
                    Cartesian Multipole Moments
 -----------------------------------------------------------------
    Charge (ESU x 10^10)
                 0.0000
    Dipole Moment (Debye)
         X       1.4897      Y      -0.9288      Z      -0.0000
       Tot       1.7555
    Quadrupole Moments (Debye-Ang)
        XX     -18.0220     XY       0.9579     YY     -15.3251
        XZ      -0.0000     YZ       0.0000     ZZ     -19.4679
    Octopole Moments (Debye-Ang^2)
       XXX      -3.3818    XXY      -0.3928    XYY      -2.1658
       YYY       0.4548    XXZ       0.0000    XYZ      -0.0000
       YYZ      -0.0000    XZZ      -4.9932    YZZ       0.6967
       ZZZ      -0.0000
    Hexadecapole Moments (Debye-Ang^3)
      XXXX    -119.7105   XXXY      -3.8122   XXYY     -26.2924
      XYYY       0.6018   YYYY     -35.1574   XXXZ      -0.0000
      XXYZ       0.0000   XYYZ      -0.0000   YYYZ       0.0000
      XXZZ     -26.5552   XYZZ      -0.4727   YYZZ     -11.1343
      XZZZ      -0.0000   YZZZ       0.0000   ZZZZ     -21.9467
 -----------------------------------------------------------------
Archival summary:
1\1\n-62-24-5\SP\ProcedureUnspecified\BasisUnspecified\123h1\malop\MonJun2515:43:272018MonJun2515:43:272018\0\\#,ProcedureUnspecified,BasisUnspecified,\\0,1\C\Gh,1,0.435868\H,1,1.08083,2,170.664\F,2,1.17461,1,103.178,3,0,0\C,2,1.19615,1,97.4666,3,-180,0\H,5,1.07898,2,137.975,1,-0,0\H,5,1.08006,2,102.344,1,180,0\\HF=-176.936774\\@

 Total job time:  6405.34s(wall), 2454.27s(cpu) 
 Mon Jun 25 15:43:27 2018

        *************************************************************
        *                                                           *
        *  Thank you very much for using Q-Chem.  Have a nice day.  *
        *                                                           *
        *************************************************************


