[Molden Format]
[Atoms] (Angs)
  C      1    6     -0.00714236     -1.70213747     -0.00000000
  H      2    1     -2.06882847     -1.44022412      0.00000000
  H      3    1     -0.12337987     -2.77567521      0.00000000
  H      4    1      0.04651892      1.98813947     -0.00000000
  C      5    6     -1.21953563      0.40211669      0.00000000
  O      6    8     -2.25921553      1.03043814      0.00000000
  C      7    6      1.28797806      0.34644937     -0.00000000
  O      8    8      2.31273661      1.00537216     -0.00000000
  N      9    7      0.03446295      0.97739857     -0.00000000
  N     10    7     -1.17287765     -0.98229824      0.00000000
  C     11    6      1.20107039     -1.10433419     -0.00000000
  H     12    1      2.11220096     -1.67699125     -0.00000000
[GTO]
1    0
S    6    1.000000
   4.56324000E+03    1.96665000E-03 
   6.82024000E+02    1.52306000E-02 
   1.54973000E+02    7.61269000E-02 
   4.44553000E+01    2.60801000E-01 
   1.30290000E+01    6.16462000E-01 
   1.82773000E+00    2.21006000E-01 
SP   3    1.000000
   2.09642000E+01    1.14660000E-01   4.02487000E-02 
   4.80331000E+00    9.19999000E-01   2.37594000E-01 
   1.45933000E+00   -3.03068000E-03   8.15854000E-01 
SP   1    1.000000
   4.83456000E-01    1.00000000E+00   1.00000000E+00 
SP   1    1.000000
   1.45585000E-01    1.00000000E+00   1.00000000E+00 
SP   1    1.000000
   4.38000000E-02    1.00000000E+00   1.00000000E+00 
D    1    1.000000
   6.26000000E-01    1.00000000E+00 

2    0
S    3    1.000000
   3.38650000E+01    2.54938000E-02 
   5.09479000E+00    1.90373000E-01 
   1.15879000E+00    8.52161000E-01 
S    1    1.000000
   3.25840000E-01    1.00000000E+00 
S    1    1.000000
   1.02741000E-01    1.00000000E+00 
S    1    1.000000
   3.60000000E-02    1.00000000E+00 
P    1    1.000000
   7.50000000E-01    1.00000000E+00 

3    0
S    3    1.000000
   3.38650000E+01    2.54938000E-02 
   5.09479000E+00    1.90373000E-01 
   1.15879000E+00    8.52161000E-01 
S    1    1.000000
   3.25840000E-01    1.00000000E+00 
S    1    1.000000
   1.02741000E-01    1.00000000E+00 
S    1    1.000000
   3.60000000E-02    1.00000000E+00 
P    1    1.000000
   7.50000000E-01    1.00000000E+00 

4    0
S    3    1.000000
   3.38650000E+01    2.54938000E-02 
   5.09479000E+00    1.90373000E-01 
   1.15879000E+00    8.52161000E-01 
S    1    1.000000
   3.25840000E-01    1.00000000E+00 
S    1    1.000000
   1.02741000E-01    1.00000000E+00 
S    1    1.000000
   3.60000000E-02    1.00000000E+00 
P    1    1.000000
   7.50000000E-01    1.00000000E+00 

5    0
S    6    1.000000
   4.56324000E+03    1.96665000E-03 
   6.82024000E+02    1.52306000E-02 
   1.54973000E+02    7.61269000E-02 
   4.44553000E+01    2.60801000E-01 
   1.30290000E+01    6.16462000E-01 
   1.82773000E+00    2.21006000E-01 
SP   3    1.000000
   2.09642000E+01    1.14660000E-01   4.02487000E-02 
   4.80331000E+00    9.19999000E-01   2.37594000E-01 
   1.45933000E+00   -3.03068000E-03   8.15854000E-01 
SP   1    1.000000
   4.83456000E-01    1.00000000E+00   1.00000000E+00 
SP   1    1.000000
   1.45585000E-01    1.00000000E+00   1.00000000E+00 
SP   1    1.000000
   4.38000000E-02    1.00000000E+00   1.00000000E+00 
D    1    1.000000
   6.26000000E-01    1.00000000E+00 

6    0
S    6    1.000000
   8.58850000E+03    1.89515000E-03 
   1.29723000E+03    1.43859000E-02 
   2.99296000E+02    7.07320000E-02 
   8.73771000E+01    2.40001000E-01 
   2.56789000E+01    5.94797000E-01 
   3.74004000E+00    2.80802000E-01 
SP   3    1.000000
   4.21175000E+01    1.13889000E-01   3.65114000E-02 
   9.62837000E+00    9.20811000E-01   2.37153000E-01 
   2.85332000E+00   -3.27447000E-03   8.19702000E-01 
SP   1    1.000000
   9.05661000E-01    1.00000000E+00   1.00000000E+00 
SP   1    1.000000
   2.55611000E-01    1.00000000E+00   1.00000000E+00 
SP   1    1.000000
   8.45000000E-02    1.00000000E+00   1.00000000E+00 
D    1    1.000000
   1.29200000E+00    1.00000000E+00 

7    0
S    6    1.000000
   4.56324000E+03    1.96665000E-03 
   6.82024000E+02    1.52306000E-02 
   1.54973000E+02    7.61269000E-02 
   4.44553000E+01    2.60801000E-01 
   1.30290000E+01    6.16462000E-01 
   1.82773000E+00    2.21006000E-01 
SP   3    1.000000
   2.09642000E+01    1.14660000E-01   4.02487000E-02 
   4.80331000E+00    9.19999000E-01   2.37594000E-01 
   1.45933000E+00   -3.03068000E-03   8.15854000E-01 
SP   1    1.000000
   4.83456000E-01    1.00000000E+00   1.00000000E+00 
SP   1    1.000000
   1.45585000E-01    1.00000000E+00   1.00000000E+00 
SP   1    1.000000
   4.38000000E-02    1.00000000E+00   1.00000000E+00 
D    1    1.000000
   6.26000000E-01    1.00000000E+00 

8    0
S    6    1.000000
   8.58850000E+03    1.89515000E-03 
   1.29723000E+03    1.43859000E-02 
   2.99296000E+02    7.07320000E-02 
   8.73771000E+01    2.40001000E-01 
   2.56789000E+01    5.94797000E-01 
   3.74004000E+00    2.80802000E-01 
SP   3    1.000000
   4.21175000E+01    1.13889000E-01   3.65114000E-02 
   9.62837000E+00    9.20811000E-01   2.37153000E-01 
   2.85332000E+00   -3.27447000E-03   8.19702000E-01 
SP   1    1.000000
   9.05661000E-01    1.00000000E+00   1.00000000E+00 
SP   1    1.000000
   2.55611000E-01    1.00000000E+00   1.00000000E+00 
SP   1    1.000000
   8.45000000E-02    1.00000000E+00   1.00000000E+00 
D    1    1.000000
   1.29200000E+00    1.00000000E+00 

9    0
S    6    1.000000
   6.29348000E+03    1.96979000E-03 
   9.49044000E+02    1.49613000E-02 
   2.18776000E+02    7.35006000E-02 
   6.36916000E+01    2.48937000E-01 
   1.88282000E+01    6.02460000E-01 
   2.72023000E+00    2.56202000E-01 
SP   3    1.000000
   3.06331000E+01    1.11906000E-01   3.83119000E-02 
   7.02614000E+00    9.21666000E-01   2.37403000E-01 
   2.11205000E+00   -2.56919000E-03   8.17592000E-01 
SP   1    1.000000
   6.84009000E-01    1.00000000E+00   1.00000000E+00 
SP   1    1.000000
   2.00878000E-01    1.00000000E+00   1.00000000E+00 
SP   1    1.000000
   6.39000000E-02    1.00000000E+00   1.00000000E+00 
D    1    1.000000
   9.13000000E-01    1.00000000E+00 

10    0
S    6    1.000000
   6.29348000E+03    1.96979000E-03 
   9.49044000E+02    1.49613000E-02 
   2.18776000E+02    7.35006000E-02 
   6.36916000E+01    2.48937000E-01 
   1.88282000E+01    6.02460000E-01 
   2.72023000E+00    2.56202000E-01 
SP   3    1.000000
   3.06331000E+01    1.11906000E-01   3.83119000E-02 
   7.02614000E+00    9.21666000E-01   2.37403000E-01 
   2.11205000E+00   -2.56919000E-03   8.17592000E-01 
SP   1    1.000000
   6.84009000E-01    1.00000000E+00   1.00000000E+00 
SP   1    1.000000
   2.00878000E-01    1.00000000E+00   1.00000000E+00 
SP   1    1.000000
   6.39000000E-02    1.00000000E+00   1.00000000E+00 
D    1    1.000000
   9.13000000E-01    1.00000000E+00 

11    0
S    6    1.000000
   4.56324000E+03    1.96665000E-03 
   6.82024000E+02    1.52306000E-02 
   1.54973000E+02    7.61269000E-02 
   4.44553000E+01    2.60801000E-01 
   1.30290000E+01    6.16462000E-01 
   1.82773000E+00    2.21006000E-01 
SP   3    1.000000
   2.09642000E+01    1.14660000E-01   4.02487000E-02 
   4.80331000E+00    9.19999000E-01   2.37594000E-01 
   1.45933000E+00   -3.03068000E-03   8.15854000E-01 
SP   1    1.000000
   4.83456000E-01    1.00000000E+00   1.00000000E+00 
SP   1    1.000000
   1.45585000E-01    1.00000000E+00   1.00000000E+00 
SP   1    1.000000
   4.38000000E-02    1.00000000E+00   1.00000000E+00 
D    1    1.000000
   6.26000000E-01    1.00000000E+00 

12    0
S    3    1.000000
   3.38650000E+01    2.54938000E-02 
   5.09479000E+00    1.90373000E-01 
   1.15879000E+00    8.52161000E-01 
S    1    1.000000
   3.25840000E-01    1.00000000E+00 
S    1    1.000000
   1.02741000E-01    1.00000000E+00 
S    1    1.000000
   3.60000000E-02    1.00000000E+00 
P    1    1.000000
   7.50000000E-01    1.00000000E+00 

[MO]
Sym=X
Ene= 2.006286
Spin=Alpha
Occup=1
     1    6.145759591017e-15
     2    2.993110297121e-14
     3   -3.811965733763e-14
     4   -2.873169867165e-14
     5   -9.310797953369e-02
     6   -8.439438290369e-14
     7   -9.274810202462e-14
     8    3.425441356102e-18
     9   -1.609886496827e-01
    10    2.114185770848e-13
    11    2.221214378374e-14
    12    8.487235370461e-14
    13   -1.380092625980e-01
    14   -3.394782365434e-12
    15   -9.158707305012e-13
    16   -6.677604991687e-13
    17   -1.586581289976e-02
    18    3.634466685462e-16
    19   -1.323267649585e-02
    20   -1.168374495578e-02
    21   -1.020087001926e-14
    22   -1.390206603776e-14
    23    2.495893793135e-14
    24   -2.939846945969e-13
    25    2.384442793764e-13
    26    2.699231507973e-14
    27   -1.778588521710e-14
    28   -5.333548559301e-15
    29    1.255744130164e-04
    30   -4.420959587507e-15
    31    9.238365675777e-15
    32    1.120145039023e-13
    33   -1.146626120145e-13
    34   -6.815324229790e-15
    35    4.885144976202e-16
    36   -6.889170060995e-03
    37    2.071966430571e-14
    38    3.593124921431e-13
    39    9.459712025470e-14
    40   -2.685649264117e-14
    41    5.982628838146e-15
    42   -3.100861143753e-14
    43    5.771807655599e-03
    44   -6.551678629051e-15
    45   -1.669159158044e-16
    46   -7.833274449494e-15
    47    9.284266579739e-15
    48    1.022083989855e-01
    49   -3.224783134106e-14
    50   -9.975088246086e-15
    51   -1.534383256113e-15
    52    1.809301086337e-01
    53   -2.287051014937e-13
    54    4.716518425409e-13
    55    6.944752052032e-13
    56    1.009166669175e-01
    57    2.806282296070e-13
    58    8.295904296345e-14
    59   -7.469713054617e-14
    60    2.090349740906e-02
    61    4.629840361665e-15
    62   -1.875161011844e-02
    63    2.159643379944e-02
    64   -3.814392773415e-15
    65    1.458498949863e-15
    66    7.125402765277e-15
    67    1.087403090729e-14
    68    6.358055611118e-14
    69    8.135059240214e-14
    70    2.420364105094e-01
    71   -4.405739663850e-14
    72    7.363853501721e-14
    73    9.576990933202e-14
    74    2.820702318924e-01
    75    2.619994080965e-14
    76    1.069704190662e-14
    77   -4.565433371208e-14
    78    1.722807765022e-01
    79    2.173493309560e-13
    80    4.008490390860e-14
    81   -9.513992682869e-14
    82   -7.404433511737e-03
    83   -8.818088585430e-16
    84    1.971070016818e-02
    85   -1.127525708004e-02
    86    3.289492524529e-15
    87    1.000971714838e-15
    88    9.098721908439e-15
    89   -7.543368219056e-15
    90   -3.108802981283e-14
    91    4.708523259871e-14
    92   -4.309453576751e-02
    93    1.157261418762e-13
    94   -1.099438813087e-14
    95    5.264039056085e-14
    96   -7.594241541828e-02
    97   -3.810523425872e-13
    98    2.481536019530e-13
    99    4.105604974408e-13
   100   -5.335869634687e-02
   101    2.121248247501e-12
   102   -3.750770529612e-13
   103   -5.401155725542e-13
   104   -1.230022410473e-02
   105    2.808674017753e-15
   106   -9.810917122786e-03
   107    1.090507070818e-02
   108   -2.217206111704e-15
   109   -2.240973476867e-14
   110   -1.313830153736e-14
   111   -5.195998523508e-15
   112   -2.607114792797e-14
   113    8.648377638421e-15
   114   -3.865472091745e-02
   115   -3.956750615315e-14
   116   -5.732155775474e-14
   117    2.253065304064e-14
   118   -6.195313717911e-02
   119   -8.889470461373e-14
   120   -2.066180410813e-14
   121    6.085378793634e-14
   122   -4.796329389140e-02
   123   -3.321054385832e-13
   124    1.875295829093e-13
   125    6.401118777775e-14
   126    1.165943101823e-02
   127   -1.231437897025e-15
   128    5.274965143807e-03
   129    3.635431170950e-03
   130    4.286420134734e-15
   131    3.080278773364e-15
   132    5.384761052880e-14
   133    2.161980366322e-14
   134    4.767494128128e-14
   135    2.414999390519e-14
   136    6.433247391769e-02
   137    1.696628226472e-13
   138    7.949851722833e-14
   139    9.520064138834e-14
   140    1.079696670933e-01
   141   -4.009971214223e-13
   142    3.013830018599e-13
   143   -5.887568926845e-13
   144    9.988307133874e-02
   145   -8.323888208434e-13
   146    2.597576278158e-13
   147    2.104616113163e-13
   148    2.885236976375e-03
   149    2.948948910868e-16
   150   -1.124398497169e-02
   151   -2.258835129523e-03
   152    1.326922208976e-14
   153   -5.659751130543e-15
   154   -9.739580531079e-15
   155   -9.830858901276e-15
   156   -1.273959656067e-14
   157   -5.870010379632e-15
   158   -8.586856309793e-03
   159   -2.770694063562e-14
   160    2.740918377117e-14
   161   -7.624593899026e-15
   162   -1.352796699103e-02
   163    4.949460874813e-13
   164   -6.294829215128e-13
   165    9.167592511071e-14
   166   -5.623996830233e-03
   167    4.558403645396e-13
   168    5.154306530901e-13
   169    3.318744018960e-13
   170    7.173346629498e-03
   171   -6.959191423068e-15
   172   -7.872052722391e-03
   173    1.159563630375e-02
   174    6.178215031943e-15
   175    8.993617582656e-15
   176   -1.782979199954e-13
   177   -1.172106175507e-13
   178    3.750325756570e-14
   179    2.616664844865e-14
   180   -1.030497441414e-01
   181   -1.747166474816e-13
   182    5.472110258477e-14
   183    4.674849517287e-14
   184   -1.789682921907e-01
   185    2.929353960597e-13
   186    1.163929380363e-13
   187    1.949795011404e-13
   188   -1.561859476681e-01
   189    1.213866444732e-12
   190   -4.767404043774e-13
   191   -7.956632848921e-13
   192   -3.316781088101e-03
   193    1.078864182761e-14
   194    1.701210016079e-02
   195   -7.251982693161e-05
   196   -6.523264048268e-15
   197   -6.299974074391e-17
   198   -2.001159191527e-14
   199   -2.908970687451e-14
   200   -9.405216798622e-14
   201    6.414545382886e-14
   202    5.003123252108e-15
   203    2.459114804775e-15
   204   -8.303592939330e-03
Sym=X
Ene= 2.003670
Spin=Alpha
Occup=1
     1   -7.935114530651e-03
     2   -1.329776580654e-02
     3   -8.525472419784e-03
     4    2.682048799848e-02
     5   -3.997490003229e-14
     6    3.596582882330e-02
     7   -1.471200157597e-02
     8    4.473413410097e-02
     9   -1.008118068281e-13
    10    4.464029600132e-02
    11    9.232124829880e-03
    12    4.492138760362e-02
    13   -3.048026086900e-14
    14    8.907553943189e-02
    15    2.921504799268e-03
    16    5.481726891135e-03
    17   -1.202803418072e-13
    18   -1.815894712519e-03
    19   -2.443406205948e-15
    20   -8.484558579722e-15
    21    1.074378106348e-02
    22   -4.371342714067e-03
    23   -2.226899869018e-03
    24    1.184850801716e-02
    25    2.567953863004e-02
    26   -3.070471682296e-02
    27    6.732589582255e-04
    28   -1.151106559813e-04
    29    8.784907064363e-15
    30   -1.988572595427e-02
    31   -3.236618148082e-02
    32   -1.618376602998e-02
    33   -4.317115210395e-03
    34   -5.422120774387e-04
    35   -3.784119362133e-04
    36   -5.856544896289e-15
    37   -4.120621474592e-03
    38   -1.963637008316e-02
    39   -3.351903277981e-02
    40    4.678131342073e-02
    41   -1.104090393022e-03
    42    1.649736328882e-03
    43   -1.179854439215e-14
    44    9.221245698272e-03
    45    1.500641795650e-02
    46    3.657046974677e-02
    47    9.596328814028e-03
    48    4.729982668230e-15
    49   -4.321852826253e-02
    50    6.007027793556e-02
    51    2.298632108712e-02
    52    1.449505929734e-14
    53   -4.373452413484e-02
    54   -4.418597607702e-02
    55   -6.622463856283e-02
    56   -4.588802919756e-14
    57   -2.899875984161e-02
    58   -6.220762511209e-02
    59   -8.607839765482e-02
    60    1.319959901841e-13
    61    2.050213618877e-03
    62   -1.681953567895e-14
    63    3.573829027734e-15
    64    5.557121879103e-02
    65    3.209648601767e-02
    66    6.869237793422e-03
    67    9.848484770027e-03
    68   -2.147322487172e-01
    69   -2.620941780673e-01
    70    1.174139062413e-13
    71   -3.030842015688e-02
    72   -2.470787685343e-01
    73   -2.998751570590e-01
    74    1.201897401632e-13
    75    6.631812365990e-03
    76   -1.521338047433e-01
    77   -2.126475957218e-01
    78    1.150403504194e-13
    79    1.532481874612e-02
    80    4.486686950788e-03
    81   -2.193013605879e-03
    82   -5.721667203083e-14
    83    3.172920254753e-03
    84    7.889168803076e-15
    85    2.956361167188e-15
    86   -1.514958022561e-02
    87   -2.882631268755e-03
    88    1.434411383130e-02
    89    2.400950673142e-02
    90    2.917252545894e-02
    91    2.906307722151e-03
    92   -3.121103140173e-14
    93   -6.519723751296e-02
    94    4.872846872379e-02
    95    6.650479574626e-03
    96   -3.836309414283e-14
    97   -6.907106874005e-02
    98    4.973840553243e-02
    99   -9.160550362187e-03
   100   -9.693434460310e-14
   101    1.368540809264e-01
   102    7.160682330336e-03
   103   -8.817351470196e-02
   104   -2.324454067155e-13
   105    1.550951692197e-03
   106    1.339007119582e-14
   107    4.650130828109e-15
   108    3.007560243143e-02
   109   -6.273444814883e-03
   110   -3.407821208405e-03
   111   -5.792367509729e-03
   112    5.187256323485e-02
   113   -1.001018813218e-01
   114   -2.610321038745e-15
   115    1.760368374815e-02
   116    8.096738390535e-02
   117   -1.540545732549e-01
   118    3.077099608377e-14
   119    1.013083069823e-02
   120    7.543626691069e-02
   121   -1.390714058546e-01
   122   -4.093392443344e-14
   123   -2.719030665328e-02
   124    1.249145219756e-02
   125   -2.282492303662e-03
   126    1.438677129048e-13
   127   -2.264890331107e-04
   128   -4.197507486145e-15
   129    1.016978081808e-14
   130   -6.732543031607e-03
   131    4.097832117106e-03
   132   -2.354156926517e-02
   133   -3.899953813175e-02
   134   -4.677044267986e-02
   135   -2.615258552214e-02
   136   -9.111663699349e-14
   137    1.036925536815e-01
   138   -6.872164062427e-02
   139   -3.042226434095e-02
   140   -1.598053604917e-13
   141    2.108579501813e-01
   142   -6.611785097931e-02
   143   -4.872638894693e-02
   144   -1.142069126339e-13
   145    1.893700009765e-01
   146    5.590991176627e-03
   147   -3.904424326770e-03
   148    2.928890434720e-14
   149    1.628599555183e-03
   150   -2.496405485014e-15
   151   -1.823818495578e-15
   152   -8.219315584685e-04
   153    3.305660967548e-03
   154    1.248103067897e-02
   155    2.035474790568e-02
   156    2.253650373904e-02
   157   -5.446683596446e-02
   158   -9.557858752245e-15
   159   -5.335711847213e-02
   160    3.921066486963e-02
   161   -7.713928231046e-02
   162   -1.827259754380e-14
   163   -1.097148938051e-01
   164    3.419969928586e-02
   165   -8.746264057575e-02
   166    3.065578947017e-14
   167   -1.191911280041e-01
   168    6.295150981163e-03
   169   -1.006665518071e-02
   170   -9.207898897908e-15
   171   -8.810228117687e-04
   172   -5.856703849920e-15
   173    7.883611545289e-16
   174    1.896443420096e-03
   175    8.107908894425e-04
   176    5.020694237024e-03
   177    8.290496604002e-03
   178   -2.685881734134e-03
   179   -3.178654104475e-02
   180   -5.624823709674e-14
   181   -2.144101166911e-02
   182   -5.530461475622e-03
   183   -4.583496275821e-02
   184   -7.266615491600e-14
   185   -6.253091844814e-02
   186    1.294188675911e-02
   187   -3.936386149246e-02
   188   -1.126202974263e-13
   189   -2.315018932214e-01
   190    2.757432195493e-02
   191   -3.179357323670e-02
   192    1.968406450398e-13
   193   -1.566552550946e-04
   194    6.169602318528e-16
   195    3.708834744791e-16
   196    5.337943664070e-03
   197   -4.316030500536e-04
   198    8.549400708870e-03
   199    1.526223681465e-02
   200    3.759416974924e-03
   201   -1.098303599347e-02
   202   -1.448294742703e-03
   203    2.826014059955e-05
   204   -3.599147132814e-15
Sym=X
Ene= 2.001721
Spin=Alpha
Occup=1
     1   -5.321844135180e-03
     2   -8.643238332247e-03
     3   -2.557571911433e-02
     4   -4.332363235564e-04
     5   -2.662450665249e-13
     6    2.320327659769e-02
     7   -4.505231815722e-02
     8   -1.734118775460e-04
     9   -4.580089064778e-13
    10    4.661704648137e-03
    11   -2.804811811674e-02
    12   -1.571551653840e-02
    13   -2.548068358592e-13
    14   -3.057058388923e-01
    15   -7.854088043453e-02
    16   -1.033980093599e-01
    17   -1.398220413179e-13
    18   -9.962035305406e-04
    19    3.783296302869e-14
    20   -4.803986691272e-14
    21   -4.893653255725e-04
    22    2.273900303699e-03
    23    7.074082379844e-03
    24    8.954259038196e-03
    25    1.827124838768e-02
    26   -3.901711648720e-03
    27    1.677661258282e-03
    28   -9.021369198861e-04
    29   -2.919108088935e-14
    30    7.135492764794e-03
    31    6.739398959417e-03
    32   -4.096612839532e-03
    33   -4.876560594146e-02
    34   -9.033119875608e-04
    35    5.107680760169e-04
    36   -2.667703574351e-14
    37    1.284783874387e-02
    38    1.355109620674e-02
    39   -1.028047458897e-02
    40   -2.215055525092e-02
    41    1.732735603807e-03
    42   -1.649829674919e-03
    43   -5.200527868201e-16
    44   -2.454921621280e-02
    45   -3.877878312550e-02
    46   -7.929907656048e-02
    47    7.505672284577e-02
    48   -1.180880814009e-13
    49    1.104193448391e-01
    50   -1.226850099533e-01
    51    1.246378235207e-01
    52   -2.096991721249e-13
    53    9.533390402420e-02
    54   -1.740961379735e-02
    55   -9.106266564236e-03
    56   -1.043727904177e-13
    57    6.191497882559e-02
    58    2.108049395976e-03
    59   -3.663985947822e-02
    60    4.267273929138e-14
    61   -7.398666170567e-03
    62    1.175015349329e-14
    63    6.996453316268e-14
    64    3.521833065637e-02
    65   -6.499336653855e-03
    66   -2.985222924813e-03
    67   -3.781051023473e-03
    68    1.068994814762e-01
    69   -2.456641501181e-01
    70    5.033879798995e-14
    71    2.449702878244e-03
    72    1.210598922517e-01
    73   -2.800951376291e-01
    74    4.442832734009e-14
    75   -9.010596501891e-02
    76    2.316271260864e-02
    77   -1.599005255049e-01
    78    7.599819693627e-14
    79   -2.686216850578e-02
    80    3.348681026773e-05
    81    2.796081258851e-03
    82   -1.134663754934e-14
    83   -1.008679892390e-02
    84   -8.485248495048e-15
    85    6.194197444165e-15
    86    3.658777411801e-03
    87   -1.893395851274e-02
    88   -1.362096350071e-02
    89   -2.274779850298e-02
    90    9.120986739575e-03
    91   -4.775311949365e-03
    92    3.786697263661e-13
    93    6.528454966940e-02
    94    1.656211430636e-02
    95   -1.523560519024e-02
    96    6.854243504005e-13
    97    8.194803984621e-02
    98   -3.455471518651e-02
    99    5.020332091777e-02
   100    4.068940863355e-13
   101   -2.146780344936e-01
   102   -3.391162015628e-02
   103    1.023739693090e-01
   104   -6.080159588085e-14
   105   -1.732903764601e-03
   106    1.004456790485e-13
   107    9.925903171134e-14
   108   -4.323634138542e-02
   109    2.436036756295e-02
   110    9.366506416410e-03
   111    1.592071714958e-02
   112   -1.136345910490e-01
   113    1.214638207663e-01
   114    6.419285931008e-13
   115   -4.865839610428e-02
   116   -1.738457540562e-01
   117    1.883666348120e-01
   118    1.024755390203e-12
   119   -6.360020085274e-02
   120   -1.502274725459e-01
   121    1.828610562099e-01
   122    8.764340653451e-13
   123   -1.876749973174e-02
   124    5.582263318989e-03
   125    1.048680258988e-02
   126    1.351825409664e-13
   127   -1.636937018291e-03
   128   -6.549826309215e-14
   129   -4.403313609787e-14
   130    9.890836007551e-03
   131   -1.912334101327e-03
   132    8.668162423046e-03
   133    1.510264717880e-02
   134   -3.039827366448e-02
   135    2.981992815960e-02
   136    9.611278827563e-14
   137   -4.251814390054e-02
   138   -4.293340901240e-02
   139    4.556651769003e-02
   140    1.743772788529e-13
   141   -9.765143196216e-02
   142   -7.599510038962e-02
   143    5.738735784115e-02
   144    1.173638513164e-13
   145   -9.495130916823e-02
   146    2.506908726919e-02
   147    4.475785846115e-02
   148    1.483002243514e-15
   149   -8.621412613262e-04
   150    2.887152705774e-14
   151   -1.225422022966e-14
   152    3.068178637338e-03
   153   -6.554096753312e-03
   154    1.386932986549e-02
   155    2.250490822084e-02
   156    1.980722996345e-03
   157   -5.707671460528e-02
   158   -4.641340008603e-13
   159   -5.774411031022e-02
   160    4.117192059727e-03
   161   -8.640918590829e-02
   162   -7.682516297229e-13
   163   -9.540773577839e-02
   164   -3.064192971694e-04
   165   -7.842340327034e-02
   166   -7.451940874588e-13
   167   -1.592841184597e-02
   168    1.463921266215e-02
   169    3.788736413422e-02
   170    4.619006997889e-15
   171    2.813286515642e-04
   172   -3.107430806969e-14
   173   -1.151127029774e-14
   174    2.541989033634e-03
   175   -5.051005036645e-03
   176   -6.254898973659e-03
   177   -1.011859578069e-02
   178   -4.282736173343e-03
   179    4.673032782235e-02
   180   -8.139765689182e-14
   181    2.562366428599e-02
   182   -4.775540005179e-03
   183    6.649812154101e-02
   184   -1.309155156320e-13
   185    1.036215933395e-01
   186   -1.737614866252e-02
   187    7.632098623106e-02
   188   -2.183675453866e-13
   189    5.560512008278e-01
   190   -9.317862663929e-02
   191    5.965538932462e-02
   192    1.213164010157e-13
   193    9.620799436452e-04
   194    3.499655798995e-14
   195    4.824352707566e-14
   196    1.435109481104e-04
   197    1.522232603435e-03
   198   -1.835268815454e-02
   199   -3.159621051855e-02
   200   -5.781701728403e-04
   201    3.836129471492e-02
   202    2.835222552461e-03
   203   -2.050295489554e-03
   204    9.023675585318e-16
Sym=X
Ene= 2.001546
Spin=Alpha
Occup=1
     1    2.416154851187e-13
     2    3.436567095407e-13
     3    7.986674045205e-14
     4   -1.845587211400e-13
     5   -9.231934514360e-02
     6   -7.503034554717e-13
     7    1.689261204855e-13
     8   -2.918804982949e-13
     9   -1.577145691911e-01
    10   -1.729902365039e-13
    11   -3.883748448158e-14
    12   -1.438331836833e-13
    13   -1.179917467756e-01
    14   -7.005619458616e-12
    15   -2.349128704072e-12
    16   -6.436618507971e-13
    17   -2.150210434949e-02
    18    3.225028832226e-14
    19    2.681586129075e-03
    20   -1.588631269983e-02
    21   -6.519010430460e-14
    22    3.195079129862e-14
    23   -1.707253813615e-13
    24   -3.446538610414e-13
    25    6.842764183446e-13
    26   -2.694880270427e-13
    27   -4.780634258275e-14
    28   -9.891415300017e-15
    29   -7.713050955047e-03
    30    1.810436319257e-14
    31    1.226232894777e-14
    32    1.911799463502e-13
    33   -8.807605205371e-14
    34    1.218230394851e-15
    35   -2.035863033284e-14
    36   -7.062954257056e-03
    37    8.570292414832e-14
    38    2.416498055365e-13
    39   -4.358576815066e-13
    40    3.372853602883e-13
    41   -1.410966185515e-14
    42   -2.152953288223e-14
    43   -4.401411557446e-03
    44   -3.171677942780e-13
    45   -2.398062330338e-13
    46    2.482215330917e-13
    47   -2.334809217053e-13
    48   -5.797164739105e-02
    49   -1.520280782868e-13
    50    3.944409187476e-13
    51   -3.915288152363e-13
    52   -1.007434830111e-01
    53   -2.569840681104e-13
    54    2.459765294477e-13
    55    6.265700997683e-14
    56   -4.590959157408e-02
    57    5.503303951094e-13
    58   -9.192646316212e-14
    59   -5.289369908594e-13
    60   -2.455315415335e-02
    61    1.905866171526e-14
    62   -1.284011056736e-02
    63    1.083291800747e-02
    64   -1.147963289337e-13
    65    3.932526173425e-14
    66   -6.990529357785e-14
    67   -1.021188392689e-13
    68   -3.472913694041e-13
    69    8.183763939721e-13
    70    1.337202191896e-02
    71    3.763413162544e-13
    72   -3.840202386880e-13
    73    9.333167713610e-13
    74    1.217427250375e-02
    75    5.043571833819e-13
    76   -8.560345130817e-14
    77    5.085707855808e-13
    78    1.730917747408e-02
    79    2.123252017397e-13
    80    2.925739303071e-14
    81    2.083787784380e-14
    82    2.157718084160e-02
    83    2.753206366151e-14
    84   -4.159602583654e-03
    85    2.398355929892e-03
    86   -8.390494004065e-15
    87    5.454882372442e-14
    88    2.434316846076e-13
    89    2.277089921533e-13
    90   -2.094918133840e-14
    91   -2.770309439400e-13
    92    6.122468313891e-02
    93   -1.606702800130e-13
    94   -2.931929367989e-14
    95   -4.144612005434e-13
    96    1.067854909462e-01
    97   -5.368059551512e-14
    98    1.142695466534e-13
    99   -2.856064783789e-13
   100    8.894560058671e-02
   101    4.790033562478e-12
   102    7.130372899910e-13
   103   -2.032985486264e-12
   104    1.498146788277e-02
   105    1.427580218384e-14
   106    4.191955145984e-02
   107    2.654288436108e-02
   108    9.303740117192e-14
   109   -9.379614638701e-14
   110    1.702178219088e-13
   111    1.389021440685e-13
   112    5.009288608821e-13
   113   -3.675479639857e-13
   114    1.727483631577e-01
   115    5.132173850426e-14
   116    7.607923299419e-13
   117   -5.777221773267e-13
   118    2.706772698434e-01
   119    1.936136063304e-13
   120    6.266393102013e-13
   121   -5.402608032292e-13
   122    2.503261053486e-01
   123   -1.703872320247e-13
   124    1.830206479376e-14
   125    4.099666506075e-14
   126    3.018641672986e-02
   127    1.282845873327e-14
   128   -1.495007526597e-02
   129   -9.129923311198e-03
   130   -5.460508407235e-14
   131    1.618316433055e-17
   132    1.573507276713e-13
   133    9.360071678800e-14
   134   -2.294946631680e-14
   135    4.793249854819e-14
   136   -7.327903017086e-02
   137    2.088595964701e-13
   138   -5.050729686471e-14
   139    8.393739118753e-14
   140   -1.170349171622e-01
   141    2.004158933411e-13
   142    1.292639427963e-13
   143   -5.399012290979e-14
   144   -1.349983775328e-01