[Molden Format]
[Atoms] (Angs)
  C      1    6     -0.00714236     -1.70213747     -0.00000000
  H      2    1     -2.06882847     -1.44022412      0.00000000
  H      3    1     -0.12337987     -2.77567521      0.00000000
  H      4    1      0.04651892      1.98813947     -0.00000000
  C      5    6     -1.21953563      0.40211669      0.00000000
  O      6    8     -2.25921553      1.03043814      0.00000000
  C      7    6      1.28797806      0.34644937     -0.00000000
  O      8    8      2.31273661      1.00537216     -0.00000000
  N      9    7      0.03446295      0.97739857     -0.00000000
  N     10    7     -1.17287765     -0.98229824      0.00000000
  C     11    6      1.20107039     -1.10433419     -0.00000000
  H     12    1      2.11220096     -1.67699125     -0.00000000
[GTO]
1    0
S    6    1.000000
   4.56324000E+03    1.96665000E-03 
   6.82024000E+02    1.52306000E-02 
   1.54973000E+02    7.61269000E-02 
   4.44553000E+01    2.60801000E-01 
   1.30290000E+01    6.16462000E-01 
   1.82773000E+00    2.21006000E-01 
SP   3    1.000000
   2.09642000E+01    1.14660000E-01   4.02487000E-02 
   4.80331000E+00    9.19999000E-01   2.37594000E-01 
   1.45933000E+00   -3.03068000E-03   8.15854000E-01 
SP   1    1.000000
   4.83456000E-01    1.00000000E+00   1.00000000E+00 
SP   1    1.000000
   1.45585000E-01    1.00000000E+00   1.00000000E+00 
SP   1    1.000000
   4.38000000E-02    1.00000000E+00   1.00000000E+00 
D    1    1.000000
   6.26000000E-01    1.00000000E+00 

2    0
S    3    1.000000
   3.38650000E+01    2.54938000E-02 
   5.09479000E+00    1.90373000E-01 
   1.15879000E+00    8.52161000E-01 
S    1    1.000000
   3.25840000E-01    1.00000000E+00 
S    1    1.000000
   1.02741000E-01    1.00000000E+00 
S    1    1.000000
   3.60000000E-02    1.00000000E+00 
P    1    1.000000
   7.50000000E-01    1.00000000E+00 

3    0
S    3    1.000000
   3.38650000E+01    2.54938000E-02 
   5.09479000E+00    1.90373000E-01 
   1.15879000E+00    8.52161000E-01 
S    1    1.000000
   3.25840000E-01    1.00000000E+00 
S    1    1.000000
   1.02741000E-01    1.00000000E+00 
S    1    1.000000
   3.60000000E-02    1.00000000E+00 
P    1    1.000000
   7.50000000E-01    1.00000000E+00 

4    0
S    3    1.000000
   3.38650000E+01    2.54938000E-02 
   5.09479000E+00    1.90373000E-01 
   1.15879000E+00    8.52161000E-01 
S    1    1.000000
   3.25840000E-01    1.00000000E+00 
S    1    1.000000
   1.02741000E-01    1.00000000E+00 
S    1    1.000000
   3.60000000E-02    1.00000000E+00 
P    1    1.000000
   7.50000000E-01    1.00000000E+00 

5    0
S    6    1.000000
   4.56324000E+03    1.96665000E-03 
   6.82024000E+02    1.52306000E-02 
   1.54973000E+02    7.61269000E-02 
   4.44553000E+01    2.60801000E-01 
   1.30290000E+01    6.16462000E-01 
   1.82773000E+00    2.21006000E-01 
SP   3    1.000000
   2.09642000E+01    1.14660000E-01   4.02487000E-02 
   4.80331000E+00    9.19999000E-01   2.37594000E-01 
   1.45933000E+00   -3.03068000E-03   8.15854000E-01 
SP   1    1.000000
   4.83456000E-01    1.00000000E+00   1.00000000E+00 
SP   1    1.000000
   1.45585000E-01    1.00000000E+00   1.00000000E+00 
SP   1    1.000000
   4.38000000E-02    1.00000000E+00   1.00000000E+00 
D    1    1.000000
   6.26000000E-01    1.00000000E+00 

6    0
S    6    1.000000
   8.58850000E+03    1.89515000E-03 
   1.29723000E+03    1.43859000E-02 
   2.99296000E+02    7.07320000E-02 
   8.73771000E+01    2.40001000E-01 
   2.56789000E+01    5.94797000E-01 
   3.74004000E+00    2.80802000E-01 
SP   3    1.000000
   4.21175000E+01    1.13889000E-01   3.65114000E-02 
   9.62837000E+00    9.20811000E-01   2.37153000E-01 
   2.85332000E+00   -3.27447000E-03   8.19702000E-01 
SP   1    1.000000
   9.05661000E-01    1.00000000E+00   1.00000000E+00 
SP   1    1.000000
   2.55611000E-01    1.00000000E+00   1.00000000E+00 
SP   1    1.000000
   8.45000000E-02    1.00000000E+00   1.00000000E+00 
D    1    1.000000
   1.29200000E+00    1.00000000E+00 

7    0
S    6    1.000000
   4.56324000E+03    1.96665000E-03 
   6.82024000E+02    1.52306000E-02 
   1.54973000E+02    7.61269000E-02 
   4.44553000E+01    2.60801000E-01 
   1.30290000E+01    6.16462000E-01 
   1.82773000E+00    2.21006000E-01 
SP   3    1.000000
   2.09642000E+01    1.14660000E-01   4.02487000E-02 
   4.80331000E+00    9.19999000E-01   2.37594000E-01 
   1.45933000E+00   -3.03068000E-03   8.15854000E-01 
SP   1    1.000000
   4.83456000E-01    1.00000000E+00   1.00000000E+00 
SP   1    1.000000
   1.45585000E-01    1.00000000E+00   1.00000000E+00 
SP   1    1.000000
   4.38000000E-02    1.00000000E+00   1.00000000E+00 
D    1    1.000000
   6.26000000E-01    1.00000000E+00 

8    0
S    6    1.000000
   8.58850000E+03    1.89515000E-03 
   1.29723000E+03    1.43859000E-02 
   2.99296000E+02    7.07320000E-02 
   8.73771000E+01    2.40001000E-01 
   2.56789000E+01    5.94797000E-01 
   3.74004000E+00    2.80802000E-01 
SP   3    1.000000
   4.21175000E+01    1.13889000E-01   3.65114000E-02 
   9.62837000E+00    9.20811000E-01   2.37153000E-01 
   2.85332000E+00   -3.27447000E-03   8.19702000E-01 
SP   1    1.000000
   9.05661000E-01    1.00000000E+00   1.00000000E+00 
SP   1    1.000000
   2.55611000E-01    1.00000000E+00   1.00000000E+00 
SP   1    1.000000
   8.45000000E-02    1.00000000E+00   1.00000000E+00 
D    1    1.000000
   1.29200000E+00    1.00000000E+00 

9    0
S    6    1.000000
   6.29348000E+03    1.96979000E-03 
   9.49044000E+02    1.49613000E-02 
   2.18776000E+02    7.35006000E-02 
   6.36916000E+01    2.48937000E-01 
   1.88282000E+01    6.02460000E-01 
   2.72023000E+00    2.56202000E-01 
SP   3    1.000000
   3.06331000E+01    1.11906000E-01   3.83119000E-02 
   7.02614000E+00    9.21666000E-01   2.37403000E-01 
   2.11205000E+00   -2.56919000E-03   8.17592000E-01 
SP   1    1.000000
   6.84009000E-01    1.00000000E+00   1.00000000E+00 
SP   1    1.000000
   2.00878000E-01    1.00000000E+00   1.00000000E+00 
SP   1    1.000000
   6.39000000E-02    1.00000000E+00   1.00000000E+00 
D    1    1.000000
   9.13000000E-01    1.00000000E+00 

10    0
S    6    1.000000
   6.29348000E+03    1.96979000E-03 
   9.49044000E+02    1.49613000E-02 
   2.18776000E+02    7.35006000E-02 
   6.36916000E+01    2.48937000E-01 
   1.88282000E+01    6.02460000E-01 
   2.72023000E+00    2.56202000E-01 
SP   3    1.000000
   3.06331000E+01    1.11906000E-01   3.83119000E-02 
   7.02614000E+00    9.21666000E-01   2.37403000E-01 
   2.11205000E+00   -2.56919000E-03   8.17592000E-01 
SP   1    1.000000
   6.84009000E-01    1.00000000E+00   1.00000000E+00 
SP   1    1.000000
   2.00878000E-01    1.00000000E+00   1.00000000E+00 
SP   1    1.000000
   6.39000000E-02    1.00000000E+00   1.00000000E+00 
D    1    1.000000
   9.13000000E-01    1.00000000E+00 

11    0
S    6    1.000000
   4.56324000E+03    1.96665000E-03 
   6.82024000E+02    1.52306000E-02 
   1.54973000E+02    7.61269000E-02 
   4.44553000E+01    2.60801000E-01 
   1.30290000E+01    6.16462000E-01 
   1.82773000E+00    2.21006000E-01 
SP   3    1.000000
   2.09642000E+01    1.14660000E-01   4.02487000E-02 
   4.80331000E+00    9.19999000E-01   2.37594000E-01 
   1.45933000E+00   -3.03068000E-03   8.15854000E-01 
SP   1    1.000000
   4.83456000E-01    1.00000000E+00   1.00000000E+00 
SP   1    1.000000
   1.45585000E-01    1.00000000E+00   1.00000000E+00 
SP   1    1.000000
   4.38000000E-02    1.00000000E+00   1.00000000E+00 
D    1    1.000000
   6.26000000E-01    1.00000000E+00 

12    0
S    3    1.000000
   3.38650000E+01    2.54938000E-02 
   5.09479000E+00    1.90373000E-01 
   1.15879000E+00    8.52161000E-01 
S    1    1.000000
   3.25840000E-01    1.00000000E+00 
S    1    1.000000
   1.02741000E-01    1.00000000E+00 
S    1    1.000000
   3.60000000E-02    1.00000000E+00 
P    1    1.000000
   7.50000000E-01    1.00000000E+00 

[MO]
Sym=X
Ene= 2.006315
Spin=Alpha
Occup=1
     1    7.234646207064e-15
     2   -1.282838933732e-14
     3    4.153247226424e-14
     4    2.829232248662e-14
     5    8.464863845671e-02
     6    5.244454737810e-14
     7    1.015955787268e-13
     8   -1.611761497001e-15
     9    1.466953753184e-01
    10   -2.279556965269e-13
    11   -2.862015950149e-14
    12   -9.464588245724e-14
    13    1.264648289784e-01
    14    2.738246035406e-12
    15    7.297265701425e-13
    16    5.538236456286e-13
    17    1.643552982860e-02
    18    1.073563912188e-15
    19    1.265878098287e-02
    20    1.029545244142e-02
    21    9.777666309126e-15
    22    1.590398146028e-14
    23   -2.247104299284e-14
    24    3.073750168678e-13
    25   -1.916672930572e-13
    26   -5.773219825657e-14
    27    1.928777357100e-14
    28    6.301847754013e-15
    29   -5.438061640237e-04
    30   -2.126649714221e-16
    31   -2.104110829963e-14
    32   -1.151885200089e-13
    33    7.535339941253e-14
    34    6.818100834587e-15
    35   -2.229894231414e-15
    36    6.308232270592e-03
    37   -1.552453513287e-14
    38   -3.524176390939e-13
    39   -1.497514374166e-13
    40    5.532636842846e-14
    41   -6.449885681649e-15
    42    2.893023052767e-14
    43   -5.945746194052e-03
    44   -2.111203799819e-15
    45   -4.246448181011e-15
    46    6.586933298544e-15
    47   -5.117964817850e-15
    48   -1.068452352671e-01
    49    1.700123814667e-14
    50    6.582825114085e-15
    51    1.103290286009e-14
    52   -1.894308826839e-01
    53    2.164938356903e-13
    54   -4.881568815533e-13
    55   -7.102310960206e-13
    56   -1.029406212085e-01
    57   -1.923842472646e-13
    58   -9.759157820580e-14
    59   -4.967254038911e-15
    60   -1.445394935869e-02
    61   -3.788789002557e-15
    62    1.907157104905e-02
    63   -2.099403151218e-02
    64    6.235385010128e-15
    65    2.023684996543e-15
    66   -9.549170333021e-15
    67   -1.479785082245e-14
    68   -7.599151179835e-14
    69   -9.466956341317e-14
    70   -2.483591405464e-01
    71    5.702250813444e-14
    72   -8.765545643070e-14
    73   -1.104536975712e-13
    74   -2.894927306952e-01
    75   -1.762165607261e-14
    76   -1.919971252190e-14
    77    3.477303750968e-14
    78   -1.762394687324e-01
    79   -2.317942762515e-13
    80   -4.283649557183e-14
    81    1.072356803731e-13
    82    8.319679952241e-03
    83    6.577522476593e-16
    84   -2.005839929891e-02
    85    1.201161013091e-02
    86   -4.495134072506e-15
    87   -1.277670592557e-15
    88   -5.098638340779e-15
    89    1.016163586930e-14
    90    2.932995502774e-14
    91   -5.545392665954e-14
    92    4.619015828705e-02
    93   -1.138268083464e-13
    94    9.774970788040e-15
    95   -6.540162639768e-14
    96    8.141160209482e-02
    97    4.025109601438e-13
    98   -2.640045221385e-13
    99   -4.265976164793e-13
   100    5.796443476640e-02
   101   -1.970959872278e-12
   102    4.475381294917e-13
   103    4.397780298348e-13
   104    1.491356146601e-02
   105   -3.248221096209e-15
   106    1.227344680161e-02
   107   -8.695807098357e-03
   108    1.086371985176e-15
   109    2.239429344621e-14
   110    1.433010420684e-14
   111    5.345795723508e-15
   112    3.222859547867e-14
   113   -9.071304519987e-15
   114    4.928416284154e-02
   115    4.328718555424e-14
   116    6.666760183195e-14
   117   -2.363023131959e-14
   118    7.858029002236e-02
   119    9.830785631793e-14
   120    2.811521453095e-14
   121   -6.428231734429e-14
   122    6.353816078327e-02
   123    3.329610112156e-13
   124   -1.936868043757e-13
   125   -6.547616284187e-14
   126   -9.432883282887e-03
   127    1.500304511475e-15
   128   -6.157920846161e-03
   129   -4.150227079880e-03
   130   -5.686777554539e-15
   131   -3.143044014204e-15
   132   -5.447368808613e-14
   133   -2.362957344855e-14
   134   -4.958895335812e-14
   135   -1.890686063776e-14
   136   -6.714218815138e-02
   137   -1.627425494195e-13
   138   -8.137992274649e-14
   139   -8.878247444584e-14
   140   -1.126000050031e-01
   141    4.237957222239e-13
   142   -3.178089816970e-13
   143    6.094608293789e-13
   144   -1.044021788752e-01
   145    8.935839503906e-13
   146   -2.508851522304e-13
   147   -1.261814167278e-13
   148   -5.418300879290e-03
   149    5.466171682898e-16
   150    1.198037569347e-02
   151    2.492475155715e-03
   152   -1.438797861581e-14
   153    5.390884497007e-15
   154    1.150627750304e-14
   155    1.765810202961e-14
   156    2.093737757503e-15
   157    3.480913447811e-15
   158    1.363020665697e-03
   159   -5.493531485518e-15
   160   -4.576107050045e-14
   161    2.186855996278e-15
   162    1.499466037558e-03
   163   -5.372343072069e-13
   164    6.382249809914e-13
   165   -8.843664190239e-14
   166   -3.579245843514e-03
   167   -4.889530624643e-13
   168   -4.477425739259e-13
   169   -2.920232876615e-13
   170   -7.443153414067e-03
   171    8.806280383997e-15
   172    7.175550188225e-03
   173   -1.189661906537e-02
   174   -6.821606116625e-15
   175   -7.484809552304e-15
   176    1.790654941940e-13
   177    1.193530129724e-13
   178   -3.971239835413e-14
   179   -1.680649956505e-14
   180    9.556023825500e-02
   181    1.672583060260e-13
   182   -6.102339654184e-14
   183   -3.217465080848e-14
   184    1.665206037625e-01
   185   -3.060433990034e-13
   186   -1.210906997644e-13
   187   -1.907329140456e-13
   188    1.419844261614e-01
   189   -7.828899330609e-13
   190    2.666622197572e-13
   191    6.566145237594e-13
   192    4.426101157914e-04
   193   -1.015016426857e-14
   194   -1.548211640994e-02
   195    6.535454153392e-04
   196    5.171724824018e-15
   197   -3.713534960843e-17
   198    1.213412879303e-14
   199    1.694784200864e-14
   200    9.802634793919e-14
   201   -4.045910972869e-14
   202   -4.660920115753e-15
   203   -2.852898419739e-15
   204    7.850785552665e-03
Sym=X
Ene= 2.003944
Spin=Alpha
Occup=1
     1    7.759376095922e-03
     2    1.297113272555e-02
     3    1.060752479779e-02
     4   -2.718683453502e-02
     5    3.604367246120e-14
     6   -3.506962188843e-02
     7    1.814071807278e-02
     8   -4.511688607824e-02
     9    9.340064742031e-14
    10   -4.182808383092e-02
    11   -7.320964473518e-03
    12   -4.351077312506e-02
    13    2.278580867218e-14
    14   -8.403555860418e-02
    15    1.781807337930e-03
    16   -4.559575986475e-03
    17    1.233118467878e-13
    18    1.874086344273e-03
    19    1.884481317832e-15
    20    7.701136300916e-15
    21   -1.095139832407e-02
    22    4.372793899147e-03
    23    5.562755252757e-04
    24   -1.390329431299e-02
    25   -2.880145666711e-02
    26    2.932853532728e-02
    27   -9.563609669508e-04
    28    3.593376004540e-04
    29   -9.199439697844e-15
    30    2.027322136751e-02
    31    3.353907962494e-02
    32    1.609738624859e-02
    33    5.589827366799e-03
    34    5.535319906535e-04
    35    5.130275418337e-04
    36    5.621587921235e-15
    37    4.963570151886e-03
    38    2.056756907173e-02
    39    3.352291635172e-02
    40   -4.503749324974e-02
    41    1.097065332846e-03
    42   -1.734928295652e-03
    43    1.041914494588e-14
    44   -8.062272009108e-03
    45   -1.332023769933e-02
    46   -3.631383934125e-02
    47   -1.481188122797e-02
    48   -1.725518349124e-14
    49    3.923752168325e-02
    50   -6.117049551964e-02
    51   -3.142266282896e-02
    52   -3.624826598476e-14
    53    4.264483218167e-02
    54    4.091787550750e-02
    55    6.356657553928e-02
    56    3.560864353864e-14
    57    3.276779990832e-02
    58    6.305029415662e-02
    59    8.340064240196e-02
    60   -1.328674136245e-13
    61   -1.899188200850e-03
    62    1.525746180327e-14
    63   -5.100999711063e-15
    64   -5.715197821434e-02
    65   -3.232453656769e-02
    66   -4.477135217354e-03
    67   -6.387129983453e-03
    68    2.147655524987e-01
    69    2.694198196898e-01
    70   -1.318795522974e-13
    71    1.929808053952e-02
    72    2.467845775355e-01
    73    3.083733705085e-01
    74   -1.370713648939e-13
    75   -1.205349846348e-02
    76    1.537379954797e-01
    77    2.196519651558e-01
    78   -1.242844910767e-13
    79   -1.740242335811e-02
    80   -5.215801107661e-03
    81    2.861636129452e-03
    82    6.021549045939e-14
    83   -2.464195615154e-03
    84   -9.280652934007e-15
    85   -1.916134386266e-15
    86    1.487974796684e-02
    87    2.767255789355e-03
    88   -1.387660508587e-02
    89   -2.324774068821e-02
    90   -2.943146437831e-02
    91   -2.002334432828e-03
    92    2.960509969970e-14
    93    6.321767670976e-02
    94   -4.936587681052e-02
    95   -4.619461782041e-03
    96    3.341007961781e-14
    97    6.474430515532e-02
    98   -4.704229583091e-02
    99    5.059025851670e-03
   100    1.006526612861e-13
   101   -1.373738988928e-01
   102   -3.886506738320e-03
   103    8.400683881261e-02
   104    2.377294707106e-13
   105   -1.528053467591e-03
   106   -8.566625335752e-15
   107   -4.001089555190e-15
   108   -2.721893797235e-02
   109    4.621158094814e-03
   110    3.209639064345e-03
   111    5.450361123875e-03
   112   -4.521730816245e-02
   113    9.080727044971e-02
   114    1.220994971402e-14
   115   -1.652039842073e-02
   116   -7.074578172079e-02
   117    1.396299921049e-01
   118   -1.628141653442e-14
   119   -8.483393613548e-03
   120   -6.617216063298e-02
   121    1.255258393959e-01
   122    5.606401030073e-14
   123    2.830329164371e-02
   124   -1.266290375635e-02
   125    1.483633184497e-03
   126   -1.415663235817e-13
   127    2.552669145349e-04
   128    3.474885145859e-15
   129   -9.814796489910e-15
   130    6.110064162106e-03
   131   -3.841868287728e-03
   132    2.302168376199e-02
   133    3.815881965969e-02
   134    5.092504513066e-02
   135    2.661050563434e-02
   136    6.943242734028e-14
   137   -1.015600782686e-01
   138    7.487780873280e-02
   139    3.136855897969e-02
   140    1.234927433476e-13
   141   -2.019400138655e-01
   142    7.239907120724e-02
   143    4.794298068376e-02
   144    8.018795522633e-14
   145   -1.783094871291e-01
   146   -7.303664237798e-03
   147    1.110015829179e-03
   148   -3.564281472474e-14
   149   -1.523274487664e-03
   150    3.818790268604e-15
   151    2.992207029192e-15
   152    4.407646273597e-04
   153   -3.209495929832e-03
   154   -1.289265432043e-02
   155   -2.114194251933e-02
   156   -2.246424569037e-02
   157    5.950920884022e-02
   158    4.879113876081e-15
   159    5.590152806522e-02
   160   -3.925127267920e-02
   161    8.526585876054e-02
   162    1.027408192842e-14
   163    1.117709750351e-01
   164   -3.393684152284e-02
   165    9.244079731351e-02
   166   -3.339802252179e-14
   167    1.182524316016e-01
   168   -7.573884754557e-03
   169    5.095260296242e-03
   170    1.185178515287e-14
   171    8.606887218144e-04
   172    5.608571336022e-15
   173   -1.550730106276e-15
   174   -2.197686100934e-03
   175   -1.020593393069e-03
   176   -4.535863691859e-03
   177   -7.499290705261e-03
   178    2.025889100681e-03
   179    2.882246664415e-02
   180    5.071844145756e-14
   181    1.948916862676e-02
   182    4.257390462410e-03
   183    4.166089831777e-02
   184    6.373972001097e-14
   185    5.364830813509e-02
   186   -1.251640202112e-02
   187    3.427252898931e-02
   188    1.037608514602e-13
   189    2.171454879708e-01
   190   -2.459664670131e-02
   191    3.211869435235e-02
   192   -2.026482214552e-13
   193    1.039975668066e-04
   194    4.728911622941e-16
   195   -6.356252281497e-16
   196   -5.368342599107e-03
   197    5.276881224271e-04
   198   -8.189776315826e-03
   199   -1.427607402485e-02
   200   -4.243330815284e-03
   201    9.215564601219e-03
   202    1.326169156869e-03
   203    7.458955588369e-05
   204    3.063799485585e-15
Sym=X
Ene= 2.001782
Spin=Alpha
Occup=1
     1    4.932604944129e-03
     2    7.866719416813e-03
     3    2.660043509098e-02
     4   -2.480098387109e-03
     5    5.152735011482e-13
     6   -2.080912118987e-02
     7    4.663207207412e-02
     8   -4.270608110621e-03
     9    8.855619830506e-13
    10    1.628118445177e-03
    11    2.927850726028e-02
    12    1.416997463771e-02
    13    5.357391053730e-13
    14    2.992604556862e-01
    15    7.884054952056e-02
    16    9.974185609481e-02
    17    1.910563797449e-13
    18    1.107994992179e-03
    19   -6.329089668151e-14
    20    9.151509525226e-14
    21   -2.167066461392e-04
    22   -1.759977503853e-03
    23   -8.771606396850e-03
    24   -1.074772506229e-02
    25   -1.804167052708e-02
    26    2.327533771868e-03
    27   -2.037790234287e-03
    28    1.093118783884e-03
    29    6.500262361067e-14
    30   -4.304420283567e-03
    31   -2.371650235053e-03
    32    4.033217426206e-03
    33    4.739501532977e-02
    34    9.832341625790e-04
    35   -1.191110155239e-04
    36    4.604324266405e-14
    37   -1.193311686350e-02
    38   -1.291467597373e-02
    39    7.386477665619e-03
    40    2.474327887537e-02
    41   -2.023740779897e-03
    42    1.622418771900e-03
    43   -4.634539391038e-15
    44    2.263930322326e-02
    45    3.554622964476e-02
    46    8.038220495408e-02
    47   -7.547734933067e-02
    48    2.304056458517e-13
    49   -1.007329820493e-01
    50    1.241599299782e-01
    51   -1.247927787510e-01
    52    4.090441618580e-13
    53   -8.829078516506e-02
    54    1.465588894819e-02
    55    5.965599559237e-03
    56    1.662526246785e-13
    57   -5.573509460253e-02
    58   -3.192995082519e-03
    59    3.083707996293e-02
    60    1.097345128913e-14
    61    7.014236426237e-03
    62   -1.113697291155e-14
    63   -1.305172016879e-13
    64   -3.316868164577e-02
    65    8.030869864667e-03
    66    4.015656917269e-03
    67    5.279592518614e-03
    68   -1.133719874966e-01
    69    2.319506502087e-01
    70   -6.999559614818e-14
    71   -7.600295225909e-03
    72   -1.284232177031e-01
    73    2.644217670185e-01
    74   -6.161785067374e-14
    75    8.481915086658e-02
    76   -2.944313341525e-02
    77    1.502302494262e-01
    78   -1.009715781528e-13
    79    2.425368818895e-02
    80   -7.494029688390e-04
    81   -2.532953164684e-03
    82   -2.417166253217e-14
    83    1.008563394704e-02
    84    1.638362032888e-14
    85   -1.172312632573e-14
    86   -3.874719122778e-03
    87    1.824785927428e-02
    88    1.436801324365e-02
    89    2.395255494133e-02
    90   -4.395713088640e-03
    91    2.245716200115e-03
    92   -4.865883631151e-13
    93   -6.824161756056e-02
    94   -8.738290035371e-03
    95    1.149179629855e-02
    96   -8.748234366829e-13
    97   -8.238440259984e-02
    98    3.840435966935e-02
    99   -5.346979542303e-02
   100   -5.463588272524e-13
   101    2.186532329864e-01
   102    3.694667991347e-02
   103   -1.095675720963e-01
   104    3.826165963547e-14
   105    1.990490116541e-03
   106   -1.445215899520e-13
   107   -1.474004100702e-13
   108    4.495264946570e-02
   109   -2.411702505246e-02
   110   -9.289797945839e-03
   111   -1.577587556716e-02
   112    1.165114532778e-01
   113   -1.300880970839e-01
   114   -8.767705220975e-13
   115    4.819051697879e-02
   116    1.784774763998e-01
   117   -2.016190838129e-01
   118   -1.391093338495e-12
   119    6.164543590027e-02
   120    1.549921263526e-01
   121   -1.939198997161e-01
   122   -1.213124663059e-12
   123    1.643076678888e-02
   124   -5.080732099552e-03
   125   -1.019633295030e-02
   126   -1.605276830422e-13
   127    1.568739116804e-03
   128    8.711386462857e-14
   129    5.781941640882e-14
   130   -1.054711321769e-02
   131    2.433482123151e-03
   132   -9.300442059879e-03
   133   -1.616759051981e-02
   134    2.492853557964e-02
   135   -2.922334671255e-02
   136   -1.165561662932e-13
   137    4.544178888014e-02
   138    3.419294244922e-02
   139   -4.410787312532e-02
   140   -2.135151209797e-13
   141    1.048647937503e-01
   142    7.038408739130e-02
   143   -5.659838735895e-02
   144   -1.342743269185e-13
   145    1.057666303437e-01
   146   -2.346035123496e-02
   147   -4.269280063722e-02
   148   -2.249311151529e-14
   149    9.611409112927e-04
   150   -4.290866079218e-14
   151    8.969284743981e-15
   152   -3.257955102438e-03
   153    7.203580564445e-03
   154   -1.220548105489e-02
   155   -1.992898639190e-02
   156   -2.459061189899e-03
   157    5.912724167196e-02
   158    8.873544370654e-13
   159    5.143800050589e-02
   160   -4.873180890333e-03
   161    9.017319335020e-02
   162    1.464536180949e-12
   163    8.605705334186e-02
   164   -4.518717930742e-05
   165    7.840333858702e-02
   166    1.376412910007e-12
   167    1.166905748050e-02
   168   -1.412658119255e-02
   169   -3.934243534936e-02
   170   -3.194254200931e-14
   171   -2.722332615007e-04
   172    5.307750732252e-14
   173    1.727607821812e-14
   174   -3.164472677493e-03
   175    4.825971909695e-03
   176    7.052725283654e-03
   177    1.146418621271e-02
   178    3.139981798188e-03
   179   -4.612864876324e-02
   180    2.121708783948e-13
   181   -2.904339370446e-02
   182    2.834996626074e-03
   183   -6.526072531298e-02
   184    3.557700960231e-13
   185   -1.110986088206e-01
   186    1.655449000754e-02
   187   -7.583017042099e-02
   188    4.274525272234e-13
   189   -5.622377953717e-01
   190    9.081552500951e-02
   191   -6.056649690949e-02
   192   -1.326546804198e-13
   193   -9.004485014864e-04
   194   -7.395631232745e-14
   195   -6.981724650497e-14
   196   -7.035068149445e-04
   197   -7.802044907598e-04
   198    1.611013600558e-02
   199    2.839892600046e-02
   200   -7.260642569096e-05
   201   -3.814353873550e-02
   202   -2.670130066273e-03
   203    2.047930583640e-03
   204    7.571278174286e-15
Sym=X
Ene= 2.001642
Spin=Alpha
Occup=1
     1   -1.882684368448e-13
     2   -2.883287361598e-13
     3   -1.070025019965e-13
     4    2.237485747148e-13
     5    1.015804143904e-01
     6    6.938695080700e-13
     7   -2.183582041370e-13
     8    3.514067259834e-13
     9    1.742852942293e-01
    10    9.974281624779e-14
    11   -1.333503878207e-14
    12    1.490753553890e-13
    13    1.241666666811e-01
    14    7.172963593821e-12
    15    2.414663104559e-12
    16    5.951137516309e-13
    17    2.344162800266e-02
    18   -3.110210482166e-14
    19   -5.834864413352e-03
    20    1.743929813656e-02
    21    6.555568994999e-14
    22   -1.733473863833e-14
    23    2.211859815790e-13
    24    4.160274092226e-13
    25   -6.882172628410e-13
    26    2.826194104375e-13
    27    5.491298058316e-14
    28    9.520947372988e-15
    29    1.069440355603e-02
    30   -5.495744388793e-14
    31   -7.021611463886e-14
    32   -1.944695718177e-13
    33    4.563712691211e-14
    34   -1.975395761424e-15
    35    1.139519402456e-14
    36    7.892502998579e-03
    37   -8.656072718948e-14
    38   -2.451387933287e-13
    39    4.693642708229e-13
    40   -4.141916361983e-13
    41    1.937785173444e-14
    42    2.183158908157e-14
    43    1.655606844999e-03
    44    2.913759462518e-13
    45    1.755575732162e-13
    46   -4.294411308182e-13
    47    4.023855443043e-13
    48    5.322810063633e-02
    49    4.057401161542e-13
    50   -6.758395429091e-13
    51    6.720946895620e-13
    52    9.316048617137e-02
    53    4.667797881414e-13
    54   -2.569719537859e-13
    55   -6.588745260866e-14
    56    3.805210535485e-02
    57   -4.877131331330e-13
    58    1.233549273530e-13
    59    5.160564010417e-13
    60    2.361232079340e-02
    61   -3.776683154133e-14
    62    7.878967240053e-03
    63   -1.734787323497e-02
    64    1.828349610649e-13
    65   -6.185784110130e-14
    66    6.492180067577e-14
    67    9.568156074015e-14
    68    6.554154363842e-13
    69   -1.289566253924e-12
    70   -1.418209457205e-02
    71   -3.802473004896e-13
    72    7.320130069452e-13
    73   -1.469803236280e-12
    74   -1.346334701936e-02
    75   -7.087921827589e-13
    76    1.927890394006e-13
    77   -8.032205815959e-13
    78   -1.677111390784e-02
    79   -2.364949037266e-13
    80   -2.305202309237e-14
    81   -2.739173321004e-14
    82   -1.904114636875e-02
    83   -5.064591904880e-14
    84    3.650040733832e-03
    85   -2.338913631582e-03
    86    1.963100564302e-14
    87   -9.443054620951e-14
    88   -3.546919288021e-13
    89   -3.683739499764e-13
    90   -3.874475408537e-15
    91    2.342769979942e-13
    92   -6.142676913924e-02
    93    4.250176629906e-13
    94   -1.018874156623e-14
    95    3.278526511428e-13
    96   -1.073433233291e-01
    97    2.921639740412e-13
    98   -2.103940791291e-13
    99    3.783150928208e-13
   100   -8.396319178416e-02
   101   -5.145816984585e-12
   102   -8.561572299954e-13
   103    2.283015427829e-12
   104   -1.317937376270e-02
   105   -2.384198008271e-14
   106   -3.448694334070e-02
   107   -2.601196670037e-02
   108   -2.013693708496e-13
   109    1.539282824648e-13
   110   -2.035384142016e-13
   111   -1.607602909601e-13
   112   -7.518073450120e-13
   113    6.941387684903e-13
   114   -1.548049830030e-01
   115   -9.657755608655e-14
   116   -1.146270962865e-12
   117    1.083011055383e-12
   118   -2.426870229332e-01
   119   -2.645843774569e-13
   120   -9.693664571610e-13
   121    1.021496463258e-12
   122   -2.228847519149e-01
   123    1.450715340266e-13
   124   -1.345482587695e-14
   125   -3.827870660456e-15
   126   -2.444719445064e-02
   127   -1.516662890889e-14
   128    1.384888361458e-02
   129    8.392003366898e-03
   130    7.814213504403e-14
   131   -7.544453361652e-15
   132   -9.655966609847e-14
   133   -2.187302135994e-14
   134   -1.796953185387e-14
   135   -1.950538354819e-14
   136    3.808287662456e-02
   137   -3.205765456547e-13
   138   -1.958078178100e-15
   139   -4.607107967488e-14
   140    5.956589237024e-02
   141   -4.735143231330e-13
   142   -2.639744152505e-13
   143    1.384178892785e-13
   144    7.460592089022e-02