[Molden Format]
[Atoms] (Angs)
  C      1    6     -0.00714236     -1.70213747     -0.00000000
  H      2    1     -2.06882847     -1.44022412      0.00000000
  H      3    1     -0.12337987     -2.77567521      0.00000000
  H      4    1      0.04651892      1.98813947     -0.00000000
  C      5    6     -1.21953563      0.40211669      0.00000000
  O      6    8     -2.25921553      1.03043814      0.00000000
  C      7    6      1.28797806      0.34644937     -0.00000000
  O      8    8      2.31273661      1.00537216     -0.00000000
  N      9    7      0.03446295      0.97739857     -0.00000000
  N     10    7     -1.17287765     -0.98229824      0.00000000
  C     11    6      1.20107039     -1.10433419     -0.00000000
  H     12    1      2.11220096     -1.67699125     -0.00000000
[GTO]
1    0
S    6    1.000000
   4.56324000E+03    1.96665000E-03 
   6.82024000E+02    1.52306000E-02 
   1.54973000E+02    7.61269000E-02 
   4.44553000E+01    2.60801000E-01 
   1.30290000E+01    6.16462000E-01 
   1.82773000E+00    2.21006000E-01 
SP   3    1.000000
   2.09642000E+01    1.14660000E-01   4.02487000E-02 
   4.80331000E+00    9.19999000E-01   2.37594000E-01 
   1.45933000E+00   -3.03068000E-03   8.15854000E-01 
SP   1    1.000000
   4.83456000E-01    1.00000000E+00   1.00000000E+00 
SP   1    1.000000
   1.45585000E-01    1.00000000E+00   1.00000000E+00 
SP   1    1.000000
   4.38000000E-02    1.00000000E+00   1.00000000E+00 
D    1    1.000000
   6.26000000E-01    1.00000000E+00 

2    0
S    3    1.000000
   3.38650000E+01    2.54938000E-02 
   5.09479000E+00    1.90373000E-01 
   1.15879000E+00    8.52161000E-01 
S    1    1.000000
   3.25840000E-01    1.00000000E+00 
S    1    1.000000
   1.02741000E-01    1.00000000E+00 
S    1    1.000000
   3.60000000E-02    1.00000000E+00 
P    1    1.000000
   7.50000000E-01    1.00000000E+00 

3    0
S    3    1.000000
   3.38650000E+01    2.54938000E-02 
   5.09479000E+00    1.90373000E-01 
   1.15879000E+00    8.52161000E-01 
S    1    1.000000
   3.25840000E-01    1.00000000E+00 
S    1    1.000000
   1.02741000E-01    1.00000000E+00 
S    1    1.000000
   3.60000000E-02    1.00000000E+00 
P    1    1.000000
   7.50000000E-01    1.00000000E+00 

4    0
S    3    1.000000
   3.38650000E+01    2.54938000E-02 
   5.09479000E+00    1.90373000E-01 
   1.15879000E+00    8.52161000E-01 
S    1    1.000000
   3.25840000E-01    1.00000000E+00 
S    1    1.000000
   1.02741000E-01    1.00000000E+00 
S    1    1.000000
   3.60000000E-02    1.00000000E+00 
P    1    1.000000
   7.50000000E-01    1.00000000E+00 

5    0
S    6    1.000000
   4.56324000E+03    1.96665000E-03 
   6.82024000E+02    1.52306000E-02 
   1.54973000E+02    7.61269000E-02 
   4.44553000E+01    2.60801000E-01 
   1.30290000E+01    6.16462000E-01 
   1.82773000E+00    2.21006000E-01 
SP   3    1.000000
   2.09642000E+01    1.14660000E-01   4.02487000E-02 
   4.80331000E+00    9.19999000E-01   2.37594000E-01 
   1.45933000E+00   -3.03068000E-03   8.15854000E-01 
SP   1    1.000000
   4.83456000E-01    1.00000000E+00   1.00000000E+00 
SP   1    1.000000
   1.45585000E-01    1.00000000E+00   1.00000000E+00 
SP   1    1.000000
   4.38000000E-02    1.00000000E+00   1.00000000E+00 
D    1    1.000000
   6.26000000E-01    1.00000000E+00 

6    0
S    6    1.000000
   8.58850000E+03    1.89515000E-03 
   1.29723000E+03    1.43859000E-02 
   2.99296000E+02    7.07320000E-02 
   8.73771000E+01    2.40001000E-01 
   2.56789000E+01    5.94797000E-01 
   3.74004000E+00    2.80802000E-01 
SP   3    1.000000
   4.21175000E+01    1.13889000E-01   3.65114000E-02 
   9.62837000E+00    9.20811000E-01   2.37153000E-01 
   2.85332000E+00   -3.27447000E-03   8.19702000E-01 
SP   1    1.000000
   9.05661000E-01    1.00000000E+00   1.00000000E+00 
SP   1    1.000000
   2.55611000E-01    1.00000000E+00   1.00000000E+00 
SP   1    1.000000
   8.45000000E-02    1.00000000E+00   1.00000000E+00 
D    1    1.000000
   1.29200000E+00    1.00000000E+00 

7    0
S    6    1.000000
   4.56324000E+03    1.96665000E-03 
   6.82024000E+02    1.52306000E-02 
   1.54973000E+02    7.61269000E-02 
   4.44553000E+01    2.60801000E-01 
   1.30290000E+01    6.16462000E-01 
   1.82773000E+00    2.21006000E-01 
SP   3    1.000000
   2.09642000E+01    1.14660000E-01   4.02487000E-02 
   4.80331000E+00    9.19999000E-01   2.37594000E-01 
   1.45933000E+00   -3.03068000E-03   8.15854000E-01 
SP   1    1.000000
   4.83456000E-01    1.00000000E+00   1.00000000E+00 
SP   1    1.000000
   1.45585000E-01    1.00000000E+00   1.00000000E+00 
SP   1    1.000000
   4.38000000E-02    1.00000000E+00   1.00000000E+00 
D    1    1.000000
   6.26000000E-01    1.00000000E+00 

8    0
S    6    1.000000
   8.58850000E+03    1.89515000E-03 
   1.29723000E+03    1.43859000E-02 
   2.99296000E+02    7.07320000E-02 
   8.73771000E+01    2.40001000E-01 
   2.56789000E+01    5.94797000E-01 
   3.74004000E+00    2.80802000E-01 
SP   3    1.000000
   4.21175000E+01    1.13889000E-01   3.65114000E-02 
   9.62837000E+00    9.20811000E-01   2.37153000E-01 
   2.85332000E+00   -3.27447000E-03   8.19702000E-01 
SP   1    1.000000
   9.05661000E-01    1.00000000E+00   1.00000000E+00 
SP   1    1.000000
   2.55611000E-01    1.00000000E+00   1.00000000E+00 
SP   1    1.000000
   8.45000000E-02    1.00000000E+00   1.00000000E+00 
D    1    1.000000
   1.29200000E+00    1.00000000E+00 

9    0
S    6    1.000000
   6.29348000E+03    1.96979000E-03 
   9.49044000E+02    1.49613000E-02 
   2.18776000E+02    7.35006000E-02 
   6.36916000E+01    2.48937000E-01 
   1.88282000E+01    6.02460000E-01 
   2.72023000E+00    2.56202000E-01 
SP   3    1.000000
   3.06331000E+01    1.11906000E-01   3.83119000E-02 
   7.02614000E+00    9.21666000E-01   2.37403000E-01 
   2.11205000E+00   -2.56919000E-03   8.17592000E-01 
SP   1    1.000000
   6.84009000E-01    1.00000000E+00   1.00000000E+00 
SP   1    1.000000
   2.00878000E-01    1.00000000E+00   1.00000000E+00 
SP   1    1.000000
   6.39000000E-02    1.00000000E+00   1.00000000E+00 
D    1    1.000000
   9.13000000E-01    1.00000000E+00 

10    0
S    6    1.000000
   6.29348000E+03    1.96979000E-03 
   9.49044000E+02    1.49613000E-02 
   2.18776000E+02    7.35006000E-02 
   6.36916000E+01    2.48937000E-01 
   1.88282000E+01    6.02460000E-01 
   2.72023000E+00    2.56202000E-01 
SP   3    1.000000
   3.06331000E+01    1.11906000E-01   3.83119000E-02 
   7.02614000E+00    9.21666000E-01   2.37403000E-01 
   2.11205000E+00   -2.56919000E-03   8.17592000E-01 
SP   1    1.000000
   6.84009000E-01    1.00000000E+00   1.00000000E+00 
SP   1    1.000000
   2.00878000E-01    1.00000000E+00   1.00000000E+00 
SP   1    1.000000
   6.39000000E-02    1.00000000E+00   1.00000000E+00 
D    1    1.000000
   9.13000000E-01    1.00000000E+00 

11    0
S    6    1.000000
   4.56324000E+03    1.96665000E-03 
   6.82024000E+02    1.52306000E-02 
   1.54973000E+02    7.61269000E-02 
   4.44553000E+01    2.60801000E-01 
   1.30290000E+01    6.16462000E-01 
   1.82773000E+00    2.21006000E-01 
SP   3    1.000000
   2.09642000E+01    1.14660000E-01   4.02487000E-02 
   4.80331000E+00    9.19999000E-01   2.37594000E-01 
   1.45933000E+00   -3.03068000E-03   8.15854000E-01 
SP   1    1.000000
   4.83456000E-01    1.00000000E+00   1.00000000E+00 
SP   1    1.000000
   1.45585000E-01    1.00000000E+00   1.00000000E+00 
SP   1    1.000000
   4.38000000E-02    1.00000000E+00   1.00000000E+00 
D    1    1.000000
   6.26000000E-01    1.00000000E+00 

12    0
S    3    1.000000
   3.38650000E+01    2.54938000E-02 
   5.09479000E+00    1.90373000E-01 
   1.15879000E+00    8.52161000E-01 
S    1    1.000000
   3.25840000E-01    1.00000000E+00 
S    1    1.000000
   1.02741000E-01    1.00000000E+00 
S    1    1.000000
   3.60000000E-02    1.00000000E+00 
P    1    1.000000
   7.50000000E-01    1.00000000E+00 

[MO]
Sym=X
Ene= 2.004752
Spin=Alpha
Occup=1
     1   -8.706187416452e-15
     2   -3.270609769143e-14
     3    4.112606432996e-14
     4    3.304450372947e-14
     5    8.940698927913e-02
     6    8.948118804713e-14
     7    9.459692750470e-14
     8    1.154890433668e-14
     9    1.524143349728e-01
    10   -1.477013618912e-13
    11   -1.095458724852e-14
    12   -5.458635457189e-14
    13    1.380791317381e-01
    14    3.319673697537e-12
    15    8.942766088031e-13
    16    6.735396570861e-13
    17    1.726172948540e-02
    18   -1.095441065892e-15
    19    1.110136734420e-02
    20    1.060367267161e-02
    21    8.864739696720e-15
    22    1.356883319324e-14
    23   -4.460260950298e-14
    24    2.390959844265e-13
    25   -1.895177572247e-13
    26   -2.190121890903e-14
    27    1.351285446700e-14
    28    3.883102386185e-15
    29   -1.672997001680e-04
    30    7.371014432615e-16
    31   -2.109188488012e-14
    32   -7.618413886336e-14
    33    1.605927869412e-13
    34    6.257076319665e-15
    35   -9.004506063899e-16
    36    7.137277953984e-03
    37   -2.963035640723e-14
    38   -3.321323746062e-13
    39   -4.586069675427e-14
    40    1.065702985300e-14
    41   -6.766108103283e-15
    42    2.842286732609e-14
    43   -6.397692635687e-03
    44   -1.591631534387e-14
    45   -2.067768796179e-14
    46    2.625118412578e-14
    47   -3.009352655958e-15
    48   -1.035287357182e-01
    49    4.260348422737e-14
    50    3.795142741477e-14
    51    1.380342146591e-14
    52   -1.829727274272e-01
    53    2.193851387845e-13
    54   -4.017106747365e-13
    55   -6.367322248955e-13
    56   -1.063915112053e-01
    57   -2.308149688147e-13
    58   -6.905078689087e-14
    59    6.704059456007e-14
    60   -2.019458425945e-02
    61   -4.216441782011e-15
    62    1.839918165169e-02
    63   -2.251127813866e-02
    64    1.712990879973e-14
    65    7.443828863869e-15
    66   -9.074826371068e-15
    67   -1.375741085108e-14
    68   -1.142973128326e-13
    69   -1.361899324280e-13
    70   -2.304800240842e-01
    71    5.312199701324e-14
    72   -1.328395094230e-13
    73   -1.595193551399e-13
    74   -2.707069654853e-01
    75   -1.093090422332e-14
    76   -5.217751613259e-14
    77   -1.603463927631e-14
    78   -1.707329266501e-01
    79   -1.384059422397e-13
    80   -2.281441420038e-14
    81    6.181456890001e-14
    82    6.913196644231e-03
    83    1.398374059575e-15
    84   -1.881685541745e-02
    85    1.122616522761e-02
    86   -6.430707757801e-15
    87   -1.193137992134e-15
    88    1.193027408808e-14
    89    2.952584222607e-14
    90    4.086148870910e-14
    91   -6.454033425383e-14
    92    5.232275248100e-02
    93   -1.357839317185e-13
    94    3.295948936481e-14
    95   -8.388089419265e-14
    96    9.108829637693e-02
    97    3.419788308819e-13
    98   -2.097077406079e-13
    99   -3.742720499562e-13
   100    7.019411506637e-02
   101   -1.759928379423e-12
   102    2.278498125255e-13
   103    4.722320950341e-13
   104    1.459895444968e-02
   105   -1.300994573829e-15
   106    1.131005239273e-02
   107   -8.158736140333e-03
   108    8.295957640983e-15
   109    2.124786995683e-14
   110    5.653872038730e-14
   111    4.358960877304e-14
   112    5.162107056002e-14
   113   -4.078275815281e-14
   114    5.495846353903e-02
   115    3.214817598013e-14
   116    9.605718603982e-14
   117   -7.205615645888e-14
   118    8.755602945652e-02
   119    8.156817687995e-14
   120    5.770527474923e-14
   121   -1.016250484003e-13
   122    7.115176251536e-02
   123    2.902551318975e-13
   124   -1.481295297165e-13
   125   -4.740787058239e-14
   126   -9.084068477743e-03
   127    1.653063494905e-15
   128   -6.657028407009e-03
   129   -4.278335372900e-03
   130   -8.324188942822e-15
   131   -1.798326861495e-15
   132   -9.849166953810e-14
   133   -5.907902020774e-14
   134   -7.710617080595e-14
   135   -3.395421753057e-14
   136   -6.579489934394e-02
   137   -1.648891104472e-13
   138   -1.249027216126e-13
   139   -1.009682829589e-13
   140   -1.098884538382e-01
   141    3.550554332125e-13
   142   -3.028627665714e-13
   143    5.089614492808e-13
   144   -1.047504601414e-01
   145    6.291714265325e-13
   146   -2.218977106278e-13
   147   -2.167820745583e-13
   148   -7.558284991394e-03
   149    1.790517654261e-15
   150    1.287841860366e-02
   151    1.246249412968e-03
   152   -1.142157180831e-14
   153    8.448065981662e-15
   154    3.107678765504e-14
   155    3.968242796496e-14
   156    2.812358466354e-14
   157    5.227982201615e-15
   158    1.013825788453e-02
   159   -3.928999725730e-14
   160    3.742705314967e-15
   161    7.833352428765e-15
   162    1.561508919830e-02
   163   -5.250368283909e-13
   164    5.779759449802e-13
   165   -8.883227379570e-14
   166    1.112875124155e-02
   167   -4.656656949917e-13
   168   -4.466148666085e-13
   169   -3.293253091413e-13
   170   -6.690394109154e-03
   171    8.549127493558e-15
   172    7.808014782973e-03
   173   -1.132904414117e-02
   174   -7.455277819791e-15
   175   -7.778686847341e-15
   176    2.456636740091e-13
   177    1.699072166461e-13
   178   -3.778386913776e-14
   179   -2.521886980598e-14
   180    9.873778824770e-02
   181    1.873539432308e-13
   182   -5.641225836091e-14
   183   -4.050139188021e-14
   184    1.698148684094e-01
   185   -2.590480069781e-13
   186   -8.856483239292e-14
   187   -1.853561864160e-13
   188    1.476826617184e-01
   189   -1.486999815494e-12
   190    6.105382489683e-13
   191    7.373227268013e-13
   192    4.731860743156e-03
   193   -1.053856237603e-14
   194   -1.497792533917e-02
   195    8.484499148169e-04
   196    6.488004635284e-15
   197    1.538115163395e-15
   198    2.135862782924e-14
   199    2.948564624113e-14
   200    6.006584249907e-14
   201   -8.875024177054e-14
   202   -5.766116287251e-15
   203   -1.474795166164e-15
   204    8.540199827562e-03
Sym=X
Ene= 2.003040
Spin=Alpha
Occup=1
     1    1.000595395155e-02
     2    1.598308180474e-02
     3    1.782312904322e-02
     4   -2.459604181105e-02
     5    6.760136279147e-14
     6   -4.008217377201e-02
     7    2.825838918558e-02
     8   -4.134121140441e-02
     9    1.444057056805e-13
    10   -4.238508937367e-02
    11   -6.312536850957e-03
    12   -3.906004173448e-02
    13    7.786738673049e-14
    14   -1.103898395502e-01
    15    7.038226304881e-04
    16   -1.385154085407e-02
    17    1.168892342759e-13
    18    2.368530552255e-03
    19    3.874251892286e-15
    20    1.201671261305e-14
    21   -9.641873981495e-03
    22    5.160479524535e-03
    23    8.981231188413e-03
    24   -3.167022298147e-03
    25   -2.806973815791e-02
    26    2.604886592684e-02
    27    2.157989550200e-04
    28    1.764635417620e-03
    29   -6.490451595286e-15
    30    1.647055007966e-02
    31    2.784513537132e-02
    32    1.702308022568e-02
    33    3.995446325822e-03
    34    7.934170859619e-04
    35   -1.475616748481e-04
    36    7.518523143756e-15
    37   -2.396829267784e-04
    38    1.449392229466e-02
    39    3.483844971865e-02
    40   -4.568857052807e-02
    41    2.781649053089e-03
    42   -8.301761223879e-04
    43    8.589328234369e-15
    44   -6.571038735926e-03
    45   -1.079846398419e-02
    46   -5.236894934837e-02
    47   -2.577719366170e-02
    48   -3.216079601383e-14
    49    3.171880027409e-02
    50   -8.711333443816e-02
    51   -4.966500254361e-02
    52   -6.396597043585e-14
    53    4.365796563648e-02
    54    3.070920317755e-02
    55    5.570315049271e-02
    56    1.596026768616e-14
    57    3.687082166264e-02
    58    5.590288975013e-02
    59    7.140578857556e-02
    60   -1.080972790550e-13
    61   -1.811228221345e-03
    62    2.199445003440e-14
    63   -1.044105657394e-14
    64   -5.195849581164e-02
    65   -3.185910023866e-02
    66   -5.776153063707e-03
    67   -8.273002697545e-03
    68    2.021768315044e-01
    69    2.310025573949e-01
    70   -1.817385510650e-13
    71    2.545406407768e-02
    72    2.336347169130e-01
    73    2.660762126389e-01
    74   -1.991541248779e-13
    75   -1.446711256359e-02
    76    1.473351989976e-01
    77    1.992172689733e-01
    78   -1.581767187216e-13
    79   -1.922276925400e-02
    80   -2.255714856147e-03
    81    7.221901530551e-03
    82    4.234408623821e-14
    83   -2.883936987150e-03
    84   -1.244486765388e-14
    85    7.079552780525e-16
    86    1.207840786305e-02
    87    5.214462230992e-04
    88   -1.604823817913e-02
    89   -2.548910580894e-02
    90   -4.355740131199e-02
    91    1.300118080042e-02
    92    4.475380621899e-14
    93    6.383235444583e-02
    94   -7.197185291020e-02
    95    1.877575414981e-02
    96    6.099584061541e-14
    97    5.892971312482e-02
    98   -5.271276857150e-02
    99    1.340329060988e-02
   100    1.177179798048e-13
   101   -1.926370735126e-01
   102   -1.146617556993e-02
   103    1.074600818639e-01
   104    1.926021402322e-13
   105   -2.252344749723e-03
   106   -8.201313260159e-15
   107   -6.355189111733e-15
   108   -2.868677581066e-02
   109    3.257524654867e-03
   110    5.588903765022e-03
   111    9.391058851377e-03
   112   -5.634795850936e-02
   113    1.111249530179e-01
   114    2.088061360962e-14
   115   -2.778958682238e-02
   116   -8.806245139161e-02
   117    1.711624199482e-01
   118    3.311106053523e-15
   119   -1.561348317262e-02
   120   -8.511209178350e-02
   121    1.554106281163e-01
   122    5.358488246514e-14
   123    3.372332159799e-02
   124   -1.425659472152e-02
   125    3.678749443253e-03
   126   -1.196481083569e-13
   127    2.119945741376e-04
   128    1.549930698989e-15
   129   -1.048900253837e-14
   130    7.910027130705e-03
   131   -5.181579239505e-03
   132    2.368808166042e-02
   133    3.915530530799e-02
   134    7.113646181136e-02
   135    2.014493021085e-02
   136    6.414276384150e-14
   137   -1.032792906754e-01
   138    1.077269459523e-01
   139    2.096565490407e-02
   140    1.134009881498e-13
   141   -1.998978993840e-01
   142    9.251574525834e-02
   143    3.723724300813e-02
   144    7.469470246814e-14
   145   -1.755062043301e-01
   146   -8.654536524893e-03
   147   -8.887308477101e-04
   148   -2.822005539989e-14
   149   -1.183743911210e-03
   150    5.323200944973e-15
   151    2.284470658180e-15
   152    2.528118490676e-04
   153   -5.555630891920e-03
   154   -1.488739609379e-02
   155   -2.394116833636e-02
   156   -3.423540273684e-02
   157    6.122349138780e-02
   158    2.167120355806e-14
   159    6.114703415046e-02
   160   -5.795116777810e-02
   161    8.896446206087e-02
   162    3.914034845747e-14
   163    1.088370479637e-01
   164   -4.898114303413e-02
   165    9.460374016280e-02
   166   -1.188100835120e-14
   167    1.081334158737e-01
   168   -8.594378910074e-03
   169    2.160391014396e-03
   170   -4.547490869223e-15
   171    3.065121618124e-04
   172    8.236504489774e-15
   173   -4.246429638075e-15
   174   -2.525999514614e-03
   175   -8.775408217223e-04
   176   -3.065416499995e-03
   177   -5.060923054460e-03
   178   -3.292973310025e-03
   179    2.108127876278e-02
   180    8.157453401066e-14
   181    1.267693137572e-02
   182   -3.223882841299e-03
   183    2.786016675304e-02
   184    1.180058688824e-13
   185    5.690315616390e-02
   186   -1.625935798058e-02
   187    3.034242414951e-02
   188    1.457385624014e-13
   189    2.955774351669e-01
   190   -3.086814661988e-02
   191    5.280573422795e-02
   192   -1.670680221613e-13
   193    5.704907899852e-04
   194   -5.513472282887e-15
   195   -5.163563858613e-16
   196   -3.127537191667e-03
   197   -4.870708474689e-05
   198   -9.138698442890e-03
   199   -1.654954419590e-02
   200   -2.649160605850e-03
   201    1.528388803340e-02
   202    1.605212204804e-03
   203   -9.361894216336e-04
   204    5.765103942917e-15
Sym=X
Ene= 2.000918
Spin=Alpha
Occup=1
     1   -7.842449498998e-03
     2   -1.134480563654e-02
     3   -2.675189060147e-02
     4    1.465794412458e-02
     5   -1.236103611573e-13
     6    2.657057391261e-02
     7   -4.678786587843e-02
     8    2.356118088569e-02
     9   -2.156021483158e-13
    10    7.861385112266e-03
    11   -2.143237553552e-02
    12    1.035391422065e-02
    13   -5.176295866228e-14
    14   -2.865861676190e-01
    15   -7.907238534705e-02
    16   -9.580679143423e-02
    17   -9.964638013759e-14
    18   -1.392415096198e-03
    19    3.894591532616e-14
    20   -2.337932653918e-14
    21    5.244884832306e-03
    22   -5.502857778445e-04
    23    1.185247363858e-02
    24    1.818439700308e-02
    25    2.149885791809e-02
    26   -2.679569696746e-03
    27    2.475848414528e-03
    28   -2.218721826521e-03
    29   -2.736184798316e-14
    30   -7.208402308568e-03
    31   -1.495452950483e-02
    32   -7.190934493363e-03
    33   -4.575107658258e-02
    34   -1.075132853117e-03
    35   -5.082974197424e-04
    36   -1.575655058226e-14
    37    2.513344868539e-02
    38    2.639623907814e-02
    39   -1.074375320904e-02
    40   -2.208936935352e-02
    41    2.709511080665e-03
    42   -4.353021436406e-03
    43    9.757665809502e-15
    44   -4.570639417499e-03
    45   -3.888841984652e-03
    46   -7.934973098731e-02
    47    8.575985751710e-02
    48   -4.492522490196e-14
    49    5.608383880004e-03
    50   -1.220089308291e-01
    51    1.428699346718e-01
    52   -8.443640340598e-14
    53    3.972843161953e-02
    54   -2.052440017764e-02
    55   -4.213301667964e-04
    56   -4.626453880524e-14
    57    2.797458771579e-02
    58   -5.241952894996e-03
    59   -2.919419782635e-02
    60    8.638737432024e-14
    61   -2.507617807812e-03
    62    4.066032906129e-14
    63    6.719281722687e-14
    64    3.798027046223e-02
    65   -6.252462912144e-03
    66    2.098584531721e-03
    67    3.540414070403e-03
    68    8.319414273413e-02
    69   -2.372247876955e-01
    70    9.937357465071e-15
    71   -1.972092885017e-02
    72    9.319764465962e-02
    73   -2.712844356465e-01
    74    2.412079513058e-16
    75   -8.607801829682e-02
    76    1.530874601881e-02
    77   -1.657020390978e-01
    78    3.467000727234e-14
    79   -1.882453908391e-02
    80    2.274591441117e-03
    81   -1.463013235381e-03
    82   -4.661092158089e-14
    83   -8.458246690994e-03
    84   -2.982460157472e-15
    85    5.616977746735e-15
    86    2.352672942024e-03
    87   -1.542775078384e-02
    88   -1.257493757429e-02
    89   -1.836201935151e-02
    90   -4.727672837352e-03
    91    2.044815447225e-02
    92    2.567196715896e-13
    93    4.425784486559e-02
    94   -6.726064624025e-03
    95    2.574454735019e-02
    96    4.676299300430e-13
    97    6.459544792951e-02
    98   -3.821379508526e-02
    99    5.572068033729e-02
   100    2.247691009047e-13
   101   -2.238549436410e-01
   102   -4.233598971489e-02
   103    1.114900147660e-01
   104   -9.624059169451e-14
   105   -2.216879168515e-03
   106    1.904380743964e-14
   107    4.889467034010e-14
   108   -3.789367737595e-02
   109    1.699118870553e-02
   110    1.231269021325e-02
   111    2.071037050775e-02
   112   -1.104801434358e-01
   113    1.204803451791e-01
   114    3.121785009338e-13
   115   -6.160340202442e-02
   116   -1.695638128285e-01
   117    1.867520339873e-01
   118    5.065698226615e-13
   119   -7.004386204564e-02
   120   -1.511400510104e-01
   121    1.804611781145e-01
   122    4.044709704669e-13
   123   -1.086050115785e-02
   124    2.485124405836e-03
   125    1.008053879419e-02
   126    8.998097056868e-14
   127   -1.743690719610e-03
   128   -3.615126839013e-14
   129   -2.276375159649e-14
   130    1.051659897126e-02
   131   -2.859111541428e-03
   132   -1.166195491393e-03
   133   -1.984458610200e-04
   134   -5.447258206153e-03
   135    3.797914996627e-02
   136    2.417249767183e-13
   137   -4.058196860576e-03
   138   -2.905817638834e-03
   139    5.903897090052e-02
   140    4.016233646615e-13
   141   -5.234023717588e-02
   142   -5.202248343034e-02
   143    5.966725436982e-02
   144    4.000318502887e-13
   145   -9.125734052852e-02
   146    1.888842233889e-02
   147    4.026699133018e-02
   148    4.532672605845e-14
   149   -1.199798385868e-03
   150    1.134769942313e-14
   151   -1.432101715871e-14
   152    2.018610544605e-03
   153   -9.424437890366e-03
   154    1.878403804856e-02
   155    2.958894980569e-02
   156    7.943098951028e-03
   157   -8.522436023742e-02
   158   -3.533933288637e-13
   159   -7.285807513576e-02
   160    1.404488916203e-02
   161   -1.312942290771e-01
   162   -5.780248347893e-13
   163   -9.864162212314e-02
   164    7.268145333185e-03
   165   -1.053393367024e-01
   166   -6.224967608676e-13
   167   -1.170648514451e-03
   168    1.530666961155e-02
   169    4.310139363399e-02
   170   -6.552080721393e-14
   171    1.328745518404e-03
   172   -1.016015744035e-14
   173   -1.143747588317e-14
   174    7.547964048130e-03
   175   -3.925329469837e-03
   176   -2.055733017769e-03
   177   -3.158971463686e-03
   178   -5.398065915027e-03
   179    2.444150506759e-02
   180    2.298210873899e-14
   181    7.482094996800e-03
   182   -5.904880568106e-03
   183    3.031175335011e-02
   184    4.616444568030e-14
   185    7.730623283924e-02
   186   -5.750723570738e-03
   187    5.197129710909e-02
   188   -1.325111182965e-14
   189    5.622244135762e-01
   190   -8.530285704923e-02
   191    6.606858774783e-02
   192    1.261621740598e-13
   193    1.746338465182e-03
   194    9.214815452607e-15
   195    3.298604680055e-14
   196    5.364019612703e-03
   197   -1.095232622168e-03
   198   -1.138256422145e-02
   199   -2.205532517598e-02
   200    2.084200184801e-03
   201    3.915672562633e-02
   202    2.490503560109e-03
   203   -3.036889450633e-03
   204    6.995232408586e-15
Sym=X
Ene= 2.000614
Spin=Alpha
Occup=1
     1   -1.077258702593e-13
     2   -2.445013855897e-13
     3   -7.101867725854e-14
     4    2.455751508045e-13
     5    9.481819052534e-02
     6    7.883082452416e-13
     7   -1.455581551651e-13
     8    3.896308931123e-13
     9    1.602146593988e-01
    10    1.332189237242e-13
    11    1.047851422205e-13
    12    1.724105308686e-13
    13    1.155317047175e-01
    14    7.058823132720e-12
    15    2.568356246848e-12
    16    6.241767467049e-13
    17    2.366457216745e-02
    18   -4.176705033908e-14
    19   -6.693142897845e-03
    20    1.548513355809e-02
    21    7.940037638761e-14
    22   -3.678887282079e-14
    23    3.248711099735e-13
    24    5.922234979919e-13
    25   -8.332848508046e-13
    26    2.645228995264e-13
    27    7.647900055138e-14
    28    2.523840245417e-14
    29    1.180544041551e-02
    30   -6.021628925689e-14
    31   -6.865231200865e-14
    32   -2.600987497464e-13
    33    8.447045633372e-14
    34    4.353947945765e-16
    35    1.782476615321e-14
    36    8.011487699249e-03
    37   -2.255865480805e-13
    38   -4.308222393902e-13
    39    4.446378231841e-13
    40   -3.144091451496e-13
    41    1.511298482710e-14
    42    4.688314856300e-14
    43    3.358518837645e-03
    44    8.472573561480e-13
    45    7.287270270173e-13
    46   -7.405225099653e-14
    47    9.503116550424e-14
    48    6.051286131320e-02
    49   -1.488572471870e-13
    50   -1.305285415885e-13
    51    1.735321366918e-13
    52    1.063747422945e-01
    53    6.961074285843e-14
    54   -2.942195446082e-13
    55   -3.165395517894e-14
    56    4.894859380601e-02
    57   -3.327411374468e-13
    58    1.751733647730e-13
    59    5.424139280145e-13
    60    1.925798325556e-02
    61   -5.847717342373e-15
    62    1.023027782262e-02
    63   -1.746967309739e-02
    64    7.526157408869e-14
    65   -1.806676884516e-14
    66    1.392123372631e-13
    67    2.016974374572e-13
    68    7.961976765908e-14
    69   -4.978922843292e-13
    70   -2.811445506862e-02
    71   -6.909525606980e-13
    72    7.261604812494e-14
    73   -5.666905936068e-13
    74   -2.842187535262e-02
    75   -5.055786406117e-13
    76   -8.870448943045e-15
    77   -3.281009024674e-13
    78   -2.912207234809e-02
    79   -2.689769352757e-13
    80   -6.481696280852e-14
    81   -6.737331958148e-15
    82   -2.056936778812e-02
    83   -4.654166394663e-15
    84    3.726302901854e-03
    85   -2.386399090503e-03
    86   -5.915691742056e-15
    87   -1.654510497618e-14
    88   -7.223350277309e-13
    89   -6.232628966286e-13
    90   -9.858545302185e-14
    91    1.775312621479e-13
    92   -5.387862973524e-02
    93    1.330427480695e-13
    94   -1.641360996602e-13
    95    2.666301382008e-13
    96   -9.294196390108e-02
    97   -1.241501508712e-13
    98   -8.988463957842e-14
    99    1.499427905803e-13
   100   -7.864166060242e-02
   101   -5.563009531386e-12
   102   -4.255687682033e-13
   103    2.070096649254e-12
   104   -1.156312905000e-02
   105   -1.427108277575e-14
   106   -3.247307815778e-02
   107   -2.357713766169e-02
   108   -2.334845564247e-14
   109    4.662888610847e-14
   110   -4.525259388253e-13
   111   -3.933913129531e-13
   112   -2.080237714169e-13
   113    2.135545184165e-13
   114   -1.487908198483e-01
   115    2.967177726078e-14
   116   -3.143505581580e-13
   117    3.367294461442e-13
   118   -2.326354504052e-01
   119   -9.587496682392e-15
   120   -2.905448239016e-13
   121    2.763934935561e-13
   122   -2.187112874055e-01
   123    2.990860318955e-13
   124   -7.667820510769e-14
   125   -6.423902632754e-14
   126   -3.018666321044e-02
   127   -2.942011290927e-15
   128    1.251640586545e-02
   129    7.114316430276e-03
   130    2.998862604222e-14
   131   -6.745443995120e-15
   132   -3.759820580514e-13
   133   -2.804362787109e-13
   134    9.361150643843e-14
   135   -2.418588450234e-13
   136    5.489157890195e-02
   137   -1.959687561255e-13
   138    1.534544681403e-13
   139   -3.878722391114e-13
   140    8.766310728993e-02
   141    1.526481258298e-14
   142    1.273817577484e-14
   143   -2.083306308247e-13
   144    9.975063424697e-02