[Molden Format]
[Atoms] (Angs)
  C      1    6     -0.00714236     -1.70213747     -0.00000000
  H      2    1     -2.06882847     -1.44022412      0.00000000
  H      3    1     -0.12337987     -2.77567521      0.00000000
  H      4    1      0.04651892      1.98813947     -0.00000000
  C      5    6     -1.21953563      0.40211669      0.00000000
  O      6    8     -2.25921553      1.03043814      0.00000000
  C      7    6      1.28797806      0.34644937     -0.00000000
  O      8    8      2.31273661      1.00537216     -0.00000000
  N      9    7      0.03446295      0.97739857     -0.00000000
  N     10    7     -1.17287765     -0.98229824      0.00000000
  C     11    6      1.20107039     -1.10433419     -0.00000000
  H     12    1      2.11220096     -1.67699125     -0.00000000
[GTO]
1    0
S    6    1.000000
   4.56324000E+03    1.96665000E-03 
   6.82024000E+02    1.52306000E-02 
   1.54973000E+02    7.61269000E-02 
   4.44553000E+01    2.60801000E-01 
   1.30290000E+01    6.16462000E-01 
   1.82773000E+00    2.21006000E-01 
SP   3    1.000000
   2.09642000E+01    1.14660000E-01   4.02487000E-02 
   4.80331000E+00    9.19999000E-01   2.37594000E-01 
   1.45933000E+00   -3.03068000E-03   8.15854000E-01 
SP   1    1.000000
   4.83456000E-01    1.00000000E+00   1.00000000E+00 
SP   1    1.000000
   1.45585000E-01    1.00000000E+00   1.00000000E+00 
SP   1    1.000000
   4.38000000E-02    1.00000000E+00   1.00000000E+00 
D    1    1.000000
   6.26000000E-01    1.00000000E+00 

2    0
S    3    1.000000
   3.38650000E+01    2.54938000E-02 
   5.09479000E+00    1.90373000E-01 
   1.15879000E+00    8.52161000E-01 
S    1    1.000000
   3.25840000E-01    1.00000000E+00 
S    1    1.000000
   1.02741000E-01    1.00000000E+00 
S    1    1.000000
   3.60000000E-02    1.00000000E+00 
P    1    1.000000
   7.50000000E-01    1.00000000E+00 

3    0
S    3    1.000000
   3.38650000E+01    2.54938000E-02 
   5.09479000E+00    1.90373000E-01 
   1.15879000E+00    8.52161000E-01 
S    1    1.000000
   3.25840000E-01    1.00000000E+00 
S    1    1.000000
   1.02741000E-01    1.00000000E+00 
S    1    1.000000
   3.60000000E-02    1.00000000E+00 
P    1    1.000000
   7.50000000E-01    1.00000000E+00 

4    0
S    3    1.000000
   3.38650000E+01    2.54938000E-02 
   5.09479000E+00    1.90373000E-01 
   1.15879000E+00    8.52161000E-01 
S    1    1.000000
   3.25840000E-01    1.00000000E+00 
S    1    1.000000
   1.02741000E-01    1.00000000E+00 
S    1    1.000000
   3.60000000E-02    1.00000000E+00 
P    1    1.000000
   7.50000000E-01    1.00000000E+00 

5    0
S    6    1.000000
   4.56324000E+03    1.96665000E-03 
   6.82024000E+02    1.52306000E-02 
   1.54973000E+02    7.61269000E-02 
   4.44553000E+01    2.60801000E-01 
   1.30290000E+01    6.16462000E-01 
   1.82773000E+00    2.21006000E-01 
SP   3    1.000000
   2.09642000E+01    1.14660000E-01   4.02487000E-02 
   4.80331000E+00    9.19999000E-01   2.37594000E-01 
   1.45933000E+00   -3.03068000E-03   8.15854000E-01 
SP   1    1.000000
   4.83456000E-01    1.00000000E+00   1.00000000E+00 
SP   1    1.000000
   1.45585000E-01    1.00000000E+00   1.00000000E+00 
SP   1    1.000000
   4.38000000E-02    1.00000000E+00   1.00000000E+00 
D    1    1.000000
   6.26000000E-01    1.00000000E+00 

6    0
S    6    1.000000
   8.58850000E+03    1.89515000E-03 
   1.29723000E+03    1.43859000E-02 
   2.99296000E+02    7.07320000E-02 
   8.73771000E+01    2.40001000E-01 
   2.56789000E+01    5.94797000E-01 
   3.74004000E+00    2.80802000E-01 
SP   3    1.000000
   4.21175000E+01    1.13889000E-01   3.65114000E-02 
   9.62837000E+00    9.20811000E-01   2.37153000E-01 
   2.85332000E+00   -3.27447000E-03   8.19702000E-01 
SP   1    1.000000
   9.05661000E-01    1.00000000E+00   1.00000000E+00 
SP   1    1.000000
   2.55611000E-01    1.00000000E+00   1.00000000E+00 
SP   1    1.000000
   8.45000000E-02    1.00000000E+00   1.00000000E+00 
D    1    1.000000
   1.29200000E+00    1.00000000E+00 

7    0
S    6    1.000000
   4.56324000E+03    1.96665000E-03 
   6.82024000E+02    1.52306000E-02 
   1.54973000E+02    7.61269000E-02 
   4.44553000E+01    2.60801000E-01 
   1.30290000E+01    6.16462000E-01 
   1.82773000E+00    2.21006000E-01 
SP   3    1.000000
   2.09642000E+01    1.14660000E-01   4.02487000E-02 
   4.80331000E+00    9.19999000E-01   2.37594000E-01 
   1.45933000E+00   -3.03068000E-03   8.15854000E-01 
SP   1    1.000000
   4.83456000E-01    1.00000000E+00   1.00000000E+00 
SP   1    1.000000
   1.45585000E-01    1.00000000E+00   1.00000000E+00 
SP   1    1.000000
   4.38000000E-02    1.00000000E+00   1.00000000E+00 
D    1    1.000000
   6.26000000E-01    1.00000000E+00 

8    0
S    6    1.000000
   8.58850000E+03    1.89515000E-03 
   1.29723000E+03    1.43859000E-02 
   2.99296000E+02    7.07320000E-02 
   8.73771000E+01    2.40001000E-01 
   2.56789000E+01    5.94797000E-01 
   3.74004000E+00    2.80802000E-01 
SP   3    1.000000
   4.21175000E+01    1.13889000E-01   3.65114000E-02 
   9.62837000E+00    9.20811000E-01   2.37153000E-01 
   2.85332000E+00   -3.27447000E-03   8.19702000E-01 
SP   1    1.000000
   9.05661000E-01    1.00000000E+00   1.00000000E+00 
SP   1    1.000000
   2.55611000E-01    1.00000000E+00   1.00000000E+00 
SP   1    1.000000
   8.45000000E-02    1.00000000E+00   1.00000000E+00 
D    1    1.000000
   1.29200000E+00    1.00000000E+00 

9    0
S    6    1.000000
   6.29348000E+03    1.96979000E-03 
   9.49044000E+02    1.49613000E-02 
   2.18776000E+02    7.35006000E-02 
   6.36916000E+01    2.48937000E-01 
   1.88282000E+01    6.02460000E-01 
   2.72023000E+00    2.56202000E-01 
SP   3    1.000000
   3.06331000E+01    1.11906000E-01   3.83119000E-02 
   7.02614000E+00    9.21666000E-01   2.37403000E-01 
   2.11205000E+00   -2.56919000E-03   8.17592000E-01 
SP   1    1.000000
   6.84009000E-01    1.00000000E+00   1.00000000E+00 
SP   1    1.000000
   2.00878000E-01    1.00000000E+00   1.00000000E+00 
SP   1    1.000000
   6.39000000E-02    1.00000000E+00   1.00000000E+00 
D    1    1.000000
   9.13000000E-01    1.00000000E+00 

10    0
S    6    1.000000
   6.29348000E+03    1.96979000E-03 
   9.49044000E+02    1.49613000E-02 
   2.18776000E+02    7.35006000E-02 
   6.36916000E+01    2.48937000E-01 
   1.88282000E+01    6.02460000E-01 
   2.72023000E+00    2.56202000E-01 
SP   3    1.000000
   3.06331000E+01    1.11906000E-01   3.83119000E-02 
   7.02614000E+00    9.21666000E-01   2.37403000E-01 
   2.11205000E+00   -2.56919000E-03   8.17592000E-01 
SP   1    1.000000
   6.84009000E-01    1.00000000E+00   1.00000000E+00 
SP   1    1.000000
   2.00878000E-01    1.00000000E+00   1.00000000E+00 
SP   1    1.000000
   6.39000000E-02    1.00000000E+00   1.00000000E+00 
D    1    1.000000
   9.13000000E-01    1.00000000E+00 

11    0
S    6    1.000000
   4.56324000E+03    1.96665000E-03 
   6.82024000E+02    1.52306000E-02 
   1.54973000E+02    7.61269000E-02 
   4.44553000E+01    2.60801000E-01 
   1.30290000E+01    6.16462000E-01 
   1.82773000E+00    2.21006000E-01 
SP   3    1.000000
   2.09642000E+01    1.14660000E-01   4.02487000E-02 
   4.80331000E+00    9.19999000E-01   2.37594000E-01 
   1.45933000E+00   -3.03068000E-03   8.15854000E-01 
SP   1    1.000000
   4.83456000E-01    1.00000000E+00   1.00000000E+00 
SP   1    1.000000
   1.45585000E-01    1.00000000E+00   1.00000000E+00 
SP   1    1.000000
   4.38000000E-02    1.00000000E+00   1.00000000E+00 
D    1    1.000000
   6.26000000E-01    1.00000000E+00 

12    0
S    3    1.000000
   3.38650000E+01    2.54938000E-02 
   5.09479000E+00    1.90373000E-01 
   1.15879000E+00    8.52161000E-01 
S    1    1.000000
   3.25840000E-01    1.00000000E+00 
S    1    1.000000
   1.02741000E-01    1.00000000E+00 
S    1    1.000000
   3.60000000E-02    1.00000000E+00 
P    1    1.000000
   7.50000000E-01    1.00000000E+00 

[MO]
Sym=X
Ene= 2.006092
Spin=Alpha
Occup=1
     1   -3.765747533831e-15
     2   -2.605560350558e-14
     3    4.136599834269e-14
     4    2.911162670471e-14
     5    9.224424751304e-02
     6    7.554590999447e-14
     7    9.911921392543e-14
     8    3.003459745810e-15
     9    1.596604654365e-01
    10   -1.886229331023e-13
    11   -1.861697949945e-14
    12   -6.861127002088e-14
    13    1.373980764927e-01
    14    3.313730084345e-12
    15    9.080402685706e-13
    16    6.602024442655e-13
    17    1.418715704180e-02
    18    6.667054031490e-17
    19    1.254191194686e-02
    20    1.219715871442e-02
    21    9.484124919151e-15
    22    1.487840549560e-14
    23   -3.047292542453e-14
    24    2.766092842876e-13
    25   -2.230549949839e-13
    26   -3.580368026156e-14
    27    1.666888586815e-14
    28    4.816713505286e-15
    29   -2.517942790904e-04
    30    2.236573089741e-15
    31   -1.288553827763e-14
    32   -9.673440476724e-14
    33    1.383435626344e-13
    34    6.537077381245e-15
    35   -8.793302613414e-16
    36    6.556788244801e-03
    37   -2.135807012836e-14
    38   -3.478616904346e-13
    39   -9.037561679366e-14
    40    2.654121335651e-14
    41   -6.118122101973e-15
    42    2.864931989054e-14
    43   -6.084936533414e-03
    44    9.703312440573e-16
    45   -3.775018475042e-15
    46    1.289046829115e-14
    47   -5.637555479998e-15
    48   -1.041832970734e-01
    49    2.784001789005e-14
    50    1.657107150627e-14
    51    7.641603267426e-15
    52   -1.849994704564e-01
    53    2.266725742288e-13
    54   -4.493626308177e-13
    55   -6.856595569846e-13
    56   -1.049715132246e-01
    57   -2.283023537139e-13
    58   -7.894476014849e-14
    59    5.149495760012e-14
    60   -2.058847260817e-02
    61   -4.223698293199e-15
    62    1.839224904203e-02
    63   -2.164574590512e-02
    64    7.713544132079e-15
    65    1.568908936309e-15
    66   -7.671678230793e-15
    67   -1.182360474703e-14
    68   -7.777384958485e-14
    69   -9.752164920754e-14
    70   -2.376226516616e-01
    71    4.625762991978e-14
    72   -9.029756054684e-14
    73   -1.140241983222e-13
    74   -2.777134813749e-01
    75   -1.681036020272e-14
    76   -1.964862386146e-14
    77    2.698198597174e-14
    78   -1.696875721177e-01
    79   -1.945159929387e-13
    80   -3.454002152290e-14
    81    8.895602350392e-14
    82    8.282369208927e-03
    83    8.463671766180e-16
    84   -1.972785770190e-02
    85    1.192382840743e-02
    86   -4.950895032298e-15
    87   -1.310740391704e-15
    88   -8.460307604349e-15
    89    8.308470327586e-15
    90    3.154942266197e-14
    91   -4.984263327574e-14
    92    4.414271336578e-02
    93   -1.161544281435e-13
    94    1.460211461079e-14
    95   -5.778351737199e-14
    96    7.744876164954e-02
    97    3.700852984462e-13
    98   -2.457529308349e-13
    99   -4.070777491248e-13
   100    5.715176171884e-02
   101   -2.051226158891e-12
   102    3.391491110183e-13
   103    5.204034732002e-13
   104    1.340993946686e-02
   105   -2.543053681334e-15
   106    1.074804125042e-02
   107   -1.036689677214e-02
   108    3.427814272744e-15
   109    2.155350017843e-14
   110    1.321024286430e-14
   111    4.988474663090e-15
   112    3.181797881531e-14
   113   -1.613606217656e-14
   114    4.254128245569e-02
   115    4.023580782990e-14
   116    6.562872898542e-14
   117   -3.413731116509e-14
   118    6.811632051964e-02
   119    9.308670385997e-14
   120    2.773394640361e-14
   121   -7.031671202503e-14
   122    5.336510989710e-02
   123    3.299703246357e-13
   124   -1.811868410098e-13
   125   -6.164939850495e-14
   126   -1.170003069820e-02
   127    1.195752209993e-15
   128   -5.608844314294e-03
   129   -3.821695902714e-03
   130   -5.798799685008e-15
   131   -2.364884135060e-15
   132   -5.713683062914e-14
   133   -2.594211374384e-14
   134   -5.286017016710e-14
   135   -2.638668337862e-14
   136   -6.866466898198e-02
   137   -1.591471896722e-13
   138   -8.670999554704e-14
   139   -9.627989664315e-14
   140   -1.151907664765e-01
   141    3.958409426274e-13
   142   -3.005663554772e-13
   143    5.694471504115e-13
   144   -1.070004759122e-01
   145    7.839881384953e-13
   146   -2.475892059137e-13
   147   -2.013573591202e-13
   148   -3.135591346050e-03
   149    5.864080682315e-16
   150    1.178965423788e-02
   151    2.385994391178e-03
   152   -1.244270805874e-14
   153    6.335734896205e-15
   154    1.709521658487e-14
   155    2.272087903952e-14
   156    1.375863347770e-14
   157    5.677150868621e-15
   158    8.598749046915e-03
   159   -9.137376161532e-15
   160   -2.320950284357e-14
   161    7.800862943189e-15
   162    1.331024313618e-02
   163   -5.191351668655e-13
   164    6.054139878959e-13
   165   -9.529255566092e-14
   166    7.084496714770e-03
   167   -4.762334957905e-13
   168   -4.932082787576e-13
   169   -3.379132714728e-13
   170   -5.564373695694e-03
   171    8.422547950766e-15
   172    7.954388316342e-03
   173   -1.176149590421e-02
   174   -6.841329028600e-15
   175   -7.995215184669e-15
   176    1.856943878168e-13
   177    1.235940651889e-13
   178   -3.839777898818e-14
   179   -2.544862812410e-14
   180    1.012437006546e-01
   181    1.723286438035e-13
   182   -5.628514343364e-14
   183   -4.379829012897e-14
   184    1.761950526760e-01
   185   -2.978111059965e-13
   186   -1.067511610365e-13
   187   -1.941891472566e-13
   188    1.512640848815e-01
   189   -1.255786137643e-12
   190    4.977535125238e-13
   191    7.906617016418e-13
   192    2.680018893094e-03
   193   -9.720165491687e-15
   194   -1.718249562677e-02
   195    6.538960475125e-04
   196    6.458674893763e-15
   197    6.914537364078e-16
   198    1.847424383292e-14
   199    2.460224210826e-14
   200    9.117239881907e-14
   201   -6.041035244575e-14
   202   -5.355058827646e-15
   203   -2.352784402794e-15
   204    8.007568124753e-03
Sym=X
Ene= 2.003760
Spin=Alpha
Occup=1
     1    7.849508647272e-03
     2    1.305750025531e-02
     3    1.195063640351e-02
     4   -3.050376232636e-02
     5    4.708472236548e-14
     6   -3.504030737239e-02
     7    2.006727091818e-02
     8   -5.055523979858e-02
     9    1.110489947798e-13
    10   -4.097206575300e-02
    11   -1.139860790006e-02
    12   -4.840390177346e-02
    13    3.949932605323e-14
    14   -1.082271471009e-01
    15   -2.656483587114e-03
    16   -1.619927970709e-02
    17    1.187380116809e-13
    18    2.017211097509e-03
    19    2.151042723006e-15
    20    9.892839652650e-15
    21   -1.129300009357e-02
    22    5.164758595588e-03
    23    1.361352652457e-03
    24   -1.338262701155e-02
    25   -2.716583374486e-02
    26    3.014608237455e-02
    27   -9.020075434036e-04
    28    5.653434826726e-04
    29   -8.124729601217e-15
    30    2.266160768450e-02
    31    3.627565115157e-02
    32    1.440566307971e-02
    33   -8.184717805181e-04
    34    5.780595923364e-04
    35    8.469369556488e-04
    36    6.038544195553e-15
    37    4.325207716330e-03
    38    2.031913724998e-02
    39    3.279118495413e-02
    40   -4.601428961330e-02
    41    1.417670232006e-03
    42   -1.671468610255e-03
    43    1.041584726186e-14
    44   -8.301876503366e-03
    45   -1.383958557789e-02
    46   -4.109628350743e-02
    47   -1.804896711925e-02
    48   -1.386387023781e-14
    49    4.119734054835e-02
    50   -6.883896060357e-02
    51   -3.647754793576e-02
    52   -3.074393129438e-14
    53    4.806598389337e-02
    54    4.209084852667e-02
    55    6.605862376954e-02
    56    3.605555913941e-14
    57    4.283677239474e-02
    58    6.616977839907e-02
    59    7.885667747364e-02
    60   -1.286706381430e-13
    61   -1.955672182792e-03
    62    1.706266650415e-14
    63   -6.112758147312e-15
    64   -5.590740948655e-02
    65   -3.222156009565e-02
    66   -5.004955995890e-03
    67   -7.148699509721e-03
    68    2.116434835636e-01
    69    2.573437825091e-01
    70   -1.329504035718e-13
    71    2.171436514997e-02
    72    2.434403130434e-01
    73    2.947829816936e-01
    74   -1.390858182879e-13
    75   -1.347559500377e-02
    76    1.497755006394e-01
    77    2.109520716108e-01
    78   -1.246186894938e-13
    79   -1.822468866034e-02
    80   -5.469451195402e-03
    81    3.081802550405e-03
    82    5.474354028296e-14
    83   -2.624063406617e-03
    84   -9.154126668102e-15
    85   -1.551390465857e-15
    86    1.486650586154e-02
    87    2.143317527943e-03
    88   -1.483962555736e-02
    89   -2.470729073791e-02
    90   -3.374793959095e-02
    91   -4.908849687984e-04
    92    3.276604788753e-14
    93    6.636298096451e-02
    94   -5.643228498151e-02
    95   -2.424724094787e-03
    96    3.930338927775e-14
    97    6.698430224024e-02
    98   -5.075224419990e-02
    99    6.407389380494e-03
   100    9.943705339477e-14
   101   -1.622640958979e-01
   102   -5.249245408198e-03
   103    9.364414232757e-02
   104    2.281173779784e-13
   105   -1.754145818736e-03
   106   -1.034313388489e-14
   107   -5.312934384460e-15
   108   -2.906374724629e-02
   109    4.760159805416e-03
   110    3.727225785922e-03
   111    6.321966059890e-03
   112   -4.913775114750e-02
   113    9.985853499059e-02
   114    8.917472119729e-15
   115   -1.906597037309e-02
   116   -7.692472903507e-02
   117    1.536383157798e-01
   118   -1.997689922463e-14
   119   -9.086102779336e-03
   120   -7.232192586693e-02
   121    1.373130541181e-01
   122    4.904791286934e-14
   123    2.993100022624e-02
   124   -1.256834287383e-02
   125    9.362233245008e-04
   126   -1.383901736766e-13
   127    3.278767892160e-04
   128    3.143624604334e-15
   129   -9.467782312838e-15
   130    6.800254439417e-03
   131   -4.399440222793e-03
   132    2.337338070663e-02
   133    3.871007077443e-02
   134    5.517963934823e-02
   135    2.592746007132e-02
   136    7.464183014697e-14
   137   -1.025606654242e-01
   138    8.169817593800e-02
   139    3.006933248820e-02
   140    1.314936646192e-13
   141   -2.085952414268e-01
   142    7.767337973352e-02
   143    4.789765264799e-02
   144    9.123114631812e-14
   145   -1.864733399282e-01
   146   -5.703632548249e-03
   147    4.147221701053e-03
   148   -3.305255345854e-14
   149   -1.458513496564e-03
   150    3.572204395967e-15
   151    2.190985085176e-15
   152    3.189971160880e-04
   153   -4.006563747491e-03
   154   -1.246854310228e-02
   155   -2.034463252493e-02
   156   -2.575026779242e-02
   157    6.146127759368e-02
   158    1.427369426063e-14
   159    5.315062263941e-02
   160   -4.444341951409e-02
   161    8.852145890085e-02
   162    2.568507758582e-14
   163    1.090610109883e-01
   164   -3.857133099271e-02
   165    9.593606672495e-02
   166   -2.147548085626e-14
   167    1.170875785096e-01
   168   -6.242231220610e-03
   169    7.672310652104e-03
   170    1.062930486219e-14
   171    7.156944213830e-04
   172    6.680637664479e-15
   173   -1.784894126669e-15
   174   -2.882252846377e-03
   175   -1.149126058778e-03
   176   -5.076011228129e-03
   177   -8.359585841468e-03
   178    2.280582850780e-03
   179    2.902297597875e-02
   180    6.034032034290e-14
   181    2.132744839880e-02
   182    4.822942530078e-03
   183    4.166654466450e-02
   184    8.102390479744e-14
   185    6.143948837736e-02
   186   -1.503788909152e-02
   187    3.480682786871e-02
   188    1.181967571710e-13
   189    2.651311309451e-01
   190   -3.165947245884e-02
   191    3.997268577283e-02
   192   -1.943411568084e-13
   193    5.784830513475e-05
   194   -2.183029987646e-15
   195   -4.282648920200e-16
   196   -5.507981641442e-03
   197    4.136732925484e-04
   198   -7.576688516548e-03
   199   -1.338798624421e-02
   200   -2.976544149787e-03
   201    1.201708874887e-02
   202    1.258879954226e-03
   203    4.826159539221e-05
   204    3.727926726287e-15
Sym=X
Ene= 2.001853
Spin=Alpha
Occup=1
     1    1.141399413729e-13
     2    1.928676786713e-13
     3   -9.937600181018e-14
     4   -1.459719623862e-13
     5   -9.935800405403e-02
     6   -5.102383265105e-13
     7   -1.450288220234e-13
     8   -2.318305667192e-13
     9   -1.703199459956e-01
    10   -1.763698389093e-13
    11   -1.982987657262e-13
    12   -2.262847407616e-13
    13   -1.167512901947e-01
    14   -8.986895370420e-12
    15   -2.953287336192e-12
    16   -1.231564814970e-12
    17   -2.226862296562e-02
    18    1.985082496102e-14
    19    7.637668364731e-03
    20   -1.837247736565e-02
    21   -4.289680325680e-14
    22    2.084438605399e-14
    23   -9.375506960454e-14
    24   -2.281136792548e-13
    25    8.180213571756e-13
    26   -3.177181806655e-13
    27   -2.505738323216e-14
    28   -1.463233195440e-14
    29   -1.136548546940e-02
    30    3.803053996213e-14
    31    7.265801623184e-16
    32    1.339308079234e-13
    33   -3.659964632605e-13
    34   -5.714262161331e-15
    35   -1.514530036811e-14
    36   -7.425817791379e-03
    37    1.183651027450e-13
    38    2.442389752551e-13
    39   -5.241933655042e-13
    40    2.393093256431e-13
    41   -1.383009209491e-15
    42   -2.239888434429e-14
    43   -2.570918562867e-03
    44   -3.191412897409e-13
    45   -3.064329727937e-13
    46   -1.935191235127e-13
    47    1.832407926240e-13
    48   -6.755900547264e-02
    49    2.509489885431e-13
    50   -2.887458298699e-13
    51    2.978711685693e-13
    52   -1.181978801092e-01
    53    1.467513048414e-13
    54    1.010981012806e-13
    55    3.794559719596e-15
    56   -5.304907560971e-02
    57    7.837284180968e-13
    58   -1.430552835080e-13
    59   -7.514976178894e-13
    60   -2.500813674848e-02
    61   -1.037991536263e-14
    62   -7.182971107087e-03
    63    1.741664873168e-02
    64    7.229722199461e-14
    65   -5.702891119650e-15
    66   -9.576471615265e-14
    67   -1.364586864406e-13
    68    1.906509938750e-13
    69   -4.743105927137e-13
    70   -3.590422761470e-03
    71    4.427577873770e-13
    72    2.250606493561e-13
    73   -5.402584261892e-13
    74   -7.800948514849e-03
    75    6.655920030940e-14
    76    2.365007196848e-14
    77   -3.358826374392e-13
    78    5.189688800804e-03
    79    5.410161865868e-14
    80    3.539043445022e-14
    81    4.705236386747e-14
    82    2.102239399755e-02
    83   -2.542404618235e-14
    84   -5.555915361312e-03
    85    3.537345729216e-03
    86    8.347271621096e-15
    87   -4.302291554948e-14
    88    1.894973874344e-13
    89    1.269149910391e-13
    90    4.706490988446e-14
    91   -1.862128048721e-13
    92    4.925778860774e-02
    93    1.647654975372e-13
    94    8.660451219772e-14
    95   -3.115560951177e-13
    96    8.648134046151e-02
    97    3.682855282633e-13
    98   -9.071300350350e-14
    99    6.518923185720e-14
   100    7.125691913494e-02
   101    3.693977600802e-12
   102    5.218865012243e-13
   103   -1.458082983587e-12
   104    7.233805632209e-03
   105    2.517771862323e-15
   106    3.209313000098e-02
   107    2.269236505610e-02
   108   -1.386297068546e-13
   109    4.133197387807e-14
   110    1.963063038155e-13
   111    2.014689649665e-13
   112   -2.003824569201e-13
   113    3.050261955173e-13
   114    1.347295514767e-01
   115   -1.991524720959e-13
   116   -3.119385350564e-13
   117    4.661964693985e-13
   118    2.110557084982e-01
   119   -1.787860581435e-13
   120   -2.746614865910e-13
   121    4.707236127914e-13
   122    1.944443523014e-01
   123   -2.948898123233e-13
   124    5.438980642268e-14
   125    8.115622520466e-14
   126    2.315306969619e-02
   127   -4.723535096681e-16
   128   -1.184572549647e-02
   129   -7.135589829963e-03
   130    9.987439711428e-15
   131   -7.621299564761e-15
   132    1.388486389816e-13
   133    1.397821883458e-13
   134   -1.342847976349e-13
   135    1.928335261283e-13
   136   -5.073643108527e-02
   137   -1.296366613146e-13
   138   -1.971376768096e-13
   139    2.985122522555e-13
   140   -8.094345221804e-02
   141   -3.572121123104e-13
   142   -2.559481635203e-13
   143    2.671955939165e-13
   144   -9.037833707612e-02
   145   -1.388349183967e-13
   146    3.503626963667e-13
   147    1.127261506708e-12
   148    5.227184204203e-04
   149    2.150485198808e-16
   150    8.747864858887e-03
   151    3.332454546638e-03
   152   -6.959507702948e-15
   153   -1.429034396546e-14
   154   -1.300821533671e-13
   155    2.020855866635e-14
   156   -3.393798981896e-14
   157   -1.926731301186e-14
   158   -1.562472192952e-01
   159   -6.998172915598e-13
   160   -5.907879107550e-14
   161   -3.881497747139e-14
   162   -2.576722270824e-01
   163   -6.321642458642e-13
   164   -9.307340612734e-14
   165   -1.787084471089e-14
   166   -2.269528629950e-01
   167   -5.176850244276e-13
   168    1.118722830083e-12
   169    8.331160955052e-13
   170    1.828926565592e-02
   171    1.721000134931e-14
   172   -9.751101547638e-03
   173   -4.443894805217e-03
   174   -1.567635811094e-14
   175   -2.604897065569e-15
   176    1.987365449810e-13
   177    1.473577330265e-13
   178    1.867215449574e-13
   179    2.488179191558e-13
   180   -5.750535603618e-02
   181    8.689096536943e-14
   182    2.719062615434e-13
   183    3.755031623470e-13
   184   -9.696318297260e-02
   185    4.210535784276e-13
   186    1.051546076449e-13
   187    3.239716230112e-13
   188   -1.001324984984e-01
   189    5.269810449048e-12
   190   -2.520772749953e-12
   191   -2.580806315559e-12
   192    6.616314756498e-03
   193    5.785378897097e-15
   194    1.646187984408e-02
   195    8.347402321234e-03
   196   -4.575917520781e-14
   197   -1.402056685877e-14
   198    2.461996621660e-14
   199    4.202350313649e-14
   200   -5.269292267901e-14
   201    9.897319934440e-14
   202   -2.371578797104e-15
   203    1.350818067699e-14
   204   -3.316754783854e-03
Sym=X
Ene= 2.001545
Spin=Alpha
Occup=1
     1    4.645037647212e-03
     2    7.101170939373e-03
     3    3.359512988547e-02
     4   -4.289346240087e-03
     5   -2.615645075934e-13
     6   -1.780779323236e-02
     7    5.749723944740e-02
     8   -7.040107037961e-03
     9   -4.469356537948e-13
    10    8.756525624949e-03
    11    3.027971869797e-02
    12    1.293766051467e-02
    13   -4.061850121797e-13
    14    2.944031762503e-01
    15    8.026325618859e-02
    16    9.673332892559e-02
    17    1.915562204430e-14
    18    1.385252656495e-03
    19   -1.686190121417e-14
    20   -4.581620389529e-14
    21   -1.174800366538e-03
    22    6.927146901237e-05
    23   -8.341974301868e-03
    24   -1.128917684389e-02
    25   -1.922675814742e-02
    26    4.523706991922e-03
    27   -2.219980210844e-03
    28    1.241082781313e-03
    29   -1.854605376376e-14
    30   -2.364622443001e-03
    31    5.267072628600e-04
    32    3.959863376996e-03
    33    4.427803227747e-02
    34    1.319794685051e-03
    35    1.650770812056e-05
    36   -1.375466864328e-14
    37   -1.143722530031e-02
    38   -1.201510547612e-02
    39    8.855754816839e-03
    40    2.683980789929e-02
    41   -2.362577560766e-03
    42    1.757468797894e-03
    43   -2.452555995345e-14
    44    1.803367643564e-02
    45    2.797976179972e-02
    46    7.629884235680e-02
    47   -7.620259942644e-02
    48   -2.224821166096e-13
    49   -7.897461182408e-02
    50    1.168442268638e-01
    51   -1.261070978219e-01
    52   -3.830129120982e-13
    53   -7.864060687068e-02
    54    2.207085712974e-02
    55    6.411175479665e-03
    56   -1.680787685573e-13
    57   -4.036910506379e-02
    58    6.818222791898e-03
    59    2.907856026291e-02
    60   -1.835966958821e-13
    61    5.986229666870e-03
    62   -7.868066132203e-14
    63   -3.246917399173e-15
    64   -3.568119592217e-02
    65    6.649666734491e-03
    66    1.002242501005e-02
    67    1.407839584597e-02
    68   -8.835875038025e-02
    69    2.331448187739e-01
    70   -2.428485703288e-15
    71   -3.910012919266e-02
    72   -1.004551875199e-01
    73    2.663911122314e-01
    74   -7.825634265973e-15
    75    6.569085347142e-02
    76   -1.299211232170e-02
    77    1.527976679504e-01
    78    2.348029359735e-15
    79    2.666266333681e-02
    80   -5.754737828647e-04
    81   -2.963023164151e-03
    82    1.331557908389e-13
    83    9.613839370538e-03
    84   -1.690803224760e-14
    85    8.999627214950e-15
    86   -2.612868866336e-03
    87    1.765647344560e-02
    88    1.599078475908e-02
    89    2.637044159253e-02
    90   -1.229756090750e-03
    91   -1.523173492080e-03
    92   -9.816227336571e-14
    93   -7.405760428149e-02
    94   -3.794443682907e-03
    95    5.393483731261e-03
    96   -1.955908629763e-13
    97   -8.666996477174e-02
    98    4.064968774942e-02
    99   -5.796379756595e-02
   100    1.381030461057e-14
   101    2.173096966964e-01
   102    4.287853162318e-02
   103   -1.147494431593e-01
   104    1.169495989635e-13
   105    2.457214327810e-03
   106    1.108207387656e-13
   107    3.551173101191e-14
   108    4.543024398180e-02
   109   -2.336242573786e-02
   110   -1.121936728236e-02
   111   -1.904652875555e-02
   112    1.214258809541e-01
   113   -1.334824807792e-01
   114    2.036000303813e-13
   115    5.784274785880e-02
   116    1.860910597824e-01
   117   -2.069790300607e-01
   118    2.995122954053e-13
   119    7.113160094094e-02
   120    1.607147425770e-01
   121   -1.983875493933e-01
   122    3.528627173493e-13
   123    1.734100730720e-02
   124   -6.427062675130e-03
   125   -9.504135238653e-03
   126    2.133653969575e-14
   127    1.706881707157e-03
   128   -6.667960527144e-15
   129    5.966190274098e-16
   130   -1.125070499398e-02
   131    2.598274602915e-03
   132   -6.889801541451e-03
   133   -1.238587380911e-02
   134    2.202461523799e-02
   135   -2.676423123893e-02
   136   -4.943882547172e-13
   137    3.602596700765e-02
   138    2.901846955162e-02
   139   -4.035544487656e-02
   140   -8.114134268416e-13
   141    9.271025129874e-02
   142    7.137062792447e-02
   143   -5.165575366637e-02
   144   -8.309239077388e-13