[Molden Format]
[Atoms] (Angs)
  C      1    6     -0.00714236     -1.70213747     -0.00000000
  H      2    1     -2.06882847     -1.44022412      0.00000000
  H      3    1     -0.12337987     -2.77567521      0.00000000
  H      4    1      0.04651892      1.98813947     -0.00000000
  C      5    6     -1.21953563      0.40211669      0.00000000
  O      6    8     -2.25921553      1.03043814      0.00000000
  C      7    6      1.28797806      0.34644937     -0.00000000
  O      8    8      2.31273661      1.00537216     -0.00000000
  N      9    7      0.03446295      0.97739857     -0.00000000
  N     10    7     -1.17287765     -0.98229824      0.00000000
  C     11    6      1.20107039     -1.10433419     -0.00000000
  H     12    1      2.11220096     -1.67699125     -0.00000000
[GTO]
1    0
S    6    1.000000
   4.56324000E+03    1.96665000E-03 
   6.82024000E+02    1.52306000E-02 
   1.54973000E+02    7.61269000E-02 
   4.44553000E+01    2.60801000E-01 
   1.30290000E+01    6.16462000E-01 
   1.82773000E+00    2.21006000E-01 
SP   3    1.000000
   2.09642000E+01    1.14660000E-01   4.02487000E-02 
   4.80331000E+00    9.19999000E-01   2.37594000E-01 
   1.45933000E+00   -3.03068000E-03   8.15854000E-01 
SP   1    1.000000
   4.83456000E-01    1.00000000E+00   1.00000000E+00 
SP   1    1.000000
   1.45585000E-01    1.00000000E+00   1.00000000E+00 
SP   1    1.000000
   4.38000000E-02    1.00000000E+00   1.00000000E+00 
D    1    1.000000
   6.26000000E-01    1.00000000E+00 

2    0
S    3    1.000000
   3.38650000E+01    2.54938000E-02 
   5.09479000E+00    1.90373000E-01 
   1.15879000E+00    8.52161000E-01 
S    1    1.000000
   3.25840000E-01    1.00000000E+00 
S    1    1.000000
   1.02741000E-01    1.00000000E+00 
S    1    1.000000
   3.60000000E-02    1.00000000E+00 
P    1    1.000000
   7.50000000E-01    1.00000000E+00 

3    0
S    3    1.000000
   3.38650000E+01    2.54938000E-02 
   5.09479000E+00    1.90373000E-01 
   1.15879000E+00    8.52161000E-01 
S    1    1.000000
   3.25840000E-01    1.00000000E+00 
S    1    1.000000
   1.02741000E-01    1.00000000E+00 
S    1    1.000000
   3.60000000E-02    1.00000000E+00 
P    1    1.000000
   7.50000000E-01    1.00000000E+00 

4    0
S    3    1.000000
   3.38650000E+01    2.54938000E-02 
   5.09479000E+00    1.90373000E-01 
   1.15879000E+00    8.52161000E-01 
S    1    1.000000
   3.25840000E-01    1.00000000E+00 
S    1    1.000000
   1.02741000E-01    1.00000000E+00 
S    1    1.000000
   3.60000000E-02    1.00000000E+00 
P    1    1.000000
   7.50000000E-01    1.00000000E+00 

5    0
S    6    1.000000
   4.56324000E+03    1.96665000E-03 
   6.82024000E+02    1.52306000E-02 
   1.54973000E+02    7.61269000E-02 
   4.44553000E+01    2.60801000E-01 
   1.30290000E+01    6.16462000E-01 
   1.82773000E+00    2.21006000E-01 
SP   3    1.000000
   2.09642000E+01    1.14660000E-01   4.02487000E-02 
   4.80331000E+00    9.19999000E-01   2.37594000E-01 
   1.45933000E+00   -3.03068000E-03   8.15854000E-01 
SP   1    1.000000
   4.83456000E-01    1.00000000E+00   1.00000000E+00 
SP   1    1.000000
   1.45585000E-01    1.00000000E+00   1.00000000E+00 
SP   1    1.000000
   4.38000000E-02    1.00000000E+00   1.00000000E+00 
D    1    1.000000
   6.26000000E-01    1.00000000E+00 

6    0
S    6    1.000000
   8.58850000E+03    1.89515000E-03 
   1.29723000E+03    1.43859000E-02 
   2.99296000E+02    7.07320000E-02 
   8.73771000E+01    2.40001000E-01 
   2.56789000E+01    5.94797000E-01 
   3.74004000E+00    2.80802000E-01 
SP   3    1.000000
   4.21175000E+01    1.13889000E-01   3.65114000E-02 
   9.62837000E+00    9.20811000E-01   2.37153000E-01 
   2.85332000E+00   -3.27447000E-03   8.19702000E-01 
SP   1    1.000000
   9.05661000E-01    1.00000000E+00   1.00000000E+00 
SP   1    1.000000
   2.55611000E-01    1.00000000E+00   1.00000000E+00 
SP   1    1.000000
   8.45000000E-02    1.00000000E+00   1.00000000E+00 
D    1    1.000000
   1.29200000E+00    1.00000000E+00 

7    0
S    6    1.000000
   4.56324000E+03    1.96665000E-03 
   6.82024000E+02    1.52306000E-02 
   1.54973000E+02    7.61269000E-02 
   4.44553000E+01    2.60801000E-01 
   1.30290000E+01    6.16462000E-01 
   1.82773000E+00    2.21006000E-01 
SP   3    1.000000
   2.09642000E+01    1.14660000E-01   4.02487000E-02 
   4.80331000E+00    9.19999000E-01   2.37594000E-01 
   1.45933000E+00   -3.03068000E-03   8.15854000E-01 
SP   1    1.000000
   4.83456000E-01    1.00000000E+00   1.00000000E+00 
SP   1    1.000000
   1.45585000E-01    1.00000000E+00   1.00000000E+00 
SP   1    1.000000
   4.38000000E-02    1.00000000E+00   1.00000000E+00 
D    1    1.000000
   6.26000000E-01    1.00000000E+00 

8    0
S    6    1.000000
   8.58850000E+03    1.89515000E-03 
   1.29723000E+03    1.43859000E-02 
   2.99296000E+02    7.07320000E-02 
   8.73771000E+01    2.40001000E-01 
   2.56789000E+01    5.94797000E-01 
   3.74004000E+00    2.80802000E-01 
SP   3    1.000000
   4.21175000E+01    1.13889000E-01   3.65114000E-02 
   9.62837000E+00    9.20811000E-01   2.37153000E-01 
   2.85332000E+00   -3.27447000E-03   8.19702000E-01 
SP   1    1.000000
   9.05661000E-01    1.00000000E+00   1.00000000E+00 
SP   1    1.000000
   2.55611000E-01    1.00000000E+00   1.00000000E+00 
SP   1    1.000000
   8.45000000E-02    1.00000000E+00   1.00000000E+00 
D    1    1.000000
   1.29200000E+00    1.00000000E+00 

9    0
S    6    1.000000
   6.29348000E+03    1.96979000E-03 
   9.49044000E+02    1.49613000E-02 
   2.18776000E+02    7.35006000E-02 
   6.36916000E+01    2.48937000E-01 
   1.88282000E+01    6.02460000E-01 
   2.72023000E+00    2.56202000E-01 
SP   3    1.000000
   3.06331000E+01    1.11906000E-01   3.83119000E-02 
   7.02614000E+00    9.21666000E-01   2.37403000E-01 
   2.11205000E+00   -2.56919000E-03   8.17592000E-01 
SP   1    1.000000
   6.84009000E-01    1.00000000E+00   1.00000000E+00 
SP   1    1.000000
   2.00878000E-01    1.00000000E+00   1.00000000E+00 
SP   1    1.000000
   6.39000000E-02    1.00000000E+00   1.00000000E+00 
D    1    1.000000
   9.13000000E-01    1.00000000E+00 

10    0
S    6    1.000000
   6.29348000E+03    1.96979000E-03 
   9.49044000E+02    1.49613000E-02 
   2.18776000E+02    7.35006000E-02 
   6.36916000E+01    2.48937000E-01 
   1.88282000E+01    6.02460000E-01 
   2.72023000E+00    2.56202000E-01 
SP   3    1.000000
   3.06331000E+01    1.11906000E-01   3.83119000E-02 
   7.02614000E+00    9.21666000E-01   2.37403000E-01 
   2.11205000E+00   -2.56919000E-03   8.17592000E-01 
SP   1    1.000000
   6.84009000E-01    1.00000000E+00   1.00000000E+00 
SP   1    1.000000
   2.00878000E-01    1.00000000E+00   1.00000000E+00 
SP   1    1.000000
   6.39000000E-02    1.00000000E+00   1.00000000E+00 
D    1    1.000000
   9.13000000E-01    1.00000000E+00 

11    0
S    6    1.000000
   4.56324000E+03    1.96665000E-03 
   6.82024000E+02    1.52306000E-02 
   1.54973000E+02    7.61269000E-02 
   4.44553000E+01    2.60801000E-01 
   1.30290000E+01    6.16462000E-01 
   1.82773000E+00    2.21006000E-01 
SP   3    1.000000
   2.09642000E+01    1.14660000E-01   4.02487000E-02 
   4.80331000E+00    9.19999000E-01   2.37594000E-01 
   1.45933000E+00   -3.03068000E-03   8.15854000E-01 
SP   1    1.000000
   4.83456000E-01    1.00000000E+00   1.00000000E+00 
SP   1    1.000000
   1.45585000E-01    1.00000000E+00   1.00000000E+00 
SP   1    1.000000
   4.38000000E-02    1.00000000E+00   1.00000000E+00 
D    1    1.000000
   6.26000000E-01    1.00000000E+00 

12    0
S    3    1.000000
   3.38650000E+01    2.54938000E-02 
   5.09479000E+00    1.90373000E-01 
   1.15879000E+00    8.52161000E-01 
S    1    1.000000
   3.25840000E-01    1.00000000E+00 
S    1    1.000000
   1.02741000E-01    1.00000000E+00 
S    1    1.000000
   3.60000000E-02    1.00000000E+00 
P    1    1.000000
   7.50000000E-01    1.00000000E+00 

[MO]
Sym=X
Ene= 2.003351
Spin=Alpha
Occup=1
     1   -6.834555611440e-03
     2   -1.160209978242e-02
     3   -2.999864308051e-03
     4    1.180333360294e-02
     5    1.196931968887e-13
     6    3.144649487853e-02
     7   -5.560228941207e-03
     8    2.069148351017e-02
     9    1.759893669727e-13
    10    4.957562238020e-02
    11    2.553523625740e-03
    12    2.696690650877e-02
    13    2.338743947776e-13
    14    5.631226342538e-02
    15   -8.851277632281e-03
    16   -7.189404736287e-03
    17   -9.317083386057e-14
    18   -1.138386260466e-03
    19    3.895383538080e-14
    20    4.982147776148e-15
    21    6.214087409512e-03
    22   -2.347412760776e-03
    23   -1.136827772940e-02
    24   -3.753412105301e-03
    25    3.186178904692e-02
    26   -3.154307797506e-02
    27   -8.280638268749e-04
    28    8.426354986253e-04
    29   -1.164346715921e-15
    30   -7.255453398603e-03
    31   -1.317162832088e-02
    32   -1.291973257052e-02
    33   -9.863092978499e-03
    34   -2.467158227647e-04
    35    8.409769789347e-04
    36    5.817107936329e-15
    37    8.257794266914e-03
    38   -2.458851149184e-03
    39   -3.638890408806e-02
    40    4.877724534714e-02
    41    7.418121117105e-04
    42    1.145226007617e-04
    43   -3.310379477325e-14
    44    7.662802349930e-03
    45    1.139341027653e-02
    46    6.324032578592e-03
    47   -1.947750428397e-02
    48   -2.600864324674e-13
    49   -2.872164265629e-02
    50    1.258138552881e-02
    51   -2.525511062872e-02
    52   -4.438438040108e-13
    53   -3.992109456988e-02
    54   -4.624440334460e-02
    55   -6.841969097900e-02
    56   -2.700701244173e-13
    57   -3.089404442826e-02
    58   -6.928015286432e-02
    59   -9.739915249623e-02
    60    7.170708263354e-14
    61    1.186924712998e-03
    62    1.166392426169e-14
    63   -2.941944848211e-14
    64    4.905321408921e-02
    65    2.704037817591e-02
    66    2.771218668544e-03
    67    3.923860805755e-03
    68   -2.109719441471e-01
    69   -2.869417527456e-01
    70   -4.288097373689e-13
    71   -1.202912130904e-02
    72   -2.450201664197e-01
    73   -3.327793857884e-01
    74   -5.160007272958e-13
    75    1.028780427926e-02
    76   -1.632754488736e-01
    77   -2.437302254934e-01
    78   -2.877442077580e-13
    79    1.425497714239e-02
    80    4.627296392637e-03
    81   -1.787156807265e-03
    82   -2.124395209469e-14
    83    1.667509453405e-03
    84   -3.377340993550e-14
    85    2.759714588952e-14
    86   -1.559978839100e-02
    87   -4.701837935494e-03
    88    9.912335603690e-03
    89    1.700784785361e-02
    90    1.190258594403e-02
    91    2.833163552661e-03
    92    1.169991820922e-13
    93   -4.828635702338e-02
    94    1.928604502760e-02
    95    7.143621536618e-03
    96    2.219575132487e-13
    97   -5.585842166550e-02
    98    3.627422348190e-02
    99   -1.449784287997e-02
   100    8.973803053819e-14
   101    1.549735687815e-01
   102    9.937968588622e-04
   103   -9.026883586954e-02
   104   -1.839777975268e-13
   105    7.330513221269e-04
   106    7.642453160582e-14
   107   -6.459383775194e-15
   108    2.700643802003e-02
   109   -1.058883346871e-02
   110   -2.013357910246e-03
   111   -3.466476476348e-03
   112    5.626650505392e-02
   113   -8.658269030757e-02
   114    2.340568637687e-13
   115    1.102344632465e-02
   116    8.700932854162e-02
   117   -1.336512992840e-01
   118    4.033073246997e-13
   119    1.338399387467e-02
   120    7.831724209248e-02
   121   -1.250124336533e-01
   122    2.917852223952e-13
   123   -2.054869495782e-02
   124    1.384280224511e-02
   125   -3.400392622908e-03
   126    1.408022039867e-13
   127    2.180049621805e-04
   128   -2.799248063326e-14
   129   -7.112310180887e-15
   130   -6.082752857518e-03
   131    2.644439462969e-03
   132   -2.313378712733e-02
   133   -3.809543468715e-02
   134   -1.526767051304e-02
   135   -1.194238407599e-02
   136   -3.326128919608e-13
   137    1.001899539782e-01
   138   -1.857618517632e-02
   139   -8.023244437142e-03
   140   -5.521867176746e-13
   141    2.004389925756e-01
   142   -3.435216808043e-02
   143   -2.867540446337e-02
   144   -5.337729349164e-13
   145    1.814718061640e-01
   146    2.371343706288e-03
   147    9.143730511881e-03
   148   -1.544340038706e-14
   149    1.704403218925e-03
   150    2.479780874050e-14
   151    3.261304478602e-15
   152   -3.857759694978e-03
   153   -5.479576677581e-05
   154    1.178999735458e-02
   155    1.939022794988e-02
   156    1.747459599009e-02
   157   -2.511560525231e-02
   158   -1.087730055326e-13
   159   -5.120528962726e-02
   160    3.124827056519e-02
   161   -3.075466381814e-02
   162   -1.797057934425e-13
   163   -1.087444585985e-01
   164    2.970898255283e-02
   165   -5.302210481658e-02
   166   -1.555174658811e-13
   167   -1.257223422059e-01
   168    1.766595594603e-02
   169    3.157464076537e-04
   170   -3.234767367687e-14
   171   -1.178078172778e-03
   172    5.910316990551e-15
   173   -2.741327625422e-14
   174   -2.516671576891e-03
   175   -8.183766340974e-04
   176    5.270256236162e-03
   177    8.738895818552e-03
   178   -2.409209529675e-03
   179   -2.662212540915e-02
   180    1.708676535219e-13
   181   -2.270141192976e-02
   182   -5.393638703066e-03
   183   -3.802524489457e-02
   184    3.211055911929e-13
   185   -6.014570903086e-02
   186    1.012529893336e-02
   187   -3.621859609896e-02
   188    2.335329800593e-13
   189   -2.058989065636e-01
   190    1.840985667008e-02
   191   -3.484401581072e-02
   192    2.146002000117e-13
   193   -2.600788731465e-04
   194   -2.895291175569e-14
   195    6.780796070220e-15
   196    2.940384473475e-03
   197   -4.303604692005e-04
   198    5.848013146266e-03
   199    1.092465338724e-02
   200    3.543517649184e-03
   201   -7.335257863939e-03
   202   -9.534506297390e-04
   203    2.655238150913e-04
   204    1.671244374307e-14
Sym=X
Ene= 2.002988
Spin=Alpha
Occup=1
     1   -1.694607134814e-14
     2   -2.022759801653e-14
     3    7.265812218188e-14
     4   -2.912284495194e-14
     5    5.293405598015e-02
     6   -9.901573497485e-15
     7    1.468680246623e-13
     8   -9.194283551968e-14
     9    9.148290916214e-02
    10   -2.198961663959e-13
    11   -4.891253028093e-14
    12   -1.900977853665e-13
    13    9.347386357402e-02
    14   -7.170171444552e-13
    15   -6.460650722291e-13
    16    3.420458199573e-13
    17    7.656454683110e-03
    18    2.028362158703e-15
    19    1.863890302717e-02
    20    3.295853883738e-03
    21   -2.458152286358e-14
    22    3.003071142861e-14
    23   -7.693101404429e-14
    24    8.955915769730e-14
    25    2.915166040924e-14
    26   -7.138769658400e-14
    27   -1.561028901098e-15
    28   -5.132773008193e-15
    29   -5.700147049776e-03
    30    4.745728613531e-14
    31    3.668267598982e-14
    32   -1.453985993840e-14
    33   -4.954579964190e-14
    34    7.720634132695e-15
    35   -5.487299671707e-15
    36    3.971196618496e-03
    37   -3.859589619143e-14
    38   -2.151855293624e-13
    39   -1.695164381203e-13
    40    5.838747606153e-14
    41   -8.594466697202e-15
    42    2.233506129074e-14
    43   -8.591902779035e-03
    44   -2.735319357898e-14
    45   -3.825622820186e-14
    46   -2.351651688665e-14
    47    4.634074153185e-14
    48   -1.057372834100e-01
    49    9.629760475060e-14
    50   -4.539655955753e-14
    51    7.151741456363e-14
    52   -1.833163193913e-01
    53    2.512204142853e-13
    54   -2.123423204521e-13
    55   -3.518302068414e-13
    56   -8.742288587478e-02
    57   -3.013653649779e-13
    58   -2.381720977131e-14
    59    2.020498493508e-13
    60   -1.960680586899e-02
    61   -4.419401623057e-15
    62    7.410480702432e-03
    63   -9.177283504474e-03
    64   -1.234429099146e-13
    65   -7.439872407271e-14
    66   -4.277120170389e-14
    67   -6.182390327708e-14
    68    4.754226950500e-13
    69    6.719400833102e-13
    70   -1.956972478206e-01
    71    2.139626317729e-13
    72    5.528662460504e-13
    73    7.778100416581e-13
    74   -2.287668599689e-01
    75    3.037896690690e-14
    76    3.886730111201e-13
    77    6.498670884544e-13
    78   -1.435612907594e-01
    79   -1.922068573655e-13
    80   -3.192695240959e-14
    81    9.235319133426e-14
    82    1.423963643587e-02
    83   -4.591827986695e-15
    84   -1.528233651864e-02
    85    9.196847246441e-03
    86    3.696640819738e-14
    87    1.000944530586e-14
    88    2.012400049407e-14
    89    1.038243922600e-14
    90    9.986831537475e-15
    91   -1.229096600369e-13
    92    5.904810836744e-02
    93    4.827725715425e-15
    94   -1.484754570298e-14
    95   -1.901404000218e-13
    96    1.032471866518e-01
    97    4.522083105486e-13
    98   -2.233585987488e-13
    99   -2.412721950281e-13
   100    7.703091594736e-02
   101   -1.446491529253e-14
   102    8.125235101815e-13
   103   -1.732732849574e-13
   104    1.224422128229e-02
   105   -2.320450327783e-15
   106    2.644868850762e-02
   107   -3.719101887303e-03
   108   -9.472362215209e-14
   109    5.937047033051e-14
   110    5.247181110893e-14
   111    4.054033686379e-14
   112   -1.058394118303e-13
   113    2.610803979543e-13
   114    9.709766272447e-02
   115    2.915339703086e-14
   116   -1.508800099573e-13
   117    3.930657107444e-13
   118    1.532326149170e-01
   119    5.718626728681e-14
   120   -1.639360293859e-13
   121    3.415949782626e-13
   122    1.345685756709e-01
   123    1.131697079001e-13
   124   -1.724047835702e-13
   125    2.839763215876e-15
   126    2.572245901974e-03
   127    2.772902106856e-15
   128   -9.755235083860e-03
   129   -6.600227452171e-03
   130    7.406899524423e-15
   131   -1.232807117697e-14
   132   -1.922202554794e-14
   133    7.782185039415e-14
   134   -3.844709827627e-14
   135    4.205779956424e-14
   136   -9.880668933994e-02
   137   -5.372216599523e-13
   138   -7.646925984728e-14
   139   -7.320646307163e-15
   140   -1.611946326726e-01
   141   -3.779272320171e-13
   142   -2.005096611580e-13
   143    5.504366611016e-13
   144   -1.711094074489e-01
   145    5.765756177988e-13
   146   -8.628268532804e-14
   147    1.426084924781e-13
   148   -1.693064173715e-02
   149   -9.198572214170e-16
   150    1.144214104752e-02
   151    2.610566804342e-03
   152   -4.525412551128e-15
   153    5.539820620858e-15
   154   -4.132803725867e-14
   155   -1.041707353881e-14
   156   -1.471772978525e-15
   157    1.203457051122e-13
   158   -6.098516562154e-02
   159   -1.012703300577e-13
   160   -4.958371278671e-14
   161    1.605229698912e-13
   162   -9.922476190577e-02
   163   -3.049912772245e-13
   164    4.199451822562e-13
   165    1.327335612727e-13
   166   -1.070804719148e-01
   167   -4.277857831706e-13
   168   -1.331080711366e-13
   169    1.442570024410e-13
   170   -1.361503041533e-02
   171    1.551460330110e-14
   172    3.666092105135e-03
   173   -1.066652507262e-02
   174   -3.982421969138e-15
   175   -8.117484325714e-15
   176    3.558230077792e-13
   177    2.347941052498e-13
   178   -3.291158054497e-14
   179    9.307449450145e-14
   180    8.556263265017e-02
   181    3.180412036180e-13
   182   -5.339063559945e-14
   183    1.307310554240e-13
   184    1.485475845626e-01
   185    7.187560718192e-14
   186   -1.383452064462e-13
   187    6.379911033761e-14
   188    1.318298846155e-01
   189    1.329087506428e-12
   190   -8.050189651241e-13
   191   -8.409133620788e-13
   192    1.343777017798e-02
   193   -9.800186526980e-15
   194   -9.823013263353e-03
   195    2.689786086200e-03
   196   -1.123309212996e-14
   197    8.134100751659e-15
   198   -4.499064111108e-15
   199    9.379534940722e-15
   200   -2.254120780330e-14
   201   -1.748758768253e-13
   202   -5.813607187626e-15
   203    1.787405212970e-15
   204    7.588243648250e-03
Sym=X
Ene= 2.000952
Spin=Alpha
Occup=1
     1   -2.282364094560e-03
     2   -3.961497672339e-03
     3   -1.319705218508e-02
     4   -8.383102119211e-03
     5   -1.507160679783e-13
     6    1.153340533603e-02
     7   -2.606753043164e-02
     8   -1.367577733950e-02
     9   -2.606963620399e-13
    10   -6.784151603212e-03
    11   -2.909124593833e-02
    12   -2.837608058149e-02
    13   -1.382907380399e-13
    14   -3.414832395392e-01
    15   -8.728155724763e-02
    16   -1.097712443213e-01
    17   -8.388195637198e-14
    18    1.265721081575e-04
    19    2.663745946938e-14
    20   -2.159345205059e-14
    21   -3.345209675685e-03
    22    4.572944511188e-03
    23    1.140020723274e-03
    24    1.928798832606e-03
    25    2.105822428257e-02
    26   -3.989722471592e-03
    27    7.157162925767e-05
    28   -4.066657191887e-04
    29   -1.805682222245e-14
    30    1.179007955429e-02
    31    1.356911733206e-02
    32   -9.120059527227e-04
    33   -4.883852813151e-02
    34   -4.966779969315e-04
    35    4.381846826717e-04
    36   -1.603965208585e-14
    37    9.576929387232e-03
    38    1.312994861078e-02
    39   -4.107393422696e-03
    40   -2.897448520314e-02
    41    2.207370685115e-03
    42   -5.383955259670e-04
    43    2.688788038573e-14
    44   -3.425957636914e-02
    45   -4.130962678368e-02
    46   -6.167488631727e-02
    47    4.519471525583e-02
    48    9.786731000420e-14
    49    7.497125529682e-02
    50   -9.442809125370e-02
    51    7.607396475277e-02
    52    1.658118905840e-13
    53    8.748909760085e-02
    54   -1.437908301327e-03
    55   -1.661032641020e-02
    56    8.025030945313e-14
    57    6.024875612161e-02
    58   -1.184189859412e-03
    59   -3.339951405205e-02
    60    9.230182540037e-14
    61   -4.372257024345e-03
    62    3.013447237018e-14
    63    5.881341523494e-14
    64    2.678863018528e-02
    65   -1.395473516097e-03
    66    2.311154276104e-04
    67    8.299665979057e-04
    68    6.199767430304e-02
    69   -2.115232468156e-01
    70    2.067935077831e-13
    71   -9.679077727482e-03
    72    6.999142163711e-02
    73   -2.437871434514e-01
    74    2.352706245515e-13
    75   -6.899274328205e-02
    76    7.107697016275e-03
    77   -1.538055987657e-01
    78    1.697779798778e-13
    79   -1.140339551509e-02
    80    3.118021821399e-03
    81    1.582583124032e-03
    82   -4.863755367652e-14
    83   -7.386544954142e-03
    84    1.479465114753e-14
    85   -7.053040581640e-15
    86    6.991808252560e-04
    87   -1.359320060034e-02
    88   -1.264243325361e-02
    89   -2.173577559531e-02
    90    1.486408774273e-02
    91    3.423769293077e-03
    92    3.297860555441e-13
    93    6.480732123351e-02
    94    2.670111971165e-02
    95   -4.079533328491e-03
    96    5.968246857819e-13
    97    8.441752438945e-02
    98   -3.590434766903e-02
    99    6.362542086826e-02
   100    3.070715648005e-13
   101   -2.494741712175e-01
   102   -4.364978170492e-02
   103    1.276090289697e-01
   104   -3.851447571361e-14
   105   -1.695215349236e-03
   106    1.816612908299e-14
   107    7.264792490629e-14
   108   -5.243039717161e-02
   109    3.048033821140e-02
   110    9.072999099045e-03
   111    1.540274200404e-02
   112   -1.455003045113e-01
   113    1.544085557275e-01
   114    3.913475318034e-13
   115   -4.734137183225e-02
   116   -2.227191516668e-01
   117    2.394443860951e-01
   118    6.313479252806e-13
   119   -7.042104194459e-02
   120   -1.925316087157e-01
   121    2.337860354934e-01
   122    5.094958180289e-13
   123   -2.443151436455e-02
   124    3.792932961359e-03
   125    1.476346756821e-02
   126    6.746169917163e-14
   127   -2.103659230860e-03
   128   -4.590163974968e-14
   129   -3.126139215967e-14
   130    1.260640524471e-02
   131   -2.156063288360e-03
   132    1.796508215819e-02
   133    2.987258976860e-02
   134   -3.058637774507e-02
   135    3.231016404272e-02
   136    4.071589712926e-13
   137   -7.933423478736e-02
   138   -4.168341427837e-02
   139    4.775319312280e-02
   140    6.776802567060e-13
   141   -1.473945184413e-01
   142   -8.251977914260e-02
   143    6.489036866051e-02
   144    6.319578666965e-13
   145   -1.188446133599e-01
   146    3.018900840851e-02
   147    4.618603563790e-02
   148    3.230678620883e-14
   149   -3.220326212720e-04
   150    1.196008103571e-14
   151   -2.198570484059e-14
   152    1.808259042785e-03
   153   -5.870371314904e-03
   154    1.655792791011e-02
   155    2.709409006335e-02
   156   -4.088303190085e-03
   157   -3.479695984834e-02
   158   -2.386102840196e-13
   159   -7.026511689310e-02
   160   -5.117296846255e-03
   161   -5.186270942377e-02
   162   -3.883885508353e-13
   163   -1.062122329997e-01
   164   -6.500447669348e-03
   165   -5.535222347698e-02
   166   -4.319681902043e-13
   167   -1.027710351779e-02
   168    1.942007561377e-02
   169    4.091564974706e-02
   170   -5.640540872787e-14
   171    5.439644303805e-04
   172   -1.542438175853e-14
   173    1.120484555327e-14
   174   -1.154537289202e-04
   175   -3.459951580496e-03
   176   -1.040462851135e-02
   177   -1.685092224898e-02
   178   -1.884852624215e-03
   179    4.316773324530e-02
   180   -1.731873040695e-14
   181    4.201338640821e-02
   182   -1.876719230083e-04
   183    5.871411569135e-02
   184   -2.505199169606e-14
   185    1.409245626753e-01
   186   -1.964234322617e-02
   187    8.231554752925e-02
   188   -9.571955991317e-14
   189    6.396328190243e-01
   190   -1.010182684424e-01
   191    6.959207266362e-02
   192    6.870551426120e-14
   193    1.060729076309e-03
   194    1.585580001968e-14
   195    3.956463012152e-14
   196    1.384544566926e-03
   197    2.789571172896e-03
   198   -1.214436808664e-02
   199   -2.387985347862e-02
   200   -4.733111161991e-04
   201    4.228684418266e-02
   202    1.691036669853e-03
   203   -1.920046036639e-03
   204    2.727068849209e-15
Sym=X
Ene= 2.000622
Spin=Alpha
Occup=1
     1    9.662045048641e-13
     2    1.073786643616e-12
     3    2.886010554775e-14
     4   -1.464487625065e-13
     5   -8.808785303771e-02
     6   -1.405324749626e-12
     7    1.033053973671e-13
     8   -2.353814516549e-13
     9   -1.497925244849e-01
    10   -3.996254936769e-13
    11   -8.152648961770e-14
    12   -6.554112620970e-14
    13   -1.419706691111e-01
    14   -6.218208024715e-12
    15   -1.721637073369e-12
    16   -7.400444992454e-13
    17   -1.675333516875e-02
    18    6.002948999393e-14
    19   -1.276500027472e-02
    20   -9.027543321005e-03
    21   -1.217660346229e-13
    22    6.395675939285e-14
    23   -3.378159606489e-13
    24   -5.635561372157e-13
    25    5.553539074395e-13
    26   -1.110646663750e-13
    27   -8.971678353317e-14
    28   -2.409315843109e-14
    29    7.786534254484e-04
    30   -1.098229401187e-13
    31   -1.324235210904e-13
    32    2.583841668691e-13
    33   -1.342439058945e-13
    34   -5.022911838958e-15
    35   -5.901241591609e-14
    36   -7.074338649466e-03
    37    1.089785089490e-13
    38    3.384987334352e-13
    39   -2.930806313432e-13
    40    1.494016516226e-13
    41   -1.242545596630e-14
    42   -2.565690691243e-14
    43    2.386130850770e-03
    44   -1.211234248026e-12
    45   -1.016340530262e-12
    46    1.803486826684e-13
    47   -1.036915897135e-13
    48    2.388028260992e-02
    49    3.878841781088e-14
    50    2.872685964015e-13
    51   -1.758127801373e-13
    52    4.335228297026e-02
    53   -7.727456984213e-14
    54    2.725837129126e-13
    55    1.098266060569e-13
    56    1.934369254699e-02
    57    8.340590088508e-13
    58    1.059997095040e-13
    59   -3.795593531140e-13
    60   -7.074947145974e-03
    61    5.589283133985e-15
    62   -6.314077457851e-03
    63    3.478329661289e-03
    64   -3.140184775695e-14
    65    3.662454051993e-14
    66   -9.039647557793e-14
    67   -1.311758546924e-13
    68   -2.467698000656e-13
    69    4.633543055898e-13
    70    6.429106295214e-02
    71    4.559898819871e-13
    72   -2.725482694473e-13
    73    5.333425176746e-13
    74    7.492667304966e-02
    75    4.283355797698e-13
    76   -1.037008786012e-13
    77    2.938884250425e-13
    78    4.774821720991e-02
    79    1.758399884222e-13
    80    5.298920029672e-15
    81   -5.484708606783e-15
    82    6.886283703203e-03
    83    1.421092378787e-14
    84    4.056216163164e-03
    85   -2.754131869463e-03
    86   -2.313137649213e-15
    87    2.756901695368e-14
    88    3.742233983815e-13
    89    4.469857299929e-13
    90   -4.008170050606e-13
    91   -6.511454926629e-13
    92    9.110455554130e-02
    93   -7.893881155111e-13
    94   -6.197078858925e-13
    95   -1.025145398149e-12
    96    1.571649328291e-01
    97   -3.648542003209e-13
    98   -1.564556869186e-13
    99   -4.214215422168e-13
   100    1.142324947218e-01
   101    2.624293960060e-12
   102    6.555262324521e-13
   103   -1.311234372494e-12
   104    4.084878470951e-02
   105    5.881916140734e-14
   106    3.887317547161e-02
   107    3.740995112414e-02
   108    9.056633977298e-15
   109   -1.480100673568e-13
   110    7.774152014904e-13
   111    7.056742722824e-13
   112    9.430382171439e-13
   113    9.890105903760e-14
   114    2.109166354616e-01
   115   -1.955900104624e-13
   116    1.433740209924e-12
   117    1.386642524731e-13
   118    3.310078249410e-01
   119    4.705543318828e-13
   120    9.398888373135e-13
   121   -4.569824387238e-14
   122    3.049558248479e-01
   123    2.718544255587e-13
   124   -3.030414568272e-14
   125    7.406519858572e-15
   126    3.282888525152e-02
   127    5.248523716394e-14
   128   -1.895825902918e-02
   129   -1.155303544648e-02
   130   -8.081716714398e-14
   131   -6.643598199942e-14
   132    8.248069245654e-13
   133    6.371321153798e-13
   134   -1.170664916704e-13
   135    3.005361953158e-14
   136    1.877119536963e-02
   137    3.070887069594e-13
   138   -1.994538486399e-13
   139    7.243694741340e-14
   140    3.469156401201e-02
   141    1.117415409600e-13
   142    1.380137628249e-14
   143   -1.267459759766e-13
   144    4.490063595570e-03