[Molden Format]
[Atoms] (Angs)
  C      1    6     -0.00714236     -1.70213747     -0.00000000
  H      2    1     -2.06882847     -1.44022412      0.00000000
  H      3    1     -0.12337987     -2.77567521      0.00000000
  H      4    1      0.04651892      1.98813947     -0.00000000
  C      5    6     -1.21953563      0.40211669      0.00000000
  O      6    8     -2.25921553      1.03043814      0.00000000
  C      7    6      1.28797806      0.34644937     -0.00000000
  O      8    8      2.31273661      1.00537216     -0.00000000
  N      9    7      0.03446295      0.97739857     -0.00000000
  N     10    7     -1.17287765     -0.98229824      0.00000000
  C     11    6      1.20107039     -1.10433419     -0.00000000
  H     12    1      2.11220096     -1.67699125     -0.00000000
[GTO]
1    0
S    6    1.000000
   4.56324000E+03    1.96665000E-03 
   6.82024000E+02    1.52306000E-02 
   1.54973000E+02    7.61269000E-02 
   4.44553000E+01    2.60801000E-01 
   1.30290000E+01    6.16462000E-01 
   1.82773000E+00    2.21006000E-01 
SP   3    1.000000
   2.09642000E+01    1.14660000E-01   4.02487000E-02 
   4.80331000E+00    9.19999000E-01   2.37594000E-01 
   1.45933000E+00   -3.03068000E-03   8.15854000E-01 
SP   1    1.000000
   4.83456000E-01    1.00000000E+00   1.00000000E+00 
SP   1    1.000000
   1.45585000E-01    1.00000000E+00   1.00000000E+00 
SP   1    1.000000
   4.38000000E-02    1.00000000E+00   1.00000000E+00 
D    1    1.000000
   6.26000000E-01    1.00000000E+00 

2    0
S    3    1.000000
   3.38650000E+01    2.54938000E-02 
   5.09479000E+00    1.90373000E-01 
   1.15879000E+00    8.52161000E-01 
S    1    1.000000
   3.25840000E-01    1.00000000E+00 
S    1    1.000000
   1.02741000E-01    1.00000000E+00 
S    1    1.000000
   3.60000000E-02    1.00000000E+00 
P    1    1.000000
   7.50000000E-01    1.00000000E+00 

3    0
S    3    1.000000
   3.38650000E+01    2.54938000E-02 
   5.09479000E+00    1.90373000E-01 
   1.15879000E+00    8.52161000E-01 
S    1    1.000000
   3.25840000E-01    1.00000000E+00 
S    1    1.000000
   1.02741000E-01    1.00000000E+00 
S    1    1.000000
   3.60000000E-02    1.00000000E+00 
P    1    1.000000
   7.50000000E-01    1.00000000E+00 

4    0
S    3    1.000000
   3.38650000E+01    2.54938000E-02 
   5.09479000E+00    1.90373000E-01 
   1.15879000E+00    8.52161000E-01 
S    1    1.000000
   3.25840000E-01    1.00000000E+00 
S    1    1.000000
   1.02741000E-01    1.00000000E+00 
S    1    1.000000
   3.60000000E-02    1.00000000E+00 
P    1    1.000000
   7.50000000E-01    1.00000000E+00 

5    0
S    6    1.000000
   4.56324000E+03    1.96665000E-03 
   6.82024000E+02    1.52306000E-02 
   1.54973000E+02    7.61269000E-02 
   4.44553000E+01    2.60801000E-01 
   1.30290000E+01    6.16462000E-01 
   1.82773000E+00    2.21006000E-01 
SP   3    1.000000
   2.09642000E+01    1.14660000E-01   4.02487000E-02 
   4.80331000E+00    9.19999000E-01   2.37594000E-01 
   1.45933000E+00   -3.03068000E-03   8.15854000E-01 
SP   1    1.000000
   4.83456000E-01    1.00000000E+00   1.00000000E+00 
SP   1    1.000000
   1.45585000E-01    1.00000000E+00   1.00000000E+00 
SP   1    1.000000
   4.38000000E-02    1.00000000E+00   1.00000000E+00 
D    1    1.000000
   6.26000000E-01    1.00000000E+00 

6    0
S    6    1.000000
   8.58850000E+03    1.89515000E-03 
   1.29723000E+03    1.43859000E-02 
   2.99296000E+02    7.07320000E-02 
   8.73771000E+01    2.40001000E-01 
   2.56789000E+01    5.94797000E-01 
   3.74004000E+00    2.80802000E-01 
SP   3    1.000000
   4.21175000E+01    1.13889000E-01   3.65114000E-02 
   9.62837000E+00    9.20811000E-01   2.37153000E-01 
   2.85332000E+00   -3.27447000E-03   8.19702000E-01 
SP   1    1.000000
   9.05661000E-01    1.00000000E+00   1.00000000E+00 
SP   1    1.000000
   2.55611000E-01    1.00000000E+00   1.00000000E+00 
SP   1    1.000000
   8.45000000E-02    1.00000000E+00   1.00000000E+00 
D    1    1.000000
   1.29200000E+00    1.00000000E+00 

7    0
S    6    1.000000
   4.56324000E+03    1.96665000E-03 
   6.82024000E+02    1.52306000E-02 
   1.54973000E+02    7.61269000E-02 
   4.44553000E+01    2.60801000E-01 
   1.30290000E+01    6.16462000E-01 
   1.82773000E+00    2.21006000E-01 
SP   3    1.000000
   2.09642000E+01    1.14660000E-01   4.02487000E-02 
   4.80331000E+00    9.19999000E-01   2.37594000E-01 
   1.45933000E+00   -3.03068000E-03   8.15854000E-01 
SP   1    1.000000
   4.83456000E-01    1.00000000E+00   1.00000000E+00 
SP   1    1.000000
   1.45585000E-01    1.00000000E+00   1.00000000E+00 
SP   1    1.000000
   4.38000000E-02    1.00000000E+00   1.00000000E+00 
D    1    1.000000
   6.26000000E-01    1.00000000E+00 

8    0
S    6    1.000000
   8.58850000E+03    1.89515000E-03 
   1.29723000E+03    1.43859000E-02 
   2.99296000E+02    7.07320000E-02 
   8.73771000E+01    2.40001000E-01 
   2.56789000E+01    5.94797000E-01 
   3.74004000E+00    2.80802000E-01 
SP   3    1.000000
   4.21175000E+01    1.13889000E-01   3.65114000E-02 
   9.62837000E+00    9.20811000E-01   2.37153000E-01 
   2.85332000E+00   -3.27447000E-03   8.19702000E-01 
SP   1    1.000000
   9.05661000E-01    1.00000000E+00   1.00000000E+00 
SP   1    1.000000
   2.55611000E-01    1.00000000E+00   1.00000000E+00 
SP   1    1.000000
   8.45000000E-02    1.00000000E+00   1.00000000E+00 
D    1    1.000000
   1.29200000E+00    1.00000000E+00 

9    0
S    6    1.000000
   6.29348000E+03    1.96979000E-03 
   9.49044000E+02    1.49613000E-02 
   2.18776000E+02    7.35006000E-02 
   6.36916000E+01    2.48937000E-01 
   1.88282000E+01    6.02460000E-01 
   2.72023000E+00    2.56202000E-01 
SP   3    1.000000
   3.06331000E+01    1.11906000E-01   3.83119000E-02 
   7.02614000E+00    9.21666000E-01   2.37403000E-01 
   2.11205000E+00   -2.56919000E-03   8.17592000E-01 
SP   1    1.000000
   6.84009000E-01    1.00000000E+00   1.00000000E+00 
SP   1    1.000000
   2.00878000E-01    1.00000000E+00   1.00000000E+00 
SP   1    1.000000
   6.39000000E-02    1.00000000E+00   1.00000000E+00 
D    1    1.000000
   9.13000000E-01    1.00000000E+00 

10    0
S    6    1.000000
   6.29348000E+03    1.96979000E-03 
   9.49044000E+02    1.49613000E-02 
   2.18776000E+02    7.35006000E-02 
   6.36916000E+01    2.48937000E-01 
   1.88282000E+01    6.02460000E-01 
   2.72023000E+00    2.56202000E-01 
SP   3    1.000000
   3.06331000E+01    1.11906000E-01   3.83119000E-02 
   7.02614000E+00    9.21666000E-01   2.37403000E-01 
   2.11205000E+00   -2.56919000E-03   8.17592000E-01 
SP   1    1.000000
   6.84009000E-01    1.00000000E+00   1.00000000E+00 
SP   1    1.000000
   2.00878000E-01    1.00000000E+00   1.00000000E+00 
SP   1    1.000000
   6.39000000E-02    1.00000000E+00   1.00000000E+00 
D    1    1.000000
   9.13000000E-01    1.00000000E+00 

11    0
S    6    1.000000
   4.56324000E+03    1.96665000E-03 
   6.82024000E+02    1.52306000E-02 
   1.54973000E+02    7.61269000E-02 
   4.44553000E+01    2.60801000E-01 
   1.30290000E+01    6.16462000E-01 
   1.82773000E+00    2.21006000E-01 
SP   3    1.000000
   2.09642000E+01    1.14660000E-01   4.02487000E-02 
   4.80331000E+00    9.19999000E-01   2.37594000E-01 
   1.45933000E+00   -3.03068000E-03   8.15854000E-01 
SP   1    1.000000
   4.83456000E-01    1.00000000E+00   1.00000000E+00 
SP   1    1.000000
   1.45585000E-01    1.00000000E+00   1.00000000E+00 
SP   1    1.000000
   4.38000000E-02    1.00000000E+00   1.00000000E+00 
D    1    1.000000
   6.26000000E-01    1.00000000E+00 

12    0
S    3    1.000000
   3.38650000E+01    2.54938000E-02 
   5.09479000E+00    1.90373000E-01 
   1.15879000E+00    8.52161000E-01 
S    1    1.000000
   3.25840000E-01    1.00000000E+00 
S    1    1.000000
   1.02741000E-01    1.00000000E+00 
S    1    1.000000
   3.60000000E-02    1.00000000E+00 
P    1    1.000000
   7.50000000E-01    1.00000000E+00 

[MO]
Sym=X
Ene= 2.006145
Spin=Alpha
Occup=1
     1   -2.640383744170e-16
     2   -2.028996584563e-14
     3    4.218068953752e-14
     4    2.634211350163e-14
     5    9.336660556798e-02
     6    6.006880678600e-14
     7    1.023286572567e-13
     8   -1.892347575505e-15
     9    1.615342412530e-01
    10   -1.980766738623e-13
    11   -1.970183546801e-14
    12   -7.562060208641e-14
    13    1.380635521120e-01
    14    3.369453127305e-12
    15    9.178039329349e-13
    16    6.577100948637e-13
    17    1.559219164599e-02
    18    3.738096741464e-16
    19    1.314254040322e-02
    20    1.210932069888e-02
    21    9.560300161105e-15
    22    1.499043677245e-14
    23   -2.979503879121e-14
    24    2.843267283452e-13
    25   -2.351945021266e-13
    26   -2.955286654545e-14
    27    1.746192715251e-14
    28    5.923741646399e-15
    29   -7.714734390179e-05
    30    1.828488661873e-15
    31   -1.410790706078e-14
    32   -1.042556986735e-13
    33    1.196516923150e-13
    34    6.372161971275e-15
    35   -1.372248581144e-15
    36    6.742060414064e-03
    37   -2.351466605223e-14
    38   -3.475011391619e-13
    39   -8.686339556090e-14
    40    2.094322630454e-14
    41   -6.034524494788e-15
    42    2.763115756090e-14
    43   -5.348557386543e-03
    44   -1.713626572977e-15
    45   -6.548086089827e-15
    46    9.306203575394e-15
    47   -4.405708458662e-15
    48   -1.006350446286e-01
    49    3.211360882760e-14
    50    1.064072935125e-14
    51    8.875978524564e-15
    52   -1.784437437245e-01
    53    2.320196731158e-13
    54   -4.545677982923e-13
    55   -6.805947498813e-13
    56   -1.012050501484e-01
    57   -2.533845664798e-13
    58   -7.439527404650e-14
    59    7.374261618194e-14
    60   -2.013416757635e-02
    61   -4.551175426621e-15
    62    1.903548256395e-02
    63   -2.089591109622e-02
    64    4.656547908016e-15
    65   -1.500621683626e-17
    66   -9.219645443019e-15
    67   -1.429117911198e-14
    68   -6.269901833182e-14
    69   -8.217523236104e-14
    70   -2.375095544010e-01
    71    5.471801772789e-14
    72   -7.220719041163e-14
    73   -9.651975672516e-14
    74   -2.772657579145e-01
    75   -1.886629019770e-14
    76   -1.117064969775e-14
    77    4.163355884101e-14
    78   -1.699785164510e-01
    79   -2.073235620570e-13
    80   -3.807993739932e-14
    81    9.206127521809e-14
    82    7.911786089390e-03
    83    4.928510395805e-16
    84   -1.886102303012e-02
    85    1.191600507780e-02
    86   -3.803313857831e-15
    87   -1.318368413602e-15
    88   -8.515089794504e-15
    89    7.265137531747e-15
    90    3.002313109154e-14
    91   -4.816642552621e-14
    92    4.883141099548e-02
    93   -1.118908840805e-13
    94    1.231594060446e-14
    95   -5.624197450709e-14
    96    8.597772152093e-02
    97    3.814686730868e-13
    98   -2.564013618848e-13
    99   -4.023952849850e-13
   100    5.936711453808e-02
   101   -2.139998938596e-12
   102    3.496585181485e-13
   103    5.557371034990e-13
   104    1.396295719121e-02
   105   -3.414282975542e-15
   106    1.093106859642e-02
   107   -9.801699215386e-03
   108    1.109077461643e-16
   109    2.254904174115e-14
   110    1.701194163841e-14
   111    7.710658932309e-15
   112    2.446725105236e-14
   113   -5.060066744255e-15
   114    4.708996332500e-02
   115    4.228179436446e-14
   116    5.461554188041e-14
   117   -1.691050570273e-14
   118    7.527722248498e-02
   119    9.387612870226e-14
   120    1.689449267911e-14
   121   -5.586174582050e-14
   122    5.963299808162e-02
   123    3.349871426598e-13
   124   -1.836239284289e-13
   125   -6.502307469193e-14
   126   -1.120423940034e-02
   127    1.122650019902e-15
   128   -6.181880671196e-03
   129   -4.224720473616e-03
   130   -4.940106282624e-15
   131   -2.678536494638e-15
   132   -5.457942147514e-14
   133   -2.167251926428e-14
   134   -5.011317793896e-14
   135   -2.671510671797e-14
   136   -6.084087626374e-02
   137   -1.704142930758e-13
   138   -8.246569234801e-14
   139   -9.817719889743e-14
   140   -1.023439350691e-01
   141    3.716696788271e-13
   142   -3.018431109322e-13
   143    5.719544346652e-13
   144   -9.510341508371e-02
   145    7.844775539531e-13
   146   -2.512919329944e-13
   147   -2.109987028281e-13
   148   -3.707058230675e-03
   149    1.398749326902e-15
   150    1.156246850665e-02
   151    2.153199475747e-03
   152   -1.206486961024e-14
   153    6.515801425792e-15
   154    2.050623013289e-14
   155    2.661331964218e-14
   156    8.944373103833e-15
   157    8.995920025084e-15
   158    9.769268629882e-03
   159   -1.419157974045e-14
   160   -3.140638491802e-14
   161    1.248397217700e-14
   162    1.551238523260e-02
   163   -5.230806929701e-13
   164    6.079727615358e-13
   165   -8.911073001713e-14
   166    7.743786198878e-03
   167   -4.464058382299e-13
   168   -5.093361506677e-13
   169   -3.323413208507e-13
   170   -7.152603260968e-03
   171    9.517324058952e-15
   172    7.995191245223e-03
   173   -1.142076165246e-02
   174   -7.688951889545e-15
   175   -7.581241814749e-15
   176    1.892346131408e-13
   177    1.262756703735e-13
   178   -3.543531438786e-14
   179   -2.385528485302e-14
   180    1.038185900972e-01
   181    1.742115815859e-13
   182   -5.140824866047e-14
   183   -4.181592233501e-14
   184    1.803845778274e-01
   185   -2.940584445022e-13
   186   -1.029381129409e-13
   187   -1.926295837843e-13
   188    1.561890458712e-01
   189   -1.189241676722e-12
   190    4.914522355024e-13
   191    8.153851854993e-13
   192    2.201755404258e-03
   193   -9.342357618590e-15
   194   -1.715560729906e-02
   195    6.904976905958e-04
   196    6.399837201939e-15
   197   -2.971982021836e-17
   198    2.044194289039e-14
   199    2.757982983524e-14
   200    9.022428479972e-14
   201   -5.723539316003e-14
   202   -5.720390484237e-15
   203   -2.346223043146e-15
   204    8.309153540346e-03
Sym=X
Ene= 2.003364
Spin=Alpha
Occup=1
     1   -8.232820140076e-03
     2   -1.374820911975e-02
     3   -1.104367046002e-02
     4    2.844018601048e-02
     5   -4.986743609066e-14
     6    3.706813441693e-02
     7   -1.846680526057e-02
     8    4.724039029841e-02
     9   -1.142953530551e-13
    10    4.502136814959e-02
    11    8.724083199152e-03
    12    4.746466554117e-02
    13   -4.215074634079e-14
    14    1.287362640023e-01
    15    3.327794491249e-03
    16    1.616589436436e-02
    17   -1.204197067048e-13
    18   -2.012397286568e-03
    19   -1.677673438850e-15
    20   -1.063097130707e-14
    21    1.121692350759e-02
    22   -4.755614455400e-03
    23   -2.774347137167e-03
    24    1.113450321414e-02
    25    2.462061215732e-02
    26   -3.569741043939e-02
    27    5.367511419098e-04
    28   -7.399606998580e-04
    29    7.540317433477e-15
    30   -2.097185711433e-02
    31   -3.387482501255e-02
    32   -1.542890868555e-02
    33   -4.799069879987e-03
    34   -6.098638207062e-04
    35   -4.735059289119e-04
    36   -5.914378967076e-15
    37   -5.139855178032e-03
    38   -2.093398504864e-02
    39   -2.758830441765e-02
    40    5.150127175820e-02
    41   -1.502129053803e-03
    42    1.680333328624e-03
    43   -1.087938235455e-14
    44    8.917483427932e-03
    45    1.501740875939e-02
    46    4.516730774251e-02
    47    1.766542787543e-02
    48   -6.001657554768e-15
    49   -4.564018083194e-02
    50    7.653614501541e-02
    51    3.505426534561e-02
    52   -4.295937648401e-15
    53   -5.261229285411e-02
    54   -3.872316329111e-02
    55   -6.073422604506e-02
    56   -5.396611414375e-14
    57   -3.822673255765e-02
    58   -6.408913509773e-02
    59   -7.550614362885e-02
    60    1.241719354620e-13
    61    2.306040234958e-03
    62   -1.925645914160e-14
    63    4.589640019742e-15
    64    5.561866687847e-02
    65    3.287930075651e-02
    66   -4.156950415209e-04
    67   -7.680854165904e-04
    68   -2.207421322195e-01
    69   -2.460053312869e-01
    70    1.180657712169e-13
    71    5.807924515797e-03
    72   -2.530413378000e-01
    73   -2.819940225253e-01
    74    1.207764018687e-13
    75    3.155520557376e-02
    76   -1.542776445888e-01
    77   -2.040089522939e-01
    78    1.154170118582e-13
    79    2.027982380455e-02
    80    5.831878014503e-03
    81   -3.578202189625e-03
    82   -5.054695117182e-14
    83    2.663354110420e-03
    84    6.374999009976e-15
    85    2.880164703186e-15
    86   -1.456377232031e-02
    87   -7.615190109837e-04
    88    1.528568452012e-02
    89    2.560851680596e-02
    90    3.127177506700e-02
    91    7.554638481988e-04
    92   -3.172152966074e-14
    93   -6.982798398046e-02
    94    5.238360866334e-02
    95    2.831006830397e-03
    96   -3.670094444575e-14
    97   -7.242515449224e-02
    98    5.084297446113e-02
    99   -8.678867883253e-03
   100   -9.379861033461e-14
   101    1.695036968296e-01
   102    5.262976073324e-03
   103   -9.691307020303e-02
   104   -2.271139952165e-13
   105    1.776596941639e-03
   106    1.639016535277e-14
   107    6.457553187279e-15
   108    3.013428204019e-02
   109   -5.705795188084e-03
   110   -4.011903813930e-03
   111   -6.809583413723e-03
   112    5.281745175053e-02
   113   -1.003182727975e-01
   114    6.144725482547e-15
   115    2.046524075198e-02
   116    8.249357668071e-02
   117   -1.543504245808e-01
   118    4.307394421222e-14
   119    1.338238819322e-02
   120    7.581353617632e-02
   121   -1.392463828916e-01
   122   -2.591872351154e-14
   123   -2.715250616415e-02
   124    1.198756202618e-02
   125   -1.406981764900e-03
   126    1.411464530445e-13
   127   -2.341548310761e-04
   128   -3.953452965894e-15
   129    8.312375549039e-15
   130   -6.991407464046e-03
   131    4.071832333795e-03
   132   -2.478362710145e-02
   133   -4.098651663437e-02
   134   -5.475884728079e-02
   135   -2.883297801233e-02
   136   -1.047906546986e-13
   137    1.085043275081e-01
   138   -8.113570237890e-02
   139   -3.487011444681e-02
   140   -1.812020353272e-13
   141    2.117869767233e-01
   142   -7.342873131340e-02
   143   -5.348723084100e-02
   144   -1.420106992735e-13
   145    1.793344976667e-01
   146    6.830168233585e-03
   147   -9.954751378671e-03
   148    3.141047984885e-14
   149    1.400363158519e-03
   150   -1.780242747262e-15
   151   -7.149559859453e-17
   152   -4.149691179183e-04
   153    4.277926697238e-03
   154    1.374581382034e-02
   155    2.246095076073e-02
   156    2.566572857272e-02
   157   -6.056834022419e-02
   158   -2.752998184000e-14
   159   -5.895332425702e-02
   160    4.419189578207e-02
   161   -8.758562548512e-02
   162   -4.736092514481e-14
   163   -1.105098370793e-01
   164    3.624980397927e-02
   165   -9.265627158776e-02
   166    4.724978025612e-15
   167   -1.168187562030e-01
   168    2.357455525011e-03
   169   -7.375569218486e-03
   170   -5.910965766485e-15
   171   -5.881251499685e-04
   172   -7.038497689827e-15
   173   -4.884576352024e-17
   174    2.860796424601e-03
   175    1.233391244836e-03
   176    5.091115996217e-03
   177    8.414646683421e-03
   178   -1.975642630500e-03
   179   -3.098868067415e-02
   180   -5.971865090958e-14
   181   -2.175233816668e-02
   182   -4.259734114201e-03
   183   -4.464196499539e-02
   184   -7.983592106462e-14
   185   -6.218264782189e-02
   186    1.506238002488e-02
   187   -3.868079109643e-02
   188   -1.180870200971e-13
   189   -2.854292455416e-01
   190    3.560050869513e-02
   191   -4.198617966323e-02
   192    1.950276429335e-13
   193   -1.488855322435e-04
   194    2.183594344710e-15
   195    9.061665100686e-16
   196    5.444811406834e-03
   197   -5.747158796460e-04
   198    8.701164940519e-03
   199    1.489532388786e-02
   200    3.592277929016e-03
   201   -1.305087567967e-02
   202   -1.379092754767e-03
   203   -1.903790549358e-05
   204   -3.483586568274e-15
Sym=X
Ene= 2.001671
Spin=Alpha
Occup=1
     1    1.388082459455e-13
     2    2.018239051655e-13
     3   -2.339529403970e-13
     4   -1.496153801479e-13
     5   -9.806586511210e-02
     6   -4.430517515126e-13
     7   -3.798559782586e-13
     8   -2.338665514946e-13
     9   -1.676993613221e-01
    10   -1.686660590988e-13
    11   -3.438889463288e-13
    12   -2.921084540058e-13
    13   -1.201974186964e-01
    14   -1.013581419024e-11
    15   -3.272057761518e-12
    16   -1.661858294560e-12
    17   -2.359477141232e-02
    18    1.730593456895e-14
    19    4.710253765382e-03
    20   -1.768765159675e-02
    21   -5.218838345816e-14
    22    3.742120634432e-14
    23   -8.060484603785e-14
    24   -2.189966138462e-13
    25    9.135936146640e-13
    26   -3.423726168263e-13
    27   -2.333665618272e-14
    28   -2.268545380656e-14
    29   -9.395513655246e-03
    30    6.822801749285e-14
    31    3.440594981622e-14
    32    1.304264587270e-13
    33   -5.821105802649e-13
    34   -9.996978944198e-15
    35   -1.511725971154e-14
    36   -7.342749869734e-03
    37    1.895620831872e-13
    38    3.230275563409e-13
    39   -5.684171201152e-13
    40    1.319804758677e-13
    41    9.567400505614e-15
    42   -3.361001081696e-14
    43   -4.209122014293e-03
    44   -4.945553789463e-13
    45   -5.407814253678e-13
    46   -5.826127003507e-13
    47    5.793540392796e-13
    48   -6.827656076014e-02
    49    7.825516924003e-13
    50   -8.833672552350e-13
    51    9.529686085797e-13
    52   -1.190782947433e-01
    53    5.960040371544e-13
    54    1.574856270040e-14
    55   -4.758280035003e-14
    56   -5.482049446015e-02
    57    9.784781685409e-13
    58   -1.740864727334e-13
    59   -9.141421342298e-13
    60   -2.652155706021e-02
    61   -4.563216922924e-14
    62   -1.146062613094e-02
    63    1.372954022925e-02
    64    2.639212915164e-13
    65   -3.453770285356e-14
    66   -1.312296426730e-13
    67   -1.855523985993e-13
    68    6.959426238137e-13
    69   -1.712476866018e-12
    70    3.523698137411e-03
    71    5.571170186246e-13
    72    7.984388758395e-13
    73   -1.955060776541e-12
    74    2.180874816646e-04
    75   -3.230653480095e-13
    76    1.250160561133e-13
    77   -1.146219491293e-12
    78    1.093393259424e-02
    79   -5.645185693103e-14
    80    4.522039886674e-14
    81    5.337925055919e-14
    82    2.238796915139e-02
    83   -7.718172700035e-14
    84   -5.378174777253e-03
    85    3.252125359921e-03
    86    2.205343583219e-14
    87   -1.354881494729e-13
    88    8.571944414153e-14
    89   -4.351979272246e-14
    90    8.552813848046e-14
    91   -2.146627183048e-13
    92    4.529610923191e-02
    93    6.377470536171e-13
    94    1.588696142195e-13
    95   -3.931520876923e-13
    96    7.919479473476e-02
    97    8.543068936374e-13
    98   -2.565840508860e-13
    99    3.244092844946e-13
   100    7.043516007526e-02
   101    3.020240599154e-12
   102    2.823547840779e-13
   103   -1.025266635008e-12
   104    7.357601532472e-03
   105   -1.308667322817e-14
   106    3.694817154993e-02
   107    2.299693463704e-02
   108   -3.600248886122e-13
   109    1.701620099340e-13
   110    2.153197813841e-13
   111    2.511986375107e-13
   112   -8.061818062474e-13
   113    9.275054393070e-13
   114    1.436013589339e-01
   115   -4.084734739313e-13
   116   -1.239896630182e-12
   117    1.432109280049e-12
   118    2.247402634900e-01
   119   -4.975987330356e-13
   120   -1.061704700803e-12
   121    1.419574969949e-12
   122    2.089885732133e-01
   123   -4.266259891194e-13
   124    8.967793037948e-14
   125    1.517248097914e-13
   126    2.737853946035e-02
   127   -9.603437952097e-15
   128   -1.202781082223e-02
   129   -7.439435482261e-03
   130    6.316055522307e-14
   131   -1.411283645119e-14
   132    2.080266574670e-13
   133    2.207255401771e-13
   134   -2.780193433048e-13
   135    3.319471187668e-13
   136   -7.472684438435e-02
   137   -2.531791914717e-13
   138   -3.930793625514e-13
   139    5.130919027416e-13
   140   -1.201050431836e-01
   141   -7.922765789333e-13
   142   -6.397952879484e-13
   143    5.238744582684e-13
   144   -1.315657350353e-01
   145   -6.659332079044e-13
   146    4.482630311080e-13
   147    1.357247297910e-12
   148   -3.451683526966e-03
   149   -7.107464192368e-15
   150    8.860650568706e-03
   151    4.362804202862e-03
   152    1.125259226536e-14
   153   -5.129323947196e-14
   154   -7.552718642090e-14
   155    1.411158419951e-13
   156   -1.382549750638e-14
   157   -3.119168753879e-13
   158   -1.380570901934e-01
   159   -1.099537990148e-12
   160   -2.069364669867e-14
   161   -4.826111136613e-13
   162   -2.281673772038e-01
   163   -1.199854369637e-12
   164   -1.054139035285e-13
   165   -4.268585993720e-13
   166   -1.954660876075e-01
   167   -6.060852884718e-13
   168    1.192670915247e-12
   169    1.019959109908e-12
   170    2.458600189986e-02
   171    2.074291877361e-14
   172   -9.867553818638e-03
   173   -4.227618892837e-03
   174   -1.812628817897e-15
   175   -2.694272293385e-14
   176    1.740516314429e-13
   177    1.061003387206e-13
   178    1.550524020746e-13
   179    5.306373781115e-13
   180   -6.276022905870e-02
   181    1.949327508599e-13
   182    2.385831142001e-13
   183    7.867837721360e-13
   184   -1.055120795331e-01
   185    9.358241400677e-13
   186    1.196400519605e-15
   187    7.499435823077e-13
   188   -1.108964366580e-01
   189    7.386804890025e-12
   190   -2.882095827216e-12
   191   -2.324483027471e-12
   192    5.918072795138e-03
   193    1.104425315164e-14
   194    1.674177320699e-02
   195    8.030023395699e-03
   196   -5.356559409591e-14
   197   -6.170335607319e-15
   198   -9.934241871182e-14
   199   -1.683149226622e-13
   200   -4.730108283379e-14
   201    2.904382473794e-13
   202    1.782039862120e-14
   203    2.054666726428e-15
   204   -3.806837144360e-03
Sym=X
Ene= 2.001605
Spin=Alpha
Occup=1
     1    6.143298058847e-03
     2    9.912166043528e-03
     3    2.966935024911e-02
     4   -3.892528093469e-03
     5   -7.310454395075e-13
     6   -2.633903572873e-02
     7    5.164123176888e-02
     8   -6.607447431957e-03
     9   -1.247812930268e-12
    10   -3.489464690459e-03
    11    2.840068919662e-02
    12    1.105564878553e-02
    13   -9.865988087238e-13
    14    2.881116025266e-01
    15    8.168726491145e-02
    16    9.836402046072e-02
    17   -9.305139310211e-14
    18    1.346860157758e-03
    19    4.652643444885e-15
    20   -1.295758769942e-13
    21   -7.623182284161e-04
    22   -9.584117546020e-04
    23   -5.714913949669e-03
    24   -8.070075956292e-03
    25   -1.921131560816e-02
    26    7.002037700067e-03
    27   -1.616638388934e-03
    28    1.409739710592e-03
    29   -6.302356642994e-14
    30   -4.011051869120e-03
    31   -1.849299730900e-03
    32    4.912944274631e-03
    33    4.902582735629e-02
    34    1.079167056608e-03
    35   -2.871564783783e-04
    36   -4.874968277562e-14
    37   -1.089518315115e-02
    38   -1.033923984724e-02
    39    1.003080652942e-02
    40    2.029880638158e-02
    41   -2.048671487285e-03
    42    1.446922064448e-03
    43   -4.337758230518e-14
    44    2.088243275735e-02
    45    3.249724365951e-02
    46    7.537347339060e-02
    47   -7.907825713356e-02
    48   -5.630262066298e-13
    49   -9.162828826768e-02
    50    1.152204204924e-01
    51   -1.306582155979e-01
    52   -9.771855153463e-13
    53   -8.094260632633e-02
    54    2.096879484608e-02
    55    1.073199452163e-02
    56   -4.457028320360e-13
    57   -4.308260568229e-02
    58    5.784806103673e-03
    59    3.434306016822e-02
    60   -3.195078879772e-13
    61    6.300469188574e-03
    62   -1.340148430420e-13
    63    6.122655342798e-14
    64   -3.770701086789e-02
    65    5.813683972764e-03
    66    7.501228812356e-03
    67    1.037297175215e-02
    68   -9.250786038676e-02
    69    2.436400145574e-01
    70   -7.732507553826e-16
    71   -2.559859290284e-02
    72   -1.049939145567e-01
    73    2.782738025842e-01
    74   -2.473568301232e-14
    75    7.305290017738e-02
    76   -1.582430877363e-02
    77    1.604367623319e-01
    78    4.440089376285e-14
    79    2.462167557651e-02
    80   -1.160771017888e-03
    81   -2.660065541826e-03
    82    2.447247516047e-13
    83    9.930214687514e-03
    84   -4.454384047214e-14
    85    2.564770904724e-14
    86   -2.466325685991e-03
    87    1.787951435113e-02
    88    1.404039998243e-02
    89    2.347790323616e-02
    90   -8.014407493273e-03
    91   -5.047876006011e-04
    92    1.546157347787e-13
    93   -6.757232893331e-02
    94   -1.513726212508e-02
    95    6.758055895553e-03
    96    2.450666415322e-13
    97   -8.359283311944e-02
    98    3.496195631912e-02
    99   -5.683269857115e-02
   100    3.957943381490e-13
   101    1.920577595622e-01
   102    4.012025194430e-02
   103   -1.017241312353e-01
   104    1.713417666885e-13
   105    2.047875331816e-03
   106    3.022662304428e-13
   107    1.529282609076e-13
   108    4.324226584930e-02
   109   -2.455578086814e-02
   110   -1.007092980559e-02
   111   -1.711110660858e-02
   112    1.187697738047e-01
   113   -1.236909211557e-01
   114    9.603448181959e-13
   115    5.205982422148e-02
   116    1.817108762730e-01
   117   -1.919718572671e-01
   118    1.483900354072e-12
   119    6.959485140586e-02
   120    1.553563022997e-01
   121   -1.862197529286e-01
   122    1.452675158562e-12
   123    2.161921052108e-02
   124   -6.567887564981e-03
   125   -1.037012602599e-02
   126    1.566160631467e-13
   127    1.726523331473e-03
   128   -7.089131616434e-14
   129   -3.926633697073e-14
   130   -1.058654742198e-02
   131    1.824706047544e-03
   132   -7.476263152463e-03
   133   -1.316020811163e-02
   134    2.919410570718e-02
   135   -2.652410249698e-02
   136   -8.642630052052e-13
   137    3.747339793479e-02
   138    4.024424156071e-02
   139   -4.061657506580e-02
   140   -1.406445720282e-12
   141    8.982547662107e-02
   142    7.861267785588e-02
   143   -5.179265440794e-02
   144   -1.488555531847e-12