[Molden Format]
[Atoms] (Angs)
  C      1    6     -0.00714236     -1.70213747     -0.00000000
  H      2    1     -2.06882847     -1.44022412      0.00000000
  H      3    1     -0.12337987     -2.77567521      0.00000000
  H      4    1      0.04651892      1.98813947     -0.00000000
  C      5    6     -1.21953563      0.40211669      0.00000000
  O      6    8     -2.25921553      1.03043814      0.00000000
  C      7    6      1.28797806      0.34644937     -0.00000000
  O      8    8      2.31273661      1.00537216     -0.00000000
  N      9    7      0.03446295      0.97739857     -0.00000000
  N     10    7     -1.17287765     -0.98229824      0.00000000
  C     11    6      1.20107039     -1.10433419     -0.00000000
  H     12    1      2.11220096     -1.67699125     -0.00000000
[GTO]
1    0
S    6    1.000000
   4.56324000E+03    1.96665000E-03 
   6.82024000E+02    1.52306000E-02 
   1.54973000E+02    7.61269000E-02 
   4.44553000E+01    2.60801000E-01 
   1.30290000E+01    6.16462000E-01 
   1.82773000E+00    2.21006000E-01 
SP   3    1.000000
   2.09642000E+01    1.14660000E-01   4.02487000E-02 
   4.80331000E+00    9.19999000E-01   2.37594000E-01 
   1.45933000E+00   -3.03068000E-03   8.15854000E-01 
SP   1    1.000000
   4.83456000E-01    1.00000000E+00   1.00000000E+00 
SP   1    1.000000
   1.45585000E-01    1.00000000E+00   1.00000000E+00 
SP   1    1.000000
   4.38000000E-02    1.00000000E+00   1.00000000E+00 
D    1    1.000000
   6.26000000E-01    1.00000000E+00 

2    0
S    3    1.000000
   3.38650000E+01    2.54938000E-02 
   5.09479000E+00    1.90373000E-01 
   1.15879000E+00    8.52161000E-01 
S    1    1.000000
   3.25840000E-01    1.00000000E+00 
S    1    1.000000
   1.02741000E-01    1.00000000E+00 
S    1    1.000000
   3.60000000E-02    1.00000000E+00 
P    1    1.000000
   7.50000000E-01    1.00000000E+00 

3    0
S    3    1.000000
   3.38650000E+01    2.54938000E-02 
   5.09479000E+00    1.90373000E-01 
   1.15879000E+00    8.52161000E-01 
S    1    1.000000
   3.25840000E-01    1.00000000E+00 
S    1    1.000000
   1.02741000E-01    1.00000000E+00 
S    1    1.000000
   3.60000000E-02    1.00000000E+00 
P    1    1.000000
   7.50000000E-01    1.00000000E+00 

4    0
S    3    1.000000
   3.38650000E+01    2.54938000E-02 
   5.09479000E+00    1.90373000E-01 
   1.15879000E+00    8.52161000E-01 
S    1    1.000000
   3.25840000E-01    1.00000000E+00 
S    1    1.000000
   1.02741000E-01    1.00000000E+00 
S    1    1.000000
   3.60000000E-02    1.00000000E+00 
P    1    1.000000
   7.50000000E-01    1.00000000E+00 

5    0
S    6    1.000000
   4.56324000E+03    1.96665000E-03 
   6.82024000E+02    1.52306000E-02 
   1.54973000E+02    7.61269000E-02 
   4.44553000E+01    2.60801000E-01 
   1.30290000E+01    6.16462000E-01 
   1.82773000E+00    2.21006000E-01 
SP   3    1.000000
   2.09642000E+01    1.14660000E-01   4.02487000E-02 
   4.80331000E+00    9.19999000E-01   2.37594000E-01 
   1.45933000E+00   -3.03068000E-03   8.15854000E-01 
SP   1    1.000000
   4.83456000E-01    1.00000000E+00   1.00000000E+00 
SP   1    1.000000
   1.45585000E-01    1.00000000E+00   1.00000000E+00 
SP   1    1.000000
   4.38000000E-02    1.00000000E+00   1.00000000E+00 
D    1    1.000000
   6.26000000E-01    1.00000000E+00 

6    0
S    6    1.000000
   8.58850000E+03    1.89515000E-03 
   1.29723000E+03    1.43859000E-02 
   2.99296000E+02    7.07320000E-02 
   8.73771000E+01    2.40001000E-01 
   2.56789000E+01    5.94797000E-01 
   3.74004000E+00    2.80802000E-01 
SP   3    1.000000
   4.21175000E+01    1.13889000E-01   3.65114000E-02 
   9.62837000E+00    9.20811000E-01   2.37153000E-01 
   2.85332000E+00   -3.27447000E-03   8.19702000E-01 
SP   1    1.000000
   9.05661000E-01    1.00000000E+00   1.00000000E+00 
SP   1    1.000000
   2.55611000E-01    1.00000000E+00   1.00000000E+00 
SP   1    1.000000
   8.45000000E-02    1.00000000E+00   1.00000000E+00 
D    1    1.000000
   1.29200000E+00    1.00000000E+00 

7    0
S    6    1.000000
   4.56324000E+03    1.96665000E-03 
   6.82024000E+02    1.52306000E-02 
   1.54973000E+02    7.61269000E-02 
   4.44553000E+01    2.60801000E-01 
   1.30290000E+01    6.16462000E-01 
   1.82773000E+00    2.21006000E-01 
SP   3    1.000000
   2.09642000E+01    1.14660000E-01   4.02487000E-02 
   4.80331000E+00    9.19999000E-01   2.37594000E-01 
   1.45933000E+00   -3.03068000E-03   8.15854000E-01 
SP   1    1.000000
   4.83456000E-01    1.00000000E+00   1.00000000E+00 
SP   1    1.000000
   1.45585000E-01    1.00000000E+00   1.00000000E+00 
SP   1    1.000000
   4.38000000E-02    1.00000000E+00   1.00000000E+00 
D    1    1.000000
   6.26000000E-01    1.00000000E+00 

8    0
S    6    1.000000
   8.58850000E+03    1.89515000E-03 
   1.29723000E+03    1.43859000E-02 
   2.99296000E+02    7.07320000E-02 
   8.73771000E+01    2.40001000E-01 
   2.56789000E+01    5.94797000E-01 
   3.74004000E+00    2.80802000E-01 
SP   3    1.000000
   4.21175000E+01    1.13889000E-01   3.65114000E-02 
   9.62837000E+00    9.20811000E-01   2.37153000E-01 
   2.85332000E+00   -3.27447000E-03   8.19702000E-01 
SP   1    1.000000
   9.05661000E-01    1.00000000E+00   1.00000000E+00 
SP   1    1.000000
   2.55611000E-01    1.00000000E+00   1.00000000E+00 
SP   1    1.000000
   8.45000000E-02    1.00000000E+00   1.00000000E+00 
D    1    1.000000
   1.29200000E+00    1.00000000E+00 

9    0
S    6    1.000000
   6.29348000E+03    1.96979000E-03 
   9.49044000E+02    1.49613000E-02 
   2.18776000E+02    7.35006000E-02 
   6.36916000E+01    2.48937000E-01 
   1.88282000E+01    6.02460000E-01 
   2.72023000E+00    2.56202000E-01 
SP   3    1.000000
   3.06331000E+01    1.11906000E-01   3.83119000E-02 
   7.02614000E+00    9.21666000E-01   2.37403000E-01 
   2.11205000E+00   -2.56919000E-03   8.17592000E-01 
SP   1    1.000000
   6.84009000E-01    1.00000000E+00   1.00000000E+00 
SP   1    1.000000
   2.00878000E-01    1.00000000E+00   1.00000000E+00 
SP   1    1.000000
   6.39000000E-02    1.00000000E+00   1.00000000E+00 
D    1    1.000000
   9.13000000E-01    1.00000000E+00 

10    0
S    6    1.000000
   6.29348000E+03    1.96979000E-03 
   9.49044000E+02    1.49613000E-02 
   2.18776000E+02    7.35006000E-02 
   6.36916000E+01    2.48937000E-01 
   1.88282000E+01    6.02460000E-01 
   2.72023000E+00    2.56202000E-01 
SP   3    1.000000
   3.06331000E+01    1.11906000E-01   3.83119000E-02 
   7.02614000E+00    9.21666000E-01   2.37403000E-01 
   2.11205000E+00   -2.56919000E-03   8.17592000E-01 
SP   1    1.000000
   6.84009000E-01    1.00000000E+00   1.00000000E+00 
SP   1    1.000000
   2.00878000E-01    1.00000000E+00   1.00000000E+00 
SP   1    1.000000
   6.39000000E-02    1.00000000E+00   1.00000000E+00 
D    1    1.000000
   9.13000000E-01    1.00000000E+00 

11    0
S    6    1.000000
   4.56324000E+03    1.96665000E-03 
   6.82024000E+02    1.52306000E-02 
   1.54973000E+02    7.61269000E-02 
   4.44553000E+01    2.60801000E-01 
   1.30290000E+01    6.16462000E-01 
   1.82773000E+00    2.21006000E-01 
SP   3    1.000000
   2.09642000E+01    1.14660000E-01   4.02487000E-02 
   4.80331000E+00    9.19999000E-01   2.37594000E-01 
   1.45933000E+00   -3.03068000E-03   8.15854000E-01 
SP   1    1.000000
   4.83456000E-01    1.00000000E+00   1.00000000E+00 
SP   1    1.000000
   1.45585000E-01    1.00000000E+00   1.00000000E+00 
SP   1    1.000000
   4.38000000E-02    1.00000000E+00   1.00000000E+00 
D    1    1.000000
   6.26000000E-01    1.00000000E+00 

12    0
S    3    1.000000
   3.38650000E+01    2.54938000E-02 
   5.09479000E+00    1.90373000E-01 
   1.15879000E+00    8.52161000E-01 
S    1    1.000000
   3.25840000E-01    1.00000000E+00 
S    1    1.000000
   1.02741000E-01    1.00000000E+00 
S    1    1.000000
   3.60000000E-02    1.00000000E+00 
P    1    1.000000
   7.50000000E-01    1.00000000E+00 

[MO]
Sym=X
Ene= 2.007864
Spin=Alpha
Occup=1
     1   -4.797761839296e-15
     2   -8.436600340278e-15
     3   -8.073924685181e-15
     4    3.136279783178e-14
     5    4.033708224572e-02
     6    2.694850482828e-14
     7    2.915071338823e-15
     8    2.744972577143e-14
     9    7.000875892524e-02
    10   -4.500957579480e-13
    11    1.009277285071e-13
    12   -1.178111142694e-13
    13    4.477976386880e-02
    14    6.044701530657e-12
    15    1.669313523582e-12
    16    8.616701581233e-13
    17    3.630891644497e-03
    18    6.265065374129e-15
    19   -1.021982137417e-02
    20    7.210779287743e-03
    21    2.273480947897e-14
    22    7.714245392349e-17
    23    3.356081388668e-14
    24    2.670164316990e-13
    25   -8.672869020131e-14
    26    4.924376691819e-13
    27    1.654503582628e-14
    28    5.238062153996e-15
    29    7.676525716294e-03
    30   -3.554870340345e-14
    31   -5.612581466911e-14
    32   -5.037845569149e-14
    33    1.890464739331e-13
    34    1.427718121648e-16
    35    3.837870479222e-15
    36    3.158636005824e-03
    37    4.317626922511e-15
    38   -2.065626097671e-13
    39    5.206424347128e-13
    40   -3.452890924990e-13
    41   -5.016097457652e-15
    42    1.006937088497e-14
    43   -8.739247163112e-03
    44    6.247359318680e-14
    45    6.673114138998e-14
    46    4.959959619511e-15
    47   -3.653577496721e-14
    48    1.869077400790e-02
    49   -7.255260572970e-14
    50    2.321146812831e-14
    51   -3.347171676560e-14
    52    3.249039616104e-02
    53   -3.797841244194e-14
    54   -1.590870184347e-13
    55   -3.591097699914e-13
    56    2.518313119606e-02
    57   -1.320171807674e-12
    58   -9.906495098600e-16
    59    7.555536079260e-13
    60    1.048372285592e-02
    61    4.125530479916e-15
    62   -1.750994815142e-02
    63   -1.256405344055e-02
    64    1.891311098832e-15
    65    1.234537741064e-14
    66    2.143279246147e-14
    67    3.268417364854e-14
    68   -2.614436441341e-14
    69    1.712043003565e-14
    70    3.673143929098e-02
    71   -8.217527970100e-14
    72   -6.037734502429e-14
    73   -5.263520017336e-15
    74    5.766431544540e-02
    75   -1.119933800010e-13
    76    4.372131572129e-14
    77    1.363191200576e-13
    78    5.182091678659e-02
    79    3.526751782550e-13
    80    3.771902288691e-14
    81   -2.905378780957e-13
    82   -1.345609815636e-03
    83    3.867539603587e-15
    84    3.490657252759e-03
    85   -2.360205258942e-03
    86   -2.393619804589e-15
    87    3.393693649864e-15
    88   -5.638013190389e-14
    89   -6.277052941423e-14
    90   -2.133664427197e-14
    91    6.021932870883e-14
    92   -1.128004932944e-01
    93    7.755735696498e-14
    94   -4.798484827695e-14
    95    1.001597192496e-13
    96   -1.994936382336e-01
    97    4.493824289137e-13
    98   -1.403581381302e-14
    99   -1.686203953922e-13
   100   -1.109944122894e-01
   101    1.621496558509e-12
   102   -1.505258627546e-12
   103    2.747739812523e-13
   104   -3.744298053167e-02
   105   -1.332806733719e-14
   106   -1.529084115061e-02
   107   -2.740384914679e-02
   108    4.555575670441e-14
   109   -9.493233097314e-15
   110   -1.151224132678e-14
   111   -1.651491006733e-14
   112    4.169314491315e-14
   113   -1.713626291903e-13
   114   -2.603048650893e-01
   115    5.941153823764e-14
   116    3.555121664961e-14
   117   -1.809121509432e-13
   118   -3.034286278767e-01
   119   -1.159547543307e-14
   120   -9.229886867436e-15
   121   -5.393907382612e-14
   122   -1.873904144898e-01
   123    5.497087690866e-14
   124    2.131133382501e-13
   125    1.722869609527e-13
   126    1.166840733823e-02
   127   -3.842430610580e-15
   128    2.137735314426e-02
   129    1.281225440473e-02
   130   -1.321911339274e-15
   131    6.763755256560e-15
   132   -2.869080793638e-14
   133   -4.116774655385e-14
   134    6.498363768603e-14
   135   -2.451609740475e-14
   136   -1.069079848047e-01
   137    9.561710221827e-14
   138    1.223959534252e-13
   139   -7.123896958737e-14
   140   -1.769930839081e-01
   141    3.395572426386e-13
   142    5.704406530555e-14
   143    3.501444858393e-13
   144   -1.670746485900e-01
   145   -1.572758661625e-12
   146   -4.248156265146e-13
   147   -4.961733811301e-13
   148    1.994896444248e-04
   149   -8.929792846332e-15
   150   -9.441711485616e-03
   151    5.179995697756e-03
   152   -3.420945559280e-15
   153   -7.424576912891e-15
   154   -2.236710813989e-14
   155   -4.619632522513e-14
   156   -3.970085431637e-15
   157   -1.902014522028e-14
   158    9.283423168527e-02
   159    1.541268683395e-13
   160   -5.512360922289e-14
   161   -1.950373844202e-14
   162    1.534857715848e-01
   163   -7.573186307509e-14
   164    4.913614800351e-13
   165   -5.006097779372e-14
   166    1.435745154969e-01
   167    7.559070828916e-13
   168    5.221415204970e-15
   169   -3.269738664694e-13
   170    3.958657601850e-03
   171    3.104189246270e-15
   172    4.657651891929e-03
   173    8.326688004829e-04
   174   -3.360315285119e-15
   175   -4.531947873001e-15
   176   -1.337089654622e-13
   177   -1.051181059239e-13
   178   -1.712026282722e-14
   179   -3.793141302475e-14
   180   -1.864039119793e-03
   181   -3.080477545147e-14
   182   -2.480801607459e-14
   183   -7.163818466021e-14
   184   -5.249308467182e-03
   185   -3.819902061787e-14
   186    1.306594678366e-14
   187   -1.305338231358e-13
   188    1.110445285122e-02
   189   -6.098312468158e-12
   190    2.515826361829e-12
   191    8.336022297102e-13
   192    1.467186360566e-02
   193    8.085308576523e-16
   194   -4.886012850237e-03
   195   -1.211395497430e-02
   196    4.817491916926e-15
   197   -1.172321422720e-14
   198    2.907764354510e-15
   199    3.680836892362e-16
   200   -1.793932054859e-13
   201   -3.320229905155e-13
   202   -2.055405266983e-15
   203   -1.983945530079e-15
   204   -6.826575527499e-04
Sym=X
Ene= 2.002665
Spin=Alpha
Occup=1
     1    9.646490209717e-03
     2    1.628763304746e-02
     3   -2.627691277310e-02
     4   -2.558510570846e-02
     5    1.920577007838e-13
     6   -4.478724603864e-02
     7   -4.338303222928e-02
     8   -4.267345555590e-02
     9    3.345718276371e-13
    10   -7.223057398786e-02
    11   -3.049801129934e-02
    12   -6.133989645055e-02
    13    3.371981518418e-13
    14   -2.294209130392e-01
    15   -6.199884245639e-02
    16   -4.768391688141e-02
    17   -7.401865923335e-15
    18    1.216505095092e-03
    19    9.171774395737e-14
    20    2.001750760463e-14
    21   -9.023999096428e-03
    22    4.620686638639e-04
    23   -8.340257509281e-04
    24   -4.752268092784e-03
    25    1.089357996272e-03
    26    1.292640518902e-02
    27   -3.758848417806e-04
    28   -1.372025536245e-04
    29   -2.413997779983e-14
    30    1.832578275083e-02
    31    2.515415174388e-02
    32    9.869424463490e-03
    33   -2.013186752900e-02
    34   -1.280149046677e-03
    35   -1.106856412303e-04
    36    2.044864897406e-14
    37    4.066952393721e-03
    38    1.798347360553e-02
    39    1.408320867602e-02
    40   -4.689954184104e-02
    41   -2.779567731539e-03
    42   -6.531972140823e-04
    43    2.004293625106e-14
    44   -1.386941811606e-02
    45   -2.285425671012e-02
    46    3.726134856650e-02
    47    1.641462626813e-02
    48    5.718176418029e-16
    49    6.305177276804e-02
    50    6.261975438400e-02
    51    2.608657669849e-02
    52    8.183662421913e-15
    53    6.196609659778e-02
    54    5.154509824296e-02
    55    1.567380148979e-02
    56   -7.192563948818e-14
    57    4.461227997247e-02
    58    2.633662443285e-02
    59    4.036966863649e-02
    60    5.297582842593e-14
    61   -1.949771213351e-03
    62    4.343168640086e-14
    63    4.682092295684e-14
    64   -1.313013180084e-02
    65    4.673246609987e-03
    66    3.964662062406e-03
    67    6.663975659830e-03
    68    1.743290933825e-02
    69    4.670824212298e-02
    70    4.086048610220e-14
    71   -1.930313642386e-02
    72    2.868380779880e-02
    73    7.149840793767e-02
    74    3.832569501491e-14
    75   -1.055072580171e-02
    76    2.266761768706e-02
    77    5.844323905407e-02
    78    1.634046240583e-14
    79    1.790836799088e-02
    80    5.930993665423e-03
    81    7.802931804487e-04
    82   -1.589273123636e-14
    83    2.058965242126e-04
    84   -8.243584527701e-16
    85   -2.226331634522e-15
    86    4.187149175100e-03
    87    2.673750763819e-03
    88   -8.752039160300e-03
    89   -1.507833644727e-02
    90    4.439836134208e-02
    91   -4.493761815230e-02
    92    5.441263045425e-14
    93    4.453035444642e-02
    94    7.545095533254e-02
    95   -8.526209319038e-02
    96    1.103087059031e-13
    97    6.052188531855e-02
    98   -8.516453581616e-03
    99    1.972064358472e-02
   100   -2.395833094265e-14
   101   -2.160126890709e-01
   102   -1.762574381755e-02
   103    1.189752877961e-01
   104   -7.269494004710e-14
   105    2.450762810810e-04
   106   -1.150166657144e-13
   107   -8.427563223395e-14
   108   -5.538711405353e-02
   109    3.428352615265e-02
   110   -7.376327728850e-03
   111   -1.053029721332e-02
   112   -2.150572810108e-01
   113    2.733595355032e-01
   114   -7.858617125540e-13
   115    3.245185347533e-02
   116   -2.467180066848e-01
   117    3.131327863873e-01
   118   -8.634885200442e-13
   119   -4.619767491883e-03
   120   -1.638047944124e-01
   121    2.304724303274e-01
   122   -5.304884286520e-13
   123   -2.434977961690e-02
   124    7.544769740376e-03
   125    5.138594072075e-03
   126   -8.308234608818e-14
   127   -2.265809879552e-03
   128    3.215405334722e-14
   129    1.323589487878e-14
   130    1.255707250922e-02
   131   -2.681797455242e-03
   132    2.233469774051e-02
   133    3.686757583280e-02
   134   -8.400642098787e-02
   135    2.586715605174e-02
   136    3.093774584601e-13
   137   -9.894265693369e-02
   138   -1.322071622564e-01
   139    3.244389131766e-02
   140    4.995580708868e-13
   141   -1.796219173655e-01
   142   -1.003061227740e-01
   143    4.990056045343e-02
   144    5.468877917643e-13
   145   -1.363890950708e-01
   146    5.326152649545e-02
   147    2.599693545658e-02
   148    7.529597342243e-14
   149   -1.004270630903e-03
   150    2.472305372057e-15
   151   -1.316373080068e-14
   152   -3.244895891061e-04
   153    4.160363858615e-03
   154   -1.477700008570e-03
   155   -2.450532963469e-03
   156   -1.752218348757e-03
   157    7.114203148597e-03
   158   -2.653884154880e-13
   159    6.341947771092e-03
   160   -3.630513839163e-03
   161    9.348401006899e-03
   162   -4.256754588922e-13
   163    1.999689823370e-02
   164    1.427125714599e-03
   165    7.859336900555e-03
   166   -4.750621248648e-13
   167    5.727568540354e-02
   168    9.670266144553e-03
   169    3.259524222956e-02
   170   -1.096489318328e-13
   171    2.295069910239e-04
   172    1.499694484508e-14
   173   -3.790045002926e-15
   174   -2.901347536698e-03
   175    9.539840607483e-04
   176   -1.850415127826e-02
   177   -3.007132975505e-02
   178    3.782220767483e-02
   179    6.145178103254e-02
   180    3.321358068822e-13
   181    7.550726263291e-02
   182    6.034483687820e-02
   183    8.753113447144e-02
   184    5.568617644037e-13
   185    1.607589621899e-01
   186   -7.822652073817e-04
   187    8.708532704392e-02
   188    5.951776202641e-13
   189    4.754156081777e-01
   190   -7.438185004907e-02
   191    3.339012482975e-02
   192    1.057812473677e-13
   193   -1.052392447318e-03
   194   -2.395233198245e-14
   195    1.857215977445e-15
   196   -4.769288534864e-03
   197    2.518644614409e-03
   198    1.242755358705e-02
   199    1.475362540777e-02
   200    1.307440439427e-03
   201    2.632445948696e-02
   202   -1.631666004730e-03
   203    2.266058404217e-03
   204    2.249785656168e-14
Sym=X
Ene= 2.002310
Spin=Alpha
Occup=1
     1    3.814735591873e-13
     2    4.078409971783e-13
     3    3.239893051113e-14
     4   -8.384778793646e-14
     5   -6.023275197068e-02
     6   -4.893350936118e-13
     7    4.250618014278e-14
     8   -1.259862171561e-13
     9   -1.026005331913e-01
    10    3.756637850671e-14
    11   -1.995197047161e-13
    12    1.689182320314e-14
    13   -1.134860843078e-01
    14   -1.517460824095e-12
    15   -5.645584311812e-13
    16    1.510230403624e-13
    17   -1.555852029888e-02
    18    1.437876592108e-14
    19   -3.015057144173e-02
    20   -4.523604396828e-03
    21   -7.830100874839e-14
    22    5.435119425356e-14
    23   -1.792155165551e-14
    24   -2.174308039858e-13
    25   -4.845720719785e-14
    26   -5.547102459545e-13
    27   -2.456447435174e-14
    28    1.515476760280e-14
    29    1.018988762634e-02
    30    2.099964434085e-14
    31    9.490106212932e-14
    32    1.016999688514e-13
    33    8.624220415726e-14
    34   -5.349837680486e-16
    35   -2.106316155467e-14
    36   -4.657955543491e-03
    37    7.835919258531e-14
    38    3.546218596732e-13
    39   -5.568931699988e-13
    40    5.175187860276e-13
    41    1.624589435555e-15
    42   -2.011416288685e-14
    43   -9.354883770999e-03
    44   -3.813077567669e-13
    45   -3.573797807608e-13
    46    1.876804325331e-13
    47   -1.530175420706e-13
    48    1.518145481464e-02
    49    1.920120565139e-13
    50    3.075099939229e-13
    51   -2.527700748822e-13
    52    2.975198993065e-02
    53    2.236379705187e-13
    54    1.369463013345e-13
    55    5.677578837496e-14
    56    1.774463989418e-02
    57    6.408976545264e-13
    58   -2.683110109991e-13
    59   -8.504415958185e-13
    60   -1.561136458474e-02
    61   -1.404403072592e-14
    62   -1.869231111849e-02
    63   -1.933624864753e-02
    64    6.968457999591e-14
    65    1.140467751629e-13
    66   -1.819578790710e-13
    67   -1.462122124668e-13
    68   -3.850031594661e-13
    69   -2.802734361435e-13
    70    2.021168398331e-02
    71   -5.557145682381e-14
    72   -5.622073865652e-13
    73   -4.112087200964e-13
    74    3.196356349321e-02
    75    9.746038113132e-14
    76   -5.361178980351e-13
    77   -5.559557007290e-13
    78    2.439339954173e-02
    79   -1.747786923124e-13
    80   -1.674383995280e-14
    81    2.770886418173e-13
    82    5.820541688918e-03
    83    9.137832077767e-15
    84    2.006509543450e-03
    85   -1.844776816063e-03
    86   -3.570774847819e-14
    87    1.760660931770e-15
    88   -2.338996590793e-13
    89   -2.319041459314e-13
    90   -1.015765134203e-13
    91   -5.169118540766e-13
    92   -3.259964736595e-02
    93    2.192642623922e-13
    94   -1.226608355114e-13
    95   -8.574656029723e-13
    96   -6.155422079912e-02
    97   -3.457172811648e-13
    98    5.442470742485e-14
    99   -5.662977372652e-14
   100   -2.589437368408e-02
   101    4.858850538169e-13
   102    1.482569199764e-12
   103   -8.712371203286e-13
   104    1.275225197549e-02
   105    2.244192775460e-14
   106    3.983548190673e-02
   107    2.198379944715e-02
   108   -2.342556328476e-13
   109    6.551146714668e-14
   110    2.081302371155e-14
   111    3.070703220900e-14
   112   -2.085630808208e-13
   113    1.245882560251e-12
   114    2.336771895790e-01
   115   -1.043755521395e-13
   116   -2.306681605338e-13
   117    1.410791154429e-12
   118    2.636979260936e-01
   119    1.694691376265e-13
   120   -2.522769972170e-13
   121    8.698501840932e-13
   122    1.854126334775e-01
   123   -1.373065406352e-13
   124   -2.783894664759e-13
   125   -4.963654768351e-14
   126    3.080115846197e-02
   127    2.393461017505e-14
   128   -7.572667000571e-03
   129   -4.318977440755e-03
   130    8.303468848156e-15
   131   -5.089938111329e-14
   132    4.255972637019e-13
   133    3.395076223250e-13
   134   -3.188491667822e-13
   135    4.861784110377e-14
   136   -1.257187768471e-01
   137    8.442868424105e-14
   138   -5.010579408458e-13
   139    1.068795826942e-13
   140   -2.046043620215e-01
   141   -1.868208337537e-13
   142   -4.166193318481e-13
   143   -3.108417197395e-13
   144   -2.134583274792e-01
   145    2.084948780525e-12
   146    4.163398307979e-13
   147    5.199843299323e-13
   148   -2.069344087337e-02
   149   -3.514779245833e-15
   150   -4.362133383396e-03
   151    4.577506726357e-03
   152   -2.893844540320e-14
   153   -1.676845735831e-15
   154    1.161712989168e-13
   155    1.539788390119e-13
   156   -1.334572032361e-13
   157    1.714715510039e-13
   158    1.071762493781e-01
   159   -3.155009077877e-13
   160   -1.565046486804e-13
   161    2.766051344162e-13
   162    1.741454059197e-01
   163   -2.293555231801e-13
   164   -6.125621133641e-13
   165    8.403195910277e-14
   166    2.050688047589e-01
   167   -1.226573923857e-12
   168   -3.250163459232e-13
   169    6.077899995019e-14
   170    5.398034141512e-02
   171   -6.660194616298e-15
   172   -3.361604030849e-03
   173    5.326245057914e-03
   174   -2.955653468500e-14
   175    2.604500832167e-14
   176   -2.744323698602e-13
   177   -2.817333460024e-13
   178   -4.746998786870e-14
   179    5.084229877367e-13
   180   -1.164768597062e-01
   181    2.723565706565e-13
   182   -2.273449415414e-14
   183    7.917069137905e-13
   184   -1.990569880044e-01
   185    4.720270757826e-13
   186   -3.411739310972e-13
   187    6.133699997345e-13
   188   -2.035127826533e-01
   189   -1.622692622064e-13
   190   -1.626092691086e-12
   191   -1.041597450824e-12
   192   -1.955178017469e-02
   193   -1.342397159319e-14
   194    1.445158476584e-02
   195   -3.003759379352e-03
   196   -7.569381964847e-14
   197    1.664453469271e-14
   198   -2.062897329853e-13
   199   -3.610883279468e-13
   200    3.699065959184e-13
   201    1.495530118369e-13
   202    3.919777978440e-14
   203   -3.661435470287e-15
   204   -8.743628631789e-03
Sym=X
Ene= 2.001803
Spin=Alpha
Occup=1
     1   -5.274233029378e-04
     2   -1.176242712873e-03
     3   -1.293671697251e-02
     4    9.278164717948e-03
     5    2.497291754257e-13
     6    2.198916108278e-03
     7   -2.057707972413e-02
     8    1.491083312406e-02
     9    4.352273670358e-13
    10    5.159856351632e-03
    11   -2.179747759551e-02
    12    4.470777857621e-03
    13    4.141183490656e-13
    14   -4.869904642159e-02
    15   -4.524189953542e-02
    16   -1.588335404347e-02
    17   -1.614511631052e-15
    18   -1.096770694922e-03
    19    8.473474392736e-14
    20    1.897871139354e-14
    21    3.654715360548e-04
    22    6.390009862346e-03
    23    1.562391450966e-02
    24    3.346545822199e-02
    25    2.410865382563e-02
    26   -3.494957974483e-02
    27    3.148107226945e-03
    28    3.042486628151e-03
    29   -2.298071372345e-14
    30   -4.272580747407e-03
    31   -7.940576543918e-03
    32    1.225048353417e-03
    33   -1.534267932359e-02
    34   -4.110170203224e-04
    35   -1.172865580031e-03
    36    2.381785499324e-14
    37   -4.210629214614e-03
    38   -4.895074162429e-03
    39   -2.702631748132e-02
    40    1.364488891694e-02
    41    2.689168415301e-03
    42    2.560356421936e-03
    43    2.715209315968e-14
    44    1.255662927618e-02
    45    2.017670943786e-02
    46   -9.385432703344e-03
    47   -1.092916394191e-02
    48   -6.748114430248e-14
    49   -5.715726577300e-02
    50   -1.317631883131e-02
    51   -1.247995854422e-02
    52   -1.307596416660e-13
    53   -3.640820048898e-02
    54   -6.681573840974e-02
    55   -1.001785497128e-01
    56   -1.239193176761e-13
    57   -4.325041908728e-03
    58   -6.124555275820e-02
    59   -8.297231881739e-02
    60    9.503820722497e-14
    61    2.017256671690e-03
    62    7.604732397119e-14
    63    2.397664593484e-14
    64    5.611111233049e-02
    65    2.910663132147e-02
    66   -8.386130339093e-03
    67   -1.419845668342e-02
    68   -1.251279493719e-01
    69   -1.724019874052e-01
    70   -9.680166349238e-14
    71    4.212836159610e-02
    72   -1.930568644727e-01
    73   -2.670166420483e-01
    74   -1.600888695124e-13
    75    4.586739028740e-02
    76   -1.683331367648e-01
    77   -2.450683805980e-01
    78   -1.154676953453e-13
    79    2.891048640203e-03
    80   -3.428489997663e-03
    81   -1.079038199210e-02
    82   -5.337178474657e-14
    83    9.409573717132e-04
    84   -1.449191137199e-14
    85    8.564942765720e-15
    86   -1.377916066750e-02
    87   -5.451877349028e-03
    88    9.028459380499e-03
    89    1.327633275523e-02
    90   -6.546708248700e-02
    91   -8.288013318435e-02
    92    1.027304181145e-13
    93   -3.733337936356e-02
    94   -1.006666196521e-01
    95   -1.374862152694e-01
    96    1.810395929499e-13
    97   -2.813924153116e-02
    98   -1.746296897248e-02
    99   -2.735839530921e-02
   100    8.836221588708e-14
   101   -4.769263188616e-02
   102    2.537224121343e-03
   103    1.710015504087e-02
   104   -7.374612961268e-14
   105    5.905709929360e-03
   106   -1.255462272621e-13
   107   -8.132416951203e-14
   108   -2.034715651727e-02
   109   -9.197398126337e-03
   110    1.021883210482e-02
   111    1.452767606226e-02
   112    1.001517580625e-01
   113    1.618926813504e-01
   114   -7.106982137112e-13
   115   -4.383457225265e-02
   116    1.151961580573e-01
   117    1.847899045392e-01
   118   -8.019415119813e-13
   119    5.605234140290e-02
   120    2.749797835900e-02
   121    1.022371828465e-01
   122   -5.265958754515e-13
   123    1.434402940087e-02
   124    3.387586693784e-03
   125    4.654270170499e-03
   126   -8.540448068384e-14
   127    8.202970562777e-03
   128    2.293177230780e-14
   129    1.382283792324e-14
   130   -5.172260330881e-03
   131   -1.379828521207e-02
   132   -9.616633174273e-03
   133   -1.646391537446e-02
   134   -1.933648609580e-02
   135   -2.090147790140e-02
   136    3.204885175798e-13
   137    4.289624024147e-02
   138   -2.280494658829e-02
   139   -2.686630876498e-02
   140    5.138215057276e-13
   141    1.225968958481e-01
   142   -7.455505823865e-02
   143   -3.187689113886e-02
   144    6.238987496075e-13