[Molden Format]
[Atoms] (Angs)
  C      1    6     -0.00714236     -1.70213747     -0.00000000
  H      2    1     -2.06882847     -1.44022412      0.00000000
  H      3    1     -0.12337987     -2.77567521      0.00000000
  H      4    1      0.04651892      1.98813947     -0.00000000
  C      5    6     -1.21953563      0.40211669      0.00000000
  O      6    8     -2.25921553      1.03043814      0.00000000
  C      7    6      1.28797806      0.34644937     -0.00000000
  O      8    8      2.31273661      1.00537216     -0.00000000
  N      9    7      0.03446295      0.97739857     -0.00000000
  N     10    7     -1.17287765     -0.98229824      0.00000000
  C     11    6      1.20107039     -1.10433419     -0.00000000
  H     12    1      2.11220096     -1.67699125     -0.00000000
[GTO]
1    0
S    6    1.000000
   4.56324000E+03    1.96665000E-03 
   6.82024000E+02    1.52306000E-02 
   1.54973000E+02    7.61269000E-02 
   4.44553000E+01    2.60801000E-01 
   1.30290000E+01    6.16462000E-01 
   1.82773000E+00    2.21006000E-01 
SP   3    1.000000
   2.09642000E+01    1.14660000E-01   4.02487000E-02 
   4.80331000E+00    9.19999000E-01   2.37594000E-01 
   1.45933000E+00   -3.03068000E-03   8.15854000E-01 
SP   1    1.000000
   4.83456000E-01    1.00000000E+00   1.00000000E+00 
SP   1    1.000000
   1.45585000E-01    1.00000000E+00   1.00000000E+00 
SP   1    1.000000
   4.38000000E-02    1.00000000E+00   1.00000000E+00 
D    1    1.000000
   6.26000000E-01    1.00000000E+00 

2    0
S    3    1.000000
   3.38650000E+01    2.54938000E-02 
   5.09479000E+00    1.90373000E-01 
   1.15879000E+00    8.52161000E-01 
S    1    1.000000
   3.25840000E-01    1.00000000E+00 
S    1    1.000000
   1.02741000E-01    1.00000000E+00 
S    1    1.000000
   3.60000000E-02    1.00000000E+00 
P    1    1.000000
   7.50000000E-01    1.00000000E+00 

3    0
S    3    1.000000
   3.38650000E+01    2.54938000E-02 
   5.09479000E+00    1.90373000E-01 
   1.15879000E+00    8.52161000E-01 
S    1    1.000000
   3.25840000E-01    1.00000000E+00 
S    1    1.000000
   1.02741000E-01    1.00000000E+00 
S    1    1.000000
   3.60000000E-02    1.00000000E+00 
P    1    1.000000
   7.50000000E-01    1.00000000E+00 

4    0
S    3    1.000000
   3.38650000E+01    2.54938000E-02 
   5.09479000E+00    1.90373000E-01 
   1.15879000E+00    8.52161000E-01 
S    1    1.000000
   3.25840000E-01    1.00000000E+00 
S    1    1.000000
   1.02741000E-01    1.00000000E+00 
S    1    1.000000
   3.60000000E-02    1.00000000E+00 
P    1    1.000000
   7.50000000E-01    1.00000000E+00 

5    0
S    6    1.000000
   4.56324000E+03    1.96665000E-03 
   6.82024000E+02    1.52306000E-02 
   1.54973000E+02    7.61269000E-02 
   4.44553000E+01    2.60801000E-01 
   1.30290000E+01    6.16462000E-01 
   1.82773000E+00    2.21006000E-01 
SP   3    1.000000
   2.09642000E+01    1.14660000E-01   4.02487000E-02 
   4.80331000E+00    9.19999000E-01   2.37594000E-01 
   1.45933000E+00   -3.03068000E-03   8.15854000E-01 
SP   1    1.000000
   4.83456000E-01    1.00000000E+00   1.00000000E+00 
SP   1    1.000000
   1.45585000E-01    1.00000000E+00   1.00000000E+00 
SP   1    1.000000
   4.38000000E-02    1.00000000E+00   1.00000000E+00 
D    1    1.000000
   6.26000000E-01    1.00000000E+00 

6    0
S    6    1.000000
   8.58850000E+03    1.89515000E-03 
   1.29723000E+03    1.43859000E-02 
   2.99296000E+02    7.07320000E-02 
   8.73771000E+01    2.40001000E-01 
   2.56789000E+01    5.94797000E-01 
   3.74004000E+00    2.80802000E-01 
SP   3    1.000000
   4.21175000E+01    1.13889000E-01   3.65114000E-02 
   9.62837000E+00    9.20811000E-01   2.37153000E-01 
   2.85332000E+00   -3.27447000E-03   8.19702000E-01 
SP   1    1.000000
   9.05661000E-01    1.00000000E+00   1.00000000E+00 
SP   1    1.000000
   2.55611000E-01    1.00000000E+00   1.00000000E+00 
SP   1    1.000000
   8.45000000E-02    1.00000000E+00   1.00000000E+00 
D    1    1.000000
   1.29200000E+00    1.00000000E+00 

7    0
S    6    1.000000
   4.56324000E+03    1.96665000E-03 
   6.82024000E+02    1.52306000E-02 
   1.54973000E+02    7.61269000E-02 
   4.44553000E+01    2.60801000E-01 
   1.30290000E+01    6.16462000E-01 
   1.82773000E+00    2.21006000E-01 
SP   3    1.000000
   2.09642000E+01    1.14660000E-01   4.02487000E-02 
   4.80331000E+00    9.19999000E-01   2.37594000E-01 
   1.45933000E+00   -3.03068000E-03   8.15854000E-01 
SP   1    1.000000
   4.83456000E-01    1.00000000E+00   1.00000000E+00 
SP   1    1.000000
   1.45585000E-01    1.00000000E+00   1.00000000E+00 
SP   1    1.000000
   4.38000000E-02    1.00000000E+00   1.00000000E+00 
D    1    1.000000
   6.26000000E-01    1.00000000E+00 

8    0
S    6    1.000000
   8.58850000E+03    1.89515000E-03 
   1.29723000E+03    1.43859000E-02 
   2.99296000E+02    7.07320000E-02 
   8.73771000E+01    2.40001000E-01 
   2.56789000E+01    5.94797000E-01 
   3.74004000E+00    2.80802000E-01 
SP   3    1.000000
   4.21175000E+01    1.13889000E-01   3.65114000E-02 
   9.62837000E+00    9.20811000E-01   2.37153000E-01 
   2.85332000E+00   -3.27447000E-03   8.19702000E-01 
SP   1    1.000000
   9.05661000E-01    1.00000000E+00   1.00000000E+00 
SP   1    1.000000
   2.55611000E-01    1.00000000E+00   1.00000000E+00 
SP   1    1.000000
   8.45000000E-02    1.00000000E+00   1.00000000E+00 
D    1    1.000000
   1.29200000E+00    1.00000000E+00 

9    0
S    6    1.000000
   6.29348000E+03    1.96979000E-03 
   9.49044000E+02    1.49613000E-02 
   2.18776000E+02    7.35006000E-02 
   6.36916000E+01    2.48937000E-01 
   1.88282000E+01    6.02460000E-01 
   2.72023000E+00    2.56202000E-01 
SP   3    1.000000
   3.06331000E+01    1.11906000E-01   3.83119000E-02 
   7.02614000E+00    9.21666000E-01   2.37403000E-01 
   2.11205000E+00   -2.56919000E-03   8.17592000E-01 
SP   1    1.000000
   6.84009000E-01    1.00000000E+00   1.00000000E+00 
SP   1    1.000000
   2.00878000E-01    1.00000000E+00   1.00000000E+00 
SP   1    1.000000
   6.39000000E-02    1.00000000E+00   1.00000000E+00 
D    1    1.000000
   9.13000000E-01    1.00000000E+00 

10    0
S    6    1.000000
   6.29348000E+03    1.96979000E-03 
   9.49044000E+02    1.49613000E-02 
   2.18776000E+02    7.35006000E-02 
   6.36916000E+01    2.48937000E-01 
   1.88282000E+01    6.02460000E-01 
   2.72023000E+00    2.56202000E-01 
SP   3    1.000000
   3.06331000E+01    1.11906000E-01   3.83119000E-02 
   7.02614000E+00    9.21666000E-01   2.37403000E-01 
   2.11205000E+00   -2.56919000E-03   8.17592000E-01 
SP   1    1.000000
   6.84009000E-01    1.00000000E+00   1.00000000E+00 
SP   1    1.000000
   2.00878000E-01    1.00000000E+00   1.00000000E+00 
SP   1    1.000000
   6.39000000E-02    1.00000000E+00   1.00000000E+00 
D    1    1.000000
   9.13000000E-01    1.00000000E+00 

11    0
S    6    1.000000
   4.56324000E+03    1.96665000E-03 
   6.82024000E+02    1.52306000E-02 
   1.54973000E+02    7.61269000E-02 
   4.44553000E+01    2.60801000E-01 
   1.30290000E+01    6.16462000E-01 
   1.82773000E+00    2.21006000E-01 
SP   3    1.000000
   2.09642000E+01    1.14660000E-01   4.02487000E-02 
   4.80331000E+00    9.19999000E-01   2.37594000E-01 
   1.45933000E+00   -3.03068000E-03   8.15854000E-01 
SP   1    1.000000
   4.83456000E-01    1.00000000E+00   1.00000000E+00 
SP   1    1.000000
   1.45585000E-01    1.00000000E+00   1.00000000E+00 
SP   1    1.000000
   4.38000000E-02    1.00000000E+00   1.00000000E+00 
D    1    1.000000
   6.26000000E-01    1.00000000E+00 

12    0
S    3    1.000000
   3.38650000E+01    2.54938000E-02 
   5.09479000E+00    1.90373000E-01 
   1.15879000E+00    8.52161000E-01 
S    1    1.000000
   3.25840000E-01    1.00000000E+00 
S    1    1.000000
   1.02741000E-01    1.00000000E+00 
S    1    1.000000
   3.60000000E-02    1.00000000E+00 
P    1    1.000000
   7.50000000E-01    1.00000000E+00 

[MO]
Sym=X
Ene= 2.007679
Spin=Alpha
Occup=1
     1    9.961627214105e-16
     2   -3.257416642620e-15
     3   -6.108721673338e-15
     4    3.447974174821e-14
     5    3.621635376967e-02
     6    2.467664099388e-14
     7    3.473340556997e-15
     8    3.422422270116e-14
     9    6.301096807172e-02
    10   -4.317797313770e-13
    11    9.598983846350e-14
    12   -1.021078440675e-13
    13    3.717221111557e-02
    14    5.998140650141e-12
    15    1.640163304036e-12
    16    8.877035547909e-13
    17    2.924373437129e-03
    18    6.355092110940e-15
    19   -1.208896572180e-02
    20    6.984259675750e-03
    21    2.199573660753e-14
    22   -2.406626743703e-16
    23    3.001119616962e-14
    24    2.450614724769e-13
    25   -9.118183809775e-14
    26    4.643350526781e-13
    27    1.389792968144e-14
    28    4.013723414432e-15
    29    8.316441915271e-03
    30   -3.780395596711e-14
    31   -5.535470451496e-14
    32   -4.877254335388e-14
    33    2.046539512150e-13
    34    2.997634362972e-16
    35    3.515552040959e-15
    36    2.828236647718e-03
    37    1.162341209442e-14
    38   -1.904106590751e-13
    39    4.923840713949e-13
    40   -3.058223259533e-13
    41   -4.192437087914e-15
    42    1.015173105491e-14
    43   -9.037118440978e-03
    44    5.853702005063e-14
    45    6.377141125372e-14
    46    5.696569126685e-15
    47   -4.171446558402e-14
    48    1.966330254523e-02
    49   -7.597421483816e-14
    50    2.360444388210e-14
    51   -4.205088966270e-14
    52    3.442488894172e-02
    53   -3.914130691172e-14
    54   -1.514136572145e-13
    55   -3.423529058945e-13
    56    2.653701893142e-02
    57   -1.309642406174e-12
    58   -1.936756001637e-14
    59    7.119973383406e-13
    60    9.800119350706e-03
    61    4.025180090758e-15
    62   -1.818631040254e-02
    63   -1.383555803659e-02
    64    1.527873970785e-15
    65    1.173847945899e-14
    66    2.229881517582e-14
    67    3.396233367998e-14
    68   -3.086072428411e-14
    69    1.401855812613e-14
    70    3.686239634076e-02
    71   -8.643050555534e-14
    72   -6.656445270301e-14
    73   -8.011523357542e-15
    74    5.791017964876e-02
    75   -1.101480280880e-13
    76    3.497852940705e-14
    77    1.239790134030e-13
    78    5.154652143723e-02
    79    3.390266824538e-13
    80    3.794580922215e-14
    81   -2.727516080180e-13
    82   -1.518390064761e-03
    83    4.260790027726e-15
    84    3.554488024090e-03
    85   -2.430812958517e-03
    86   -2.754433296829e-15
    87    3.357988636572e-15
    88   -5.832099743302e-14
    89   -6.380164182245e-14
    90   -2.497588455435e-14
    91    6.174208102231e-14
    92   -1.146922573304e-01
    93    7.525601912657e-14
    94   -5.332234287464e-14
    95    1.034815407791e-13
    96   -2.030211422828e-01
    97    4.074834907415e-13
    98   -3.174968109967e-15
    99   -1.595119975546e-13
   100   -1.126598355297e-01
   101    1.699046527027e-12
   102   -1.416692163001e-12
   103    2.065593854176e-13
   104   -3.689646876076e-02
   105   -1.269166320853e-14
   106   -1.289189710252e-02
   107   -2.605501150122e-02
   108    4.368027236098e-14
   109   -1.070111500960e-14
   110   -9.745960457071e-15
   111   -1.404181516284e-14
   112    4.175065853396e-14
   113   -1.633187613566e-13
   114   -2.460931724437e-01
   115    5.078401274915e-14
   116    3.635819899725e-14
   117   -1.724951003923e-13
   118   -2.881918916274e-01
   119   -1.412928336719e-14
   120   -5.779670118010e-15
   121   -5.369141893573e-14
   122   -1.769009002620e-01
   123    4.549671616380e-14
   124    1.961893893920e-13
   125    1.659281661635e-13
   126    1.332565942813e-02
   127   -3.179347988182e-15
   128    2.093324846505e-02
   129    1.208867024113e-02
   130   -5.497837382885e-16
   131    6.276758354336e-15
   132   -2.708359028137e-14
   133   -4.290639548356e-14
   134    6.861456915355e-14
   135   -1.918678039351e-14
   136   -1.130796967935e-01
   137    1.120521089328e-13
   138    1.266220136807e-13
   139   -5.963081108651e-14
   140   -1.870091913378e-01
   141    3.484709716994e-13
   142    6.646680781436e-14
   143    3.309539120290e-13
   144   -1.781634100696e-01
   145   -1.439155871812e-12
   146   -4.102307350420e-13
   147   -4.795938475264e-13
   148   -5.829107013483e-04
   149   -1.016321417787e-14
   150   -9.771647019508e-03
   151    5.461195431219e-03
   152   -4.233309422606e-15
   153   -8.032201772457e-15
   154   -2.462701221253e-14
   155   -4.819191609671e-14
   156   -7.627289157578e-16
   157   -1.426314589742e-14
   158    9.950226965550e-02
   159    1.541910638898e-13
   160   -4.723284184700e-14
   161   -1.245304472932e-14
   162    1.642805321503e-01
   163   -5.921361541851e-14
   164    4.621485942545e-13
   165   -4.556090955471e-14
   166    1.564269940173e-01
   167    6.857902334036e-13
   168   -1.422762907340e-14
   169   -3.244385657644e-13
   170    7.310840503483e-03
   171    1.693985260964e-15
   172    4.494648388470e-03
   173    1.251377239830e-03
   174   -2.288609765455e-15
   175   -4.262625844483e-15
   176   -1.425534597647e-13
   177   -1.125713985805e-13
   178   -1.788298098972e-14
   179   -3.871988492935e-14
   180   -9.464364346568e-03
   181   -3.118871031280e-14
   182   -2.501440937389e-14
   183   -7.285755861290e-14
   184   -1.838167450788e-02
   185   -3.405463493788e-14
   186    3.926758688082e-15
   187   -1.251290337982e-13
   188   -1.980843527168e-03
   189   -6.183562373784e-12
   190    2.442262426266e-12
   191    7.542360816956e-13
   192    1.326523877977e-02
   193    4.916258541778e-18
   194   -3.916598771156e-03
   195   -1.229519075255e-02
   196    5.289885587769e-15
   197   -1.175689100936e-14
   198    3.110711209107e-15
   199   -8.612543724450e-16
   200   -1.567231954387e-13
   201   -3.415072516568e-13
   202   -9.959730324973e-16
   203   -2.156151130939e-15
   204   -1.266514601632e-03
Sym=X
Ene= 2.002450
Spin=Alpha
Occup=1
     1    9.745122649219e-03
     2    1.647723086861e-02
     3   -2.462695817874e-02
     4   -2.715571835611e-02
     5    1.130483435492e-13
     6   -4.509583818401e-02
     7   -4.076540661187e-02
     8   -4.525521160079e-02
     9    1.996174720290e-13
    10   -7.264456649044e-02
    11   -2.801473408564e-02
    12   -6.273801246229e-02
    13    1.833551236765e-13
    14   -2.349521761496e-01
    15   -5.467596202781e-02
    16   -5.538199400927e-02
    17   -2.308147373658e-14
    18    1.354404962698e-03
    19    4.702317838652e-14
    20    1.624344041506e-14
    21   -9.096979877552e-03
    22   -1.006578746337e-04
    23   -1.824896988411e-03
    24   -7.592472735133e-03
    25   -3.596641501619e-03
    26    1.459311146308e-02
    27   -6.027030244499e-04
    28   -3.916937280989e-04
    29   -7.768414368281e-15
    30    1.909946926462e-02
    31    2.649880713571e-02
    32    8.574151112041e-03
    33   -2.686476423809e-02
    34   -1.162834216080e-03
    35    8.061667796192e-05
    36    1.426799168057e-14
    37    3.416146029119e-03
    38    1.697514736436e-02
    39    1.612905828343e-02
    40   -4.989674872764e-02
    41   -3.217668429936e-03
    42   -6.492176660124e-04
    43    5.801863060242e-15
    44   -1.526395667569e-02
    45   -2.510819532912e-02
    46    3.940308055094e-02
    47    1.771615934043e-02
    48    2.822471725696e-14
    49    6.945773618102e-02
    50    6.585877865525e-02
    51    2.756573817825e-02
    52    6.112846355800e-14
    53    6.620162310850e-02
    54    5.987007384187e-02
    55    2.735882907409e-02
    56   -3.567460936232e-14
    57    5.568009170405e-02
    58    3.631827539325e-02
    59    4.869998900696e-02
    60    2.828560251777e-14
    61   -2.169831973458e-03
    62    1.408268705203e-14
    63    1.822338898248e-14
    64   -1.950943113071e-02
    65    1.698983315770e-03
    66    4.893673016939e-03
    67    8.219185537785e-03
    68    3.079431446463e-02
    69    6.683325690068e-02
    70    7.310761025548e-14
    71   -2.384911246886e-02
    72    4.934177111670e-02
    73    1.026478814257e-01
    74    9.067115760659e-14
    75   -1.468084009124e-02
    76    4.102488486539e-02
    77    8.662307952892e-02
    78    5.486707000254e-14
    79    1.732776164579e-02
    80    5.719076190885e-03
    81    2.270030014034e-03
    82   -6.379743993061e-15
    83    1.425229306102e-04
    84    3.140122322005e-15
    85   -5.258251953652e-15
    86    5.739599960004e-03
    87    3.397180827339e-03
    88   -9.963859553104e-03
    89   -1.661063751105e-02
    90    5.374475812389e-02
    91   -3.750108140992e-02
    92    2.815223539541e-15
    93    4.794084474655e-02
    94    8.891262496052e-02
    95   -7.344540256785e-02
    96    1.550082536429e-14
    97    6.022877851165e-02
    98   -4.238961784175e-03
    99    1.914953029825e-02
   100   -6.652824752308e-14
   101   -2.364571807272e-01
   102   -9.337480799130e-03
   103    1.186029711450e-01
   104   -5.528253582049e-14
   105   -2.154540010755e-04
   106   -5.762164969382e-14
   107   -5.339961971210e-14
   108   -5.252855816440e-02
   109    3.551335011383e-02
   110   -1.313308765922e-02
   111   -1.888452505472e-02
   112   -2.198397195217e-01
   113    2.520969528925e-01
   114   -4.559301933908e-13
   115    6.045738321406e-02
   116   -2.528240253988e-01
   117    2.886378287695e-01
   118   -4.935002059512e-13
   119    1.472905015230e-03
   120   -1.626373851371e-01
   121    2.165517469241e-01
   122   -2.764870967490e-13
   123   -2.423640346063e-02
   124    6.081498857935e-03
   125    4.576929491356e-03
   126   -3.572102867680e-14
   127   -3.465046998153e-03
   128    2.222491776054e-14
   129    6.410391149720e-15
   130    1.226855650876e-02
   131   -1.203586015825e-03
   132    2.421899999385e-02
   133    4.003056947260e-02
   134   -8.373222893756e-02
   135    2.757397585093e-02
   136    1.243682918090e-13
   137   -1.071336651311e-01
   138   -1.329011474627e-01
   139    3.465622158679e-02
   140    2.000113154830e-13
   141   -1.939908945585e-01
   142   -9.269588786723e-02
   143    5.275930164594e-02
   144    2.227768256203e-13
   145   -1.451744866406e-01
   146    5.515417257733e-02
   147    2.394678606163e-02
   148    4.835570734049e-14
   149   -1.014654219376e-03
   150   -4.154628508041e-15
   151   -6.579994319067e-15
   152    3.009231414383e-04
   153    5.290536940420e-03
   154   -2.971194533081e-03
   155   -4.894784820272e-03
   156   -1.647081449225e-03
   157    1.218317691940e-02
   158   -9.188733103469e-14
   159    1.274617213310e-02
   160   -3.831494261016e-03
   161    1.646973051120e-02
   162   -1.421740802402e-13
   163    3.667573325161e-02
   164   -1.659133508093e-04
   165    1.747875738066e-02
   166   -1.483281753527e-13
   167    7.744828405298e-02
   168    7.398924700433e-03
   169    3.080232329763e-02
   170   -3.585377237172e-14
   171    4.240856458985e-04
   172    1.103980332883e-14
   173    3.699304397505e-15
   174   -2.881542660171e-03
   175    1.147554196430e-03
   176   -1.705097039189e-02
   177   -2.765123195732e-02
   178    3.926936042811e-02
   179    5.580821898704e-02
   180    1.666221582476e-13
   181    6.946131521111e-02
   182    6.227230835790e-02
   183    7.859380992321e-02
   184    2.749204984687e-13
   185    1.505044219859e-01
   186    1.999392998659e-04
   187    8.026617561894e-02
   188    3.019512343990e-13
   189    4.797067365650e-01
   190   -8.229476844898e-02
   191    4.408849891355e-02
   192    7.316293014170e-14
   193   -7.520452766847e-04
   194   -3.383787075685e-15
   195   -3.553933002742e-15
   196   -4.349643970713e-03
   197    2.857230518677e-03
   198    1.443661911539e-02
   199    1.798938088240e-02
   200    3.208320868989e-03
   201    3.649484178015e-02
   202   -1.996864174873e-03
   203    2.317919043162e-03
   204    9.382187845637e-15
Sym=X
Ene= 2.001839
Spin=Alpha
Occup=1
     1    6.072496878590e-04
     2    7.951277992953e-04
     3   -1.845977602729e-02
     4    4.005684867350e-03
     5   -7.447180088414e-13
     6   -3.393842561667e-03
     7   -2.940584874965e-02
     8    6.381306322293e-03
     9   -1.261144323369e-12
    10   -2.208999347519e-03
    11   -2.646704341277e-02
    12   -4.271488172882e-03
    13   -1.367119182883e-12
    14   -8.426366111007e-02
    15   -5.189075392107e-02
    16   -2.616774767221e-02
    17   -2.553687977247e-13
    18   -1.026936548969e-03
    19   -3.329270348866e-13
    20   -7.020643782367e-14
    21   -1.034067904496e-03
    22    6.205430561417e-03
    23    1.531524997178e-02
    24    3.201657394957e-02
    25    2.405829327994e-02
    26   -3.192812831851e-02
    27    3.073902177184e-03
    28    2.892056103415e-03
    29    1.080609959366e-13
    30   -1.365205731223e-04
    31   -1.678654145392e-03
    32    2.940243126578e-03
    33   -2.189507069119e-02
    34   -6.240361257523e-04
    35   -8.959722301463e-04
    36   -5.000022020549e-14
    37   -3.447114405618e-03
    38   -2.166210425715e-03
    39   -2.604231496740e-02
    40    6.768999282492e-03
    41    2.244362110359e-03
    42    2.454689346171e-03
    43   -9.486452241958e-14
    44    1.020758519606e-02
    45    1.631584504222e-02
    46   -6.549480459628e-03
    47   -6.869941266307e-03
    48    1.512191005358e-13
    49   -4.603925619820e-02
    50   -8.616947209592e-03
    51   -6.029111443470e-03
    52    3.011496078899e-13
    53   -2.660796909003e-02
    54   -6.100547112132e-02
    55   -9.631261121477e-02
    56    1.385633355184e-13
    57    8.679554056706e-03
    58   -5.374433692175e-02
    59   -7.790965234751e-02
    60   -1.371542021063e-13
    61    1.659915335522e-03
    62   -1.862240686505e-13
    63   -2.181148299233e-13
    64    5.391617865500e-02
    65    2.894466253966e-02
    66   -6.856150800070e-03
    67   -1.156041344406e-02
    68   -1.176502200842e-01
    69   -1.660350226987e-01
    70    2.320529134134e-13
    71    3.419879907350e-02
    72   -1.815076958554e-01
    73   -2.571637550669e-01
    74    3.572620813891e-13
    75    3.701983264850e-02
    76   -1.596770289710e-01
    77   -2.359240142185e-01
    78    2.860461046120e-13
    79    3.392803169548e-03
    80   -3.318251191410e-03
    81   -1.025733939573e-02
    82    3.735245886222e-14
    83    7.656047331276e-04
    84    1.654854960933e-14
    85   -1.911727783022e-14
    86   -1.287488716869e-02
    87   -5.378610040548e-03
    88    7.560586229549e-03
    89    1.101732139832e-02
    90   -5.881175458882e-02
    91   -9.047053812207e-02
    92   -3.389039317186e-13
    93   -3.165850736446e-02
    94   -9.074159335509e-02
    95   -1.518826562825e-01
    96   -6.530633738127e-13
    97   -2.158740405954e-02
    98   -1.525769789772e-02
    99   -2.815749148156e-02
   100   -2.756758898200e-13
   101   -8.934438711063e-02
   102    1.125528786056e-02
   103    3.129868342074e-02
   104    9.665887779726e-14
   105    5.990718473696e-03
   106    4.367378875575e-13
   107    2.547617700863e-13
   108   -2.601233604744e-02
   109   -5.710674645921e-03
   110    1.230063122561e-03
   111    1.449064622348e-03
   112    8.685660120926e-02
   113    1.920433898248e-01
   114    2.663277957896e-12
   115    1.195657936994e-03
   116    9.910581766708e-02
   117    2.187374594592e-01
   118    3.019620651437e-12
   119    7.543548544915e-02
   120    1.738179787150e-02
   121    1.284861686096e-01
   122    2.171801768710e-12
   123    1.096629958642e-02
   124    3.555783155108e-03
   125    5.804396612752e-03
   126    3.571566066530e-13
   127    7.757277640510e-03
   128   -8.920508684310e-14
   129   -4.551620480224e-14
   130   -4.579682387969e-03
   131   -1.377688718081e-02
   132   -6.634737026500e-03
   133   -1.148367218135e-02
   134   -2.968162534941e-02
   135   -1.699334856146e-02
   136   -1.368892571636e-12
   137    2.934740205990e-02
   138   -3.954762539926e-02
   139   -2.155991819766e-02
   140   -2.231535165636e-12
   141    1.014664049826e-01
   142   -8.515814029423e-02
   143   -2.562785296802e-02
   144   -2.256497826589e-12
   145    1.321476310062e-01
   146    5.933325833522e-03
   147    2.140457229889e-02
   148   -2.423238888833e-13
   149    1.315472673687e-03
   150   -4.818064735318e-14
   151    4.853864030046e-14
   152   -6.754298796100e-03
   153   -6.807337518418e-03
   154    1.181899281654e-02
   155    1.938817462400e-02
   156   -9.761315177115e-03
   157   -4.691860499791e-02
   158    1.073131729546e-12
   159   -5.100682055754e-02
   160   -1.230875444162e-02
   161   -6.711063578305e-02
   162    1.721069327595e-12
   163   -1.349960284891e-01
   164    1.265233638767e-03
   165   -8.667880905695e-02
   166    2.075677068759e-12
   167   -1.440042940705e-01
   168   -2.162968266766e-03
   169    8.347567245421e-03
   170    6.589442254950e-13
   171   -1.920472435422e-03
   172   -4.393650925436e-14
   173    6.640663461109e-14
   174   -5.495545358314e-04
   175   -9.551253360333e-04
   176   -1.253465137827e-02
   177   -2.003879581525e-02
   178   -1.293989602614e-02
   179    6.891761845022e-02
   180   -1.340903572340e-12
   181    4.876393600698e-02
   182   -1.801483369591e-02
   183    1.069370812636e-01
   184   -2.304658996938e-12
   185    7.317734582346e-02
   186   -3.176961087961e-02
   187    7.486319239039e-02
   188   -2.302771518734e-12
   189    2.016208729345e-01
   190   -5.420829837063e-02
   191    8.293606504228e-03
   192   -1.506347193798e-13
   193   -2.065554157140e-03
   194    1.699904706939e-13
   195   -2.215277159228e-14
   196   -7.761599472516e-03
   197   -2.638674881058e-03
   198   -2.844663695791e-02
   199   -4.448742108610e-02
   200    3.939390424286e-04
   201    2.260773516627e-02
   202    4.788913444503e-03
   203   -8.391614446569e-04
   204   -9.842453017851e-14
Sym=X
Ene= 2.001711
Spin=Alpha
Occup=1
     1    4.415037464456e-13
     2    4.642596585875e-13
     3    2.724984888585e-13
     4   -1.286793108730e-13
     5   -7.281804241315e-02
     6   -4.908041321717e-13
     7    4.331557125219e-13
     8   -1.948044226923e-13
     9   -1.243405404146e-01
    10    1.025504884931e-13
    11    1.789329866191e-13
    12    1.111985863235e-13
    13   -1.283801928920e-01
    14   -1.241092225606e-12
    15   -8.086841424916e-14
    16    3.677304240497e-13
    17   -1.797016212387e-02
    18    3.066579599906e-14
    19   -2.904646893712e-02
    20   -6.919763096281e-03
    21   -6.177549985885e-14
    22   -3.666831670411e-14
    23   -2.509933054484e-13
    24   -6.979773741895e-13
    25   -3.173672630212e-13
    26   -1.305714946758e-13
    27   -7.070922495488e-14
    28   -3.048336075111e-14
    29    8.733331348909e-03
    30    1.833655228530e-15
    31    8.409621536857e-14
    32    5.667079005916e-14
    33    3.412852151754e-13
    34    7.403206932958e-15
    35   -1.182024291539e-14
    36   -5.515102444153e-03
    37    1.570645612273e-13
    38    4.263872867537e-13
    39   -2.922366107782e-13
    40    4.767977425082e-13
    41   -3.123293414010e-14
    42   -6.724330457910e-14
    43   -8.382267775565e-03
    44   -6.137051213694e-13
    45   -6.687981219939e-13
    46    2.470528900519e-13
    47    2.263932225870e-14
    48    1.486967900872e-02
    49    8.820607462164e-13
    50    3.788171480348e-13
    51   -4.498809407867e-14
    52    2.938119939414e-02
    53    5.330202246348e-13
    54    9.811717640316e-13
    55    1.458837711562e-12
    56    1.872265949286e-02
    57    6.123554908814e-13
    58    4.934033160931e-13
    59    1.752988611223e-13
    60   -1.647204160922e-02
    61   -4.303581506044e-14
    62   -1.852264699674e-02
    63   -1.602992687953e-02
    64   -6.774234423700e-13
    65   -3.117685046453e-13
    66    3.476177187271e-14
    67    8.003914543450e-14
    68    1.339751224831e-12
    69    2.087008504697e-12
    70    2.338477401481e-02
    71   -3.122245750266e-13
    72    2.097808051861e-12
    73    3.258169177968e-12
    74    3.686216983816e-02
    75   -2.569181599041e-13
    76    1.785732678951e-12
    77    2.815178121844e-12
    78    2.909791771276e-02
    79   -2.788095658861e-13
    80    1.520087196961e-14
    81    4.349870187661e-13
    82    6.731316290161e-03
    83   -6.185156372035e-15
    84    2.216951416798e-03
    85   -1.918787978311e-03
    86    1.546987323403e-13
    87    7.392676752319e-14
    88   -2.712726132523e-13
    89   -3.335136622214e-13
    90    6.999813864826e-13
    91    7.814346074253e-13
    92   -3.044784430170e-02
    93    6.843203283037e-13
    94    1.102832279850e-12
    95    1.336633797806e-12
    96   -5.757548948969e-02
    97   -6.617766612742e-14
    98    3.088868655155e-13
    99    2.910008571994e-13
   100   -2.465193341883e-02
   101    2.122154670460e-12
   102    1.508756426113e-12
   103   -1.582458946938e-12
   104    1.230427053994e-02
   105   -6.447096145655e-14
   106    3.952776969743e-02
   107    2.414080905717e-02
   108    2.082605741744e-13
   109    1.042293336625e-13
   110   -2.066867854936e-14
   111   -2.572900494595e-14
   112   -1.142238277630e-12
   113   -1.844495497163e-12
   114    2.383757515010e-01
   115    5.453430218709e-15
   116   -1.297096269194e-12
   117   -2.115075985522e-12
   118    2.700119090244e-01
   119   -8.290293802141e-13
   120   -2.648842749908e-13
   121   -1.246630405766e-12
   122    1.903203852648e-01
   123   -2.977246497575e-13
   124   -3.425337320117e-13
   125   -1.340694884830e-13
   126    3.086452656964e-02
   127   -8.531634677306e-14
   128   -8.029795042708e-03
   129   -4.109689934476e-03
   130    5.224404707794e-14
   131    1.518591019842e-13
   132    4.499804901447e-13
   133    3.942817388381e-13
   134    1.505031621757e-13
   135    2.752391859548e-13
   136   -1.166649492509e-01
   137   -6.338613890039e-14
   138    1.314218652259e-13
   139    3.961970729207e-13
   140   -1.895810038333e-01
   141   -1.328247108916e-12
   142    8.742907036237e-13
   143   -4.019573769305e-15
   144   -1.989938517489e-01