[Molden Format]
[Atoms] (Angs)
  C      1    6     -0.00714236     -1.70213747     -0.00000000
  H      2    1     -2.06882847     -1.44022412      0.00000000
  H      3    1     -0.12337987     -2.77567521      0.00000000
  H      4    1      0.04651892      1.98813947     -0.00000000
  C      5    6     -1.21953563      0.40211669      0.00000000
  O      6    8     -2.25921553      1.03043814      0.00000000
  C      7    6      1.28797806      0.34644937     -0.00000000
  O      8    8      2.31273661      1.00537216     -0.00000000
  N      9    7      0.03446295      0.97739857     -0.00000000
  N     10    7     -1.17287765     -0.98229824      0.00000000
  C     11    6      1.20107039     -1.10433419     -0.00000000
  H     12    1      2.11220096     -1.67699125     -0.00000000
[GTO]
1    0
S    6    1.000000
   4.56324000E+03    1.96665000E-03 
   6.82024000E+02    1.52306000E-02 
   1.54973000E+02    7.61269000E-02 
   4.44553000E+01    2.60801000E-01 
   1.30290000E+01    6.16462000E-01 
   1.82773000E+00    2.21006000E-01 
SP   3    1.000000
   2.09642000E+01    1.14660000E-01   4.02487000E-02 
   4.80331000E+00    9.19999000E-01   2.37594000E-01 
   1.45933000E+00   -3.03068000E-03   8.15854000E-01 
SP   1    1.000000
   4.83456000E-01    1.00000000E+00   1.00000000E+00 
SP   1    1.000000
   1.45585000E-01    1.00000000E+00   1.00000000E+00 
SP   1    1.000000
   4.38000000E-02    1.00000000E+00   1.00000000E+00 
D    1    1.000000
   6.26000000E-01    1.00000000E+00 

2    0
S    3    1.000000
   3.38650000E+01    2.54938000E-02 
   5.09479000E+00    1.90373000E-01 
   1.15879000E+00    8.52161000E-01 
S    1    1.000000
   3.25840000E-01    1.00000000E+00 
S    1    1.000000
   1.02741000E-01    1.00000000E+00 
S    1    1.000000
   3.60000000E-02    1.00000000E+00 
P    1    1.000000
   7.50000000E-01    1.00000000E+00 

3    0
S    3    1.000000
   3.38650000E+01    2.54938000E-02 
   5.09479000E+00    1.90373000E-01 
   1.15879000E+00    8.52161000E-01 
S    1    1.000000
   3.25840000E-01    1.00000000E+00 
S    1    1.000000
   1.02741000E-01    1.00000000E+00 
S    1    1.000000
   3.60000000E-02    1.00000000E+00 
P    1    1.000000
   7.50000000E-01    1.00000000E+00 

4    0
S    3    1.000000
   3.38650000E+01    2.54938000E-02 
   5.09479000E+00    1.90373000E-01 
   1.15879000E+00    8.52161000E-01 
S    1    1.000000
   3.25840000E-01    1.00000000E+00 
S    1    1.000000
   1.02741000E-01    1.00000000E+00 
S    1    1.000000
   3.60000000E-02    1.00000000E+00 
P    1    1.000000
   7.50000000E-01    1.00000000E+00 

5    0
S    6    1.000000
   4.56324000E+03    1.96665000E-03 
   6.82024000E+02    1.52306000E-02 
   1.54973000E+02    7.61269000E-02 
   4.44553000E+01    2.60801000E-01 
   1.30290000E+01    6.16462000E-01 
   1.82773000E+00    2.21006000E-01 
SP   3    1.000000
   2.09642000E+01    1.14660000E-01   4.02487000E-02 
   4.80331000E+00    9.19999000E-01   2.37594000E-01 
   1.45933000E+00   -3.03068000E-03   8.15854000E-01 
SP   1    1.000000
   4.83456000E-01    1.00000000E+00   1.00000000E+00 
SP   1    1.000000
   1.45585000E-01    1.00000000E+00   1.00000000E+00 
SP   1    1.000000
   4.38000000E-02    1.00000000E+00   1.00000000E+00 
D    1    1.000000
   6.26000000E-01    1.00000000E+00 

6    0
S    6    1.000000
   8.58850000E+03    1.89515000E-03 
   1.29723000E+03    1.43859000E-02 
   2.99296000E+02    7.07320000E-02 
   8.73771000E+01    2.40001000E-01 
   2.56789000E+01    5.94797000E-01 
   3.74004000E+00    2.80802000E-01 
SP   3    1.000000
   4.21175000E+01    1.13889000E-01   3.65114000E-02 
   9.62837000E+00    9.20811000E-01   2.37153000E-01 
   2.85332000E+00   -3.27447000E-03   8.19702000E-01 
SP   1    1.000000
   9.05661000E-01    1.00000000E+00   1.00000000E+00 
SP   1    1.000000
   2.55611000E-01    1.00000000E+00   1.00000000E+00 
SP   1    1.000000
   8.45000000E-02    1.00000000E+00   1.00000000E+00 
D    1    1.000000
   1.29200000E+00    1.00000000E+00 

7    0
S    6    1.000000
   4.56324000E+03    1.96665000E-03 
   6.82024000E+02    1.52306000E-02 
   1.54973000E+02    7.61269000E-02 
   4.44553000E+01    2.60801000E-01 
   1.30290000E+01    6.16462000E-01 
   1.82773000E+00    2.21006000E-01 
SP   3    1.000000
   2.09642000E+01    1.14660000E-01   4.02487000E-02 
   4.80331000E+00    9.19999000E-01   2.37594000E-01 
   1.45933000E+00   -3.03068000E-03   8.15854000E-01 
SP   1    1.000000
   4.83456000E-01    1.00000000E+00   1.00000000E+00 
SP   1    1.000000
   1.45585000E-01    1.00000000E+00   1.00000000E+00 
SP   1    1.000000
   4.38000000E-02    1.00000000E+00   1.00000000E+00 
D    1    1.000000
   6.26000000E-01    1.00000000E+00 

8    0
S    6    1.000000
   8.58850000E+03    1.89515000E-03 
   1.29723000E+03    1.43859000E-02 
   2.99296000E+02    7.07320000E-02 
   8.73771000E+01    2.40001000E-01 
   2.56789000E+01    5.94797000E-01 
   3.74004000E+00    2.80802000E-01 
SP   3    1.000000
   4.21175000E+01    1.13889000E-01   3.65114000E-02 
   9.62837000E+00    9.20811000E-01   2.37153000E-01 
   2.85332000E+00   -3.27447000E-03   8.19702000E-01 
SP   1    1.000000
   9.05661000E-01    1.00000000E+00   1.00000000E+00 
SP   1    1.000000
   2.55611000E-01    1.00000000E+00   1.00000000E+00 
SP   1    1.000000
   8.45000000E-02    1.00000000E+00   1.00000000E+00 
D    1    1.000000
   1.29200000E+00    1.00000000E+00 

9    0
S    6    1.000000
   6.29348000E+03    1.96979000E-03 
   9.49044000E+02    1.49613000E-02 
   2.18776000E+02    7.35006000E-02 
   6.36916000E+01    2.48937000E-01 
   1.88282000E+01    6.02460000E-01 
   2.72023000E+00    2.56202000E-01 
SP   3    1.000000
   3.06331000E+01    1.11906000E-01   3.83119000E-02 
   7.02614000E+00    9.21666000E-01   2.37403000E-01 
   2.11205000E+00   -2.56919000E-03   8.17592000E-01 
SP   1    1.000000
   6.84009000E-01    1.00000000E+00   1.00000000E+00 
SP   1    1.000000
   2.00878000E-01    1.00000000E+00   1.00000000E+00 
SP   1    1.000000
   6.39000000E-02    1.00000000E+00   1.00000000E+00 
D    1    1.000000
   9.13000000E-01    1.00000000E+00 

10    0
S    6    1.000000
   6.29348000E+03    1.96979000E-03 
   9.49044000E+02    1.49613000E-02 
   2.18776000E+02    7.35006000E-02 
   6.36916000E+01    2.48937000E-01 
   1.88282000E+01    6.02460000E-01 
   2.72023000E+00    2.56202000E-01 
SP   3    1.000000
   3.06331000E+01    1.11906000E-01   3.83119000E-02 
   7.02614000E+00    9.21666000E-01   2.37403000E-01 
   2.11205000E+00   -2.56919000E-03   8.17592000E-01 
SP   1    1.000000
   6.84009000E-01    1.00000000E+00   1.00000000E+00 
SP   1    1.000000
   2.00878000E-01    1.00000000E+00   1.00000000E+00 
SP   1    1.000000
   6.39000000E-02    1.00000000E+00   1.00000000E+00 
D    1    1.000000
   9.13000000E-01    1.00000000E+00 

11    0
S    6    1.000000
   4.56324000E+03    1.96665000E-03 
   6.82024000E+02    1.52306000E-02 
   1.54973000E+02    7.61269000E-02 
   4.44553000E+01    2.60801000E-01 
   1.30290000E+01    6.16462000E-01 
   1.82773000E+00    2.21006000E-01 
SP   3    1.000000
   2.09642000E+01    1.14660000E-01   4.02487000E-02 
   4.80331000E+00    9.19999000E-01   2.37594000E-01 
   1.45933000E+00   -3.03068000E-03   8.15854000E-01 
SP   1    1.000000
   4.83456000E-01    1.00000000E+00   1.00000000E+00 
SP   1    1.000000
   1.45585000E-01    1.00000000E+00   1.00000000E+00 
SP   1    1.000000
   4.38000000E-02    1.00000000E+00   1.00000000E+00 
D    1    1.000000
   6.26000000E-01    1.00000000E+00 

12    0
S    3    1.000000
   3.38650000E+01    2.54938000E-02 
   5.09479000E+00    1.90373000E-01 
   1.15879000E+00    8.52161000E-01 
S    1    1.000000
   3.25840000E-01    1.00000000E+00 
S    1    1.000000
   1.02741000E-01    1.00000000E+00 
S    1    1.000000
   3.60000000E-02    1.00000000E+00 
P    1    1.000000
   7.50000000E-01    1.00000000E+00 

[MO]
Sym=X
Ene= 2.007898
Spin=Alpha
Occup=1
     1   -2.060009860851e-15
     2    1.084082586822e-15
     3    7.509750641285e-15
     4   -3.092453728703e-14
     5   -3.739664601406e-02
     6   -1.858206819424e-14
     7   -3.402482149501e-15
     8   -2.784516255638e-14
     9   -6.499210537903e-02
    10    4.316152211262e-13
    11   -1.025514778065e-13
    12    1.066624923354e-13
    13   -3.717655740890e-02
    14   -6.045970221633e-12
    15   -1.701252050359e-12
    16   -8.544877086668e-13
    17   -3.064675612584e-03
    18   -6.237653803774e-15
    19    1.249002197058e-02
    20   -7.304917708992e-03
    21   -2.237601922067e-14
    22    1.041156312039e-17
    23   -3.877158998595e-14
    24   -2.663520750979e-13
    25    1.115714123364e-13
    26   -4.791466402623e-13
    27   -1.714920963130e-14
    28   -6.090455729125e-15
    29   -8.864372288371e-03
    30    3.591374274447e-14
    31    5.273156390826e-14
    32    5.239696932725e-14
    33   -1.894919790894e-13
    34    1.575971827311e-17
    35   -3.746907706683e-15
    36   -2.922931889171e-03
    37    1.426102239932e-15
    38    2.003307401045e-13
    39   -5.014708808096e-13
    40    3.275915423832e-13
    41    5.019745205635e-15
    42   -9.799081360931e-15
    43    8.549706701729e-03
    44   -5.852510697103e-14
    45   -6.297577409123e-14
    46   -2.599424447285e-15
    47    3.612119818650e-14
    48   -2.395725397496e-02
    49    7.111490125574e-14
    50   -1.908589666263e-14
    51    3.328064471635e-14
    52   -4.202304447123e-02
    53    2.882163944556e-14
    54    1.562404171026e-13
    55    3.358937153681e-13
    56   -2.896318533951e-02
    57    1.276707206443e-12
    58   -1.903501301926e-15
    59   -7.279520842561e-13
    60   -1.032505406302e-02
    61   -3.594807122134e-15
    62    1.818541965743e-02
    63    1.398834356562e-02
    64   -1.126897731276e-15
    65   -1.189631777715e-14
    66   -2.159959321317e-14
    67   -3.109447770996e-14
    68    2.416705745753e-14
    69   -1.686200607818e-14
    70   -3.989832742438e-02
    71    7.446870474718e-14
    72    5.594317406874e-14
    73    3.988465111573e-15
    74   -6.272542208053e-02
    75    1.076136375493e-13
    76   -4.081921343304e-14
    77   -1.313148254988e-13
    78   -5.545927771047e-02
    79   -3.276034561540e-13
    80   -3.269134498212e-14
    81    2.741918232790e-13
    82    1.667137852038e-03
    83   -3.493747934758e-15
    84   -4.012363059274e-03
    85    2.744062437929e-03
    86    2.308833238146e-15
    87   -3.257166479703e-15
    88    6.513482969627e-14
    89    7.010026716853e-14
    90    2.349508134849e-14
    91   -5.726337178173e-14
    92    1.130532514862e-01
    93   -7.974604960576e-14
    94    4.984513222627e-14
    95   -9.466870256251e-14
    96    2.000465793208e-01
    97   -4.182489413684e-13
    98    1.692626350581e-14
    99    1.627468747564e-13
   100    1.113535312401e-01
   101   -1.488763568317e-12
   102    1.436727056211e-12
   103   -2.764267019855e-13
   104    3.667879472451e-02
   105    1.265499392759e-14
   106    1.358962172319e-02
   107    2.553180786216e-02
   108   -4.398283865881e-14
   109    9.766911606982e-15
   110    1.029346988879e-14
   111    1.507921466819e-14
   112   -4.335172269016e-14
   113    1.671228086664e-13
   114    2.470068843941e-01
   115   -5.381493354061e-14
   116   -3.814425909060e-14
   117    1.767950205954e-13
   118    2.889852648369e-01
   119    1.020340142803e-14
   120    6.667091403509e-15
   121    5.696814638375e-14
   122    1.773831331452e-01
   123   -6.384892764128e-14
   124   -1.959650365008e-13
   125   -1.632420670703e-13
   126   -1.332702893317e-02
   127    3.657925216494e-15
   128   -2.044866937400e-02
   129   -1.255807016732e-02
   130    1.350569291907e-15
   131   -6.209376115703e-15
   132    1.992569596659e-14
   133    3.150726832818e-14
   134   -6.555206386615e-14
   135    2.861640317431e-14
   136    1.077276534516e-01
   137   -8.310180040185e-14
   138   -1.216234955032e-13
   139    7.590207947195e-14
   140    1.782784010567e-01
   141   -3.149926158804e-13
   142   -6.061461651726e-14
   143   -3.224669073761e-13
   144    1.698696652156e-01
   145    1.478096871079e-12
   146    4.175920928968e-13
   147    4.929210730728e-13
   148    7.016993821490e-04
   149    7.696638067554e-15
   150    9.780398347354e-03
   151   -5.287507498823e-03
   152    3.128660857304e-15
   153    7.563754970988e-15
   154    2.348927127924e-14
   155    4.827047408202e-14
   156    9.988589048475e-15
   157    1.948100716345e-14
   158   -1.046779053021e-01
   159   -1.590900560447e-13
   160    6.152296126271e-14
   161    2.121855439025e-14
   162   -1.726530048231e-01
   163    5.787946943909e-14
   164   -4.602801583840e-13
   165    5.051390645833e-14
   166   -1.646370782478e-01
   167   -7.467781026104e-13
   168    3.041424216434e-14
   169    3.429827475759e-13
   170   -7.460496079693e-03
   171   -2.920518331421e-15
   172   -4.455645359688e-03
   173   -1.583346579471e-03
   174    3.205096173202e-15
   175    3.262271684752e-15
   176    1.389519117216e-13
   177    1.081419435520e-13
   178    1.952943299473e-14
   179    3.314701159712e-14
   180    8.948370199993e-03
   181    3.741773916430e-14
   182    2.696763271420e-14
   183    6.445784414305e-14
   184    1.728257062348e-02
   185    5.230780529241e-14
   186   -7.604527146392e-15
   187    1.204101211189e-13
   188    1.711133310533e-03
   189    6.084893914877e-12
   190   -2.456305663468e-12
   191   -8.705196179996e-13
   192   -1.303271479915e-02
   193   -1.131344338214e-15
   194    4.066984360238e-03
   195    1.213591815417e-02
   196   -4.655632829803e-15
   197    1.155108245374e-14
   198    2.279933053308e-15
   199    9.270312614454e-15
   200    1.542704363699e-13
   201    3.068889798588e-13
   202    9.309904148097e-16
   203    2.535441666316e-15
   204    1.231314676984e-03
Sym=X
Ene= 2.002635
Spin=Alpha
Occup=1
     1   -1.010661128661e-02
     2   -1.710611805994e-02
     3    2.698265127414e-02
     4    2.514548120082e-02
     5   -1.224316679945e-13
     6    4.704361213747e-02
     7    4.430062910444e-02
     8    4.189504626673e-02
     9   -2.156141316379e-13
    10    7.441650249283e-02
    11    3.158201483877e-02
    12    6.011788978741e-02
    13   -2.013119750262e-13
    14    2.220287742518e-01
    15    5.827627678658e-02
    16    4.280459763129e-02
    17    2.360593582114e-14
    18   -1.261791887601e-03
    19   -5.024336733206e-14
    20   -1.678186933534e-14
    21    8.745987789821e-03
    22   -2.053725618540e-05
    23    1.881920480619e-03
    24    6.713003152403e-03
    25    8.430561970754e-06
    26   -1.421252188041e-02
    27    5.034547718483e-04
    28    2.425629883908e-04
    29    1.011997723616e-14
    30   -1.744226937897e-02
    31   -2.390440541273e-02
    32   -1.014190265687e-02
    33    1.429519887017e-02
    34    1.390779932770e-03
    35    1.883697162838e-04
    36   -1.404443526063e-14
    37   -4.250170099638e-03
    38   -1.778767451641e-02
    39   -1.146576979058e-02
    40    4.980937248631e-02
    41    2.756557181798e-03
    42    6.477223635007e-04
    43   -7.356352469573e-15
    44    1.405807684137e-02
    45    2.329181657724e-02
    46   -3.591952608072e-02
    47   -1.630106726720e-02
    48   -2.801780167258e-14
    49   -6.492643870130e-02
    50   -6.054357472850e-02
    51   -2.582065881008e-02
    52   -6.026853617915e-14
    53   -6.666358556303e-02
    54   -5.378957825395e-02
    55   -1.830888954339e-02
    56    4.235058882998e-14
    57   -4.287965660266e-02
    58   -2.712824871226e-02
    59   -4.331111372180e-02
    60   -3.168747263544e-14
    61    1.946576779053e-03
    62   -1.882513947996e-14
    63   -2.076718776843e-14
    64    1.480291306854e-02
    65   -3.527595527267e-03
    66   -4.227391688968e-03
    67   -7.106803627848e-03
    68   -2.134551652476e-02
    69   -5.005402893189e-02
    70   -6.757974500608e-14
    71    2.059915703368e-02
    72   -3.466858226453e-02
    73   -7.666885310403e-02
    74   -8.105769089472e-14
    75    1.309418853560e-02
    76   -2.725759373448e-02
    77   -6.367960034185e-02
    78   -4.704085458724e-14
    79   -1.744015558303e-02
    80   -6.089475285197e-03
    81   -7.972763493252e-04
    82    8.592924979285e-15
    83   -1.409229090241e-04
    84   -2.527246159804e-15
    85    5.191779208565e-15
    86   -4.532773081246e-03
    87   -2.634095424066e-03
    88    1.007329025777e-02
    89    1.730544809875e-02
    90   -4.807451171657e-02
    91    4.341982149434e-02
    92   -9.159775986785e-15
    93   -5.118498990884e-02
    94   -8.209065302567e-02
    95    8.199484962223e-02
    96   -2.495324344695e-14
    97   -6.927305697159e-02
    98    6.312912383053e-03
    99   -1.463553426103e-02
   100    5.799093580661e-14
   101    2.016238645942e-01
   102    1.899576639317e-02
   103   -1.113605137888e-01
   104    5.005292115072e-14
   105    1.681917480971e-04
   106    6.427760774936e-14
   107    5.678668585275e-14
   108    5.471917367454e-02
   109   -3.479194636242e-02
   110    3.777048697155e-03
   111    5.262828167060e-03
   112    2.237598748812e-01
   113   -2.629929605020e-01
   114    4.973947451480e-13
   115   -1.382108653908e-02
   116    2.562186898161e-01
   117   -3.014577430883e-01
   118    5.397653481414e-13
   119    1.838409962072e-02
   120    1.678482086304e-01
   121   -2.239984664683e-01
   122    3.047560800610e-13
   123    2.679969661944e-02
   124   -7.734447416540e-03
   125   -6.081391718942e-03
   126    4.605577761512e-14
   127    2.472092218061e-03
   128   -2.249066103475e-14
   129   -8.295012705348e-15
   130   -1.234160917783e-02
   131    1.432242682370e-03
   132   -2.340806740589e-02
   133   -3.861005564894e-02
   134    8.261811680354e-02
   135   -2.755576577903e-02
   136   -1.506273156915e-13
   137    1.034443834395e-01
   138    1.301766787118e-01
   139   -3.506472084523e-02
   140   -2.406917612339e-13
   141    1.844949435671e-01
   142    9.575119302246e-02
   143   -5.389022775062e-02
   144   -2.756838845668e-13
   145    1.383007827234e-01
   146   -5.464584015377e-02
   147   -2.976291829793e-02
   148   -4.551718329496e-14
   149    1.010192801323e-03
   150    4.029469782587e-15
   151    7.574181340715e-15
   152    9.137230339339e-05
   153   -4.374066893138e-03
   154    2.042162059772e-03
   155    3.392904556408e-03
   156    5.875960318098e-04
   157   -8.643119653802e-03
   158    1.054010213902e-13
   159   -9.001782968326e-03
   160    1.836591980634e-03
   161   -1.162099821048e-02
   162    1.639651898170e-13
   163   -2.363123182835e-02
   164   -2.147403326567e-03
   165   -1.021988946776e-02
   166    1.732876046750e-13
   167   -6.144157176326e-02
   168   -9.922768941070e-03
   169   -3.226818611185e-02
   170    4.024546766741e-14
   171   -2.948597685613e-04
   172   -1.193497502302e-14
   173   -3.184413715802e-15
   174    2.958862964703e-03
   175   -8.314011144261e-04
   176    1.895457185502e-02
   177    3.079830615961e-02
   178   -4.031615793291e-02
   179   -6.008306789742e-02
   180   -1.819644876125e-13
   181   -7.724546706607e-02
   182   -6.408438679013e-02
   183   -8.570269760039e-02
   184   -3.014330114951e-13
   185   -1.561071111208e-01
   186   -1.069217137766e-03
   187   -8.155415623395e-02
   188   -3.281108011899e-13
   189   -4.445688148680e-01
   190    7.335844755572e-02
   191   -3.213424167402e-02
   192   -7.430832056038e-14
   193    1.122318361604e-03
   194    6.590804645455e-15
   195    2.575128085491e-15
   196    4.949947434517e-03
   197   -2.427084820254e-03
   198   -1.511897764920e-02
   199   -1.874763897943e-02
   200   -2.218851554421e-03
   201   -3.267070761954e-02
   202    2.016922083010e-03
   203   -2.574809596385e-03
   204   -1.102869321790e-14
Sym=X
Ene= 2.002039
Spin=Alpha
Occup=1
     1   -3.924299940768e-13
     2   -4.264457893297e-13
     3    7.081831636394e-14
     4   -1.493006707490e-14
     5    6.605389499658e-02
     6    5.437687975310e-13
     7    1.173128217409e-13
     8   -3.587934154666e-14
     9    1.127580263899e-01
    10   -6.218351934829e-14
    11    3.203366588752e-13
    12   -1.316096280988e-13
    13    1.201748005284e-01
    14    2.029415579218e-12
    15    9.270441476025e-13
    16   -1.035440529976e-13
    17    1.672575446091e-02
    18   -8.377061558164e-15
    19    2.795221815354e-02
    20    6.300253498718e-03
    21    5.988068328133e-14
    22   -7.252108318574e-14
    23   -6.231593386627e-14
    24    5.910413909301e-14
    25   -1.256768282320e-13
    26    7.461259281570e-13
    27    8.797267291379e-15
    28   -2.479070033812e-14
    29   -9.242685045317e-03
    30    6.016443011457e-14
    31    3.498462800125e-14
    32   -1.079568718090e-13
    33   -3.145619371970e-14
    34    4.484488617368e-15
    35    3.388606739719e-14
    36    4.948461648237e-03
    37   -3.851105537548e-14
    38   -3.006100300743e-13
    39    7.590749947490e-13
    40   -6.300266087222e-13
    41   -1.691518677776e-14
    42    5.607018556367e-15
    43    8.874458617300e-03
    44    3.440004200811e-13
    45    2.681937479582e-13
    46   -1.083471848716e-13
    47    1.507842538137e-13
    48   -1.340149943971e-02
    49    1.478633049113e-13
    50   -1.902166396648e-13
    51    2.247961903365e-13
    52   -2.676301898824e-02
    53    6.763079904618e-14
    54    2.237494459739e-13
    55    4.120486606122e-13
    56   -1.660061900148e-02
    57   -5.566137037763e-13
    58    6.021875851040e-13
    59    1.305227585500e-12
    60    1.640412842386e-02
    61    3.791022690601e-15
    62    2.010489754408e-02
    63    1.664300414890e-02
    64   -3.730791908680e-13
    65   -2.463351448127e-13
    66    7.242622881439e-14
    67    1.067227586420e-13
    68    9.879901108758e-13
    69    1.166388240642e-12
    70   -2.517861803178e-02
    71   -2.668967980134e-13
    72    1.494986638566e-12
    73    1.779504563344e-12
    74   -3.956617420895e-02
    75   -4.191765104172e-13
    76    1.355518855074e-12
    77    1.818331619092e-12
    78   -3.235800966175e-02
    79    1.863605887503e-13
    80    4.047764121569e-14
    81   -2.306816578177e-13
    82   -8.123229082972e-03
    83   -1.089975895410e-14
    84   -2.210945434659e-03
    85    1.956828203887e-03
    86    1.022603251828e-13
    87    2.781049112279e-14
    88   -2.085180524681e-14
    89   -1.299294083455e-14
    90    4.717456327229e-13
    91    9.088707956458e-13
    92    2.861117996291e-02
    93   -2.198788496329e-15
    94    7.015412579852e-13
    95    1.498201709368e-12
    96    5.402798538969e-02
    97    5.147515954198e-13
    98    8.579790331550e-15
    99    2.183105259599e-13
   100    2.397182313863e-02
   101   -6.583612448203e-13
   102   -1.644817755648e-12
   103    1.003349180158e-12
   104   -1.157550612124e-02
   105   -5.061065269186e-14
   106   -4.101110548313e-02
   107   -2.304664676745e-02
   108    2.774636306142e-13
   109    2.242289651596e-14
   110   -4.396361196584e-14
   111   -6.271071755888e-14
   112   -5.751877883107e-13
   113   -1.785885362646e-12
   114   -2.448106593858e-01
   115    1.767272421731e-13
   116   -6.668269923846e-13
   117   -2.022747199944e-12
   118   -2.773495306617e-01
   119   -5.379212592363e-13
   120   -1.055064173785e-13
   121   -1.153802402564e-12
   122   -1.949186639985e-01
   123    7.397105063464e-14
   124    2.760177504892e-13
   125    3.472752415147e-14
   126   -3.136389640166e-02
   127   -6.796715443199e-14
   128    8.070562213804e-03
   129    4.886284061521e-03
   130    3.273990789130e-14
   131    1.151278970426e-13
   132   -2.713437180149e-13
   133   -1.442872164396e-13
   134    3.539153638059e-13
   135    1.022704447648e-13
   136    1.243668330656e-01
   137   -4.272670346438e-13
   138    5.204693797678e-13
   139    9.200546394671e-14
   140    2.022488444007e-01
   141   -6.270954703503e-13
   142    7.116872692772e-13
   143    5.655617032137e-13
   144    2.121877446174e-01
   145   -3.005419916414e-12
   146   -3.841713929412e-13
   147   -6.593188694686e-13
   148    1.904455168367e-02
   149   -3.506183047867e-15
   150    3.891306223624e-03
   151   -4.807636589733e-03
   152    5.753496535696e-14
   153    4.207812182547e-14
   154    1.709701718960e-14
   155   -9.581706231378e-14
   156    1.516619548587e-13
   157    1.346446592141e-13
   158   -9.136006121379e-02
   159    6.066697503960e-13
   160    1.686454809644e-13
   161    1.704049624479e-13
   162   -1.482653152118e-01
   163    9.331085863474e-13
   164    5.972063270648e-13
   165    4.176548368337e-13
   166   -1.794042373921e-01
   167    2.066651042745e-12
   168    3.060182833629e-13
   169   -1.386161182283e-13
   170   -5.255434111276e-02
   171    1.631771675020e-14
   172    4.403808719506e-03
   173   -5.258276061133e-03
   174    2.014937519961e-14
   175   -1.980638299645e-14
   176    3.921384890125e-13
   177    4.042725127270e-13
   178    1.163777698529e-13
   179   -7.627910311915e-13
   180    1.161847843233e-01
   181   -3.939816483529e-13
   182    1.231061117252e-13
   183   -1.201614882258e-12
   184    1.987878950197e-01
   185   -6.003500380838e-13
   186    4.582754749280e-13
   187   -8.341225932798e-13
   188    2.012567530202e-01
   189   -3.102940867560e-13
   190    1.958246846287e-12
   191    1.268454679177e-12
   192    1.685541583721e-02
   193    2.338069600233e-14
   194   -1.537702418676e-02
   195    2.842141070272e-03
   196    1.072783226775e-13
   197    1.297629521037e-14
   198    3.264188671375e-13
   199    5.372035336845e-13
   200   -4.003122383701e-13
   201   -2.254528209554e-13
   202   -6.263635060200e-14
   203    8.717013375464e-15
   204    8.454879419273e-03
Sym=X
Ene= 2.001855
Spin=Alpha
Occup=1
     1   -4.466116917025e-04
     2   -7.022926955554e-04
     3    1.825341090906e-02
     4   -1.109159193047e-02
     5   -5.968146246922e-13
     6    3.569625137852e-03
     7    2.904999620356e-02
     8   -1.774471757120e-02
     9   -1.028852285255e-12
    10    2.894672054617e-03
    11    2.437423634392e-02
    12   -5.712452740186e-03
    13   -1.029582344521e-12
    14    4.040714708168e-02
    15    4.605298328441e-02
    16    9.360754771778e-03
    17   -8.428894374505e-14
    18    1.240432765259e-03
    19   -2.156860152059e-13
    20   -5.675641750654e-14
    21   -1.161137762856e-03
    22   -5.114634577206e-03
    23   -1.754268474625e-02
    24   -3.588345347842e-02
    25   -2.523044325861e-02
    26    3.193365866675e-02
    27   -3.571908955884e-03
    28   -2.750260184925e-03
    29    6.445626932706e-14
    30    6.686255504562e-03
    31    1.167484947893e-02
    32   -2.429570570732e-03
    33    1.267818552480e-02
    34    6.443959727581e-04
    35    1.517901969954e-03
    36   -5.045830871732e-14
    37    5.086525947219e-03
    38    5.654518290632e-03
    39    2.562662684876e-02
    40   -1.030114927080e-02
    41   -2.509934526780e-03
    42   -2.524552984289e-03
    43   -7.099027619682e-14
    44   -1.227126637755e-02
    45   -1.997517225859e-02
    46    5.385116926714e-03
    47    5.800640004405e-03
    48    1.222445039786e-13
    49    5.748438285129e-02
    50    6.563508625140e-03
    51    4.233885902691e-03
    52    2.428298860783e-13
    53    3.991484469071e-02
    54    6.363321894273e-02
    55    9.745199001586e-02
    56    2.004779048142e-13
    57    1.261900506304e-02
    58    5.965456507839e-02
    59    7.677644484493e-02
    60   -1.791610262103e-13
    61   -1.953248410720e-03
    62   -1.831268226629e-13
    63   -9.626217216660e-14
    64   -5.604079167612e-02
    65   -2.933995613322e-02
    66    7.862160548859e-03
    67    1.327641283258e-02
    68    1.227396583247e-01
    69    1.681074403568e-01
    70    2.349755515008e-13
    71   -3.914040607849e-02
    72    1.893484662723e-01
    73    2.603207449667e-01
    74    3.766606491080e-13
    75   -4.528867997170e-02
    76    1.644182062005e-01
    77    2.404492523145e-01
    78    3.007036252133e-13
    79   -6.479568507668e-03
    80    2.772010936420e-03
    81    1.159337027457e-02
    82    1.026521824646e-13
    83   -8.583872908194e-04
    84    2.588529739998e-14
    85   -1.835807432022e-14
    86    1.329294109448e-02
    87    4.998734174754e-03
    88   -9.378024521423e-03
    89   -1.391172907004e-02
    90    6.432583619781e-02
    91    8.455371914415e-02
    92   -2.350984908899e-13
    93    3.962506881326e-02
    94    9.931384560798e-02
    95    1.411094862935e-01
    96   -4.306486693394e-13
    97    2.628624888659e-02
    98    1.614022304290e-02
    99    2.523518521199e-02
   100   -2.017960706867e-13
   101    4.520986870323e-02
   102   -4.579704888111e-03
   103   -1.995050458298e-02
   104    1.294726193291e-13
   105   -5.894879463362e-03
   106    3.351568408018e-13
   107    1.984675254545e-13
   108    2.194275342140e-02
   109    8.796255907073e-03
   110   -4.546198481087e-03
   111   -6.247985601622e-03
   112   -1.010842152767e-01
   113   -1.745184609603e-01
   114    1.962123324434e-12
   115    1.488367930530e-02
   116   -1.156018940965e-01
   117   -1.989071100652e-01
   118    2.222353201779e-12
   119   -6.941125836326e-02
   120   -2.825152959469e-02
   121   -1.123959870426e-01
   122    1.522138998773e-12
   123   -1.229060083071e-02
   124   -3.750196595138e-03
   125   -5.099128046893e-03
   126    2.428717571489e-13
   127   -8.178196049148e-03
   128   -6.463437911519e-14
   129   -3.964593973576e-14
   130    4.795517436079e-03
   131    1.387646908959e-02
   132    9.888752875753e-03
   133    1.682452286830e-02
   134    2.419315108595e-02
   135    2.196230010000e-02
   136   -9.441978455068e-13
   137   -4.353762160892e-02
   138    3.061043693166e-02
   139    2.892839077822e-02
   140   -1.528367653862e-12
   141   -1.209954660689e-01
   142    8.033869377439e-02
   143    3.385325817746e-02
   144   -1.688047220923e-12