[Molden Format]
[Atoms] (Angs)
  C      1    6     -0.00714236     -1.70213747     -0.00000000
  H      2    1     -2.06882847     -1.44022412      0.00000000
  H      3    1     -0.12337987     -2.77567521      0.00000000
  H      4    1      0.04651892      1.98813947     -0.00000000
  C      5    6     -1.21953563      0.40211669      0.00000000
  O      6    8     -2.25921553      1.03043814      0.00000000
  C      7    6      1.28797806      0.34644937     -0.00000000
  O      8    8      2.31273661      1.00537216     -0.00000000
  N      9    7      0.03446295      0.97739857     -0.00000000
  N     10    7     -1.17287765     -0.98229824      0.00000000
  C     11    6      1.20107039     -1.10433419     -0.00000000
  H     12    1      2.11220096     -1.67699125     -0.00000000
[GTO]
1    0
S    6    1.000000
   4.56324000E+03    1.96665000E-03 
   6.82024000E+02    1.52306000E-02 
   1.54973000E+02    7.61269000E-02 
   4.44553000E+01    2.60801000E-01 
   1.30290000E+01    6.16462000E-01 
   1.82773000E+00    2.21006000E-01 
SP   3    1.000000
   2.09642000E+01    1.14660000E-01   4.02487000E-02 
   4.80331000E+00    9.19999000E-01   2.37594000E-01 
   1.45933000E+00   -3.03068000E-03   8.15854000E-01 
SP   1    1.000000
   4.83456000E-01    1.00000000E+00   1.00000000E+00 
SP   1    1.000000
   1.45585000E-01    1.00000000E+00   1.00000000E+00 
SP   1    1.000000
   4.38000000E-02    1.00000000E+00   1.00000000E+00 
D    1    1.000000
   6.26000000E-01    1.00000000E+00 

2    0
S    3    1.000000
   3.38650000E+01    2.54938000E-02 
   5.09479000E+00    1.90373000E-01 
   1.15879000E+00    8.52161000E-01 
S    1    1.000000
   3.25840000E-01    1.00000000E+00 
S    1    1.000000
   1.02741000E-01    1.00000000E+00 
S    1    1.000000
   3.60000000E-02    1.00000000E+00 
P    1    1.000000
   7.50000000E-01    1.00000000E+00 

3    0
S    3    1.000000
   3.38650000E+01    2.54938000E-02 
   5.09479000E+00    1.90373000E-01 
   1.15879000E+00    8.52161000E-01 
S    1    1.000000
   3.25840000E-01    1.00000000E+00 
S    1    1.000000
   1.02741000E-01    1.00000000E+00 
S    1    1.000000
   3.60000000E-02    1.00000000E+00 
P    1    1.000000
   7.50000000E-01    1.00000000E+00 

4    0
S    3    1.000000
   3.38650000E+01    2.54938000E-02 
   5.09479000E+00    1.90373000E-01 
   1.15879000E+00    8.52161000E-01 
S    1    1.000000
   3.25840000E-01    1.00000000E+00 
S    1    1.000000
   1.02741000E-01    1.00000000E+00 
S    1    1.000000
   3.60000000E-02    1.00000000E+00 
P    1    1.000000
   7.50000000E-01    1.00000000E+00 

5    0
S    6    1.000000
   4.56324000E+03    1.96665000E-03 
   6.82024000E+02    1.52306000E-02 
   1.54973000E+02    7.61269000E-02 
   4.44553000E+01    2.60801000E-01 
   1.30290000E+01    6.16462000E-01 
   1.82773000E+00    2.21006000E-01 
SP   3    1.000000
   2.09642000E+01    1.14660000E-01   4.02487000E-02 
   4.80331000E+00    9.19999000E-01   2.37594000E-01 
   1.45933000E+00   -3.03068000E-03   8.15854000E-01 
SP   1    1.000000
   4.83456000E-01    1.00000000E+00   1.00000000E+00 
SP   1    1.000000
   1.45585000E-01    1.00000000E+00   1.00000000E+00 
SP   1    1.000000
   4.38000000E-02    1.00000000E+00   1.00000000E+00 
D    1    1.000000
   6.26000000E-01    1.00000000E+00 

6    0
S    6    1.000000
   8.58850000E+03    1.89515000E-03 
   1.29723000E+03    1.43859000E-02 
   2.99296000E+02    7.07320000E-02 
   8.73771000E+01    2.40001000E-01 
   2.56789000E+01    5.94797000E-01 
   3.74004000E+00    2.80802000E-01 
SP   3    1.000000
   4.21175000E+01    1.13889000E-01   3.65114000E-02 
   9.62837000E+00    9.20811000E-01   2.37153000E-01 
   2.85332000E+00   -3.27447000E-03   8.19702000E-01 
SP   1    1.000000
   9.05661000E-01    1.00000000E+00   1.00000000E+00 
SP   1    1.000000
   2.55611000E-01    1.00000000E+00   1.00000000E+00 
SP   1    1.000000
   8.45000000E-02    1.00000000E+00   1.00000000E+00 
D    1    1.000000
   1.29200000E+00    1.00000000E+00 

7    0
S    6    1.000000
   4.56324000E+03    1.96665000E-03 
   6.82024000E+02    1.52306000E-02 
   1.54973000E+02    7.61269000E-02 
   4.44553000E+01    2.60801000E-01 
   1.30290000E+01    6.16462000E-01 
   1.82773000E+00    2.21006000E-01 
SP   3    1.000000
   2.09642000E+01    1.14660000E-01   4.02487000E-02 
   4.80331000E+00    9.19999000E-01   2.37594000E-01 
   1.45933000E+00   -3.03068000E-03   8.15854000E-01 
SP   1    1.000000
   4.83456000E-01    1.00000000E+00   1.00000000E+00 
SP   1    1.000000
   1.45585000E-01    1.00000000E+00   1.00000000E+00 
SP   1    1.000000
   4.38000000E-02    1.00000000E+00   1.00000000E+00 
D    1    1.000000
   6.26000000E-01    1.00000000E+00 

8    0
S    6    1.000000
   8.58850000E+03    1.89515000E-03 
   1.29723000E+03    1.43859000E-02 
   2.99296000E+02    7.07320000E-02 
   8.73771000E+01    2.40001000E-01 
   2.56789000E+01    5.94797000E-01 
   3.74004000E+00    2.80802000E-01 
SP   3    1.000000
   4.21175000E+01    1.13889000E-01   3.65114000E-02 
   9.62837000E+00    9.20811000E-01   2.37153000E-01 
   2.85332000E+00   -3.27447000E-03   8.19702000E-01 
SP   1    1.000000
   9.05661000E-01    1.00000000E+00   1.00000000E+00 
SP   1    1.000000
   2.55611000E-01    1.00000000E+00   1.00000000E+00 
SP   1    1.000000
   8.45000000E-02    1.00000000E+00   1.00000000E+00 
D    1    1.000000
   1.29200000E+00    1.00000000E+00 

9    0
S    6    1.000000
   6.29348000E+03    1.96979000E-03 
   9.49044000E+02    1.49613000E-02 
   2.18776000E+02    7.35006000E-02 
   6.36916000E+01    2.48937000E-01 
   1.88282000E+01    6.02460000E-01 
   2.72023000E+00    2.56202000E-01 
SP   3    1.000000
   3.06331000E+01    1.11906000E-01   3.83119000E-02 
   7.02614000E+00    9.21666000E-01   2.37403000E-01 
   2.11205000E+00   -2.56919000E-03   8.17592000E-01 
SP   1    1.000000
   6.84009000E-01    1.00000000E+00   1.00000000E+00 
SP   1    1.000000
   2.00878000E-01    1.00000000E+00   1.00000000E+00 
SP   1    1.000000
   6.39000000E-02    1.00000000E+00   1.00000000E+00 
D    1    1.000000
   9.13000000E-01    1.00000000E+00 

10    0
S    6    1.000000
   6.29348000E+03    1.96979000E-03 
   9.49044000E+02    1.49613000E-02 
   2.18776000E+02    7.35006000E-02 
   6.36916000E+01    2.48937000E-01 
   1.88282000E+01    6.02460000E-01 
   2.72023000E+00    2.56202000E-01 
SP   3    1.000000
   3.06331000E+01    1.11906000E-01   3.83119000E-02 
   7.02614000E+00    9.21666000E-01   2.37403000E-01 
   2.11205000E+00   -2.56919000E-03   8.17592000E-01 
SP   1    1.000000
   6.84009000E-01    1.00000000E+00   1.00000000E+00 
SP   1    1.000000
   2.00878000E-01    1.00000000E+00   1.00000000E+00 
SP   1    1.000000
   6.39000000E-02    1.00000000E+00   1.00000000E+00 
D    1    1.000000
   9.13000000E-01    1.00000000E+00 

11    0
S    6    1.000000
   4.56324000E+03    1.96665000E-03 
   6.82024000E+02    1.52306000E-02 
   1.54973000E+02    7.61269000E-02 
   4.44553000E+01    2.60801000E-01 
   1.30290000E+01    6.16462000E-01 
   1.82773000E+00    2.21006000E-01 
SP   3    1.000000
   2.09642000E+01    1.14660000E-01   4.02487000E-02 
   4.80331000E+00    9.19999000E-01   2.37594000E-01 
   1.45933000E+00   -3.03068000E-03   8.15854000E-01 
SP   1    1.000000
   4.83456000E-01    1.00000000E+00   1.00000000E+00 
SP   1    1.000000
   1.45585000E-01    1.00000000E+00   1.00000000E+00 
SP   1    1.000000
   4.38000000E-02    1.00000000E+00   1.00000000E+00 
D    1    1.000000
   6.26000000E-01    1.00000000E+00 

12    0
S    3    1.000000
   3.38650000E+01    2.54938000E-02 
   5.09479000E+00    1.90373000E-01 
   1.15879000E+00    8.52161000E-01 
S    1    1.000000
   3.25840000E-01    1.00000000E+00 
S    1    1.000000
   1.02741000E-01    1.00000000E+00 
S    1    1.000000
   3.60000000E-02    1.00000000E+00 
P    1    1.000000
   7.50000000E-01    1.00000000E+00 

[MO]
Sym=X
Ene= 2.006078
Spin=Alpha
Occup=1
     1    2.908451001768e-15
     2   -1.894169320337e-14
     3    4.385725425512e-14
     4    2.247643533788e-14
     5    8.686718289791e-02
     6    6.645874308332e-14
     7    1.042013555640e-13
     8   -9.349607745092e-15
     9    1.501983989614e-01
    10   -1.972605861647e-13
    11   -2.535378296139e-14
    12   -8.901536879075e-14
    13    1.298273837521e-01
    14    2.857238030112e-12
    15    7.413755272841e-13
    16    5.948771747161e-13
    17    1.499921366269e-02
    18   -8.318601407938e-17
    19    1.281135947200e-02
    20    1.060097366482e-02
    21    8.535477595419e-15
    22    1.586498364491e-14
    23   -3.185032756118e-14
    24    2.811655257139e-13
    25   -1.889303815070e-13
    26   -5.129716603619e-14
    27    1.731879853137e-14
    28    5.803597123424e-15
    29   -5.180145090791e-04
    30    6.281444184843e-15
    31   -1.113895869606e-14
    32   -1.036277071191e-13
    33    1.011014471392e-13
    34    6.652082890676e-15
    35   -1.368436450242e-15
    36    6.429231017297e-03
    37   -2.244747810777e-14
    38   -3.467037182500e-13
    39   -1.205293906257e-13
    40    4.959775367060e-14
    41   -6.035801608698e-15
    42    2.816685464667e-14
    43   -5.517950510363e-03
    44   -3.933657504814e-15
    45   -8.723700297192e-15
    46    9.814264085639e-15
    47   -5.465082569009e-15
    48   -1.038516995686e-01
    49    3.368493761776e-14
    50    1.257699463223e-14
    51    7.675597644489e-15
    52   -1.834584316741e-01
    53    2.227836614535e-13
    54   -4.600871040014e-13
    55   -6.869507726162e-13
    56   -1.033748437826e-01
    57   -2.325682580986e-13
    58   -9.354252929840e-14
    59    2.540368742273e-14
    60   -2.162240004607e-02
    61   -4.552983429731e-15
    62    1.916677591025e-02
    63   -2.051706679791e-02
    64    8.069947202966e-15
    65    1.700439165443e-15
    66   -1.006202138421e-14
    67   -1.553372162589e-14
    68   -7.601775448601e-14
    69   -9.865029075635e-14
    70   -2.417925757159e-01
    71    5.899777102106e-14
    72   -8.760505638695e-14
    73   -1.154544444985e-13
    74   -2.822969063352e-01
    75   -1.551087432121e-14
    76   -2.100150266595e-14
    77    2.771208344098e-14
    78   -1.738470982126e-01
    79   -2.070595955572e-13
    80   -3.726720524307e-14
    81    9.613612615597e-14
    82    8.774999191113e-03
    83    5.438223373387e-16
    84   -1.921784759937e-02
    85    1.174653725094e-02
    86   -4.342398842274e-15
    87   -1.426259203170e-15
    88   -4.658250253324e-15
    89    1.144818884522e-14
    90    2.733009522127e-14
    91   -5.504238616857e-14
    92    5.137885042610e-02
    93   -1.179884145672e-13
    94    6.726996627800e-15
    95   -6.651290033666e-14
    96    9.043097275852e-02
    97    3.872328507673e-13
    98   -2.514634568769e-13
    99   -4.011826059799e-13
   100    6.316029780992e-02
   101   -1.864772323294e-12
   102    3.988414972861e-13
   103    4.379056668296e-13
   104    1.449819035805e-02
   105   -3.119916770816e-15
   106    1.290518091105e-02
   107   -8.022847356714e-03
   108    7.103989595663e-16
   109    2.150972596209e-14
   110    2.279181124332e-14
   111    1.397576135092e-14
   112    3.185132936248e-14
   113   -5.169015308297e-15
   114    5.569697341703e-02
   115    3.490337207521e-14
   116    6.592276651220e-14
   117   -1.737274397471e-14
   118    8.872985449015e-02
   119    8.941311448847e-14
   120    2.653062924809e-14
   121   -5.758560384508e-14
   122    7.228283277454e-02
   123    3.153649905929e-13
   124   -1.809222188534e-13
   125   -5.951950878553e-14
   126   -9.310007224925e-03
   127    1.495143481252e-15
   128   -6.882283626350e-03
   129   -4.627080585083e-03
   130   -5.305447330339e-15
   131   -3.462453467091e-15
   132   -5.357929646589e-14
   133   -2.225628663380e-14
   134   -5.264867363156e-14
   135   -2.721462135942e-14
   136   -6.268048557292e-02
   137   -1.638400843526e-13
   138   -8.628323491165e-14
   139   -9.948289750838e-14
   140   -1.051487057339e-01
   141    3.901149403523e-13
   142   -3.092891878070e-13
   143    5.740596709654e-13
   144   -9.853687116146e-02
   145    8.244573474559e-13
   146   -2.401190658909e-13
   147   -1.522739591508e-13
   148   -3.792448516228e-03
   149    1.213506677496e-15
   150    1.203713395781e-02
   151    2.034952277822e-03
   152   -1.249296816272e-14
   153    6.222794757668e-15
   154    1.842981690351e-14
   155    2.664879181372e-14
   156    8.992415880806e-15
   157    9.449068011487e-15
   158    3.218576667700e-03
   159   -2.403172860545e-14
   160   -3.212391767975e-14
   161    1.304159311707e-14
   162    4.570717584561e-03
   163   -5.397107922722e-13
   164    6.153418061382e-13
   165   -8.489212987745e-14
   166   -9.610600537446e-04
   167   -4.861755878751e-13
   168   -4.481729617711e-13
   169   -2.874756817499e-13
   170   -6.174537581632e-03
   171    9.498840917846e-15
   172    7.412919088493e-03
   173   -1.169173145743e-02
   174   -8.264576844010e-15
   175   -7.982678156263e-15
   176    1.900048266200e-13
   177    1.244063017407e-13
   178   -3.365283017966e-14
   179   -2.293252483035e-14
   180    9.802305477650e-02
   181    1.864171113734e-13
   182   -4.960168217572e-14
   183   -4.061872344965e-14
   184    1.706294197576e-01
   185   -2.773403491617e-13
   186   -1.045545591030e-13
   187   -1.871210404204e-13
   188    1.446732488516e-01
   189   -9.383556269837e-13
   190    3.437174027254e-13
   191    6.333680168154e-13
   192    2.453588801039e-03
   193   -1.038376961502e-14
   194   -1.578660802331e-02
   195    9.850593634500e-04
   196    5.432853158813e-15
   197   -7.067368328373e-17
   198    2.349307680173e-14
   199    3.344900806178e-14
   200    8.561889752915e-14
   201   -7.018408566292e-14
   202   -6.185578218521e-15
   203   -1.895334519706e-15
   204    8.030932794156e-03
Sym=X
Ene= 2.003787
Spin=Alpha
Occup=1
     1    7.844227050811e-03
     2    1.312831756167e-02
     3    1.040575086022e-02
     4   -2.691532223612e-02
     5    3.978929534274e-14
     6   -3.556913456094e-02
     7    1.755697468822e-02
     8   -4.459930509780e-02
     9    9.907475536159e-14
    10   -4.267739327350e-02
    11   -8.376962854950e-03
    12   -4.324167607238e-02
    13    3.061376781205e-14
    14   -1.040137669317e-01
    15   -3.060991225352e-03
    16   -9.052413034519e-03
    17    1.161618411529e-13
    18    1.898585592500e-03
    19    2.298859511834e-15
    20    8.414916274831e-15
    21   -1.085662122884e-02
    22    4.602466257522e-03
    23    2.437672152424e-03
    24   -1.144641233921e-02
    25   -2.889231283993e-02
    26    2.696977954134e-02
    27   -6.155272700040e-04
    28    5.336331580430e-04
    29   -8.608636713569e-15
    30    1.993135012808e-02
    31    3.303666436420e-02
    32    1.599133503504e-02
    33    4.344732909355e-03
    34    5.435882598354e-04
    35    4.446229888908e-04
    36    5.490464082241e-15
    37    1.554531241568e-03
    38    1.656574238108e-02
    39    3.189273348954e-02
    40   -4.630709315654e-02
    41    1.275004735276e-03
    42   -1.142243887803e-03
    43    1.008161219609e-14
    44   -8.745513586313e-03
    45   -1.452548081294e-02
    46   -4.086609317649e-02
    47   -1.324502869713e-02
    48   -1.239122854764e-14
    49    4.312297456660e-02
    50   -6.894116085365e-02
    51   -2.855543579981e-02
    52   -2.801497227433e-14
    53    4.997696120258e-02
    54    3.730620533370e-02
    55    6.196131861699e-02
    56    3.974171963540e-14
    57    3.998584042603e-02
    58    6.238498660576e-02
    59    7.941398381294e-02
    60   -1.262954695663e-13
    61   -2.138889948396e-03
    62    1.634286901023e-14
    63   -4.477121054238e-15
    64   -5.481272075896e-02
    65   -3.262752236814e-02
    66   -3.623905172356e-03
    67   -5.118995402760e-03
    68    2.188505682480e-01
    69    2.556777191262e-01
    70   -1.271658643352e-13
    71    1.497409777619e-02
    72    2.515444161667e-01
    73    2.931982670406e-01
    74   -1.321930919501e-13
    75   -2.065961603407e-02
    76    1.546435336564e-01
    77    2.122918345031e-01
    78   -1.203368307988e-13
    79   -2.185274639969e-02
    80   -5.403484060437e-03
    81    4.106877693487e-03
    82    5.382870079545e-14
    83   -2.654137799626e-03
    84   -8.545661650159e-15
    85   -2.168151668781e-15
    86    1.463562128086e-02
    87    1.545160149709e-03
    88   -1.489394582549e-02
    89   -2.497382750425e-02
    90   -3.105039028454e-02
    91   -9.968330824006e-04
    92    3.441793271942e-14
    93    6.813940874559e-02
    94   -5.165988209756e-02
    95   -3.296008627526e-03
    96    4.202195925462e-14
    97    6.853630531495e-02
    98   -4.868911583569e-02
    99    8.026560501117e-03
   100    1.038478682381e-13
   101   -1.523902713064e-01
   102   -4.449626686839e-03
   103    9.086605209566e-02
   104    2.252381163501e-13
   105   -1.685736688629e-03
   106   -9.431382275759e-15
   107   -3.903983273013e-15
   108   -2.910347647215e-02
   109    5.801904872148e-03
   110    3.596235730297e-03
   111    6.104643269419e-03
   112   -5.102067798965e-02
   113    9.816767251909e-02
   114    1.432206152888e-14
   115   -1.842521969982e-02
   116   -7.966136494082e-02
   117    1.510634975958e-01
   118   -1.170638363048e-14
   119   -1.129787672852e-02
   120   -7.375345344659e-02
   121    1.362938627778e-01
   122    5.609468055267e-14
   123    2.708805182630e-02
   124   -1.245800903307e-02
   125    1.794351438230e-03
   126   -1.357328843724e-13
   127    2.593280080015e-04
   128    2.872950126465e-15
   129   -9.966511092318e-15
   130    6.756044855698e-03
   131   -4.030141762610e-03
   132    2.457633313450e-02
   133    4.067614290587e-02
   134    5.176933260117e-02
   135    2.397174591126e-02
   136    7.718361268903e-14
   137   -1.079737901205e-01
   138    7.642951722791e-02
   139    2.709016364443e-02
   140    1.360710532170e-13
   141   -2.084909688904e-01
   142    7.167809219692e-02
   143    4.536635930498e-02
   144    9.464368195532e-14
   145   -1.788036265572e-01
   146   -6.908505254226e-03
   147    2.347405720889e-03
   148   -3.424941558684e-14
   149   -1.360731772314e-03
   150    3.596474464516e-15
   151    2.166626606498e-15
   152    8.924401144562e-04
   153   -3.753365712457e-03
   154   -1.286974465039e-02
   155   -2.109706148719e-02
   156   -2.423543955115e-02
   157    5.721991194106e-02
   158    7.952025100469e-15
   159    5.573864738532e-02
   160   -4.205945849545e-02
   161    8.201801218488e-02
   162    1.563260617519e-14
   163    1.081596259996e-01
   164   -3.607123129518e-02
   165    8.853944805808e-02
   166   -3.285052926350e-14
   167    1.138741354958e-01
   168   -7.839143102370e-03
   169    5.005451037478e-03
   170    1.067304193349e-14
   171    7.650892025185e-04
   172    5.895762842941e-15
   173   -1.489360194913e-15
   174   -2.118038697758e-03
   175   -1.188734992657e-03
   176   -4.942139375922e-03
   177   -8.168476475710e-03
   178    1.435750879215e-03
   179    3.028881114432e-02
   180    5.478991169749e-14
   181    2.117714221245e-02
   182    3.556595531250e-03
   183    4.368242836400e-02
   184    7.094895675496e-14
   185    5.867237795181e-02
   186   -1.393787721017e-02
   187    3.667048158673e-02
   188    1.080381332496e-13
   189    2.525412137872e-01
   190   -3.088983701244e-02
   191    3.506404926918e-02
   192   -1.908127880808e-13
   193    1.520491095427e-04
   194   -4.923835195952e-16
   195   -3.597016276093e-16
   196   -5.271226020170e-03
   197    4.904705122751e-04
   198   -8.768557035924e-03
   199   -1.517028726286e-02
   200   -4.219186220925e-03
   201    1.152657310979e-02
   202    1.414834816117e-03
   203   -4.317095443291e-05
   204    3.471668824863e-15
Sym=X
Ene= 2.001611
Spin=Alpha
Occup=1
     1    5.927590502310e-03
     2    9.445630222041e-03
     3    2.737579762250e-02
     4   -6.688696700783e-03
     5    1.516923337744e-12
     6   -2.484907374661e-02
     7    4.802987356053e-02
     8   -1.070762912220e-02
     9    2.600506672032e-12
    10    3.492164628502e-03
    11    2.918998279036e-02
    12    1.150758828489e-02
    13    1.786161609124e-12
    14    2.879058831815e-01
    15    7.987677859746e-02
    16    9.865319417524e-02
    17    4.188882288210e-13
    18    1.401975261347e-03
    19   -1.049104844153e-13
    20    2.573688657539e-13
    21   -1.075642754812e-03
    22   -1.214694845732e-03
    23   -7.157368995904e-03
    24   -1.067910781976e-02
    25   -2.124436938651e-02
    26   -1.612698628847e-03
    27   -1.878555895743e-03
    28    1.353863565598e-03
    29    1.593039900853e-13
    30   -1.538652634324e-03
    31    2.293394272403e-03
    32    4.938464269897e-03
    33    4.942138281867e-02
    34    1.054382903994e-03
    35    1.655117698763e-04
    36    1.231680381562e-13
    37   -1.037927166649e-02
    38   -1.074041330480e-02
    39    6.965677450443e-03
    40    1.675714802976e-02
    41   -2.211418981381e-03
    42    1.453512218361e-03
    43    2.053766361654e-14
    44    2.019188985022e-02
    45    3.146354429730e-02
    46    7.469214288287e-02
    47   -7.569165914184e-02
    48    7.335742277673e-13
    49   -8.869907665439e-02
    50    1.144135140589e-01
    51   -1.252958324891e-01
    52    1.282428244798e-12
    53   -7.627365291240e-02
    54    1.795465843769e-02
    55    8.398079317260e-03
    56    5.584914044126e-13
    57   -1.956636333477e-02
    58    8.545157359849e-03
    59    2.802136877075e-02
    60    2.150034467660e-13
    61    6.361166113628e-03
    62    9.081054726360e-14
    63   -2.828050494896e-13
    64   -3.611638414784e-02
    65    6.163309949083e-03
    66    4.439921905654e-03
    67    5.921297719975e-03
    68   -9.447651847832e-02
    69    2.404775105460e-01
    70   -3.329577152146e-13
    71   -1.044837424184e-02
    72   -1.069074595644e-01
    73    2.745536273707e-01
    74   -3.356052870045e-13
    75    7.789831120100e-02
    76   -1.864499821408e-02
    77    1.598933895191e-01
    78   -3.630311894305e-13
    79    2.203639010434e-02
    80   -1.279959485261e-03
    81   -2.175977749088e-03
    82   -2.262825334054e-13
    83    9.591866227648e-03
    84    4.537245315819e-14
    85   -2.951174943915e-14
    86   -2.702730831474e-03
    87    1.738259282225e-02
    88    1.392447541368e-02
    89    2.319980234999e-02
    90   -3.441475320989e-03
    91   -8.114476359450e-04
    92   -1.096557436221e-12
    93   -6.616280298349e-02
    94   -7.537802070582e-03
    95    6.632045859233e-03
    96   -1.936933957597e-12
    97   -7.860952359745e-02
    98    3.599711850560e-02
    99   -5.869430969770e-02
   100   -1.399015976521e-12
   101    1.980071883409e-01
   102    4.239044703270e-02
   103   -1.043278714187e-01
   104   -1.055306905594e-13
   105    2.152625158974e-03
   106   -5.172604241360e-13
   107   -4.119475660189e-13
   108    4.454964996759e-02
   109   -2.432999206432e-02
   110   -9.600029065636e-03
   111   -1.627637983580e-02
   112    1.186599976790e-01
   113   -1.316952721799e-01
   114   -2.495469326957e-12
   115    4.938089248114e-02
   116    1.817249527137e-01
   117   -2.042262541874e-01
   118   -3.929369707396e-12
   119    6.438469295386e-02
   120    1.573609063954e-01
   121   -1.960783030993e-01
   122   -3.548722700681e-12
   123    1.854292132339e-02
   124   -6.111051344390e-03
   125   -1.084488613373e-02
   126   -4.400650499541e-13
   127    1.529235060472e-03
   128    2.290038283280e-13
   129    1.445123529099e-13
   130   -1.082871270562e-02
   131    2.464099603896e-03
   132   -7.535939296698e-03
   133   -1.328735563363e-02
   134    2.623164031852e-02
   135   -2.553718592763e-02
   136    3.771904368347e-13
   137    3.793300013090e-02
   138    3.554910724661e-02
   139   -3.868792696840e-02
   140    5.690949155929e-13
   141    9.293933678254e-02
   142    7.513953079488e-02
   143   -4.970683994833e-02
   144    8.028537309772e-13
   145    9.292448431762e-02
   146   -2.019666857726e-02
   147   -3.923439699947e-02
   148    6.371446075458e-14
   149    1.049539573143e-03
   150   -1.255268251513e-13
   151   -1.411027912995e-14
   152   -3.492241339023e-03
   153    7.217697423493e-03
   154   -1.328339406563e-02
   155   -2.164799391997e-02
   156   -6.766263332094e-03
   157    6.332966187286e-02
   158    2.196558946450e-12
   159    5.582417309165e-02
   160   -1.188130441441e-02
   161    9.643645298041e-02
   162    3.625756169111e-12
   163    9.163499702519e-02
   164   -7.133771463207e-03
   165    8.344011058312e-02
   166    3.217255710425e-12
   167    5.933754616952e-03
   168   -1.559025240681e-02
   169   -4.344442142292e-02
   170   -2.226727320452e-13
   171   -2.779577967113e-04
   172    1.451046202306e-13
   173    3.674056300923e-14
   174   -3.576310125864e-03
   175    4.674830456850e-03
   176    6.999975548893e-03
   177    1.137856991380e-02
   178    4.310130804058e-03
   179   -4.364517458847e-02
   180    8.462966308300e-13
   181   -2.868585407022e-02
   182    4.504262982504e-03
   183   -6.119804165469e-02
   184    1.422538837968e-12
   185   -1.147392127994e-01
   186    1.773622045138e-02
   187   -7.507948905137e-02
   188    1.568181814551e-12
   189   -5.446520668784e-01
   190    8.662145271463e-02
   191   -5.665347155871e-02
   192   -1.285760984510e-13
   193   -8.808442057923e-04
   194   -2.434896384252e-13
   195   -1.678445576368e-13
   196   -1.669568605899e-03
   197   -6.171575469179e-04
   198    1.549608119980e-02
   199    2.730181804900e-02
   200   -1.421796525216e-03
   201   -3.477929706295e-02
   202   -2.603514211454e-03
   203    2.238561452397e-03
   204    4.767857923887e-14
Sym=X
Ene= 2.001567
Spin=Alpha
Occup=1
     1    2.767256365766e-13
     2    4.211780265129e-13
     3    3.959710901516e-13
     4   -3.126171000661e-13
     5   -1.007554931267e-01
     6   -1.016456723805e-12
     7    7.238066079398e-13
     8   -4.913766696550e-13
     9   -1.725502629157e-01
    10   -5.382068700680e-14
    11    3.109923624441e-13
    12   -2.842844216395e-14
    13   -1.246786304493e-01
    14   -4.108949771917e-12
    15   -1.554204235710e-12
    16    4.429392303009e-13
    17   -2.258174768740e-02
    18    4.955563673803e-14
    19    4.965549727189e-03
    20   -1.693043861441e-02
    21   -8.252439421016e-14
    22    1.320872259911e-14
    23   -2.672553562059e-13
    24   -5.095193055649e-13
    25    4.529461533239e-13
    26   -3.138018716005e-13
    27   -7.238718243225e-14
    28    5.424013582445e-15
    29   -1.003564380940e-02
    30    4.263195307896e-14
    31    1.027199642089e-13
    32    2.599565866417e-13
    33    4.833859457630e-13
    34    1.332502788243e-14
    35   -1.105975995135e-14
    36   -7.792325081661e-03
    37   -4.475828827232e-14
    38    1.071388092427e-13
    39   -3.722914219975e-13
    40    5.338207552154e-13
    41   -4.102189689426e-14
    42   -2.905505092670e-15
    43   -2.096765962579e-03
    44    5.199929583565e-15
    45    2.017794793958e-13
    46    1.134932781094e-12
    47   -1.142821699224e-12
    48   -5.204707946052e-02
    49   -1.199604717679e-12
    50    1.750998128722e-12
    51   -1.899097418008e-12
    52   -9.062419664846e-02
    53   -1.141905316016e-12
    54    4.798631412690e-13
    55    1.855396053779e-13
    56   -3.952292348198e-02
    57    4.566506890714e-13
    58    2.822756774043e-14
    59   -2.313196565118e-13
    60   -2.207772645979e-02
    61    9.642528703817e-14
    62   -9.101079655612e-03
    63    1.611860706241e-02
    64   -5.520886655798e-13
    65    1.105542308025e-13
    66   -1.999244786197e-14
    67   -3.539286896867e-14
    68   -1.463302804869e-12
    69    3.718605053437e-12
    70    2.054712538768e-02
    71    2.657386679811e-13
    72   -1.645690337201e-12
    73    4.246432546211e-12
    74    2.082912665595e-02
    75    1.438451339297e-12
    76   -3.057042736071e-13
    77    2.440030652544e-12
    78    2.179183464339e-02
    79    4.680454052640e-13
    80    1.495963535354e-14
    81   -1.457733653949e-15
    82    2.007362704336e-02
    83    1.423322071470e-13
    84   -3.291209321425e-03
    85    2.031174816169e-03
    86   -3.796179797299e-14
    87    2.607845822449e-13
    88    4.625571156597e-13
    89    5.614301178777e-13
    90   -2.691990558988e-14
    91   -2.435869599467e-13
    92    6.170431169473e-02
    93   -1.016598230547e-12
    94   -6.337078225527e-14
    95   -2.644047193176e-13
    96    1.075542985082e-01
    97   -1.048977991663e-12
    98    5.485954711810e-13
    99   -9.808246746973e-13
   100    8.550412589504e-02
   101    7.136172748956e-12
   102    1.261780711156e-12
   103   -3.299931746597e-12
   104    1.483927696170e-02
   105    4.270082727519e-14
   106    3.617823316812e-02
   107    2.630570746767e-02
   108    6.447646966193e-13
   109   -3.886184243914e-13
   110    8.702809687125e-14
   111   -3.851460916764e-14
   112    1.928630665355e-12
   113   -1.998631341633e-12
   114    1.595931520093e-01
   115    6.991266183495e-13
   116    2.947594176169e-12
   117   -3.106203339911e-12
   118    2.501945438636e-01
   119    1.007700712251e-12
   120    2.530190233927e-12
   121   -2.959946852275e-12
   122    2.301595474884e-01
   123    4.081768339893e-14
   124   -4.708882001645e-14
   125   -1.045597324329e-13
   126    2.623712785854e-02
   127    2.912446382828e-14
   128   -1.410230801026e-02
   129   -8.632201886409e-03
   130   -1.845623401739e-13
   131    3.310977238004e-14
   132    8.630289890189e-14
   133   -4.278595832874e-14
   134    2.914793088152e-13
   135   -2.521651240688e-13
   136   -4.445081640917e-02
   137    6.299938499691e-13
   138    3.731138229600e-13
   139   -3.684910548986e-13
   140   -7.008433328986e-02
   141    1.279799120525e-12
   142    1.052248891025e-12
   143   -6.491247340983e-13
   144   -8.545322472216e-02