[Molden Format]
[Atoms] (Angs)
  C      1    6     -0.00714236     -1.70213747     -0.00000000
  H      2    1     -2.06882847     -1.44022412      0.00000000
  H      3    1     -0.12337987     -2.77567521      0.00000000
  H      4    1      0.04651892      1.98813947     -0.00000000
  C      5    6     -1.21953563      0.40211669      0.00000000
  O      6    8     -2.25921553      1.03043814      0.00000000
  C      7    6      1.28797806      0.34644937     -0.00000000
  O      8    8      2.31273661      1.00537216     -0.00000000
  N      9    7      0.03446295      0.97739857     -0.00000000
  N     10    7     -1.17287765     -0.98229824      0.00000000
  C     11    6      1.20107039     -1.10433419     -0.00000000
  H     12    1      2.11220096     -1.67699125     -0.00000000
[GTO]
1    0
S    6    1.000000
   4.56324000E+03    1.96665000E-03 
   6.82024000E+02    1.52306000E-02 
   1.54973000E+02    7.61269000E-02 
   4.44553000E+01    2.60801000E-01 
   1.30290000E+01    6.16462000E-01 
   1.82773000E+00    2.21006000E-01 
SP   3    1.000000
   2.09642000E+01    1.14660000E-01   4.02487000E-02 
   4.80331000E+00    9.19999000E-01   2.37594000E-01 
   1.45933000E+00   -3.03068000E-03   8.15854000E-01 
SP   1    1.000000
   4.83456000E-01    1.00000000E+00   1.00000000E+00 
SP   1    1.000000
   1.45585000E-01    1.00000000E+00   1.00000000E+00 
SP   1    1.000000
   4.38000000E-02    1.00000000E+00   1.00000000E+00 
D    1    1.000000
   6.26000000E-01    1.00000000E+00 

2    0
S    3    1.000000
   3.38650000E+01    2.54938000E-02 
   5.09479000E+00    1.90373000E-01 
   1.15879000E+00    8.52161000E-01 
S    1    1.000000
   3.25840000E-01    1.00000000E+00 
S    1    1.000000
   1.02741000E-01    1.00000000E+00 
S    1    1.000000
   3.60000000E-02    1.00000000E+00 
P    1    1.000000
   7.50000000E-01    1.00000000E+00 

3    0
S    3    1.000000
   3.38650000E+01    2.54938000E-02 
   5.09479000E+00    1.90373000E-01 
   1.15879000E+00    8.52161000E-01 
S    1    1.000000
   3.25840000E-01    1.00000000E+00 
S    1    1.000000
   1.02741000E-01    1.00000000E+00 
S    1    1.000000
   3.60000000E-02    1.00000000E+00 
P    1    1.000000
   7.50000000E-01    1.00000000E+00 

4    0
S    3    1.000000
   3.38650000E+01    2.54938000E-02 
   5.09479000E+00    1.90373000E-01 
   1.15879000E+00    8.52161000E-01 
S    1    1.000000
   3.25840000E-01    1.00000000E+00 
S    1    1.000000
   1.02741000E-01    1.00000000E+00 
S    1    1.000000
   3.60000000E-02    1.00000000E+00 
P    1    1.000000
   7.50000000E-01    1.00000000E+00 

5    0
S    6    1.000000
   4.56324000E+03    1.96665000E-03 
   6.82024000E+02    1.52306000E-02 
   1.54973000E+02    7.61269000E-02 
   4.44553000E+01    2.60801000E-01 
   1.30290000E+01    6.16462000E-01 
   1.82773000E+00    2.21006000E-01 
SP   3    1.000000
   2.09642000E+01    1.14660000E-01   4.02487000E-02 
   4.80331000E+00    9.19999000E-01   2.37594000E-01 
   1.45933000E+00   -3.03068000E-03   8.15854000E-01 
SP   1    1.000000
   4.83456000E-01    1.00000000E+00   1.00000000E+00 
SP   1    1.000000
   1.45585000E-01    1.00000000E+00   1.00000000E+00 
SP   1    1.000000
   4.38000000E-02    1.00000000E+00   1.00000000E+00 
D    1    1.000000
   6.26000000E-01    1.00000000E+00 

6    0
S    6    1.000000
   8.58850000E+03    1.89515000E-03 
   1.29723000E+03    1.43859000E-02 
   2.99296000E+02    7.07320000E-02 
   8.73771000E+01    2.40001000E-01 
   2.56789000E+01    5.94797000E-01 
   3.74004000E+00    2.80802000E-01 
SP   3    1.000000
   4.21175000E+01    1.13889000E-01   3.65114000E-02 
   9.62837000E+00    9.20811000E-01   2.37153000E-01 
   2.85332000E+00   -3.27447000E-03   8.19702000E-01 
SP   1    1.000000
   9.05661000E-01    1.00000000E+00   1.00000000E+00 
SP   1    1.000000
   2.55611000E-01    1.00000000E+00   1.00000000E+00 
SP   1    1.000000
   8.45000000E-02    1.00000000E+00   1.00000000E+00 
D    1    1.000000
   1.29200000E+00    1.00000000E+00 

7    0
S    6    1.000000
   4.56324000E+03    1.96665000E-03 
   6.82024000E+02    1.52306000E-02 
   1.54973000E+02    7.61269000E-02 
   4.44553000E+01    2.60801000E-01 
   1.30290000E+01    6.16462000E-01 
   1.82773000E+00    2.21006000E-01 
SP   3    1.000000
   2.09642000E+01    1.14660000E-01   4.02487000E-02 
   4.80331000E+00    9.19999000E-01   2.37594000E-01 
   1.45933000E+00   -3.03068000E-03   8.15854000E-01 
SP   1    1.000000
   4.83456000E-01    1.00000000E+00   1.00000000E+00 
SP   1    1.000000
   1.45585000E-01    1.00000000E+00   1.00000000E+00 
SP   1    1.000000
   4.38000000E-02    1.00000000E+00   1.00000000E+00 
D    1    1.000000
   6.26000000E-01    1.00000000E+00 

8    0
S    6    1.000000
   8.58850000E+03    1.89515000E-03 
   1.29723000E+03    1.43859000E-02 
   2.99296000E+02    7.07320000E-02 
   8.73771000E+01    2.40001000E-01 
   2.56789000E+01    5.94797000E-01 
   3.74004000E+00    2.80802000E-01 
SP   3    1.000000
   4.21175000E+01    1.13889000E-01   3.65114000E-02 
   9.62837000E+00    9.20811000E-01   2.37153000E-01 
   2.85332000E+00   -3.27447000E-03   8.19702000E-01 
SP   1    1.000000
   9.05661000E-01    1.00000000E+00   1.00000000E+00 
SP   1    1.000000
   2.55611000E-01    1.00000000E+00   1.00000000E+00 
SP   1    1.000000
   8.45000000E-02    1.00000000E+00   1.00000000E+00 
D    1    1.000000
   1.29200000E+00    1.00000000E+00 

9    0
S    6    1.000000
   6.29348000E+03    1.96979000E-03 
   9.49044000E+02    1.49613000E-02 
   2.18776000E+02    7.35006000E-02 
   6.36916000E+01    2.48937000E-01 
   1.88282000E+01    6.02460000E-01 
   2.72023000E+00    2.56202000E-01 
SP   3    1.000000
   3.06331000E+01    1.11906000E-01   3.83119000E-02 
   7.02614000E+00    9.21666000E-01   2.37403000E-01 
   2.11205000E+00   -2.56919000E-03   8.17592000E-01 
SP   1    1.000000
   6.84009000E-01    1.00000000E+00   1.00000000E+00 
SP   1    1.000000
   2.00878000E-01    1.00000000E+00   1.00000000E+00 
SP   1    1.000000
   6.39000000E-02    1.00000000E+00   1.00000000E+00 
D    1    1.000000
   9.13000000E-01    1.00000000E+00 

10    0
S    6    1.000000
   6.29348000E+03    1.96979000E-03 
   9.49044000E+02    1.49613000E-02 
   2.18776000E+02    7.35006000E-02 
   6.36916000E+01    2.48937000E-01 
   1.88282000E+01    6.02460000E-01 
   2.72023000E+00    2.56202000E-01 
SP   3    1.000000
   3.06331000E+01    1.11906000E-01   3.83119000E-02 
   7.02614000E+00    9.21666000E-01   2.37403000E-01 
   2.11205000E+00   -2.56919000E-03   8.17592000E-01 
SP   1    1.000000
   6.84009000E-01    1.00000000E+00   1.00000000E+00 
SP   1    1.000000
   2.00878000E-01    1.00000000E+00   1.00000000E+00 
SP   1    1.000000
   6.39000000E-02    1.00000000E+00   1.00000000E+00 
D    1    1.000000
   9.13000000E-01    1.00000000E+00 

11    0
S    6    1.000000
   4.56324000E+03    1.96665000E-03 
   6.82024000E+02    1.52306000E-02 
   1.54973000E+02    7.61269000E-02 
   4.44553000E+01    2.60801000E-01 
   1.30290000E+01    6.16462000E-01 
   1.82773000E+00    2.21006000E-01 
SP   3    1.000000
   2.09642000E+01    1.14660000E-01   4.02487000E-02 
   4.80331000E+00    9.19999000E-01   2.37594000E-01 
   1.45933000E+00   -3.03068000E-03   8.15854000E-01 
SP   1    1.000000
   4.83456000E-01    1.00000000E+00   1.00000000E+00 
SP   1    1.000000
   1.45585000E-01    1.00000000E+00   1.00000000E+00 
SP   1    1.000000
   4.38000000E-02    1.00000000E+00   1.00000000E+00 
D    1    1.000000
   6.26000000E-01    1.00000000E+00 

12    0
S    3    1.000000
   3.38650000E+01    2.54938000E-02 
   5.09479000E+00    1.90373000E-01 
   1.15879000E+00    8.52161000E-01 
S    1    1.000000
   3.25840000E-01    1.00000000E+00 
S    1    1.000000
   1.02741000E-01    1.00000000E+00 
S    1    1.000000
   3.60000000E-02    1.00000000E+00 
P    1    1.000000
   7.50000000E-01    1.00000000E+00 

[MO]
Sym=X
Ene= 2.004066
Spin=Alpha
Occup=1
     1    7.862206733662e-15
     2    4.829014289224e-15
     3   -1.765948182169e-14
     4    4.618093436366e-14
     5    2.305510780039e-02
     6    1.780570736324e-14
     7   -1.491099652082e-14
     8    6.249280219769e-14
     9    4.019530487540e-02
    10   -4.107873173529e-13
    11    1.390824466703e-13
    12   -1.043234846661e-13
    13    1.421080573541e-02
    14    2.224576776067e-12
    15    1.085434148777e-12
    16   -8.857947549098e-15
    17   -3.370618544668e-03
    18    3.156792071153e-15
    19   -1.380149142025e-02
    20    4.614109678550e-03
    21    2.186767721384e-14
    22   -3.929380324280e-15
    23    3.537198851338e-14
    24    2.248976237330e-13
    25   -6.999058530481e-14
    26    3.952157172250e-13
    27    1.448680303403e-14
    28    6.361944773527e-15
    29    9.803174525085e-03
    30   -4.863187980966e-14
    31   -6.210530942237e-14
    32   -1.052290341739e-13
    33   -3.154594316944e-14
    34   -1.281045349364e-15
    35    2.135130679494e-15
    36    1.873120149225e-03
    37    4.264922639632e-14
    38   -1.005999163189e-13
    39    2.958774691932e-13
    40   -2.743784766438e-13
    41   -3.409725031751e-15
    42    4.624925256355e-16
    43   -1.254159834867e-02
    44    8.639574712374e-14
    45    1.044068012235e-13
    46    3.846026496604e-14
    47   -8.350814588607e-14
    48    2.470773464971e-02
    49   -1.802095461358e-13
    50    7.046714178559e-14
    51   -1.107498022467e-13
    52    4.293200128046e-02
    53   -7.100769152384e-14
    54   -1.987095501860e-13
    55   -3.020558298030e-13
    56    3.197527729904e-02
    57   -3.110100642362e-13
    58    1.178427465399e-13
    59    3.396969008510e-13
    60    1.051085580330e-02
    61    7.331879831000e-15
    62   -3.013606292878e-02
    63   -1.321352653484e-02
    64    3.346987297541e-15
    65    2.618348128417e-14
    66    3.767154137649e-14
    67    6.438030200817e-14
    68   -9.952493015330e-14
    69    3.855358243182e-15
    70    6.852913813306e-02
    71   -1.836125056150e-13
    72   -1.673436241862e-13
    73   -1.925056122704e-14
    74    1.070974763354e-01
    75   -1.617817294907e-13
    76   -4.846922785092e-14
    77    8.055965559206e-14
    78    9.962422181669e-02
    79    2.276568105903e-13
    80   -2.360617263651e-15
    81   -2.169566119687e-13
    82    7.889417281085e-03
    83    8.255229699859e-15
    84    5.665261304191e-03
    85   -3.984031038045e-03
    86   -1.011369248805e-14
    87    8.127124626307e-15
    88   -9.781209670477e-14
    89   -1.039811392313e-13
    90   -2.977286926939e-14
    91    4.032712457161e-14
    92   -1.013453925392e-01
    93    1.105939795211e-13
    94   -5.407179143912e-14
    95    8.111931442024e-14
    96   -1.757210594972e-01
    97    3.249158219403e-13
    98    4.412063116151e-14
    99   -1.484960617769e-13
   100   -8.678220823523e-02
   101    4.111191408390e-13
   102   -9.602317395847e-13
   103    1.983044347638e-13
   104   -3.056658106963e-02
   105   -1.247444395000e-14
   106   -3.452730972880e-03
   107   -1.968156061032e-02
   108    7.978490030177e-14
   109   -3.523500625054e-14
   110   -7.105216301423e-15
   111   -9.910407646120e-15
   112    2.167116658610e-13
   113   -4.170505746545e-13
   114   -2.022683528741e-01
   115    3.744905810096e-14
   116    2.419584593274e-13
   117   -4.708409789932e-13
   118   -2.361283123165e-01
   119   -3.337536362526e-14
   120    1.609579861743e-13
   121   -2.897615288529e-13
   122   -1.504912043889e-01
   123    6.549927726638e-14
   124    1.591700314292e-13
   125    1.347939177660e-13
   126    1.603152735623e-02
   127   -2.415745760169e-15
   128    1.553914643791e-02
   129    8.992359422900e-03
   130   -1.294070753997e-14
   131    1.122473824381e-14
   132   -4.060976072109e-14
   133   -8.361437246371e-14
   134    9.831916277408e-14
   135   -1.528698096829e-14
   136   -1.453182988312e-01
   137    2.694449948580e-13
   138    1.698593770407e-13
   139   -4.005745003956e-14
   140   -2.368149222315e-01
   141    5.540204568535e-13
   142    1.153936130375e-13
   143    2.261608010590e-13
   144   -2.443859770566e-01
   145   -1.117309678788e-12
   146   -3.490017512876e-13
   147   -1.919656542053e-13
   148   -2.017580187903e-02
   149   -9.225214482669e-15
   150   -7.114550502649e-03
   151    4.614257208456e-03
   152   -8.891516161704e-15
   153   -6.489366135539e-15
   154   -4.443947995492e-14
   155   -7.350614280605e-14
   156    5.985087024428e-15
   157   -1.142670831961e-14
   158    1.026119109498e-01
   159    2.014451933427e-13
   160   -2.688252932971e-14
   161   -9.477301368031e-15
   162    1.687022536250e-01
   163    2.710335231199e-14
   164    4.189961111987e-13
   165   -4.864982365091e-14
   166    1.667287575058e-01
   167    8.017602091469e-13
   168    1.650053734592e-13
   169   -3.597121542049e-13
   170    1.796582226698e-02
   171   -9.407797184354e-16
   172    2.033100516981e-03
   173    1.822323063156e-03
   174   -1.613242695763e-15
   175   -2.331271519306e-15
   176   -2.697836716150e-13
   177   -2.033751935274e-13
   178   -3.359668929788e-14
   179   -2.798374533468e-14
   180   -2.091794221497e-02
   181   -1.042406234559e-13
   182   -4.672200816371e-14
   183   -4.505214056068e-14
   184   -3.696780848699e-02
   185   -1.888710823709e-13
   186   -5.392126824834e-14
   187   -8.932936662567e-14
   188   -2.681744330393e-02
   189   -2.482074552140e-12
   190    1.176462839465e-12
   191    9.269086995193e-13
   192    1.233611615617e-02
   193    1.571213074789e-15
   194   -1.576718665395e-03
   195   -1.109584121139e-02
   196   -4.178346375961e-15
   197   -1.054825754217e-14
   198   -3.026899997979e-14
   199   -3.269617256405e-14
   200   -5.986645043874e-14
   201    8.077403133508e-14
   202    1.857344976894e-15
   203   -1.923289109237e-15
   204   -1.927936807123e-03
Sym=X
Ene= 2.002381
Spin=Alpha
Occup=1
     1    7.078626574922e-03
     2    1.174131821238e-02
     3   -4.421673201338e-03
     4   -5.689959414364e-03
     5    4.529190546658e-14
     6   -3.108805155709e-02
     7   -1.039425252929e-02
     8   -1.211094035784e-02
     9    8.475058974624e-14
    10   -6.590660499653e-02
    11   -1.679693056301e-02
    12   -3.219056168168e-02
    13    3.962423965248e-14
    14   -2.214057280364e-01
    15   -4.694650611349e-02
    16   -4.343582753772e-02
    17   -4.468766939733e-14
    18    1.143975066216e-03
    19    3.649737396754e-15
    20    1.013786940173e-14
    21   -4.217965493001e-03
    22   -3.478923562751e-04
    23   -1.426343882922e-04
    24   -3.778933365910e-03
    25   -1.016467031072e-02
    26    1.398518015527e-02
    27   -4.752468639240e-04
    28   -6.755671470039e-04
    29    9.717678270844e-15
    30    1.639084387421e-03
    31    5.400455593774e-04
    32    6.207560968489e-03
    33   -1.222200396017e-02
    34   -5.842262828787e-04
    35   -1.694299153245e-03
    36    8.584336771204e-15
    37   -1.507423773412e-02
    38   -8.678310627416e-03
    39    2.590865888967e-02
    40   -5.621953306581e-02
    41   -2.456481695488e-04
    42    1.471956953456e-03
    43   -1.456359093149e-14
    44   -8.911295046481e-03
    45   -1.501613284697e-02
    46    1.584289722444e-02
    47    1.216132524718e-02
    48    9.905083803807e-14
    49    4.352798958299e-02
    50    2.626668131934e-02
    51    1.875207456365e-02
    52    1.847130559177e-13
    53    5.192288799679e-02
    54    4.622237108041e-02
    55    4.100808861751e-02
    56    4.614613902098e-14
    57    3.406330541315e-02
    58    2.924057185459e-02
    59    5.738486871326e-02
    60    3.741691159812e-14
    61   -9.580624339577e-04
    62   -4.531573153421e-14
    63   -3.652900861365e-15
    64   -1.941855336525e-02
    65   -6.731459801189e-03
    66    1.814072269536e-03
    67    3.099200107577e-03
    68    4.173343880284e-02
    69    6.423539236327e-02
    70    2.269438097479e-13
    71   -9.414890404170e-03
    72    6.511583935181e-02
    73    9.933915838701e-02
    74    3.281884101230e-13
    75   -1.252859868607e-02
    76    5.303552072358e-02
    77    8.892749826850e-02
    78    2.737511309623e-13
    79    5.067382103313e-03
    80    6.990255315811e-03
    81    4.780527567870e-03
    82    1.565527376618e-14
    83   -2.607697330932e-04
    84    1.651134393688e-14
    85   -1.506568394192e-14
    86    5.552407720105e-03
    87    2.208834853958e-03
    88   -7.990280785855e-03
    89   -1.149500655968e-02
    90    6.685570738249e-03
    91    1.398651460266e-02
    92   -1.007093244346e-13
    93    2.657146964635e-02
    94    1.270206028651e-02
    95    1.150163112800e-02
    96   -1.698775848510e-13
    97    3.994273373809e-02
    98   -2.198609414067e-02
    99    3.844619184850e-02
   100   -1.480807003219e-13
   101   -3.045879391525e-01
   102   -3.267443365231e-02
   103    1.679033125740e-01
   104   -6.006559862986e-14
   105   -1.193734346220e-03
   106   -9.273933810129e-15
   107   -3.854738570370e-14
   108   -4.816469164433e-02
   109    2.773426518114e-02
   110   -4.168076239628e-03
   111   -5.884622000753e-03
   112   -2.252865439886e-01
   113    2.942370507596e-01
   114   -3.075229289180e-13
   115    1.750908545312e-02
   116   -2.613667572582e-01
   117    3.417455012329e-01
   118   -3.265115542969e-13
   119   -7.104118203730e-03
   120   -1.820724984213e-01
   121    2.550416560335e-01
   122   -1.562271851706e-13
   123   -8.236393793589e-03
   124    5.057463514972e-03
   125   -3.291390147433e-03
   126    1.408870901979e-14
   127   -1.902840349551e-03
   128    2.145663667053e-14
   129    6.952516678530e-15
   130    1.547404048862e-02
   131   -4.681956648167e-03
   132    2.274899831787e-02
   133    3.735451532600e-02
   134   -3.034311369469e-02
   135    3.924684100097e-03
   136   -1.301394074526e-13
   137   -9.876736841829e-02
   138   -4.765463141522e-02
   139   -3.382256616486e-03
   140   -2.144467837316e-13
   141   -1.852051073606e-01
   142   -3.667230519023e-02
   143    2.028892135263e-02
   144   -2.063852656867e-13
   145   -1.691468031290e-01
   146    4.113749457166e-02
   147    3.488419817165e-03
   148   -1.350952258165e-14
   149   -1.398347181514e-03
   150   -1.618609793907e-14
   151    1.163521326666e-15
   152    4.472438976561e-03
   153    1.405739368445e-04
   154   -3.456045324495e-03
   155   -5.691443953462e-03
   156   -2.688637278330e-03
   157    1.301265937474e-02
   158    8.526611719235e-14
   159    1.465266050208e-02
   160   -6.048369903269e-03
   161    1.783464795681e-02
   162    1.451040859154e-13
   163    4.448182150182e-02
   164   -4.072265649136e-03
   165    2.345919683623e-02
   166    1.710839733444e-13
   167    8.863417098654e-02
   168   -2.041729991779e-03
   169    2.389245030395e-02
   170    2.717332417958e-14
   171    5.848962441255e-04
   172    6.727801458222e-15
   173    1.431419676239e-14
   174   -7.016622168151e-04
   175    1.239287506515e-03
   176   -1.230903421381e-02
   177   -2.037184174720e-02
   178    1.834178930981e-02
   179    1.917242706957e-02
   180    9.293946241684e-15
   181    5.194654926968e-02
   182    3.087319274765e-02
   183    1.878990616682e-02
   184    3.092669834161e-15
   185    1.277562193190e-01
   186   -4.440265427364e-03
   187    4.354888711426e-02
   188    4.571089549333e-14
   189    5.592177232269e-01
   190   -6.568606527076e-02
   191    7.077937117400e-02
   192    6.066922520263e-14
   193    4.219337728286e-04
   194    1.355684993871e-14
   195   -1.489046299530e-14
   196    4.635007828135e-03
   197    2.475729426842e-04
   198    1.641757118039e-02
   199    2.112389225659e-02
   200    5.558645571778e-03
   201    3.111253348471e-02
   202   -1.866779805618e-03
   203   -2.944005386163e-04
   204   -1.758449723556e-15
Sym=X
Ene= 2.001260
Spin=Alpha
Occup=1
     1   -5.718395896688e-03
     2   -9.416250869812e-03
     3   -9.259744897803e-03
     4    2.167195755467e-02
     5    4.877795352560e-14
     6    2.284983685817e-02
     7   -1.738980111443e-02
     8    3.316849688705e-02
     9    9.131368082390e-14
    10    1.245169067977e-02
    11   -1.859899381073e-02
    12    1.275985120080e-02
    13    3.277466693447e-14
    14   -7.653177960684e-02
    15   -5.093425721128e-02
    16   -1.984983419524e-02
    17   -4.466001005911e-14
    18   -1.900833543195e-03
    19   -1.619911717316e-14
    20    4.962109984386e-15
    21    1.647328957603e-03
    22    4.256290067668e-03
    23    4.623411647582e-03
    24    2.357912719246e-02
    25    2.924819673161e-02
    26   -3.562164568997e-02
    27    1.589651322252e-03
    28    1.776249871394e-03
    29    1.351152333550e-14
    30   -1.094820135493e-02
    31   -2.051477682866e-02
    32   -2.358659445161e-03
    33   -1.450920870278e-02
    34   -4.907581467831e-04
    35   -1.910597033307e-03
    36    8.987614733979e-15
    37   -6.766803453697e-03
    38   -9.598103806489e-03
    39   -2.455592456877e-02
    40    9.758507138300e-03
    41    2.020264449838e-03
    42    2.546205425995e-03
    43   -5.153095727532e-15
    44    7.366385115760e-03
    45    1.228825014734e-02
    46    9.663487473742e-03
    47   -6.277106212462e-03
    48   -2.277168868425e-14
    49   -3.804052852280e-02
    50    1.843951702936e-02
    51   -3.678301372943e-03
    52   -3.804079246005e-14
    53   -3.249989650880e-02
    54   -5.926442255033e-02
    55   -9.752416523924e-02
    56   -7.901451044546e-14
    57   -4.780841948973e-04
    58   -6.040268339062e-02
    59   -7.964348293759e-02
    60    4.874328007841e-15
    61    9.382527498401e-04
    62    1.345068049588e-14
    63   -4.282223971157e-14
    64    5.933026910114e-02
    65    3.197927222795e-02
    66   -6.432758551168e-03
    67   -1.085669963169e-02
    68   -1.357023160919e-01
    69   -1.775181971490e-01
    70   -4.178494502050e-14
    71    3.210230235926e-02
    72   -2.092879349459e-01
    73   -2.747494245815e-01
    74   -7.434474329756e-14
    75    4.357327399000e-02
    76   -1.822021338130e-01
    77   -2.591263848744e-01
    78   -6.119108722325e-14
    79    1.171546913848e-02
    80   -4.369713125352e-03
    81   -1.591335124831e-02
    82   -1.239290437443e-14
    83    1.220343972802e-03
    84   -8.652049756645e-15
    85    2.966615172668e-15
    86   -1.372751422877e-02
    87   -4.330389509531e-03
    88    2.503308809742e-02
    89    3.286576315883e-02
    90   -4.880916251322e-02
    91   -5.595918928267e-02
    92   -5.339046535895e-15
    93   -6.899174438179e-02
    94   -7.421595654790e-02
    95   -9.631840398554e-02
    96   -2.052833217422e-14
    97   -5.533189454058e-02
    98   -6.094950355090e-03
    99   -2.381560440337e-03
   100   -4.268662436577e-15
   101   -1.130209918810e-01
   102    3.431363495350e-03
   103    4.230330682565e-02
   104    9.044140215061e-15
   105    5.940526500221e-03
   106    8.732619610018e-15
   107   -5.446191258428e-15
   108   -2.057413888365e-02
   109   -1.025385859000e-03
   110    2.633199239538e-03
   111    3.444588759669e-03
   112    6.019102721591e-02
   113    1.795606241695e-01
   114    8.192826020433e-14
   115   -6.846269974705e-03
   116    6.929012174160e-02
   117    2.073359367407e-01
   118    9.776859002533e-14
   119    5.980735961744e-02
   120    6.669005974843e-03
   121    1.294910104167e-01
   122    1.163986060906e-13
   123    7.194636464632e-03
   124    4.802332610656e-03
   125    2.713439833201e-03
   126   -2.384823212372e-15
   127    6.681727959645e-03
   128   -2.176278034055e-15
   129   -1.085019951675e-15
   130   -2.085663291555e-03
   131   -1.185552029908e-02
   132   -1.210684305687e-02
   133   -2.000926356924e-02
   134   -4.066501662798e-02
   135   -2.430677705143e-02
   136   -1.043613386002e-13
   137    4.998685660645e-02
   138   -5.566107947078e-02
   139   -3.178990575154e-02
   140   -1.756950550865e-13
   141    1.287709367598e-01
   142   -1.014358633264e-01
   143   -3.890550113746e-02
   144   -1.115589193672e-13
   145    1.358778689971e-01
   146    8.118927985353e-03
   147    1.347690233216e-02
   148   -4.847612510334e-14
   149    8.693984700698e-04
   150    3.780337489301e-16
   151   -1.103542560146e-16
   152   -4.555485682551e-03
   153   -4.552941435407e-03
   154    1.419996437430e-02
   155    2.321290426687e-02
   156    6.228832445406e-03
   157   -4.728009381476e-02
   158    1.200862220686e-13
   159   -6.134587936685e-02
   160    1.364887305224e-02
   161   -6.649401527183e-02
   162    1.823311799343e-13
   163   -1.490520804773e-01
   164    2.059854623945e-02
   165   -8.813414020779e-02
   166    1.763941365830e-13
   167   -1.574592921332e-01
   168   -4.703235644207e-03
   169    5.598542317788e-03
   170    8.485225683474e-14
   171   -2.177822599162e-03
   172    6.424414217431e-15
   173    2.946769126377e-15
   174   -1.002116847905e-05
   175   -6.346030890432e-04
   176   -7.076272859978e-03
   177   -1.188337199982e-02
   178   -2.738471529298e-02
   179    4.316608173068e-02
   180    9.379716472332e-15
   181    3.025305734312e-02
   182   -3.979333908574e-02
   183    6.472415480736e-02
   184    7.803610711042e-15
   185    6.945888378890e-02
   186   -3.724463142145e-02
   187    6.302011981951e-02
   188    2.983286959410e-14
   189    2.231195431339e-01
   190   -4.960992202184e-02
   191    1.725792679485e-02
   192    1.411216671907e-14
   193   -8.822026035870e-04
   194   -7.780026779405e-15
   195    1.335540302896e-15
   196   -5.353945481824e-05
   197   -6.692117741861e-04
   198   -3.051302657787e-02
   199   -4.849823585598e-02
   200    6.384027957713e-04
   201    2.048190820082e-02
   202    4.649216751270e-03
   203   -2.683481082903e-03
   204    1.773570399339e-15
Sym=X
Ene= 2.000257
Spin=Alpha
Occup=1
     1   -2.231427219994e-12
     2   -1.692885000013e-12
     3    1.801999659016e-13
     4    6.227750602758e-13
     5   -3.250885047801e-02
     6   -7.969993196665e-13
     7    3.145198181388e-13
     8    9.485625074014e-13
     9   -5.586981284596e-02
    10   -7.545746904376e-13
    11    4.867250620045e-13
    12    5.072936614019e-13
    13   -3.871884110304e-02
    14   -6.938843944258e-12
    15   -1.045228486671e-12
    16   -1.288268345862e-12
    17    1.573464079785e-03
    18    1.595837349845e-14
    19    5.334121888397e-03
    20   -5.134107758711e-03
    21    7.131139202959e-14
    22    3.205609472124e-14
    23    8.216722949894e-13
    24    1.221178874157e-12
    25   -1.988600691940e-13
    26   -4.137744359169e-14
    27    1.124596724656e-13
    28    1.708776104512e-14
    29   -4.001545798585e-03
    30   -6.827210853224e-13
    31   -1.038628353271e-12
    32   -9.480789244316e-14
    33   -2.123922903953e-13
    34    5.080931975770e-15
    35   -1.149731242586e-13
    36   -2.449632360118e-03
    37   -4.842358378804e-13
    38   -4.582721232471e-13
    39   -2.283022717454e-13
    40   -3.998914620929e-13
    41   -3.821797018762e-14
    42    3.057886257060e-14
    43    4.755280749556e-03
    44    1.100728522392e-12
    45    1.480136928427e-12
    46    1.708487795019e-12
    47   -4.457697058475e-14
    48    1.235150823724e-01
    49   -3.364814663499e-12
    50    2.795154967496e-12
    51   -1.287300712499e-13
    52    2.138101345038e-01
    53   -2.871438076580e-12
    54    9.588582618071e-13
    55    5.999892053067e-13
    56    1.410352208244e-01
    57    3.142496163595e-13
    58    1.949675236031e-13
    59    6.161711899649e-13
    60    3.993429093606e-02
    61    1.311441732626e-13
    62   -3.623479162277e-02
    63    3.383574383360e-02
    64   -1.789707589188e-13
    65    1.988981839077e-13
    66    5.122952663283e-14
    67   -4.342077684456e-13
    68   -1.750387762870e-12
    69    2.434616857757e-12
    70    2.261437263537e-01
    71    2.905906020323e-12
    72   -2.587317429946e-12
    73    3.724145132169e-12
    74    3.556055211941e-01
    75    4.561608237523e-12
    76   -1.315354408192e-12
    77    2.606186197470e-12
    78    3.177624230454e-01
    79    6.135338506835e-13
    80   -4.663808668312e-14
    81    3.529416819574e-14
    82    2.178094640445e-02
    83    1.370477771930e-13
    84    2.220596701927e-02
    85   -1.332725916224e-02
    86   -1.536661571918e-14
    87    2.922594207116e-13
    88    8.489500450187e-13
    89    7.477923352895e-13
    90   -5.106454300777e-13
    91    5.370872549118e-14
    92    1.268437632996e-02
    93   -2.385857432789e-13
    94   -7.468875151329e-13
    95    1.503133053451e-13
    96    2.269487421492e-02
    97   -5.195278014182e-13
    98   -2.451183779925e-13
    99    4.585453123374e-14
   100    5.844862640617e-03
   101   -4.553118781657e-12
   102    7.854218648705e-13
   103    1.178161035009e-12
   104   -3.640573445905e-03
   105    9.979274145140e-15
   106   -1.034300152840e-03
   107    4.918565647470e-03
   108    1.547974684366e-13
   109   -1.503473375670e-14
   110    2.603328988892e-13
   111    3.782195294086e-13
   112    4.263809510846e-13
   113   -2.915331115283e-14
   114    2.682736303040e-02
   115   -1.268418152269e-12
   116    5.313733076820e-13
   117   -9.628844475414e-15
   118    3.141246344099e-02
   119   -3.228646115706e-13
   120    1.810301036537e-13
   121   -1.811748842773e-13
   122    1.972445925830e-02
   123    5.862218170967e-13
   124   -2.091282182905e-13
   125   -2.752404117386e-13
   126    6.771617583246e-03
   127    3.960913586897e-14
   128   -1.899708525453e-03
   129   -1.131202863042e-03
   130   -1.033166442696e-14
   131   -4.982877461556e-14
   132    1.094593550178e-12
   133    7.553182139027e-13
   134   -1.131856059443e-13
   135   -8.212788955966e-13
   136    5.068339538890e-02
   137    8.980819272957e-13
   138   -1.708588294784e-13
   139   -1.339228550166e-12
   140    8.686198333991e-02
   141    6.824710951325e-13
   142   -1.029694844231e-13
   143   -1.237557365990e-12
   144    5.519122210729e-02