[Molden Format]
[Atoms] (Angs)
  C      1    6     -0.00714236     -1.70213747     -0.00000000
  H      2    1     -2.06882847     -1.44022412      0.00000000
  H      3    1     -0.12337987     -2.77567521      0.00000000
  H      4    1      0.04651892      1.98813947     -0.00000000
  C      5    6     -1.21953563      0.40211669      0.00000000
  O      6    8     -2.25921553      1.03043814      0.00000000
  C      7    6      1.28797806      0.34644937     -0.00000000
  O      8    8      2.31273661      1.00537216     -0.00000000
  N      9    7      0.03446295      0.97739857     -0.00000000
  N     10    7     -1.17287765     -0.98229824      0.00000000
  C     11    6      1.20107039     -1.10433419     -0.00000000
  H     12    1      2.11220096     -1.67699125     -0.00000000
[GTO]
1    0
S    6    1.000000
   4.56324000E+03    1.96665000E-03 
   6.82024000E+02    1.52306000E-02 
   1.54973000E+02    7.61269000E-02 
   4.44553000E+01    2.60801000E-01 
   1.30290000E+01    6.16462000E-01 
   1.82773000E+00    2.21006000E-01 
SP   3    1.000000
   2.09642000E+01    1.14660000E-01   4.02487000E-02 
   4.80331000E+00    9.19999000E-01   2.37594000E-01 
   1.45933000E+00   -3.03068000E-03   8.15854000E-01 
SP   1    1.000000
   4.83456000E-01    1.00000000E+00   1.00000000E+00 
SP   1    1.000000
   1.45585000E-01    1.00000000E+00   1.00000000E+00 
SP   1    1.000000
   4.38000000E-02    1.00000000E+00   1.00000000E+00 
D    1    1.000000
   6.26000000E-01    1.00000000E+00 

2    0
S    3    1.000000
   3.38650000E+01    2.54938000E-02 
   5.09479000E+00    1.90373000E-01 
   1.15879000E+00    8.52161000E-01 
S    1    1.000000
   3.25840000E-01    1.00000000E+00 
S    1    1.000000
   1.02741000E-01    1.00000000E+00 
S    1    1.000000
   3.60000000E-02    1.00000000E+00 
P    1    1.000000
   7.50000000E-01    1.00000000E+00 

3    0
S    3    1.000000
   3.38650000E+01    2.54938000E-02 
   5.09479000E+00    1.90373000E-01 
   1.15879000E+00    8.52161000E-01 
S    1    1.000000
   3.25840000E-01    1.00000000E+00 
S    1    1.000000
   1.02741000E-01    1.00000000E+00 
S    1    1.000000
   3.60000000E-02    1.00000000E+00 
P    1    1.000000
   7.50000000E-01    1.00000000E+00 

4    0
S    3    1.000000
   3.38650000E+01    2.54938000E-02 
   5.09479000E+00    1.90373000E-01 
   1.15879000E+00    8.52161000E-01 
S    1    1.000000
   3.25840000E-01    1.00000000E+00 
S    1    1.000000
   1.02741000E-01    1.00000000E+00 
S    1    1.000000
   3.60000000E-02    1.00000000E+00 
P    1    1.000000
   7.50000000E-01    1.00000000E+00 

5    0
S    6    1.000000
   4.56324000E+03    1.96665000E-03 
   6.82024000E+02    1.52306000E-02 
   1.54973000E+02    7.61269000E-02 
   4.44553000E+01    2.60801000E-01 
   1.30290000E+01    6.16462000E-01 
   1.82773000E+00    2.21006000E-01 
SP   3    1.000000
   2.09642000E+01    1.14660000E-01   4.02487000E-02 
   4.80331000E+00    9.19999000E-01   2.37594000E-01 
   1.45933000E+00   -3.03068000E-03   8.15854000E-01 
SP   1    1.000000
   4.83456000E-01    1.00000000E+00   1.00000000E+00 
SP   1    1.000000
   1.45585000E-01    1.00000000E+00   1.00000000E+00 
SP   1    1.000000
   4.38000000E-02    1.00000000E+00   1.00000000E+00 
D    1    1.000000
   6.26000000E-01    1.00000000E+00 

6    0
S    6    1.000000
   8.58850000E+03    1.89515000E-03 
   1.29723000E+03    1.43859000E-02 
   2.99296000E+02    7.07320000E-02 
   8.73771000E+01    2.40001000E-01 
   2.56789000E+01    5.94797000E-01 
   3.74004000E+00    2.80802000E-01 
SP   3    1.000000
   4.21175000E+01    1.13889000E-01   3.65114000E-02 
   9.62837000E+00    9.20811000E-01   2.37153000E-01 
   2.85332000E+00   -3.27447000E-03   8.19702000E-01 
SP   1    1.000000
   9.05661000E-01    1.00000000E+00   1.00000000E+00 
SP   1    1.000000
   2.55611000E-01    1.00000000E+00   1.00000000E+00 
SP   1    1.000000
   8.45000000E-02    1.00000000E+00   1.00000000E+00 
D    1    1.000000
   1.29200000E+00    1.00000000E+00 

7    0
S    6    1.000000
   4.56324000E+03    1.96665000E-03 
   6.82024000E+02    1.52306000E-02 
   1.54973000E+02    7.61269000E-02 
   4.44553000E+01    2.60801000E-01 
   1.30290000E+01    6.16462000E-01 
   1.82773000E+00    2.21006000E-01 
SP   3    1.000000
   2.09642000E+01    1.14660000E-01   4.02487000E-02 
   4.80331000E+00    9.19999000E-01   2.37594000E-01 
   1.45933000E+00   -3.03068000E-03   8.15854000E-01 
SP   1    1.000000
   4.83456000E-01    1.00000000E+00   1.00000000E+00 
SP   1    1.000000
   1.45585000E-01    1.00000000E+00   1.00000000E+00 
SP   1    1.000000
   4.38000000E-02    1.00000000E+00   1.00000000E+00 
D    1    1.000000
   6.26000000E-01    1.00000000E+00 

8    0
S    6    1.000000
   8.58850000E+03    1.89515000E-03 
   1.29723000E+03    1.43859000E-02 
   2.99296000E+02    7.07320000E-02 
   8.73771000E+01    2.40001000E-01 
   2.56789000E+01    5.94797000E-01 
   3.74004000E+00    2.80802000E-01 
SP   3    1.000000
   4.21175000E+01    1.13889000E-01   3.65114000E-02 
   9.62837000E+00    9.20811000E-01   2.37153000E-01 
   2.85332000E+00   -3.27447000E-03   8.19702000E-01 
SP   1    1.000000
   9.05661000E-01    1.00000000E+00   1.00000000E+00 
SP   1    1.000000
   2.55611000E-01    1.00000000E+00   1.00000000E+00 
SP   1    1.000000
   8.45000000E-02    1.00000000E+00   1.00000000E+00 
D    1    1.000000
   1.29200000E+00    1.00000000E+00 

9    0
S    6    1.000000
   6.29348000E+03    1.96979000E-03 
   9.49044000E+02    1.49613000E-02 
   2.18776000E+02    7.35006000E-02 
   6.36916000E+01    2.48937000E-01 
   1.88282000E+01    6.02460000E-01 
   2.72023000E+00    2.56202000E-01 
SP   3    1.000000
   3.06331000E+01    1.11906000E-01   3.83119000E-02 
   7.02614000E+00    9.21666000E-01   2.37403000E-01 
   2.11205000E+00   -2.56919000E-03   8.17592000E-01 
SP   1    1.000000
   6.84009000E-01    1.00000000E+00   1.00000000E+00 
SP   1    1.000000
   2.00878000E-01    1.00000000E+00   1.00000000E+00 
SP   1    1.000000
   6.39000000E-02    1.00000000E+00   1.00000000E+00 
D    1    1.000000
   9.13000000E-01    1.00000000E+00 

10    0
S    6    1.000000
   6.29348000E+03    1.96979000E-03 
   9.49044000E+02    1.49613000E-02 
   2.18776000E+02    7.35006000E-02 
   6.36916000E+01    2.48937000E-01 
   1.88282000E+01    6.02460000E-01 
   2.72023000E+00    2.56202000E-01 
SP   3    1.000000
   3.06331000E+01    1.11906000E-01   3.83119000E-02 
   7.02614000E+00    9.21666000E-01   2.37403000E-01 
   2.11205000E+00   -2.56919000E-03   8.17592000E-01 
SP   1    1.000000
   6.84009000E-01    1.00000000E+00   1.00000000E+00 
SP   1    1.000000
   2.00878000E-01    1.00000000E+00   1.00000000E+00 
SP   1    1.000000
   6.39000000E-02    1.00000000E+00   1.00000000E+00 
D    1    1.000000
   9.13000000E-01    1.00000000E+00 

11    0
S    6    1.000000
   4.56324000E+03    1.96665000E-03 
   6.82024000E+02    1.52306000E-02 
   1.54973000E+02    7.61269000E-02 
   4.44553000E+01    2.60801000E-01 
   1.30290000E+01    6.16462000E-01 
   1.82773000E+00    2.21006000E-01 
SP   3    1.000000
   2.09642000E+01    1.14660000E-01   4.02487000E-02 
   4.80331000E+00    9.19999000E-01   2.37594000E-01 
   1.45933000E+00   -3.03068000E-03   8.15854000E-01 
SP   1    1.000000
   4.83456000E-01    1.00000000E+00   1.00000000E+00 
SP   1    1.000000
   1.45585000E-01    1.00000000E+00   1.00000000E+00 
SP   1    1.000000
   4.38000000E-02    1.00000000E+00   1.00000000E+00 
D    1    1.000000
   6.26000000E-01    1.00000000E+00 

12    0
S    3    1.000000
   3.38650000E+01    2.54938000E-02 
   5.09479000E+00    1.90373000E-01 
   1.15879000E+00    8.52161000E-01 
S    1    1.000000
   3.25840000E-01    1.00000000E+00 
S    1    1.000000
   1.02741000E-01    1.00000000E+00 
S    1    1.000000
   3.60000000E-02    1.00000000E+00 
P    1    1.000000
   7.50000000E-01    1.00000000E+00 

[MO]
Sym=X
Ene= 2.007963
Spin=Alpha
Occup=1
     1   -1.502813030430e-15
     2   -5.401209735973e-15
     3   -8.131910174985e-15
     4    2.857006364468e-14
     5    3.613102659096e-02
     6    2.623400422821e-14
     7    2.180805601149e-15
     8    2.576508026117e-14
     9    6.271473853646e-02
    10   -4.415303191531e-13
    11    1.060191783098e-13
    12   -1.231171619469e-13
    13    3.634682006586e-02
    14    5.687059837198e-12
    15    1.644235500769e-12
    16    7.577016077963e-13
    17    3.007990191884e-03
    18    5.991025232893e-15
    19   -1.226964621457e-02
    20    6.725391564084e-03
    21    2.215432386397e-14
    22    7.558104516226e-17
    23    3.489733446220e-14
    24    2.650920396669e-13
    25   -9.467550225234e-14
    26    4.804012535473e-13
    27    1.678928635458e-14
    28    5.613323265559e-15
    29    8.769960167786e-03
    30   -3.317327739820e-14
    31   -5.084407145579e-14
    32   -5.988569416994e-14
    33    1.685165251811e-13
    34    8.439077257049e-18
    35    4.330615708536e-15
    36    2.873408702257e-03
    37    4.476089572037e-15
    38   -1.950059088078e-13
    39    4.945015791574e-13
    40   -3.368378218868e-13
    41   -5.209131914953e-15
    42    8.713556086572e-15
    43   -8.363205316183e-03
    44    5.872912864913e-14
    45    6.266418955446e-14
    46    6.847718479136e-15
    47   -3.559773190090e-14
    48    2.546111293598e-02
    49   -6.801676985452e-14
    50    2.662330643964e-14
    51   -3.261315716992e-14
    52    4.463291202604e-02
    53   -3.030949958871e-14
    54   -1.625176895279e-13
    55   -3.413926917126e-13
    56    2.967750587853e-02
    57   -1.200667613131e-12
    58    1.449348140335e-14
    59    7.069151745259e-13
    60    1.066304392584e-02
    61    3.509993514494e-15
    62   -1.861094938643e-02
    63   -1.287792758146e-02
    64    1.951792952430e-15
    65    1.283310587681e-14
    66    2.328737602980e-14
    67    3.443712821513e-14
    68   -2.518018434974e-14
    69    1.805063930032e-14
    70    4.340597690747e-02
    71   -8.365646636109e-14
    72   -5.771779568574e-14
    73   -2.584269637295e-15
    74    6.818253352167e-02
    75   -1.147839016313e-13
    76    4.112997659252e-14
    77    1.340532268211e-13
    78    6.070207232096e-02
    79    3.265554334274e-13
    80    3.082323471753e-14
    81   -2.765069355600e-13
    82   -8.863598295152e-04
    83    3.743010370746e-15
    84    4.310601758201e-03
    85   -2.931617853021e-03
    86   -2.169635406436e-15
    87    3.508672989520e-15
    88   -5.909886330956e-14
    89   -6.481463442496e-14
    90   -2.303697352347e-14
    91    5.863627817238e-14
    92   -1.129538130043e-01
    93    7.698431941574e-14
    94   -4.968477305553e-14
    95    9.665659276620e-14
    96   -1.990854133409e-01
    97    4.244915859851e-13
    98   -1.851805713752e-14
    99   -1.579817555859e-13
   100   -1.114221149125e-01
   101    1.388342132289e-12
   102   -1.449483148655e-12
   103    3.009586889512e-13
   104   -3.775647095242e-02
   105   -1.276704042466e-14
   106   -1.454726896752e-02
   107   -2.543860191180e-02
   108    4.463138596093e-14
   109   -1.025214967775e-14
   110   -1.018224177790e-14
   111   -1.454676732690e-14
   112    4.413629695151e-14
   113   -1.702611342900e-13
   114   -2.523532833883e-01
   115    5.254761701666e-14
   116    3.896799812751e-14
   117   -1.799327580663e-13
   118   -2.949641235528e-01
   119   -1.208979308685e-14
   120   -6.921772312112e-15
   121   -5.929810126878e-14
   122   -1.822827736537e-01
   123    6.661709834077e-14
   124    2.040576721623e-13
   125    1.635959946745e-13
   126    1.320400633400e-02
   127   -3.699101209227e-15
   128    2.033812325847e-02
   129    1.239892493781e-02
   130   -1.257393690728e-15
   131    6.312259467223e-15
   132   -2.476492092228e-14
   133   -3.939762500092e-14
   134    6.310568264192e-14
   135   -2.551618072890e-14
   136   -1.043383013165e-01
   137    1.033159982648e-13
   138    1.183077120425e-13
   139   -7.189797806976e-14
   140   -1.726034429715e-01
   141    3.379263298445e-13
   142    5.606029221878e-14
   143    3.310909027470e-13
   144   -1.641449756993e-01
   145   -1.525395946145e-12
   146   -4.157822218836e-13
   147   -4.664330228643e-13
   148   -5.348318611514e-04
   149   -8.371631441499e-15
   150   -9.797452139410e-03
   151    4.909557219325e-03
   152   -3.120897475191e-15
   153   -7.117869080814e-15
   154   -2.183812962082e-14
   155   -4.567124185424e-14
   156   -5.831615832129e-15
   157   -1.830261965696e-14
   158    1.011031176483e-01
   159    1.537931305408e-13
   160   -5.633940693881e-14
   161   -1.943963268923e-14
   162    1.667942649328e-01
   163   -6.562148902583e-14
   164    4.779991811825e-13
   165   -4.769130875647e-14
   166    1.581744404991e-01
   167    7.902527198810e-13
   168    1.132506022581e-14
   169   -3.363137997187e-13
   170    7.110134563582e-03
   171    2.884737937237e-15
   172    4.160898598658e-03
   173    1.412884087898e-03
   174   -3.836984507471e-15
   175   -3.949583147702e-15
   176   -1.392361174073e-13
   177   -1.085310057209e-13
   178   -1.864168199128e-14
   179   -3.511586381758e-14
   180   -9.438711639223e-03
   181   -3.667872453173e-14
   182   -2.636218848517e-14
   183   -6.787939061136e-14
   184   -1.808182075311e-02
   185   -4.463838401679e-14
   186    6.307337553923e-15
   187   -1.162884644289e-13
   188   -2.464174457368e-03
   189   -5.702168767707e-12
   190    2.380712299645e-12
   191    8.995544396258e-13
   192    1.335335403914e-02
   193    1.085248991577e-15
   194   -3.960772843569e-03
   195   -1.217116264400e-02
   196    4.390575191243e-15
   197   -1.115811076485e-14
   198   -5.302863166281e-16
   199   -4.622520696343e-15
   200   -1.562029439617e-13
   201   -2.767072198430e-13
   202   -1.758477103405e-15
   203   -2.344076604685e-15
   204   -1.225466786376e-03
Sym=X
Ene= 2.002834
Spin=Alpha
Occup=1
     1    9.014986094155e-03
     2    1.530948984836e-02
     3   -2.149559108398e-02
     4   -2.045916708896e-02
     5    7.776363390760e-14
     6   -4.238947067901e-02
     7   -3.608660302831e-02
     8   -3.465626379469e-02
     9    1.390320722510e-13
    10   -7.177599083915e-02
    11   -2.872110831557e-02
    12   -5.390776404077e-02
    13    1.225402655043e-13
    14   -2.178023757256e-01
    15   -5.817387371331e-02
    16   -4.363025424728e-02
    17   -3.413305390588e-14
    18    1.174420534443e-03
    19    3.473340062050e-14
    20    1.163890382264e-14
    21   -8.224841540800e-03
    22    4.394961450943e-04
    23   -1.915670470104e-03
    24   -6.006070287392e-03
    25   -1.870721481738e-03
    26    1.210981717652e-02
    27   -5.715139998127e-04
    28   -2.947484481524e-04
    29   -5.219966883301e-15
    30    1.415386717222e-02
    31    1.935718299266e-02
    32    9.494902604918e-03
    33   -1.782514801768e-02
    34   -1.196625452730e-03
    35   -5.795714038128e-04
    36    1.119163263181e-14
    37   -3.445659107119e-04
    38    1.209516160456e-02
    39    1.564205214713e-02
    40   -4.813540384078e-02
    41   -2.320070128259e-03
    42   -1.558414399845e-05
    43    2.685160044659e-15
    44   -1.329138457577e-02
    45   -2.209137401555e-02
    46    3.376130474300e-02
    47    1.513871152430e-02
    48    3.745748655176e-14
    49    6.188643876949e-02
    50    5.657138245731e-02
    51    2.401187327518e-02
    52    7.910929803442e-14
    53    6.286132976083e-02
    54    5.090024318362e-02
    55    2.104266722137e-02
    56   -3.187255621714e-14
    57    4.212379254839e-02
    58    2.615814277483e-02
    59    4.340838391728e-02
    60    2.376653115885e-14
    61   -1.777696992885e-03
    62    7.839237602939e-15
    63    1.181572886832e-14
    64   -1.486725426749e-02
    65    2.237983615801e-03
    66    3.608641093093e-03
    67    6.069862258948e-03
    68    2.227541479392e-02
    69    5.069538307310e-02
    70    8.488180830675e-14
    71   -1.758491431903e-02
    72    3.595066352238e-02
    73    7.775984254945e-02
    74    1.073745940312e-13
    75   -1.168707096773e-02
    76    2.843088610797e-02
    77    6.527586055465e-02
    78    6.770100002218e-14
    79    1.474358446144e-02
    80    5.934666004552e-03
    81    1.504104737507e-03
    82   -3.734921954617e-15
    83    1.595860991221e-04
    84    3.986827762730e-15
    85   -6.512802797537e-15
    86    4.505166134652e-03
    87    2.584153924943e-03
    88   -9.150218353281e-03
    89   -1.579719888891e-02
    90    4.105157082642e-02
    91   -3.365899326860e-02
    92   -8.094321280902e-15
    93    4.687729981081e-02
    94    7.032563775230e-02
    95   -6.647591800231e-02
    96   -7.072714739516e-15
    97    6.198166773511e-02
    98   -7.172735602424e-03
    99    1.928026258869e-02
   100   -7.538169717348e-14
   101   -2.170394282914e-01
   102   -2.189921645910e-02
   103    1.228032138268e-01
   104   -4.368680914073e-14
   105   -3.432710668110e-04
   106   -4.071526166417e-14
   107   -4.209991611136e-14
   108   -5.421329090373e-02
   109    3.450640682688e-02
   110   -4.877207187055e-03
   111   -6.875931488456e-03
   112   -2.277950591204e-01
   113    2.747353732416e-01
   114   -3.559645995794e-13
   115    1.997577974328e-02
   116   -2.611384377561e-01
   117    3.152721607015e-01
   118   -3.785755813280e-13
   119   -1.472614074910e-02
   120   -1.720349135918e-01
   121    2.331571091160e-01
   122   -1.911798693040e-13
   123   -2.459426965280e-02
   124    7.022286114455e-03
   125    4.866871056688e-03
   126   -2.735437631221e-14
   127   -2.330275138274e-03
   128    1.752423331213e-14
   129    5.133358232214e-15
   130    1.294724212234e-02
   131   -2.099135629942e-03
   132    2.349379039691e-02
   133    3.880596866362e-02
   134   -7.518014173701e-02
   135    2.185841807559e-02
   136    8.371233358660e-14
   137   -1.042316171774e-01
   138   -1.182203189075e-01
   139    2.588969429448e-02
   140    1.321810728609e-13
   141   -1.835560779362e-01
   142   -8.837921435804e-02
   143    4.500576312746e-02
   144    1.627704715999e-13
   145   -1.410981302029e-01
   146    5.149900019004e-02
   147    2.190842651279e-02
   148    3.585493437079e-14
   149   -1.045138142561e-03
   150   -6.490938535006e-15
   151   -4.799868024158e-15
   152    7.672011741928e-04
   153    3.545107040948e-03
   154   -1.901998293693e-03
   155   -3.148512402653e-03
   156   -8.585125920789e-04
   157    9.732068402890e-03
   158   -6.006426462493e-14
   159    8.221377805766e-03
   160   -2.328112380013e-03
   161    1.333440002516e-02
   162   -9.116108374361e-14
   163    2.423074535186e-02
   164    1.169695473953e-03
   165    1.239348606235e-02
   166   -7.935839837636e-14
   167    6.100723870228e-02
   168    6.732685361434e-03
   169    3.011038093252e-02
   170   -1.091167263361e-14
   171    3.115665179304e-04
   172    8.944242033975e-15
   173    6.999869755632e-15
   174   -2.555788868545e-03
   175    9.920069844766e-04
   176   -1.797391348974e-02
   177   -2.932459747292e-02
   178    3.345686631692e-02
   179    5.404199914098e-02
   180    1.091226714426e-13
   181    7.408638961964e-02
   182    5.372177585098e-02
   183    7.555050018968e-02
   184    1.758498650651e-13
   185    1.528633748946e-01
   186   -2.903111621444e-03
   187    7.649030706764e-02
   188    2.047411954050e-13
   189    4.703588826707e-01
   190   -6.882102321778e-02
   191    3.623335018845e-02
   192    6.492830800256e-14
   193   -8.194246883698e-04
   194    4.450975303102e-15
   195   -4.902308580407e-15
   196   -2.992303234526e-03
   197    2.516849732603e-03
   198    1.285826723261e-02
   199    1.550693281342e-02
   200    9.505906170838e-04
   201    2.479525775164e-02
   202   -1.763773785637e-03
   203    1.862184314497e-03
   204    5.784741086344e-15
Sym=X
Ene= 2.001887
Spin=Alpha
Occup=1
     1    7.773185288289e-05
     2   -1.807726311349e-05
     3   -1.249799512500e-02
     4    1.120499012551e-02
     5   -6.718749400081e-13
     6   -1.421570716748e-03
     7   -2.026081539065e-02
     8    1.756786293251e-02
     9   -1.133563802941e-12
    10    1.614527405454e-03
    11   -2.294389137428e-02
    12    7.366744758539e-03
    13   -1.343880865737e-12
    14   -1.390846925881e-02
    15   -4.498424530559e-02
    16   -2.946709340441e-03
    17   -2.465680681701e-13
    18   -1.074629372068e-03
    19   -3.700735937630e-13
    20   -5.070880947505e-14
    21    1.335384025560e-03
    22    5.662385490122e-03
    23    1.681982401688e-02
    24    3.533157329191e-02
    25    2.645528997583e-02
    26   -3.106712157378e-02
    27    3.346259263358e-03
    28    2.837560451441e-03
    29    1.385422235295e-13
    30   -7.014551460007e-03
    31   -1.247492607832e-02
    32    1.705015636896e-03
    33   -1.335600291442e-02
    34   -4.400085271529e-04
    35   -1.497499480584e-03
    36   -4.630006123180e-14
    37   -4.412880038810e-03
    38   -5.073748680683e-03
    39   -2.566466635794e-02
    40    6.153463753014e-03
    41    2.583819919273e-03
    42    2.352461489183e-03
    43   -1.140756592185e-13
    44    1.087625829460e-02
    45    1.777172088486e-02
    46   -5.020960047756e-03
    47   -8.738128534460e-03
    48    1.674646586807e-13
    49   -5.179736200702e-02
    50   -5.852987297410e-03
    51   -9.031685884479e-03
    52    3.288418970171e-13
    53   -3.719905100258e-02
    54   -6.096540909572e-02
    55   -9.779798146032e-02
    56    1.260830699992e-13
    57   -1.413462946982e-02
    58   -6.019104910238e-02
    59   -7.524286199227e-02
    60   -1.552246496723e-13
    61    1.698317129582e-03
    62   -2.238228880069e-13
    63   -2.664345124724e-13
    64    5.531416739129e-02
    65    2.955375693826e-02
    66   -7.242103936387e-03
    67   -1.219152446814e-02
    68   -1.230692556596e-01
    69   -1.687734760450e-01
    70    2.587912236922e-13
    71    3.570698179225e-02
    72   -1.898161698159e-01
    73   -2.613498279659e-01
    74    4.008794264691e-13
    75    4.330052111406e-02
    76   -1.647547145912e-01
    77   -2.417385685213e-01
    78    3.300277696126e-13
    79    8.201895431648e-03
    80   -2.556530120943e-03
    81   -1.243240609787e-02
    82    5.960448652951e-14
    83    7.952053498602e-04
    84    1.861549372566e-14
    85   -2.167166656153e-14
    86   -1.334977672912e-02
    87   -4.978845107783e-03
    88    1.363395053479e-02
    89    2.088765060094e-02
    90   -6.564652005045e-02
    91   -7.880081100299e-02
    92   -3.266013819474e-13
    93   -5.868625274562e-02
    94   -1.013899187244e-01
    95   -1.317349791990e-01
    96   -6.367259009893e-13
    97   -3.649377201867e-02
    98   -1.426428729357e-02
    99   -1.918271403850e-02
   100   -2.563884758728e-13
   101   -1.296075805896e-02
   102   -9.541747568624e-04
   103    1.610357258359e-02
   104    1.328989437335e-13
   105    6.565377137289e-03
   106    4.981976099404e-13
   107    2.591392001593e-13
   108   -2.178499180006e-02
   109   -9.050151017836e-03
   110    4.492866106321e-03
   111    6.137938477364e-03
   112    1.042316426127e-01
   113    1.805487501512e-01
   114    3.057206333588e-12
   115   -1.404484175146e-02
   116    1.191752051537e-01
   117    2.060609553146e-01
   118    3.470075167945e-12
   119    7.099731248261e-02
   120    3.039505249121e-02
   121    1.164504284404e-01
   122    2.481904092320e-12
   123    1.013276853994e-02
   124    4.368897696784e-03
   125    4.893149095766e-03
   126    3.900260611406e-13
   127    8.322379304742e-03
   128   -9.865590030101e-14
   129   -5.891673754071e-14
   130   -4.621336667299e-03
   131   -1.432333952618e-02
   132   -1.012756941287e-02
   133   -1.718224336682e-02
   134   -2.419605773489e-02
   135   -2.105992777811e-02
   136   -1.611672631456e-12
   137    4.443496087056e-02
   138   -3.060186833810e-02
   139   -2.743694603374e-02
   140   -2.629038392929e-12
   141    1.219066509064e-01
   142   -7.925786616055e-02
   143   -3.330441432742e-02
   144   -2.671568739049e-12
   145    1.300161745930e-01
   146   -1.138997617280e-03
   147    1.840823512814e-02
   148   -3.117569062538e-13
   149    1.263742264684e-03
   150   -4.721188467699e-14
   151    5.158136160477e-14
   152   -6.397771300981e-03
   153   -6.648798926151e-03
   154    1.120613309600e-02
   155    1.853688249457e-02
   156   -9.915483057605e-03
   157   -4.791078924907e-02
   158    1.372532235417e-12
   159   -4.946544800786e-02
   160   -1.237765662133e-02
   161   -6.833349521820e-02
   162    2.208114727723e-12
   163   -1.350151638476e-01
   164    8.820921123664e-04
   165   -8.723182321427e-02
   166    2.573582132433e-12
   167   -1.569734695459e-01
   168   -4.307472783556e-03
   169    6.796361595540e-03
   170    7.279523828887e-13
   171   -2.053525004204e-03
   172   -3.830067968031e-14
   173    6.459259903258e-14
   174   -3.325028796434e-05
   175   -2.976639340839e-04
   176   -1.156751354240e-02
   177   -1.858360338652e-02
   178   -1.551495112304e-02
   179    5.339459405824e-02
   180   -1.345866050204e-12
   181    4.518277879377e-02
   182   -2.181232520704e-02
   183    8.280239702959e-02
   184   -2.306212311332e-12
   185    6.984070644052e-02
   186   -2.797501159803e-02
   187    5.974879557454e-02
   188   -2.332478255268e-12
   189    9.907777753531e-02
   190   -2.626671709801e-02
   191   -9.877663789593e-03
   192   -1.969636674420e-13
   193   -1.896386808987e-03
   194    1.574015142625e-13
   195   -2.100622539930e-14
   196   -4.612899078934e-03
   197   -3.408843908178e-03
   198   -2.342481424377e-02
   199   -3.729378201006e-02
   200   -1.121419614652e-03
   201    4.028617346452e-03
   202    4.119955879824e-03
   203   -1.175167269568e-03
   204   -9.952585620624e-14
Sym=X
Ene= 2.001764
Spin=Alpha
Occup=1
     1    4.172972379576e-13
     2    4.350736462405e-13
     3    2.841888603135e-13
     4   -1.866584489272e-13
     5   -5.864017800831e-02
     6   -4.449539970312e-13
     7    4.523449461247e-13
     8   -2.843831582265e-13
     9   -9.981451741845e-02
    10    8.350024444556e-14
    11    2.021362541927e-13
    12    1.446360525016e-14
    13   -1.123130078863e-01
    14   -9.118816824660e-13
    15    2.278169856177e-13
    16    2.903199054851e-13
    17   -1.581267122571e-02
    18    3.062918219064e-14
    19   -2.898279806017e-02
    20   -4.410205041235e-03
    21   -9.155079163418e-14
    22   -3.599235004241e-14
    23   -3.301032925803e-13
    24   -8.262168823021e-13
    25   -4.505460189402e-13
    26   -9.016796760928e-14
    27   -8.542407724234e-14
    28   -3.064095174094e-14
    29    1.037182125454e-02
    30    7.088938695381e-14
    31    2.064251042121e-13
    32    5.854191957220e-14
    33    3.243531562070e-13
    34    8.035766527780e-15
    35   -4.241802181251e-15
    36   -4.546076735758e-03
    37    1.411964797860e-13
    38    4.166325566300e-13
    39   -2.185273686696e-13
    40    4.656018143113e-13
    41   -3.416965093809e-14
    42   -5.959094056520e-14
    43   -9.182505767155e-03
    44   -6.349271210121e-13
    45   -7.066727352080e-13
    46    2.718312548701e-13
    47   -8.238210501446e-14
    48    1.446730312860e-02
    49    1.003421449943e-12
    50    4.031949274943e-13
    51   -2.162747873785e-13
    52    2.835931100423e-02
    53    6.984913969719e-13
    54    1.006477988367e-12
    55    1.568708211454e-12
    56    1.536057158972e-02
    57    8.409516263508e-13
    58    6.336847666919e-13
    59    2.495786796768e-13
    60   -1.587408129503e-02
    61   -4.518701960388e-14
    62   -1.974144077425e-02
    63   -1.850395846697e-02
    64   -7.699494807382e-13
    65   -3.489255003031e-13
    66    1.032976893846e-13
    67    1.830985748720e-13
    68    1.463697736400e-12
    69    2.291668641586e-12
    70    2.313199824079e-02
    71   -5.623936919242e-13
    72    2.287337217052e-12
    73    3.573921946119e-12
    74    3.640415232256e-02
    75   -5.173884058132e-13
    76    1.952810689997e-12
    77    3.125295135687e-12
    78    2.941139821419e-02
    79   -3.425536283069e-13
    80    4.631948896482e-15
    81    4.810787171037e-13
    82    7.515063910840e-03
    83   -9.606391121956e-16
    84    2.122833128265e-03
    85   -1.942714732928e-03
    86    1.634333403030e-13
    87    7.920708583132e-14
    88   -3.518917145348e-13
    89   -4.689696378651e-13
    90    8.134658976240e-13
    91    7.804437793766e-13
    92   -2.608190706278e-02
    93    1.071378072311e-12
    94    1.279715993645e-12
    95    1.332200260305e-12
    96   -4.982854393855e-02
    97    8.938936469765e-14
    98    3.280915007302e-13
    99    2.226854895838e-13
   100   -2.069407935406e-02
   101    1.122167259386e-12
   102    1.580102240272e-12
   103   -1.347625579842e-12
   104    1.322659341860e-02
   105   -8.231696147385e-14
   106    4.069080618350e-02
   107    2.188193118225e-02
   108    2.046605054823e-13
   109    1.414926941043e-13
   110   -4.285557068874e-14
   111   -5.643311711561e-14
   112   -1.420368854250e-12
   113   -2.001740388938e-12
   114    2.467080869352e-01
   115    9.396416850527e-14
   116   -1.614788036446e-12
   117   -2.298263935221e-12
   118    2.799725440633e-01
   119   -9.089247749581e-13
   120   -4.134433436662e-13
   121   -1.315227738881e-12
   122    1.967757822861e-01
   123   -2.872001457893e-13
   124   -3.635295889675e-13
   125   -1.378559526901e-13
   126    3.085038452285e-02
   127   -1.000142311104e-13
   128   -8.021868755700e-03
   129   -4.837340325930e-03
   130    5.753615476548e-14
   131    1.749759931347e-13
   132    4.665978214746e-13
   133    4.470023497366e-13
   134    1.798203871845e-13
   135    2.946023542673e-13
   136   -1.253561575790e-01
   137   -2.746973927569e-13
   138    1.657107203165e-13
   139    4.194740873028e-13
   140   -2.039319496271e-01
   141   -1.626794848749e-12
   142    9.750877063367e-13
   143    4.214788991433e-14
   144   -2.140060592044e-01