[Molden Format]
[Atoms] (Angs)
  C      1    6     -0.00714236     -1.70213747     -0.00000000
  H      2    1     -2.06882847     -1.44022412      0.00000000
  H      3    1     -0.12337987     -2.77567521      0.00000000
  H      4    1      0.04651892      1.98813947     -0.00000000
  C      5    6     -1.21953563      0.40211669      0.00000000
  O      6    8     -2.25921553      1.03043814      0.00000000
  C      7    6      1.28797806      0.34644937     -0.00000000
  O      8    8      2.31273661      1.00537216     -0.00000000
  N      9    7      0.03446295      0.97739857     -0.00000000
  N     10    7     -1.17287765     -0.98229824      0.00000000
  C     11    6      1.20107039     -1.10433419     -0.00000000
  H     12    1      2.11220096     -1.67699125     -0.00000000
[GTO]
1    0
S    6    1.000000
   4.56324000E+03    1.96665000E-03 
   6.82024000E+02    1.52306000E-02 
   1.54973000E+02    7.61269000E-02 
   4.44553000E+01    2.60801000E-01 
   1.30290000E+01    6.16462000E-01 
   1.82773000E+00    2.21006000E-01 
SP   3    1.000000
   2.09642000E+01    1.14660000E-01   4.02487000E-02 
   4.80331000E+00    9.19999000E-01   2.37594000E-01 
   1.45933000E+00   -3.03068000E-03   8.15854000E-01 
SP   1    1.000000
   4.83456000E-01    1.00000000E+00   1.00000000E+00 
SP   1    1.000000
   1.45585000E-01    1.00000000E+00   1.00000000E+00 
SP   1    1.000000
   4.38000000E-02    1.00000000E+00   1.00000000E+00 
D    1    1.000000
   6.26000000E-01    1.00000000E+00 

2    0
S    3    1.000000
   3.38650000E+01    2.54938000E-02 
   5.09479000E+00    1.90373000E-01 
   1.15879000E+00    8.52161000E-01 
S    1    1.000000
   3.25840000E-01    1.00000000E+00 
S    1    1.000000
   1.02741000E-01    1.00000000E+00 
S    1    1.000000
   3.60000000E-02    1.00000000E+00 
P    1    1.000000
   7.50000000E-01    1.00000000E+00 

3    0
S    3    1.000000
   3.38650000E+01    2.54938000E-02 
   5.09479000E+00    1.90373000E-01 
   1.15879000E+00    8.52161000E-01 
S    1    1.000000
   3.25840000E-01    1.00000000E+00 
S    1    1.000000
   1.02741000E-01    1.00000000E+00 
S    1    1.000000
   3.60000000E-02    1.00000000E+00 
P    1    1.000000
   7.50000000E-01    1.00000000E+00 

4    0
S    3    1.000000
   3.38650000E+01    2.54938000E-02 
   5.09479000E+00    1.90373000E-01 
   1.15879000E+00    8.52161000E-01 
S    1    1.000000
   3.25840000E-01    1.00000000E+00 
S    1    1.000000
   1.02741000E-01    1.00000000E+00 
S    1    1.000000
   3.60000000E-02    1.00000000E+00 
P    1    1.000000
   7.50000000E-01    1.00000000E+00 

5    0
S    6    1.000000
   4.56324000E+03    1.96665000E-03 
   6.82024000E+02    1.52306000E-02 
   1.54973000E+02    7.61269000E-02 
   4.44553000E+01    2.60801000E-01 
   1.30290000E+01    6.16462000E-01 
   1.82773000E+00    2.21006000E-01 
SP   3    1.000000
   2.09642000E+01    1.14660000E-01   4.02487000E-02 
   4.80331000E+00    9.19999000E-01   2.37594000E-01 
   1.45933000E+00   -3.03068000E-03   8.15854000E-01 
SP   1    1.000000
   4.83456000E-01    1.00000000E+00   1.00000000E+00 
SP   1    1.000000
   1.45585000E-01    1.00000000E+00   1.00000000E+00 
SP   1    1.000000
   4.38000000E-02    1.00000000E+00   1.00000000E+00 
D    1    1.000000
   6.26000000E-01    1.00000000E+00 

6    0
S    6    1.000000
   8.58850000E+03    1.89515000E-03 
   1.29723000E+03    1.43859000E-02 
   2.99296000E+02    7.07320000E-02 
   8.73771000E+01    2.40001000E-01 
   2.56789000E+01    5.94797000E-01 
   3.74004000E+00    2.80802000E-01 
SP   3    1.000000
   4.21175000E+01    1.13889000E-01   3.65114000E-02 
   9.62837000E+00    9.20811000E-01   2.37153000E-01 
   2.85332000E+00   -3.27447000E-03   8.19702000E-01 
SP   1    1.000000
   9.05661000E-01    1.00000000E+00   1.00000000E+00 
SP   1    1.000000
   2.55611000E-01    1.00000000E+00   1.00000000E+00 
SP   1    1.000000
   8.45000000E-02    1.00000000E+00   1.00000000E+00 
D    1    1.000000
   1.29200000E+00    1.00000000E+00 

7    0
S    6    1.000000
   4.56324000E+03    1.96665000E-03 
   6.82024000E+02    1.52306000E-02 
   1.54973000E+02    7.61269000E-02 
   4.44553000E+01    2.60801000E-01 
   1.30290000E+01    6.16462000E-01 
   1.82773000E+00    2.21006000E-01 
SP   3    1.000000
   2.09642000E+01    1.14660000E-01   4.02487000E-02 
   4.80331000E+00    9.19999000E-01   2.37594000E-01 
   1.45933000E+00   -3.03068000E-03   8.15854000E-01 
SP   1    1.000000
   4.83456000E-01    1.00000000E+00   1.00000000E+00 
SP   1    1.000000
   1.45585000E-01    1.00000000E+00   1.00000000E+00 
SP   1    1.000000
   4.38000000E-02    1.00000000E+00   1.00000000E+00 
D    1    1.000000
   6.26000000E-01    1.00000000E+00 

8    0
S    6    1.000000
   8.58850000E+03    1.89515000E-03 
   1.29723000E+03    1.43859000E-02 
   2.99296000E+02    7.07320000E-02 
   8.73771000E+01    2.40001000E-01 
   2.56789000E+01    5.94797000E-01 
   3.74004000E+00    2.80802000E-01 
SP   3    1.000000
   4.21175000E+01    1.13889000E-01   3.65114000E-02 
   9.62837000E+00    9.20811000E-01   2.37153000E-01 
   2.85332000E+00   -3.27447000E-03   8.19702000E-01 
SP   1    1.000000
   9.05661000E-01    1.00000000E+00   1.00000000E+00 
SP   1    1.000000
   2.55611000E-01    1.00000000E+00   1.00000000E+00 
SP   1    1.000000
   8.45000000E-02    1.00000000E+00   1.00000000E+00 
D    1    1.000000
   1.29200000E+00    1.00000000E+00 

9    0
S    6    1.000000
   6.29348000E+03    1.96979000E-03 
   9.49044000E+02    1.49613000E-02 
   2.18776000E+02    7.35006000E-02 
   6.36916000E+01    2.48937000E-01 
   1.88282000E+01    6.02460000E-01 
   2.72023000E+00    2.56202000E-01 
SP   3    1.000000
   3.06331000E+01    1.11906000E-01   3.83119000E-02 
   7.02614000E+00    9.21666000E-01   2.37403000E-01 
   2.11205000E+00   -2.56919000E-03   8.17592000E-01 
SP   1    1.000000
   6.84009000E-01    1.00000000E+00   1.00000000E+00 
SP   1    1.000000
   2.00878000E-01    1.00000000E+00   1.00000000E+00 
SP   1    1.000000
   6.39000000E-02    1.00000000E+00   1.00000000E+00 
D    1    1.000000
   9.13000000E-01    1.00000000E+00 

10    0
S    6    1.000000
   6.29348000E+03    1.96979000E-03 
   9.49044000E+02    1.49613000E-02 
   2.18776000E+02    7.35006000E-02 
   6.36916000E+01    2.48937000E-01 
   1.88282000E+01    6.02460000E-01 
   2.72023000E+00    2.56202000E-01 
SP   3    1.000000
   3.06331000E+01    1.11906000E-01   3.83119000E-02 
   7.02614000E+00    9.21666000E-01   2.37403000E-01 
   2.11205000E+00   -2.56919000E-03   8.17592000E-01 
SP   1    1.000000
   6.84009000E-01    1.00000000E+00   1.00000000E+00 
SP   1    1.000000
   2.00878000E-01    1.00000000E+00   1.00000000E+00 
SP   1    1.000000
   6.39000000E-02    1.00000000E+00   1.00000000E+00 
D    1    1.000000
   9.13000000E-01    1.00000000E+00 

11    0
S    6    1.000000
   4.56324000E+03    1.96665000E-03 
   6.82024000E+02    1.52306000E-02 
   1.54973000E+02    7.61269000E-02 
   4.44553000E+01    2.60801000E-01 
   1.30290000E+01    6.16462000E-01 
   1.82773000E+00    2.21006000E-01 
SP   3    1.000000
   2.09642000E+01    1.14660000E-01   4.02487000E-02 
   4.80331000E+00    9.19999000E-01   2.37594000E-01 
   1.45933000E+00   -3.03068000E-03   8.15854000E-01 
SP   1    1.000000
   4.83456000E-01    1.00000000E+00   1.00000000E+00 
SP   1    1.000000
   1.45585000E-01    1.00000000E+00   1.00000000E+00 
SP   1    1.000000
   4.38000000E-02    1.00000000E+00   1.00000000E+00 
D    1    1.000000
   6.26000000E-01    1.00000000E+00 

12    0
S    3    1.000000
   3.38650000E+01    2.54938000E-02 
   5.09479000E+00    1.90373000E-01 
   1.15879000E+00    8.52161000E-01 
S    1    1.000000
   3.25840000E-01    1.00000000E+00 
S    1    1.000000
   1.02741000E-01    1.00000000E+00 
S    1    1.000000
   3.60000000E-02    1.00000000E+00 
P    1    1.000000
   7.50000000E-01    1.00000000E+00 

[MO]
Sym=X
Ene= 2.006069
Spin=Alpha
Occup=1
     1   -4.291219143509e-15
     2   -2.731931973415e-14
     3    4.143410228076e-14
     4    3.042595469542e-14
     5    9.393817087224e-02
     6    7.962150999040e-14
     7    9.693049670246e-14
     8    5.744241182109e-15
     9    1.626473716086e-01
    10   -1.931641760689e-13
    11   -1.796147503067e-14
    12   -6.779789798250e-14
    13    1.386702559411e-01
    14    3.481681220002e-12
    15    9.632403154150e-13
    16    6.767091882640e-13
    17    1.514070918828e-02
    18    1.646405674610e-16
    19    1.238459442828e-02
    20    1.273231847594e-02
    21    9.165841139765e-15
    22    1.476446967305e-14
    23   -3.177177183194e-14
    24    2.717660374600e-13
    25   -2.389200765579e-13
    26   -2.114338148304e-14
    27    1.549743772698e-14
    28    3.951891871966e-15
    29    4.236195250331e-05
    30    1.956052264611e-15
    31   -1.043530199343e-14
    32   -9.957522593767e-14
    33    1.362737913750e-13
    34    6.775988015787e-15
    35   -5.445420476944e-16
    36    6.653971956297e-03
    37   -1.923206436594e-14
    38   -3.494270988390e-13
    39   -7.456005607617e-14
    40    1.728336991100e-14
    41   -5.824546902803e-15
    42    3.014598584780e-14
    43   -6.045397562087e-03
    44    2.010735682232e-15
    45   -3.950465880611e-15
    46    1.219942621732e-14
    47   -9.332466101891e-15
    48   -1.024697222395e-01
    49    3.364760644822e-14
    50    1.608773434938e-14
    51    1.813483803805e-15
    52   -1.819472415369e-01
    53    2.314410165431e-13
    54   -4.458243871025e-13
    55   -6.804235749326e-13
    56   -1.032806359512e-01
    57   -2.390433389168e-13
    58   -6.455430555118e-14
    59    7.314453851088e-14
    60   -2.003584648990e-02
    61   -4.467357121816e-15
    62    1.811977283080e-02
    63   -2.231661955349e-02
    64    5.322268180188e-15
    65   -6.948036794812e-16
    66   -6.181773884035e-15
    67   -1.006074491640e-14
    68   -6.902687956428e-14
    69   -8.580163309001e-14
    70   -2.366506147794e-01
    71    3.966485655255e-14
    72   -8.045085605029e-14
    73   -1.007635565574e-13
    74   -2.765878594847e-01
    75   -2.135683329900e-14
    76   -1.339249587858e-14
    77    3.677305751022e-14
    78   -1.695440877252e-01
    79   -1.934253096805e-13
    80   -3.539729349255e-14
    81    8.696781551771e-14
    82    7.465142904142e-03
    83    9.774581006309e-16
    84   -1.958030740201e-02
    85    1.117486923528e-02
    86   -4.107313613494e-15
    87   -1.106223353017e-15
    88   -1.170925737889e-14
    89    4.312919758721e-15
    90    2.960197058087e-14
    91   -4.895792198632e-14
    92    4.353135446772e-02
    93   -1.088807566490e-13
    94    1.137182996280e-14
    95   -5.559360107482e-14
    96    7.636659815087e-02
    97    3.674674135096e-13
    98   -2.442910490087e-13
    99   -4.079227239181e-13
   100    5.630548543979e-02
   101   -2.135086368289e-12
   102    3.279939123683e-13
   103    5.565167770997e-13
   104    1.335861784286e-02
   105   -2.571528831202e-15
   106    1.027447786362e-02
   107   -1.078623680418e-02
   108    2.936780320572e-15
   109    2.175600059516e-14
   110    1.234352654190e-14
   111    4.300395808006e-15
   112    2.907879597233e-14
   113   -1.318935300354e-14
   114    4.060283337736e-02
   115    3.834730410073e-14
   116    6.144971930574e-14
   117   -2.944170607070e-14
   118    6.509161867543e-02
   119    9.042545969935e-14
   120    2.379860267219e-14
   121   -6.585117308476e-14
   122    5.052871307478e-02
   123    3.347626005963e-13
   124   -1.823560660622e-13
   125   -6.188106743493e-14
   126   -1.213349803240e-02
   127    1.129627253953e-15
   128   -5.448386953209e-03
   129   -3.720224832449e-03
   130   -5.179763410320e-15
   131   -2.462652758324e-15
   132   -5.850144727952e-14
   133   -2.783850951367e-14
   134   -4.902621200411e-14
   135   -2.519547071944e-14
   136   -6.820703919471e-02
   137   -1.551401616732e-13
   138   -8.116452944303e-14
   139   -9.384898256841e-14
   140   -1.144348251392e-01
   141    3.952474083449e-13
   142   -2.918873490243e-13
   143    5.704210403727e-13
   144   -1.065648297221e-01
   145    7.611528202058e-13
   146   -2.516968944216e-13
   147   -2.223256322991e-13
   148   -3.429861576098e-03
   149   -9.022505106633e-16
   150    1.164762159181e-02
   151    2.257367211294e-03
   152   -1.283117930323e-14
   153    5.617454699562e-15
   154    1.599622267682e-14
   155    1.924406743064e-14
   156    1.643759933027e-14
   157    9.954654588806e-15
   158    1.265799150284e-02
   159    4.590557001361e-15
   160   -1.908904763328e-14
   161    1.475045017897e-14
   162    1.989744635942e-02
   163   -4.995019213374e-13
   164    6.043235643935e-13
   165   -9.099997857921e-14
   166    1.343102094102e-02
   167   -4.612899635240e-13
   168   -5.145002394492e-13
   169   -3.492844897916e-13
   170   -6.030023387167e-03
   171    7.166085070009e-15
   172    8.168188719497e-03
   173   -1.162432754165e-02
   174   -6.348995003955e-15
   175   -8.596607998306e-15
   176    1.847829257322e-13
   177    1.222162191967e-13
   178   -3.947864038834e-14
   179   -2.448118692126e-14
   180    1.025897767396e-01
   181    1.753889401297e-13
   182   -5.672865928065e-14
   183   -4.261939158407e-14
   184    1.783792542819e-01
   185   -2.930173059639e-13
   186   -1.113076221577e-13
   187   -1.935659413690e-13
   188    1.539222287115e-01
   189   -1.334829199434e-12
   190    5.402476442759e-13
   191    8.452946164948e-13
   192    2.702124246676e-03
   193   -1.053090656549e-14
   194   -1.745384866404e-02
   195    5.229847767015e-04
   196    6.160124114739e-15
   197    5.717549700455e-16
   198    1.801740835615e-14
   199    2.376888213914e-14
   200    9.322511304021e-14
   201   -5.592878083310e-14
   202   -4.646092128562e-15
   203   -2.371083306733e-15
   204    8.153783114961e-03
Sym=X
Ene= 2.003527
Spin=Alpha
Occup=1
     1    8.097892730719e-03
     2    1.346424458200e-02
     3    1.162760363210e-02
     4   -3.006232363830e-02
     5    4.398795851212e-14
     6   -3.600588169549e-02
     7    1.956066304949e-02
     8   -5.003752823956e-02
     9    1.079037624940e-13
    10   -4.123299798228e-02
    11   -1.142562735657e-02
    12   -4.864879465820e-02
    13    3.735258037997e-14
    14   -8.854236311685e-02
    15   -2.100715387526e-03
    16   -1.687182051177e-02
    17    1.149618989724e-13
    18    2.043050863515e-03
    19    1.463252721944e-15
    20    9.700121480189e-15
    21   -1.124209598824e-02
    22    5.107820276200e-03
    23    7.094853576442e-04
    24   -1.447002056589e-02
    25   -2.427641088088e-02
    26    2.983905290133e-02
    27   -9.850280810415e-04
    28    6.133715808425e-04
    29   -7.394144999950e-15
    30    2.203752979767e-02
    31    3.516686236274e-02
    32    1.372568103127e-02
    33   -6.996112246931e-03
    34    6.089793707747e-04
    35    7.475147269684e-04
    36    5.903022915833e-15
    37    4.228043303732e-03
    38    2.004598380805e-02
    39    3.223700024768e-02
    40   -4.928196984247e-02
    41    1.731594361580e-03
    42   -1.542925778146e-03
    43    1.164193022344e-14
    44   -8.953918604433e-03
    45   -1.449535599567e-02
    46   -4.610227906350e-02
    47   -1.908988185654e-02
    48   -6.702671621106e-15
    49    4.168066579268e-02
    50   -7.537405251844e-02
    51   -3.901291188466e-02
    52   -1.856985917973e-14
    53    4.522739653262e-02
    54    3.758401991312e-02
    55    6.297528212189e-02
    56    4.340838487419e-14
    57    3.111556507671e-02
    58    5.429938550239e-02
    59    7.861417894972e-02
    60   -1.247176348596e-13
    61   -2.052566306714e-03
    62    1.749001244177e-14
    63   -5.221712745023e-15
    64   -5.518905404939e-02
    65   -3.270478734257e-02
    66   -1.070940927533e-02
    67   -1.544179585591e-02
    68    2.079012613623e-01
    69    2.502681470972e-01
    70   -1.208483524729e-13
    71    4.991167131799e-02
    72    2.398411143417e-01
    73    2.863580973461e-01
    74   -1.251571541274e-13
    75   -7.088557695081e-04
    76    1.466548696628e-01
    77    2.066579251189e-01
    78   -1.159613826157e-13
    79   -1.987313728877e-02
    80   -4.750236334145e-03
    81    3.710734573548e-03
    82    5.134480116403e-14
    83   -3.307447440463e-03
    84   -8.435528978080e-15
    85   -2.659907846753e-15
    86    1.401831653872e-02
    87    1.916951403265e-03
    88   -1.549914336805e-02
    89   -2.578109030292e-02
    90   -3.536197403982e-02
    91   -1.276719007827e-05
    92    3.174024149627e-14
    93    6.925081477161e-02
    94   -5.904464136508e-02
    95   -1.927819655002e-03
    96    4.000632070919e-14
    97    6.940528202735e-02
    98   -5.287456675381e-02
    99    8.149443459894e-03
   100    9.642322714609e-14
   101   -1.447497902740e-01
   102   -1.286400104156e-02
   103    9.387127797202e-02
   104    2.200502698374e-13
   105   -1.898075633076e-03
   106   -1.249699157543e-14
   107   -4.270074924541e-15
   108   -3.027154729238e-02
   109    4.828142281121e-03
   110    3.932188682665e-03
   111    6.664541299888e-03
   112   -5.141163762115e-02
   113    1.041096951779e-01
   114    5.564028753388e-15
   115   -2.011927357146e-02
   116   -8.045158284851e-02
   117    1.601771176862e-01
   118   -2.447300922411e-14
   119   -9.497142665898e-03
   120   -7.578392332402e-02
   121    1.430333666835e-01
   122    4.268506302188e-14
   123    3.000277999037e-02
   124   -1.183860870185e-02
   125    1.614476472658e-03
   126   -1.347953589481e-13
   127    3.093026253091e-04
   128    3.895508054704e-15
   129   -1.047863311305e-14
   130    7.098832645692e-03
   131   -4.580721120452e-03
   132    2.422813046799e-02
   133    4.015358735413e-02
   134    5.814852721528e-02
   135    2.670474846366e-02
   136    8.316828829435e-14
   137   -1.065076687962e-01
   138    8.690870217887e-02
   139    3.143761682313e-02
   140    1.461184437146e-13
   141   -2.102169425768e-01
   142    7.791178390838e-02
   143    4.897822404084e-02
   144    1.035078823554e-13
   145   -1.825659818164e-01
   146   -7.913592284088e-03
   147    4.943592572416e-03
   148   -3.004572900839e-14
   149   -1.365108805268e-03
   150    2.472409383012e-15
   151    1.842774846208e-15
   152    1.082378514141e-04
   153   -4.586083581683e-03
   154   -1.234293733740e-02
   155   -2.012694366679e-02
   156   -2.544174054134e-02
   157    6.209772105870e-02
   158    1.502611817591e-14
   159    5.265022002011e-02
   160   -4.387114151848e-02
   161    8.946504653054e-02
   162    2.780206157055e-14
   163    1.067219989642e-01
   164   -3.704013116368e-02
   165    9.566765068091e-02
   166   -2.295249372121e-14
   167    1.157438498183e-01
   168   -2.161602152466e-03
   169    1.056069862497e-02
   170    1.036098796815e-14
   171    7.105752370305e-04
   172    6.257211337125e-15
   173   -1.346600051150e-15
   174   -3.010871104545e-03
   175   -1.339516951508e-03
   176   -5.386843919211e-03
   177   -8.857571320591e-03
   178    2.582245156132e-03
   179    2.981452429025e-02
   180    5.867144559972e-14
   181    2.257464803928e-02
   182    5.413402613386e-03
   183    4.267700949583e-02
   184    7.702366089690e-14
   185    6.431373003419e-02
   186   -1.378686742858e-02
   187    3.632522290499e-02
   188    1.147986313092e-13
   189    2.492401212160e-01
   190   -2.513923388789e-02
   191    3.958166810127e-02
   192   -1.881129536283e-13
   193    2.558329612287e-05
   194   -2.255661430188e-15
   195   -1.584963415482e-16
   196   -5.460373841182e-03
   197    2.829029821680e-04
   198   -7.439800249211e-03
   199   -1.359352528143e-02
   200   -3.376848847828e-03
   201    1.026059047843e-02
   202    1.289725019398e-03
   203    1.458092466199e-05
   204    3.891262716810e-15
Sym=X
Ene= 2.001947
Spin=Alpha
Occup=1
     1   -8.981944179798e-14
     2   -1.574777359848e-13
     3    8.560528759095e-14
     4    1.261156475459e-13
     5    9.593407956237e-02
     6    4.301563894865e-13
     7    1.271980247765e-13
     8    2.013706399813e-13
     9    1.644614286383e-01
    10    1.047568986396e-13
    11    1.746175520145e-13
    12    1.986431308586e-13
    13    1.109510586609e-01
    14    9.044829296006e-12
    15    2.944663799024e-12
    16    1.215286545668e-12
    17    2.224295383992e-02
    18   -1.702797960448e-14
    19   -8.366087115393e-03
    20    1.815987091323e-02
    21    4.080827347691e-14
    22   -2.000422051425e-14
    23    9.854654084345e-14
    24    2.256807079196e-13
    25   -8.040069414643e-13
    26    3.316400443946e-13
    27    2.506829653899e-14
    28    1.591451584991e-14
    29    1.158613162334e-02
    30   -3.659564883639e-14
    31    6.031643518463e-15
    32   -1.353048162960e-13
    33    3.213967839853e-13
    34    4.834078187400e-15
    35    1.456503207200e-14
    36    7.154633984738e-03
    37   -1.021255219904e-13
    38   -2.168324552844e-13
    39    5.125645045981e-13
    40   -2.404264258150e-13
    41    1.317387257245e-15
    42    1.974026878431e-14
    43    2.353513580711e-03
    44    3.171576417671e-13
    45    3.007004624874e-13
    46    1.819950062157e-13
    47   -1.924583427650e-13
    48    6.897952782543e-02
    49   -2.284083563771e-13
    50    2.734489785463e-13
    51   -3.154826678753e-13
    52    1.207195305505e-01
    53   -1.471894779022e-13
    54   -1.033095402636e-13
    55   -6.585574272271e-15
    56    5.496198248631e-02
    57   -8.128582801516e-13
    58    1.217571824598e-13
    59    7.354235040767e-13
    60    2.497603989290e-02
    61    9.251248395936e-15
    62    6.530928351119e-03
    63   -1.778409230363e-02
    64   -7.609598067780e-14
    65    7.247426946362e-15
    66    8.001302859353e-14
    67    1.134902149250e-13
    68   -1.940256587289e-13
    69    4.788803097368e-13
    70    6.355734541125e-03
    71   -3.644940668076e-13
    72   -2.266005415616e-13
    73    5.432482876167e-13
    74    1.107644361825e-02
    75   -3.166985294731e-14
    76   -2.820088830329e-14
    77    3.426844658888e-13
    78   -3.307573030297e-03
    79   -5.252710018383e-14
    80   -3.517497014190e-14
    81   -4.536566738902e-14
    82   -2.100718646373e-02
    83    2.364666341332e-14
    84    5.796634732276e-03
    85   -3.683569012683e-03
    86   -9.551543629150e-15
    87    4.119750602288e-14
    88   -1.984866926714e-13
    89   -1.450905633906e-13
    90   -4.862579001355e-14
    91    1.490980546794e-13
    92   -5.253004745597e-02
    93   -1.038946746212e-13
    94   -8.745023968417e-14
    95    2.533656232137e-13
    96   -9.223308040188e-02
    97   -3.068577170034e-13
    98    1.071533223892e-13
    99   -7.052578834850e-14
   100   -7.432448029595e-02
   101   -3.460519649602e-12
   102   -5.510975260818e-13
   103    1.398216591840e-12
   104   -8.121355976519e-03
   105   -3.169945000094e-15
   106   -3.185240489088e-02
   107   -2.250769967749e-02
   108    1.282152141544e-13
   109   -4.669497408006e-14
   110   -1.751108659280e-13
   111   -1.652646360138e-13
   112    1.905673999785e-13
   113   -3.069721626325e-13
   114   -1.364284081399e-01
   115    9.340746845809e-14
   116    2.965337769697e-13
   117   -4.694391009514e-13
   118   -2.138124143133e-01
   119    7.332621675224e-14
   120    2.643874238450e-13
   121   -4.648728217791e-13
   122   -1.963496414358e-01
   123    2.664323452504e-13
   124   -4.694868369465e-14
   125   -6.692001869855e-14
   126   -2.227770045408e-02
   127    2.869180109203e-16
   128    1.217840047375e-02
   129    7.318266496856e-03
   130   -1.116560804730e-14
   131    8.192357918063e-15
   132   -1.277334713599e-13
   133   -1.319369283047e-13
   134    1.357810166865e-13
   135   -1.740964878603e-13
   136    4.775476278341e-02
   137    1.371115010169e-13
   138    1.999757733035e-13
   139   -2.688353255229e-13
   140    7.609238492282e-02
   141    3.562062870756e-13
   142    2.532774649607e-13
   143   -2.502921210714e-13
   144    8.556819306574e-02
   145    1.346022995171e-13
   146   -3.572493018884e-13
   147   -1.098536801535e-12
   148   -6.316220882629e-04
   149   -1.080780821520e-15
   150   -9.014443605298e-03
   151   -3.136890534340e-03
   152    4.147633796521e-15
   153    1.238090483022e-14
   154    1.121003980377e-13
   155   -3.600992314314e-14
   156    1.759304609563e-14
   157    3.346964384578e-14
   158    1.588012511624e-01
   159    7.032390953985e-13
   160    3.305504333283e-14
   161    6.105331710548e-14
   162    2.617584627482e-01
   163    6.455632003610e-13
   164    7.721892722326e-14
   165    3.102784137481e-14
   166    2.319149742502e-01
   167    5.246176413950e-13
   168   -1.081875760848e-12
   169   -8.133524201496e-13
   170   -1.745629899885e-02
   171   -1.705459816456e-14
   172    9.509827713577e-03
   173    4.884548875845e-03
   174    1.237810179152e-14
   175    3.602376453650e-15
   176   -2.478543952148e-13
   177   -2.015696806915e-13
   178   -1.397549374643e-13
   179   -2.211617555632e-13
   180    5.304010860485e-02
   181   -1.900173677906e-14
   182   -2.000751508919e-13
   183   -3.291743712686e-13
   184    8.913572724801e-02
   185   -3.265590687159e-13
   186   -8.819688111696e-14
   187   -3.078464866198e-13
   188    9.355946578349e-02
   189   -5.467910138373e-12
   190    2.555156114126e-12
   191    2.521500112695e-12
   192   -6.666102951544e-03
   193   -8.363361733452e-15
   194   -1.575631623891e-02
   195   -8.533198971823e-03
   196    3.695878868057e-14
   197    8.164616221125e-15
   198    8.348981776567e-15
   199    7.288073621158e-15
   200    5.372532164759e-14
   201   -1.201870517056e-13
   202   -1.294709546744e-15
   203   -7.963657744418e-15
   204    2.989624332517e-03
Sym=X
Ene= 2.001616
Spin=Alpha
Occup=1
     1    5.044778692484e-03
     2    7.803661181249e-03
     3    3.701250207858e-02
     4   -5.823799957351e-03
     5   -2.506391199603e-13
     6   -1.985374213977e-02
     7    6.285428322313e-02
     8   -9.708146287937e-03
     9   -4.255427087046e-13
    10    7.070046513965e-03
    11    3.134770164371e-02
    12    1.114789213075e-02
    13   -3.885951705451e-13
    14    3.117954979128e-01
    15    8.558075954556e-02
    16    9.653782135762e-02
    17    2.206222879047e-14
    18    1.589008334669e-03
    19   -1.488684453821e-14
    20   -4.415763628809e-14
    21   -1.576361728578e-03
    22    5.239816360055e-04
    23   -7.997031192368e-03
    24   -1.092418877366e-02
    25   -1.863193559114e-02
    26    4.137198834993e-03
    27   -2.207674627366e-03
    28    1.655952563475e-03
    29   -1.851149514729e-14
    30   -1.644462978212e-03
    31    1.771185612591e-03
    32    3.775585087699e-03
    33    4.201552312516e-02
    34    1.445135012754e-03
    35    4.817301616271e-05
    36   -1.264498639065e-14
    37   -1.094414730258e-02
    38   -1.138263086551e-02
    39    8.704424762265e-03
    40    2.305869396983e-02
    41   -2.173058045569e-03
    42    1.679259627349e-03
    43   -1.995482415254e-14
    44    1.646990607709e-02
    45    2.557499177392e-02
    46    7.336281756302e-02
    47   -8.053604937799e-02
    48   -2.139002420244e-13
    49   -7.298173193169e-02
    50    1.131414432373e-01
    51   -1.341770339406e-01
    52   -3.683365262510e-13
    53   -7.678831280083e-02
    54    1.860003596146e-02
    55    4.492425932254e-03
    56   -1.599962374645e-13
    57   -4.914279790205e-02
    58   -4.137641277403e-03
    59    3.013690444492e-02
    60   -1.804287070435e-13
    61    5.593405442371e-03
    62   -7.145791137137e-14
    63   -9.425105258383e-16
    64   -3.703838267784e-02
    65    6.355790958964e-03
    66    2.777691405678e-03
    67    3.534903607572e-03
    68   -9.196163916545e-02
    69    2.383959682767e-01
    70   -1.096204597418e-14
    71   -2.822829869462e-03
    72   -1.037504719284e-01
    73    2.717650590630e-01
    74   -1.667728559921e-14
    75    8.246386203210e-02
    76   -1.610474542598e-02
    77    1.586237556958e-01
    78   -5.822541889020e-15
    79    2.385886002598e-02
    80   -3.047270741428e-04
    81   -1.947493533656e-03
    82    1.292561180336e-13
    83    9.166640822227e-03
    84   -1.704779056607e-14
    85    8.464974581933e-15
    86   -3.259799002535e-03
    87    1.722579531383e-02
    88    1.492084404975e-02
    89    2.459902388881e-02
    90    6.139488470253e-04
    91    3.781497863423e-03
    92   -6.908942077809e-14
    93   -6.852281645681e-02
    94   -6.581121337762e-04
    95    1.417655550383e-02
    96   -1.434131495744e-13
    97   -8.151784705056e-02
    98    4.165386916715e-02
    99   -5.317103995033e-02
   100    4.402943222182e-14
   101    2.220628166512e-01
   102    3.457297702266e-02
   103   -1.106365238688e-01
   104    1.285052605682e-13
   105    2.144358409794e-03
   106    1.085490453265e-13
   107    3.903404804542e-14
   108    4.484628306245e-02
   109   -2.257676437695e-02
   110   -9.445815848759e-03
   111   -1.602763150730e-02
   112    1.128369525166e-01
   113   -1.333448319944e-01
   114    2.264618160323e-13
   115    4.883554851745e-02
   116    1.731164205980e-01
   117   -2.065671401071e-01
   118    3.364939825978e-13
   119    5.792700449432e-02
   120    1.520696335436e-01
   121   -1.968326556137e-01
   122    3.809099985247e-13
   123    1.451765038086e-02
   124   -5.301092040649e-03
   125   -9.392305878242e-03
   126    1.693467889681e-14
   127    1.367136114607e-03
   128   -9.549166703069e-15
   129   -2.548264844108e-15
   130   -1.050812706372e-02
   131    3.004892746804e-03
   132   -6.262097560389e-03
   133   -1.127665164225e-02
   134    2.486816747049e-02
   135   -2.519596019837e-02
   136   -4.513664806733e-13
   137    3.285115555781e-02
   138    3.377373454975e-02
   139   -3.795701014328e-02
   140   -7.402639887298e-13
   141    8.975240263513e-02
   142    7.295092341629e-02
   143   -4.981665346295e-02
   144   -7.668394034851e-13