[Molden Format]
[Atoms] (Angs)
  C      1    6     -0.00714236     -1.70213747     -0.00000000
  H      2    1     -2.06882847     -1.44022412      0.00000000
  H      3    1     -0.12337987     -2.77567521      0.00000000
  H      4    1      0.04651892      1.98813947     -0.00000000
  C      5    6     -1.21953563      0.40211669      0.00000000
  O      6    8     -2.25921553      1.03043814      0.00000000
  C      7    6      1.28797806      0.34644937     -0.00000000
  O      8    8      2.31273661      1.00537216     -0.00000000
  N      9    7      0.03446295      0.97739857     -0.00000000
  N     10    7     -1.17287765     -0.98229824      0.00000000
  C     11    6      1.20107039     -1.10433419     -0.00000000
  H     12    1      2.11220096     -1.67699125     -0.00000000
[GTO]
1    0
S    6    1.000000
   4.56324000E+03    1.96665000E-03 
   6.82024000E+02    1.52306000E-02 
   1.54973000E+02    7.61269000E-02 
   4.44553000E+01    2.60801000E-01 
   1.30290000E+01    6.16462000E-01 
   1.82773000E+00    2.21006000E-01 
SP   3    1.000000
   2.09642000E+01    1.14660000E-01   4.02487000E-02 
   4.80331000E+00    9.19999000E-01   2.37594000E-01 
   1.45933000E+00   -3.03068000E-03   8.15854000E-01 
SP   1    1.000000
   4.83456000E-01    1.00000000E+00   1.00000000E+00 
SP   1    1.000000
   1.45585000E-01    1.00000000E+00   1.00000000E+00 
SP   1    1.000000
   4.38000000E-02    1.00000000E+00   1.00000000E+00 
D    1    1.000000
   6.26000000E-01    1.00000000E+00 

2    0
S    3    1.000000
   3.38650000E+01    2.54938000E-02 
   5.09479000E+00    1.90373000E-01 
   1.15879000E+00    8.52161000E-01 
S    1    1.000000
   3.25840000E-01    1.00000000E+00 
S    1    1.000000
   1.02741000E-01    1.00000000E+00 
S    1    1.000000
   3.60000000E-02    1.00000000E+00 
P    1    1.000000
   7.50000000E-01    1.00000000E+00 

3    0
S    3    1.000000
   3.38650000E+01    2.54938000E-02 
   5.09479000E+00    1.90373000E-01 
   1.15879000E+00    8.52161000E-01 
S    1    1.000000
   3.25840000E-01    1.00000000E+00 
S    1    1.000000
   1.02741000E-01    1.00000000E+00 
S    1    1.000000
   3.60000000E-02    1.00000000E+00 
P    1    1.000000
   7.50000000E-01    1.00000000E+00 

4    0
S    3    1.000000
   3.38650000E+01    2.54938000E-02 
   5.09479000E+00    1.90373000E-01 
   1.15879000E+00    8.52161000E-01 
S    1    1.000000
   3.25840000E-01    1.00000000E+00 
S    1    1.000000
   1.02741000E-01    1.00000000E+00 
S    1    1.000000
   3.60000000E-02    1.00000000E+00 
P    1    1.000000
   7.50000000E-01    1.00000000E+00 

5    0
S    6    1.000000
   4.56324000E+03    1.96665000E-03 
   6.82024000E+02    1.52306000E-02 
   1.54973000E+02    7.61269000E-02 
   4.44553000E+01    2.60801000E-01 
   1.30290000E+01    6.16462000E-01 
   1.82773000E+00    2.21006000E-01 
SP   3    1.000000
   2.09642000E+01    1.14660000E-01   4.02487000E-02 
   4.80331000E+00    9.19999000E-01   2.37594000E-01 
   1.45933000E+00   -3.03068000E-03   8.15854000E-01 
SP   1    1.000000
   4.83456000E-01    1.00000000E+00   1.00000000E+00 
SP   1    1.000000
   1.45585000E-01    1.00000000E+00   1.00000000E+00 
SP   1    1.000000
   4.38000000E-02    1.00000000E+00   1.00000000E+00 
D    1    1.000000
   6.26000000E-01    1.00000000E+00 

6    0
S    6    1.000000
   8.58850000E+03    1.89515000E-03 
   1.29723000E+03    1.43859000E-02 
   2.99296000E+02    7.07320000E-02 
   8.73771000E+01    2.40001000E-01 
   2.56789000E+01    5.94797000E-01 
   3.74004000E+00    2.80802000E-01 
SP   3    1.000000
   4.21175000E+01    1.13889000E-01   3.65114000E-02 
   9.62837000E+00    9.20811000E-01   2.37153000E-01 
   2.85332000E+00   -3.27447000E-03   8.19702000E-01 
SP   1    1.000000
   9.05661000E-01    1.00000000E+00   1.00000000E+00 
SP   1    1.000000
   2.55611000E-01    1.00000000E+00   1.00000000E+00 
SP   1    1.000000
   8.45000000E-02    1.00000000E+00   1.00000000E+00 
D    1    1.000000
   1.29200000E+00    1.00000000E+00 

7    0
S    6    1.000000
   4.56324000E+03    1.96665000E-03 
   6.82024000E+02    1.52306000E-02 
   1.54973000E+02    7.61269000E-02 
   4.44553000E+01    2.60801000E-01 
   1.30290000E+01    6.16462000E-01 
   1.82773000E+00    2.21006000E-01 
SP   3    1.000000
   2.09642000E+01    1.14660000E-01   4.02487000E-02 
   4.80331000E+00    9.19999000E-01   2.37594000E-01 
   1.45933000E+00   -3.03068000E-03   8.15854000E-01 
SP   1    1.000000
   4.83456000E-01    1.00000000E+00   1.00000000E+00 
SP   1    1.000000
   1.45585000E-01    1.00000000E+00   1.00000000E+00 
SP   1    1.000000
   4.38000000E-02    1.00000000E+00   1.00000000E+00 
D    1    1.000000
   6.26000000E-01    1.00000000E+00 

8    0
S    6    1.000000
   8.58850000E+03    1.89515000E-03 
   1.29723000E+03    1.43859000E-02 
   2.99296000E+02    7.07320000E-02 
   8.73771000E+01    2.40001000E-01 
   2.56789000E+01    5.94797000E-01 
   3.74004000E+00    2.80802000E-01 
SP   3    1.000000
   4.21175000E+01    1.13889000E-01   3.65114000E-02 
   9.62837000E+00    9.20811000E-01   2.37153000E-01 
   2.85332000E+00   -3.27447000E-03   8.19702000E-01 
SP   1    1.000000
   9.05661000E-01    1.00000000E+00   1.00000000E+00 
SP   1    1.000000
   2.55611000E-01    1.00000000E+00   1.00000000E+00 
SP   1    1.000000
   8.45000000E-02    1.00000000E+00   1.00000000E+00 
D    1    1.000000
   1.29200000E+00    1.00000000E+00 

9    0
S    6    1.000000
   6.29348000E+03    1.96979000E-03 
   9.49044000E+02    1.49613000E-02 
   2.18776000E+02    7.35006000E-02 
   6.36916000E+01    2.48937000E-01 
   1.88282000E+01    6.02460000E-01 
   2.72023000E+00    2.56202000E-01 
SP   3    1.000000
   3.06331000E+01    1.11906000E-01   3.83119000E-02 
   7.02614000E+00    9.21666000E-01   2.37403000E-01 
   2.11205000E+00   -2.56919000E-03   8.17592000E-01 
SP   1    1.000000
   6.84009000E-01    1.00000000E+00   1.00000000E+00 
SP   1    1.000000
   2.00878000E-01    1.00000000E+00   1.00000000E+00 
SP   1    1.000000
   6.39000000E-02    1.00000000E+00   1.00000000E+00 
D    1    1.000000
   9.13000000E-01    1.00000000E+00 

10    0
S    6    1.000000
   6.29348000E+03    1.96979000E-03 
   9.49044000E+02    1.49613000E-02 
   2.18776000E+02    7.35006000E-02 
   6.36916000E+01    2.48937000E-01 
   1.88282000E+01    6.02460000E-01 
   2.72023000E+00    2.56202000E-01 
SP   3    1.000000
   3.06331000E+01    1.11906000E-01   3.83119000E-02 
   7.02614000E+00    9.21666000E-01   2.37403000E-01 
   2.11205000E+00   -2.56919000E-03   8.17592000E-01 
SP   1    1.000000
   6.84009000E-01    1.00000000E+00   1.00000000E+00 
SP   1    1.000000
   2.00878000E-01    1.00000000E+00   1.00000000E+00 
SP   1    1.000000
   6.39000000E-02    1.00000000E+00   1.00000000E+00 
D    1    1.000000
   9.13000000E-01    1.00000000E+00 

11    0
S    6    1.000000
   4.56324000E+03    1.96665000E-03 
   6.82024000E+02    1.52306000E-02 
   1.54973000E+02    7.61269000E-02 
   4.44553000E+01    2.60801000E-01 
   1.30290000E+01    6.16462000E-01 
   1.82773000E+00    2.21006000E-01 
SP   3    1.000000
   2.09642000E+01    1.14660000E-01   4.02487000E-02 
   4.80331000E+00    9.19999000E-01   2.37594000E-01 
   1.45933000E+00   -3.03068000E-03   8.15854000E-01 
SP   1    1.000000
   4.83456000E-01    1.00000000E+00   1.00000000E+00 
SP   1    1.000000
   1.45585000E-01    1.00000000E+00   1.00000000E+00 
SP   1    1.000000
   4.38000000E-02    1.00000000E+00   1.00000000E+00 
D    1    1.000000
   6.26000000E-01    1.00000000E+00 

12    0
S    3    1.000000
   3.38650000E+01    2.54938000E-02 
   5.09479000E+00    1.90373000E-01 
   1.15879000E+00    8.52161000E-01 
S    1    1.000000
   3.25840000E-01    1.00000000E+00 
S    1    1.000000
   1.02741000E-01    1.00000000E+00 
S    1    1.000000
   3.60000000E-02    1.00000000E+00 
P    1    1.000000
   7.50000000E-01    1.00000000E+00 

[MO]
Sym=X
Ene= 2.006543
Spin=Alpha
Occup=1
     1   -1.205493167576e-15
     2   -6.519848436529e-15
     3   -1.111376653654e-14
     4    2.742217659745e-14
     5    3.481085189511e-02
     6    3.419156418103e-14
     7   -4.550228401235e-15
     8    2.329223067289e-14
     9    5.960872456970e-02
    10   -4.560535680587e-13
    11    1.095508412159e-13
    12   -1.291319367077e-13
    13    3.522228983775e-02
    14    5.465113790746e-12
    15    1.627825760139e-12
    16    7.207902661332e-13
    17    5.018230501587e-03
    18    5.698417451511e-15
    19   -1.251778224583e-02
    20    6.228028930733e-03
    21    2.198015423945e-14
    22   -7.176742747430e-16
    23    4.113305441601e-14
    24    2.713342523539e-13
    25   -1.205384467240e-13
    26    4.736871533062e-13
    27    1.702256178327e-14
    28    5.931352183067e-15
    29    9.242600325609e-03
    30   -3.146467840547e-14
    31   -4.646775523162e-14
    32   -6.760583593380e-14
    33    1.593092656319e-13
    34    6.616396698133e-17
    35    4.888821862963e-15
    36    2.965965400920e-03
    37    1.172509199179e-14
    38   -1.866270515972e-13
    39    4.746407157183e-13
    40   -3.403393848973e-13
    41   -4.890650248865e-15
    42    8.729717007257e-15
    43   -8.656879289406e-03
    44    6.483988420828e-14
    45    6.981640278102e-14
    46    1.182113424954e-14
    47   -4.533121336412e-14
    48    2.654295115028e-02
    49   -8.076288874134e-14
    50    3.398763151141e-14
    51   -4.765566748553e-14
    52    4.626694574696e-02
    53   -1.901475688441e-14
    54   -1.628175463375e-13
    55   -3.394272235110e-13
    56    3.276340360417e-02
    57   -1.141919895159e-12
    58    2.262125730354e-14
    59    6.953807484563e-13
    60    9.931794754285e-03
    61    3.762666550390e-15
    62   -1.654104197377e-02
    63   -1.298318253381e-02
    64   -1.892890003700e-16
    65    1.397078984607e-14
    66    2.479130744694e-14
    67    3.782849132990e-14
    68   -3.402757984949e-14
    69    2.316783098550e-14
    70    4.085936663628e-02
    71   -9.435902564666e-14
    72   -7.088520721614e-14
    73    5.661038306763e-15
    74    6.429499862732e-02
    75   -1.199142402941e-13
    76    3.037336719617e-14
    77    1.372748798170e-13
    78    5.659624489118e-02
    79    3.091644331373e-13
    80    2.656234673508e-14
    81   -2.667438719114e-13
    82   -1.056830128791e-03
    83    4.776004142734e-15
    84    4.090987030702e-03
    85   -2.745531712561e-03
    86   -2.821868593997e-15
    87    4.331254213742e-15
    88   -6.190767972019e-14
    89   -6.855030984659e-14
    90   -2.230773516589e-14
    91    6.181087152298e-14
    92   -1.129157519856e-01
    93    8.487761930015e-14
    94   -4.696147471100e-14
    95    1.047355339718e-13
    96   -1.987812946142e-01
    97    4.060058748160e-13
    98   -3.224303159820e-15
    99   -1.571295655323e-13
   100   -1.101099682952e-01
   101    1.183791273347e-12
   102   -1.370935041652e-12
   103    3.282073468704e-13
   104   -3.394044792268e-02
   105   -1.253339033097e-14
   106   -1.490714439594e-02
   107   -2.607015919820e-02
   108    4.717568930773e-14
   109   -1.163129100436e-14
   110   -1.110492004059e-14
   111   -1.580678860303e-14
   112    4.968805469060e-14
   113   -1.882098617988e-13
   114   -2.532682781137e-01
   115    5.732317053563e-14
   116    4.481923078748e-14
   117   -2.013246679905e-13
   118   -2.959682151162e-01
   119   -1.769592291331e-14
   120    4.463241601205e-15
   121   -7.311851994511e-14
   122   -1.862008234296e-01
   123    6.035978984032e-14
   124    1.947805482662e-13
   125    1.540650162007e-13
   126    1.062896651762e-02
   127   -3.643968894871e-15
   128    2.025927538418e-02
   129    1.190632740248e-02
   130   -8.333721253601e-16
   131    7.121905021457e-15
   132   -2.975097280096e-14
   133   -4.727874100977e-14
   134    6.866278435531e-14
   135   -2.120119950726e-14
   136   -1.005346684892e-01
   137    1.231967739537e-13
   138    1.264823977681e-13
   139   -6.355094556758e-14
   140   -1.657034948195e-01
   141    3.626296416710e-13
   142    7.308552983536e-14
   143    3.286633015763e-13
   144   -1.592642286013e-01
   145   -1.445336637727e-12
   146   -4.096476495924e-13
   147   -4.517550992209e-13
   148   -3.147460959910e-03
   149   -9.359860234999e-15
   150   -1.028705857424e-02
   151    4.024561552484e-03
   152   -4.235151428588e-15
   153   -7.181623031062e-15
   154   -2.660442544341e-14
   155   -5.584589911506e-14
   156   -7.052758111262e-15
   157   -1.667044939668e-14
   158    1.026342899010e-01
   159    1.873126889823e-13
   160   -5.804902803876e-14
   161   -1.618824603374e-14
   162    1.686159794620e-01
   163   -2.670302145750e-14
   164    4.758209355021e-13
   165   -4.935870207329e-14
   166    1.619727063862e-01
   167    8.041301854564e-13
   168   -1.265119733661e-14
   169   -3.550165384623e-13
   170    9.420162876081e-03
   171    1.124229779749e-15
   172    3.562325572677e-03
   173    1.466250337594e-03
   174   -2.991127320840e-15
   175   -3.810130472055e-15
   176   -1.684234465994e-13
   177   -1.309879548499e-13
   178   -1.882193303487e-14
   179   -3.542297528822e-14
   180   -1.134749842490e-02
   181   -4.532326851031e-14
   182   -2.612643057346e-14
   183   -6.760298423699e-14
   184   -2.136013127433e-02
   185   -5.070741497851e-14
   186   -1.299519553805e-14
   187   -1.116291403316e-13
   188   -6.342866333140e-03
   189   -5.388522007796e-12
   190    2.256569187619e-12
   191    9.317036698250e-13
   192    8.614973816249e-03
   193    4.282177661659e-16
   194   -3.692844669761e-03
   195   -1.158094971752e-02
   196    3.581285701851e-15
   197   -1.124429074343e-14
   198   -2.813419366910e-15
   199   -4.713267812408e-15
   200   -1.390955827997e-13
   201   -2.404417845979e-13
   202   -1.061363817054e-15
   203   -2.439591688113e-15
   204   -1.524039052731e-03
Sym=X
Ene= 2.002001
Spin=Alpha
Occup=1
     1    1.092360088562e-02
     2    1.786488041144e-02
     3   -1.843648699600e-02
     4   -1.450004609553e-02
     5    4.575897351051e-14
     6   -4.649566949089e-02
     7   -3.144082890796e-02
     8   -2.562956497869e-02
     9    8.340543048464e-14
    10   -7.678903244005e-02
    11   -2.336417754893e-02
    12   -4.540448908481e-02
    13    7.180579495908e-14
    14   -1.999780124903e-01
    15   -4.683156321411e-02
    16   -3.617568421582e-02
    17   -3.351659916347e-14
    18    1.369588950276e-03
    19    2.568061729688e-14
    20    8.318701140217e-15
    21   -6.084207860597e-03
    22   -5.956049098125e-04
    23   -1.056533646656e-03
    24   -5.745194966870e-03
    25   -5.403875231286e-03
    26    1.616757859698e-02
    27   -6.075474005185e-04
    28   -9.667991656358e-04
    29   -3.713148171206e-15
    30    7.429407786742e-03
    31    9.459339549684e-03
    32    9.204351693979e-03
    33   -1.246658817182e-02
    34   -1.182167409673e-03
    35   -1.362025836907e-03
    36    8.627806795681e-15
    37   -6.479768433435e-03
    38    4.251638769294e-03
    39    2.153663727311e-02
    40   -4.973867046717e-02
    41   -2.939409588037e-03
    42    6.774246279464e-04
    43    4.177952977655e-15
    44   -1.439518500864e-02
    45   -2.286288302311e-02
    46    3.766460418958e-02
    47    2.163919035980e-02
    48    5.126453904103e-14
    49    6.054701867560e-02
    50    6.211148289290e-02
    51    3.407502433564e-02
    52    1.018578440323e-13
    53    6.212310506274e-02
    54    5.703763629115e-02
    55    3.440994032099e-02
    56   -1.631286470663e-14
    57    4.330963586248e-02
    58    3.435060877654e-02
    59    5.428373063809e-02
    60    3.010448537868e-14
    61   -1.741982719836e-03
    62    8.014617828353e-15
    63    1.126131215784e-14
    64   -1.868157351690e-02
    65   -4.074798312208e-04
    66    5.152545721172e-03
    67    8.609317122746e-03
    68    3.580390542237e-02
    69    7.005226988022e-02
    70    8.717980504011e-14
    71   -2.468795849593e-02
    72    5.666997504509e-02
    73    1.079230424149e-01
    74    1.116316928612e-13
    75   -1.883269144103e-02
    76    4.784444956137e-02
    77    9.364980889879e-02
    78    7.300208704520e-14
    79    1.560495545110e-02
    80    7.067738838149e-03
    81    3.280083992942e-03
    82   -1.130213256930e-14
    83    1.032787323091e-04
    84    5.231065240609e-15
    85   -6.883525862272e-15
    86    6.098272237609e-03
    87    3.467404583253e-03
    88   -7.531817841731e-03
    89   -1.265334844536e-02
    90    4.201379037004e-02
    91   -2.349381936107e-02
    92   -2.208595925772e-14
    93    3.672315164097e-02
    94    7.059864406179e-02
    95   -5.088474228957e-02
    96   -3.002615754775e-14
    97    5.238800987051e-02
    98   -7.576382338026e-03
    99    2.301178896608e-02
   100   -9.213739779805e-14
   101   -2.271463937077e-01
   102   -2.101809160286e-02
   103    1.249762792680e-01
   104   -5.962302417431e-14
   105   -4.347106113706e-04
   106   -4.100762722400e-14
   107   -3.437768039715e-14
   108   -5.062502452116e-02
   109    3.379316494115e-02
   110   -6.938850712548e-03
   111   -9.887720641510e-03
   112   -2.257112202745e-01
   113    2.624940499797e-01
   114   -3.544384728637e-13
   115    2.960271566232e-02
   116   -2.599419937544e-01
   117    3.025189339935e-01
   118   -3.777955340665e-13
   119   -9.138325081969e-03
   120   -1.734192709436e-01
   121    2.275888510023e-01
   122   -1.996105890441e-13
   123   -1.975206585187e-02
   124    4.322920283551e-03
   125    5.035447827572e-03
   126   -1.334241731335e-14
   127   -2.939473847883e-03
   128    1.839394854051e-14
   129    5.157486295478e-15
   130    1.258620379618e-02
   131   -1.912624887349e-03
   132    2.450778623973e-02
   133    4.046046890564e-02
   134   -7.498337989030e-02
   135    1.576395774203e-02
   136    9.864163680714e-14
   137   -1.080969766086e-01
   138   -1.189178662792e-01
   139    1.549858470019e-02
   140    1.564786352484e-13
   141   -1.931025378265e-01
   142   -8.441178135363e-02
   143    3.596543073162e-02
   144    1.883993951980e-13
   145   -1.560952650527e-01
   146    5.143095533760e-02
   147    1.484993486819e-02
   148    4.441597416685e-14
   149   -1.125755330996e-03
   150   -7.924600770235e-15
   151   -4.139626672605e-15
   152    2.109277483987e-03
   153    4.097063872760e-03
   154   -2.227293040351e-03
   155   -3.673093578192e-03
   156   -6.898983821137e-05
   157    7.868114570502e-03
   158   -4.448649356831e-14
   159    9.424578911724e-03
   160   -1.690607085914e-03
   161    9.500670000402e-03
   162   -6.685034054132e-14
   163    3.759816974541e-02
   164    4.254158264490e-05
   165    1.356934624066e-02
   166   -4.208706030802e-14
   167    7.961923845912e-02
   168    4.436589307600e-03
   169    2.566919919185e-02
   170   -9.618188022420e-15
   171    6.519588432892e-04
   172    6.721589329696e-15
   173    9.165916402926e-15
   174   -1.407451603029e-03
   175    1.605166430943e-03
   176   -1.903128512259e-02
   177   -3.013324282377e-02
   178    3.561917779259e-02
   179    4.169822500501e-02
   180    6.436401162654e-14
   181    7.256862821344e-02
   182    5.690956788554e-02
   183    5.593062492877e-02
   184    9.706185182670e-14
   185    1.492140682483e-01
   186    5.829107947910e-03
   187    6.617066731220e-02
   188    1.370494786782e-13
   189    4.485089104373e-01
   190   -6.031811052896e-02
   191    4.053721123595e-02
   192    6.305138380152e-14
   193   -7.509440104134e-04
   194    1.044222103376e-14
   195   -5.339654302059e-15
   196   -7.530989403981e-04
   197    1.525924870212e-03
   198    2.084763063405e-02
   199    2.724086162916e-02
   200    3.533621965156e-03
   201    2.371812099842e-02
   202   -2.635454585262e-03
   203    1.902597868445e-03
   204    2.594977174037e-15
Sym=X
Ene= 2.001225
Spin=Alpha
Occup=1
     1    3.294905009605e-04
     2    1.970048801055e-04
     3   -1.264248594320e-02
     4    8.716151377289e-03
     5   -1.603285531353e-14
     6   -1.660859210499e-03
     7   -2.084921405122e-02
     8    1.319487786635e-02
     9   -1.522515639880e-14
    10   -4.448694910175e-03
    11   -2.507398383168e-02
    12   -1.161160435197e-03
    13   -1.299054817603e-13
    14   -5.642963912832e-02
    15   -4.733717253993e-02
    16   -1.559052306308e-02
    17   -7.608662073891e-14
    18   -1.040254874980e-03
    19   -6.962887637963e-14
    20    2.863737022502e-15
    21   -7.801984782380e-04
    22    5.282994709807e-03
    23    1.114295064956e-02
    24    2.840160170797e-02
    25    2.459738507040e-02
    26   -3.262290521641e-02
    27    2.523202925446e-03
    28    2.888434100677e-03
    29    3.881431567146e-14
    30   -4.051021559544e-03
    31   -8.346393285600e-03
    32    1.824565153368e-03
    33   -1.414274670464e-02
    34   -5.919728013364e-04
    35   -1.453831329427e-03
    36    4.675471306105e-15
    37   -1.670861194547e-02
    38   -1.918163072190e-02
    39   -2.101121522721e-02
    40    5.610191336805e-03
    41    2.813492847561e-03
    42    4.503035176609e-03
    43   -3.074818783269e-14
    44    8.866663823535e-03
    45    1.358416145614e-02
    46   -4.832521651871e-03
    47   -1.680489705077e-02
    48    3.711616830850e-14
    49   -3.711995640934e-02
    50   -6.029975755333e-03
    51   -2.190102144071e-02
    52    7.050247545252e-14
    53   -2.841421370621e-02
    54   -5.935732181656e-02
    55   -9.202053091852e-02
    56   -2.740192717849e-15
    57    2.178429716178e-04
    58   -5.684897620411e-02
    59   -7.318947496238e-02
    60    5.057259856484e-15
    61    1.146271391984e-03
    62   -4.260955049882e-14
    63   -8.184397329385e-14
    64    5.231578397647e-02
    65    2.629041177738e-02
    66   -8.190013114114e-03
    67   -1.380019500023e-02
    68   -1.216196752023e-01
    69   -1.649094390823e-01
    70    8.230318962640e-14
    71    4.057567926717e-02
    72   -1.877475516369e-01
    73   -2.552778560025e-01
    74    1.201575276595e-13
    75    4.493965023679e-02
    76   -1.667781153730e-01
    77   -2.393810215275e-01
    78    1.077901601795e-13
    79    5.757612325266e-03
    80   -5.028756667964e-03
    81   -1.486774975366e-02
    82    2.725192458279e-15
    83    1.061018468599e-03
    84    1.328785980320e-15
    85   -5.330167783328e-15
    86   -1.307107557350e-02
    87   -5.007555948079e-03
    88    9.732020250087e-03
    89    1.255844974053e-02
    90   -6.585744349863e-02
    91   -7.300498623349e-02
    92   -4.379319200432e-14
    93   -2.917881341739e-02
    94   -1.016820817642e-01
    95   -1.236508137277e-01
    96   -9.963393523385e-14
    97   -2.472234311643e-02
    98   -1.561090431703e-02
    99   -1.877948749004e-02
   100   -2.997663133254e-14
   101   -9.894927503980e-02
   102    1.283240710227e-03
   103    4.339370985395e-02
   104    3.998412229833e-14
   105    5.210453975898e-03
   106    1.056727615368e-13
   107    2.712906932293e-14
   108   -2.455144096079e-02
   109   -5.150501974623e-03
   110    2.072601837225e-03
   111    2.659130610026e-03
   112    7.108153741910e-02
   113    2.041708004940e-01
   114    6.621062071213e-13
   115   -3.806546832815e-03
   116    8.112643274665e-02
   117    2.339935547773e-01
   118    7.566772297071e-13
   119    7.059676769995e-02
   120    8.533300313124e-03
   121    1.412277581307e-01
   122    5.824800839942e-13
   123    1.055844388133e-02
   124    4.648853905563e-03
   125    5.060923294519e-03
   126    7.241600777742e-14
   127    7.346438435315e-03
   128   -2.212482109605e-14
   129   -1.320663152985e-14
   130   -2.575636968870e-03
   131   -1.369012320478e-02
   132   -4.712688715006e-03
   133   -8.678950221962e-03
   134   -2.000776201591e-02
   135   -3.229594949098e-02
   136   -4.296871918454e-13
   137    2.292830353917e-02
   138   -2.420587817727e-02
   139   -4.591203134916e-02
   140   -7.037590263317e-13
   141    9.592373728315e-02
   142   -7.486830383572e-02
   143   -4.508122415582e-02
   144   -6.724346695149e-13
   145    1.235652525593e-01
   146    5.737185286238e-03
   147    1.254726035721e-02
   148   -1.358085246457e-13
   149    1.396546062385e-03
   150   -1.170110926011e-14
   151    6.163927073473e-15
   152   -4.766829179163e-03
   153   -7.286547024943e-03
   154    9.761430189243e-03
   155    1.612444708763e-02
   156   -5.970260436441e-03
   157   -3.664808356957e-02
   158    3.691094155614e-13
   159   -4.306954852272e-02
   160   -6.196463975110e-03
   161   -5.028597572327e-02
   162    5.831475430023e-13
   163   -1.259043352124e-01
   164    7.520276698941e-03
   165   -7.403233510654e-02
   166    6.255744642237e-13
   167   -1.477250709818e-01
   168   -4.339110563392e-03
   169    5.947719035449e-03
   170    1.846195032014e-13
   171   -2.290347786303e-03
   172    2.225473313713e-15
   173    1.406987079418e-14
   174   -1.489663210853e-03
   175   -6.476363031995e-04
   176   -1.207411432297e-02
   177   -1.861253485210e-02
   178   -1.591545542892e-02
   179    5.651070300685e-02
   180   -1.602000186462e-13
   181    4.280512413657e-02
   182   -2.216652886976e-02
   183    8.619441517698e-02
   184   -2.801490451931e-13
   185    7.401444857309e-02
   186   -3.211087495668e-02
   187    6.502184530054e-02
   188   -2.773025338084e-13
   189    1.985086861532e-01
   190   -3.988651157294e-02
   191    1.232570185089e-02
   192   -2.397699335638e-14
   193   -1.867785312090e-03
   194    1.044384128751e-14
   195   -1.065274482428e-15
   196   -4.959512703562e-03
   197   -2.771080074487e-03
   198   -2.584900424705e-02
   199   -4.106926065245e-02
   200   -7.722165661970e-04
   201    1.589810855384e-02
   202    4.333535968617e-03
   203   -1.363681528102e-03
   204   -1.160520963979e-14
Sym=X
Ene= 2.000611
Spin=Alpha
Occup=1
     1    8.234798602373e-13
     2    7.805831001135e-13
     3    2.348543114061e-13
     4    4.469324746146e-14
     5   -2.035141386710e-02
     6   -4.873259458915e-13
     7    3.769431517990e-13
     8    7.222069958635e-14
     9   -3.364301097443e-02
    10    1.254741785192e-13
    11    4.923996201332e-15
    12    2.560143671126e-13
    13   -5.819759513055e-02
    14   -6.065252400392e-13
    15   -3.159106329168e-14
    16    3.815679033362e-13
    17   -8.532592806937e-03
    18    2.373750854406e-14
    19   -2.194173245777e-02
    20    2.207955666034e-04
    21   -8.228295034062e-14
    22    3.357595933374e-14
    23   -4.302147412508e-13
    24   -8.074306522442e-13
    25   -2.314600584742e-13
    26   -3.678022858567e-13
    27   -1.044323048962e-13
    28   -2.991147409279e-14
    29    1.106592912374e-02
    30   -1.052498025521e-13
    31   -7.040425456728e-14
    32    8.109769058872e-14
    33    2.243887490581e-13
    34    5.229168912572e-15
    35   -3.809844478399e-14
    36   -1.785341732707e-03
    37    1.901580451588e-13
    38    4.905224358888e-13
    39   -5.124340607776e-13
    40    4.427605742825e-13
    41   -1.350909140868e-14
    42   -6.255173978408e-14
    43   -1.216848502287e-02
    44   -1.229401681740e-12
    45   -1.126203917743e-12
    46    3.032764485929e-13
    47   -3.401945126210e-14
    48    1.701727496700e-02
    49    5.468437919591e-13
    50    4.851374418680e-13
    51   -8.597225088240e-14
    52    3.145063839977e-02
    53    3.769955583838e-13
    54    4.264708052594e-13
    55    6.116420138338e-13
    56    2.462302728624e-02
    57    7.490466417378e-13
    58    1.152748707700e-13
    59   -3.736736394077e-13
    60   -7.071462496390e-03
    61   -3.391906072724e-14
    62   -2.567914323759e-02
    63   -1.738882745644e-02
    64   -1.890481831874e-13
    65   -6.389826218141e-14
    66    1.289577879777e-13
    67    1.107808291899e-13
    68    2.903807254891e-13
    69    7.100419731074e-13
    70    4.472435408294e-02
    71   -7.434574877348e-15
    72    4.778809734727e-13
    73    1.127972199868e-12
    74    7.016568296260e-02
    75    9.484916033794e-14
    76    3.861175193746e-13
    77    8.586544885861e-13
    78    6.240008710088e-02
    79   -3.182834180397e-13
    80   -3.794968590188e-14
    81    3.880399198980e-13
    82    1.246528641852e-02
    83    5.166574795706e-15
    84    3.529853734922e-03
    85   -2.749361808707e-03
    86    4.349130739644e-14
    87    3.571906910628e-14
    88   -5.994682942436e-13
    89   -5.605381763547e-13
    90    1.148832803511e-13
    91   -1.637816213753e-14
    92   -1.129016600373e-02
    93    3.707682092411e-13
    94    2.084128319598e-13
    95    1.677582056861e-14
    96   -2.382225788898e-02
    97   -3.485507222984e-13
    98    1.878581057055e-13
    99   -4.249752057396e-15
   100   -4.169308927954e-03
   101    1.254312360936e-13
   102    1.746439629479e-12
   103   -9.671409713599e-13
   104    2.094775246132e-02
   105   -1.532534015252e-14
   106    4.467538919820e-02
   107    1.467752799957e-02
   108    9.617931331142e-15
   109    3.395792470429e-14
   110    4.655971457274e-14
   111    6.956766876081e-14
   112   -2.509229031603e-13
   113   -2.981969302872e-13
   114    2.685963532352e-01
   115   -2.623120405983e-13
   116   -2.706926820853e-13
   117   -3.561409429650e-13
   118    3.058378167214e-01
   119   -2.698980228066e-13
   120   -2.967808261255e-14
   121   -2.511379598861e-13
   122    2.136624740680e-01
   123   -1.182432152622e-13
   124   -3.702067919952e-13
   125   -1.362751495160e-13
   126    2.911811272144e-02
   127   -1.124634282457e-14
   128   -9.784132714187e-03
   129   -5.842796615823e-03
   130    3.112372629960e-15
   131    2.588311196982e-14
   132    9.184703612817e-13
   133    6.581438046888e-13
   134   -1.304633182325e-13
   135    1.038644759284e-13
   136   -1.502512315158e-01
   137    6.145383483257e-13
   138   -2.500284656952e-13
   139    1.793576903998e-13
   140   -2.436106104043e-01
   141   -8.307260637704e-14
   142    1.417054188368e-13
   143   -3.049681585792e-13
   144   -2.640043850658e-01