[Molden Format]
[Atoms] (Angs)
  C      1    6     -0.00714236     -1.70213747     -0.00000000
  H      2    1     -2.06882847     -1.44022412      0.00000000
  H      3    1     -0.12337987     -2.77567521      0.00000000
  H      4    1      0.04651892      1.98813947     -0.00000000
  C      5    6     -1.21953563      0.40211669      0.00000000
  O      6    8     -2.25921553      1.03043814      0.00000000
  C      7    6      1.28797806      0.34644937     -0.00000000
  O      8    8      2.31273661      1.00537216     -0.00000000
  N      9    7      0.03446295      0.97739857     -0.00000000
  N     10    7     -1.17287765     -0.98229824      0.00000000
  C     11    6      1.20107039     -1.10433419     -0.00000000
  H     12    1      2.11220096     -1.67699125     -0.00000000
[GTO]
1    0
S    6    1.000000
   4.56324000E+03    1.96665000E-03 
   6.82024000E+02    1.52306000E-02 
   1.54973000E+02    7.61269000E-02 
   4.44553000E+01    2.60801000E-01 
   1.30290000E+01    6.16462000E-01 
   1.82773000E+00    2.21006000E-01 
SP   3    1.000000
   2.09642000E+01    1.14660000E-01   4.02487000E-02 
   4.80331000E+00    9.19999000E-01   2.37594000E-01 
   1.45933000E+00   -3.03068000E-03   8.15854000E-01 
SP   1    1.000000
   4.83456000E-01    1.00000000E+00   1.00000000E+00 
SP   1    1.000000
   1.45585000E-01    1.00000000E+00   1.00000000E+00 
SP   1    1.000000
   4.38000000E-02    1.00000000E+00   1.00000000E+00 
D    1    1.000000
   6.26000000E-01    1.00000000E+00 

2    0
S    3    1.000000
   3.38650000E+01    2.54938000E-02 
   5.09479000E+00    1.90373000E-01 
   1.15879000E+00    8.52161000E-01 
S    1    1.000000
   3.25840000E-01    1.00000000E+00 
S    1    1.000000
   1.02741000E-01    1.00000000E+00 
S    1    1.000000
   3.60000000E-02    1.00000000E+00 
P    1    1.000000
   7.50000000E-01    1.00000000E+00 

3    0
S    3    1.000000
   3.38650000E+01    2.54938000E-02 
   5.09479000E+00    1.90373000E-01 
   1.15879000E+00    8.52161000E-01 
S    1    1.000000
   3.25840000E-01    1.00000000E+00 
S    1    1.000000
   1.02741000E-01    1.00000000E+00 
S    1    1.000000
   3.60000000E-02    1.00000000E+00 
P    1    1.000000
   7.50000000E-01    1.00000000E+00 

4    0
S    3    1.000000
   3.38650000E+01    2.54938000E-02 
   5.09479000E+00    1.90373000E-01 
   1.15879000E+00    8.52161000E-01 
S    1    1.000000
   3.25840000E-01    1.00000000E+00 
S    1    1.000000
   1.02741000E-01    1.00000000E+00 
S    1    1.000000
   3.60000000E-02    1.00000000E+00 
P    1    1.000000
   7.50000000E-01    1.00000000E+00 

5    0
S    6    1.000000
   4.56324000E+03    1.96665000E-03 
   6.82024000E+02    1.52306000E-02 
   1.54973000E+02    7.61269000E-02 
   4.44553000E+01    2.60801000E-01 
   1.30290000E+01    6.16462000E-01 
   1.82773000E+00    2.21006000E-01 
SP   3    1.000000
   2.09642000E+01    1.14660000E-01   4.02487000E-02 
   4.80331000E+00    9.19999000E-01   2.37594000E-01 
   1.45933000E+00   -3.03068000E-03   8.15854000E-01 
SP   1    1.000000
   4.83456000E-01    1.00000000E+00   1.00000000E+00 
SP   1    1.000000
   1.45585000E-01    1.00000000E+00   1.00000000E+00 
SP   1    1.000000
   4.38000000E-02    1.00000000E+00   1.00000000E+00 
D    1    1.000000
   6.26000000E-01    1.00000000E+00 

6    0
S    6    1.000000
   8.58850000E+03    1.89515000E-03 
   1.29723000E+03    1.43859000E-02 
   2.99296000E+02    7.07320000E-02 
   8.73771000E+01    2.40001000E-01 
   2.56789000E+01    5.94797000E-01 
   3.74004000E+00    2.80802000E-01 
SP   3    1.000000
   4.21175000E+01    1.13889000E-01   3.65114000E-02 
   9.62837000E+00    9.20811000E-01   2.37153000E-01 
   2.85332000E+00   -3.27447000E-03   8.19702000E-01 
SP   1    1.000000
   9.05661000E-01    1.00000000E+00   1.00000000E+00 
SP   1    1.000000
   2.55611000E-01    1.00000000E+00   1.00000000E+00 
SP   1    1.000000
   8.45000000E-02    1.00000000E+00   1.00000000E+00 
D    1    1.000000
   1.29200000E+00    1.00000000E+00 

7    0
S    6    1.000000
   4.56324000E+03    1.96665000E-03 
   6.82024000E+02    1.52306000E-02 
   1.54973000E+02    7.61269000E-02 
   4.44553000E+01    2.60801000E-01 
   1.30290000E+01    6.16462000E-01 
   1.82773000E+00    2.21006000E-01 
SP   3    1.000000
   2.09642000E+01    1.14660000E-01   4.02487000E-02 
   4.80331000E+00    9.19999000E-01   2.37594000E-01 
   1.45933000E+00   -3.03068000E-03   8.15854000E-01 
SP   1    1.000000
   4.83456000E-01    1.00000000E+00   1.00000000E+00 
SP   1    1.000000
   1.45585000E-01    1.00000000E+00   1.00000000E+00 
SP   1    1.000000
   4.38000000E-02    1.00000000E+00   1.00000000E+00 
D    1    1.000000
   6.26000000E-01    1.00000000E+00 

8    0
S    6    1.000000
   8.58850000E+03    1.89515000E-03 
   1.29723000E+03    1.43859000E-02 
   2.99296000E+02    7.07320000E-02 
   8.73771000E+01    2.40001000E-01 
   2.56789000E+01    5.94797000E-01 
   3.74004000E+00    2.80802000E-01 
SP   3    1.000000
   4.21175000E+01    1.13889000E-01   3.65114000E-02 
   9.62837000E+00    9.20811000E-01   2.37153000E-01 
   2.85332000E+00   -3.27447000E-03   8.19702000E-01 
SP   1    1.000000
   9.05661000E-01    1.00000000E+00   1.00000000E+00 
SP   1    1.000000
   2.55611000E-01    1.00000000E+00   1.00000000E+00 
SP   1    1.000000
   8.45000000E-02    1.00000000E+00   1.00000000E+00 
D    1    1.000000
   1.29200000E+00    1.00000000E+00 

9    0
S    6    1.000000
   6.29348000E+03    1.96979000E-03 
   9.49044000E+02    1.49613000E-02 
   2.18776000E+02    7.35006000E-02 
   6.36916000E+01    2.48937000E-01 
   1.88282000E+01    6.02460000E-01 
   2.72023000E+00    2.56202000E-01 
SP   3    1.000000
   3.06331000E+01    1.11906000E-01   3.83119000E-02 
   7.02614000E+00    9.21666000E-01   2.37403000E-01 
   2.11205000E+00   -2.56919000E-03   8.17592000E-01 
SP   1    1.000000
   6.84009000E-01    1.00000000E+00   1.00000000E+00 
SP   1    1.000000
   2.00878000E-01    1.00000000E+00   1.00000000E+00 
SP   1    1.000000
   6.39000000E-02    1.00000000E+00   1.00000000E+00 
D    1    1.000000
   9.13000000E-01    1.00000000E+00 

10    0
S    6    1.000000
   6.29348000E+03    1.96979000E-03 
   9.49044000E+02    1.49613000E-02 
   2.18776000E+02    7.35006000E-02 
   6.36916000E+01    2.48937000E-01 
   1.88282000E+01    6.02460000E-01 
   2.72023000E+00    2.56202000E-01 
SP   3    1.000000
   3.06331000E+01    1.11906000E-01   3.83119000E-02 
   7.02614000E+00    9.21666000E-01   2.37403000E-01 
   2.11205000E+00   -2.56919000E-03   8.17592000E-01 
SP   1    1.000000
   6.84009000E-01    1.00000000E+00   1.00000000E+00 
SP   1    1.000000
   2.00878000E-01    1.00000000E+00   1.00000000E+00 
SP   1    1.000000
   6.39000000E-02    1.00000000E+00   1.00000000E+00 
D    1    1.000000
   9.13000000E-01    1.00000000E+00 

11    0
S    6    1.000000
   4.56324000E+03    1.96665000E-03 
   6.82024000E+02    1.52306000E-02 
   1.54973000E+02    7.61269000E-02 
   4.44553000E+01    2.60801000E-01 
   1.30290000E+01    6.16462000E-01 
   1.82773000E+00    2.21006000E-01 
SP   3    1.000000
   2.09642000E+01    1.14660000E-01   4.02487000E-02 
   4.80331000E+00    9.19999000E-01   2.37594000E-01 
   1.45933000E+00   -3.03068000E-03   8.15854000E-01 
SP   1    1.000000
   4.83456000E-01    1.00000000E+00   1.00000000E+00 
SP   1    1.000000
   1.45585000E-01    1.00000000E+00   1.00000000E+00 
SP   1    1.000000
   4.38000000E-02    1.00000000E+00   1.00000000E+00 
D    1    1.000000
   6.26000000E-01    1.00000000E+00 

12    0
S    3    1.000000
   3.38650000E+01    2.54938000E-02 
   5.09479000E+00    1.90373000E-01 
   1.15879000E+00    8.52161000E-01 
S    1    1.000000
   3.25840000E-01    1.00000000E+00 
S    1    1.000000
   1.02741000E-01    1.00000000E+00 
S    1    1.000000
   3.60000000E-02    1.00000000E+00 
P    1    1.000000
   7.50000000E-01    1.00000000E+00 

[MO]
Sym=X
Ene= 2.005877
Spin=Alpha
Occup=1
     1   -2.875282090585e-15
     2   -2.598084526022e-14
     3    4.761518227905e-14
     4    3.600985014005e-14
     5    8.756448853845e-02
     6    8.079116545264e-14
     7    1.071779342903e-13
     8    1.588506869343e-14
     9    1.515260568619e-01
    10   -1.591247111604e-13
    11   -1.783604871061e-14
    12   -5.188566196949e-14
    13    1.329664159135e-01
    14    2.842426945469e-12
    15    7.561076933980e-13
    16    6.022412294754e-13
    17    1.396044692461e-02
    18   -9.523031134658e-16
    19    1.276005031825e-02
    20    1.071591054360e-02
    21    9.451754469280e-15
    22    1.488362451004e-14
    23   -3.449085485304e-14
    24    2.529688948570e-13
    25   -1.775740536609e-13
    26   -7.023183248749e-14
    27    1.494066899395e-14
    28    4.515942816787e-15
    29   -5.940343752182e-04
    30   -2.841130488868e-15
    31   -2.105195690641e-14
    32   -8.682366070195e-14
    33    1.452120765402e-13
    34    6.539939103244e-15
    35   -1.938510852357e-15
    36    6.448210028318e-03
    37   -1.977498735219e-14
    38   -3.266346882644e-13
    39   -9.661345327318e-14
    40    5.105298103273e-14
    41   -6.206823276093e-15
    42    2.684616714040e-14
    43   -6.968428144414e-03
    44   -8.279256770234e-15
    45   -1.255586170395e-14
    46    1.733053499671e-14
    47   -8.368701356121e-15
    48   -1.079758933037e-01
    49    3.266948859291e-14
    50    2.458429086830e-14
    51    3.800500071987e-15
    52   -1.915806788691e-01
    53    2.097243529248e-13
    54   -4.213484588164e-13
    55   -6.552120084988e-13
    56   -1.077489943644e-01
    57   -1.506321891302e-13
    58   -8.307467687721e-14
    59   -7.915789334123e-15
    60   -2.022769924740e-02
    61   -4.322823104036e-15
    62    1.580051831226e-02
    63   -2.103952821691e-02
    64    1.172597127866e-14
    65    4.659123242486e-15
    66   -9.900101370162e-15
    67   -1.511660614096e-14
    68   -9.896022572950e-14
    69   -1.152079719894e-13
    70   -2.281782985434e-01
    71    5.727952113808e-14
    72   -1.147449237556e-13
    73   -1.342200615993e-13
    74   -2.674076598301e-01
    75   -4.228654001005e-15
    76   -3.612110272184e-14
    77    4.610903661579e-15
    78   -1.632848482519e-01
    79   -1.719403394039e-13
    80   -2.983521666464e-14
    81    8.375584678103e-14
    82    1.008921941928e-02
    83    1.088621105011e-15
    84   -1.929678619991e-02
    85    1.155358824992e-02
    86   -6.098889077436e-15
    87   -1.150439011134e-15
    88   -7.519382750544e-15
    89    7.460755406354e-15
    90    3.460502467627e-14
    91   -5.414879415091e-14
    92    4.876519606476e-02
    93   -1.068538542152e-13
    94    2.225014251345e-14
    95   -6.519725725706e-14
    96    8.596970810312e-02
    97    3.708018832534e-13
    98   -2.265271908279e-13
    99   -3.869653325180e-13
   100    6.288285026050e-02
   101   -1.724151072416e-12
   102    3.389137333741e-13
   103    4.062632241858e-13
   104    9.715881006311e-03
   105   -3.093106809533e-15
   106    1.442292019530e-02
   107   -8.092868356872e-03
   108    5.230143180211e-15
   109    2.080996296947e-14
   110    1.688289387555e-14
   111    9.111496084295e-15
   112    3.581303829212e-14
   113   -2.848537309952e-14
   114    5.754840265762e-02
   115    3.433380462604e-14
   116    7.099781366949e-14
   117   -5.303092157558e-14
   118    9.166830231747e-02
   119    7.885589532854e-14
   120    3.860188845632e-14
   121   -8.255493708515e-14
   122    7.512017275198e-02
   123    2.948463430034e-13
   124   -1.685631909740e-13
   125   -5.509940911215e-14
   126   -6.916319334049e-03
   127    1.116512780964e-15
   128   -6.855467910637e-03
   129   -4.541449876709e-03
   130   -6.537626613788e-15
   131   -1.759246117955e-15
   132   -5.634446635072e-14
   133   -2.787856020619e-14
   134   -5.766200623422e-14
   135   -2.613290470339e-14
   136   -7.797508990459e-02
   137   -1.433948763316e-13
   138   -9.328945084765e-14
   139   -9.122843828729e-14
   140   -1.303332594849e-01
   141    3.826717446876e-13
   142   -2.961815332876e-13
   143    5.333614045457e-13
   144   -1.224357183636e-01
   145    7.494735294516e-13
   146   -2.256848581988e-13
   147   -1.575029504801e-13
   148   -5.540494712443e-03
   149    8.786623565533e-16
   150    1.293529432553e-02
   151    2.578475432253e-03
   152   -1.189323381104e-14
   153    6.770447523746e-15
   154    1.443432854458e-14
   155    2.246179911906e-14
   156    1.742114609573e-14
   157    9.059622659220e-15
   158    1.900496373842e-03
   159   -2.235268568970e-14
   160   -1.416875786091e-14
   161    1.316838112325e-14
   162    2.352529872506e-03
   163   -5.131237199303e-13
   164    5.719521172735e-13
   165   -8.382951115247e-14
   166   -2.598639387703e-03
   167   -5.206357409253e-13
   168   -4.273725452687e-13
   169   -3.100949100660e-13
   170   -4.195920008073e-03
   171    8.189552421796e-15
   172    7.440355684053e-03
   173   -1.207139175604e-02
   174   -6.785835229147e-15
   175   -7.111099923745e-15
   176    1.958193766548e-13
   177    1.280718059417e-13
   178   -4.071601122452e-14
   179   -2.503497904887e-14
   180    9.715053725211e-02
   181    1.904827274724e-13
   182   -5.965103122653e-14
   183   -4.134802936538e-14
   184    1.695417686471e-01
   185   -2.736451482384e-13
   186   -9.785767931734e-14
   187   -1.931375435623e-13
   188    1.412344035288e-01
   189   -1.130497319875e-12
   190    4.130311889971e-13
   191    6.283187471609e-13
   192    3.612077480608e-03
   193   -1.042314226479e-14
   194   -1.618545752867e-02
   195    6.204169643088e-04
   196    6.374877953417e-15
   197    1.249041218167e-15
   198    2.024159019748e-14
   199    2.484785188360e-14
   200    8.205635695078e-14
   201   -7.732541989711e-14
   202   -5.933278140818e-15
   203   -1.676846967708e-15
   204    8.051401950258e-03
Sym=X
Ene= 2.003792
Spin=Alpha
Occup=1
     1    7.522469391448e-03
     2    1.256615377318e-02
     3    1.145008985821e-02
     4   -2.959704689229e-02
     5    4.877444893544e-14
     6   -3.405062914568e-02
     7    1.891976228333e-02
     8   -4.897190168386e-02
     9    1.142448702771e-13
    10   -4.082009399708e-02
    11   -1.175394603375e-02
    12   -4.659133736042e-02
    13    4.842488178952e-14
    14   -1.185696995810e-01
    15   -6.483423378956e-03
    16   -1.724223039503e-02
    17    1.133355193538e-13
    18    1.925232521124e-03
    19    4.180757326707e-15
    20    9.353992312464e-15
    21   -1.155148461564e-02
    22    5.274400108489e-03
    23    1.726794430044e-03
    24   -1.273895656747e-02
    25   -2.637827140369e-02
    26    2.710520710967e-02
    27   -7.500360497364e-04
    28    7.980269169721e-04
    29   -8.335733666955e-15
    30    2.266049980547e-02
    31    3.701372854488e-02
    32    1.652167067028e-02
    33    4.759685231086e-04
    34    5.761621120454e-04
    35    7.366391626784e-04
    36    5.877418708667e-15
    37    4.851272580986e-03
    38    2.074124370899e-02
    39    3.280487834174e-02
    40   -4.712990750010e-02
    41    1.976469369564e-03
    42   -1.613473563383e-03
    43    8.157276759702e-15
    44   -7.668089089117e-03
    45   -1.267679038768e-02
    46   -4.895056229995e-02
    47   -1.886282461822e-02
    48   -2.968421155196e-14
    49    3.770457824274e-02
    50   -8.148363985072e-02
    51   -3.804868280489e-02
    52   -5.912769126304e-14
    53    4.685707063417e-02
    54    3.436405958513e-02
    55    5.881312664051e-02
    56    2.219934071108e-14
    57    3.701430193152e-02
    58    5.859354982287e-02
    59    7.471282553599e-02
    60   -1.193498736429e-13
    61   -1.974964257134e-03
    62    1.634154429531e-14
    63   -6.899719854212e-15
    64   -5.348730854755e-02
    65   -3.255146490655e-02
    66   -5.352526248197e-03
    67   -7.635154353456e-03
    68    2.116206635810e-01
    69    2.391070285752e-01
    70   -1.456055628940e-13
    71    2.317343616474e-02
    72    2.434339787372e-01
    73    2.741077798991e-01
    74   -1.552466800895e-13
    75   -1.690022565442e-02
    76    1.491026745204e-01
    77    2.005951323462e-01
    78   -1.307438895191e-13
    79   -2.074415274365e-02
    80   -4.381700093667e-03
    81    5.011690310857e-03
    82    5.149018335198e-14
    83   -3.013952973861e-03
    84   -1.092095288658e-14
    85   -5.241835862027e-16
    86    1.362151570988e-02
    87    8.090808022959e-04
    88   -1.630705146175e-02
    89   -2.701402848664e-02
    90   -3.751820841270e-02
    91    2.167474343563e-03
    92    4.315569857921e-14
    93    7.222202727199e-02
    94   -6.270942126951e-02
    95    1.362499963240e-03
    96    5.914150775693e-14
    97    6.683970486326e-02
    98   -5.397689011078e-02
    99    9.173252315624e-03
   100    1.116203356835e-13
   101   -1.757527966065e-01
   102   -1.001934128781e-02
   103    1.026859937396e-01
   104    2.095571522574e-13
   105   -2.135485328557e-03
   106   -4.388369033968e-15
   107   -3.709437129130e-15
   108   -3.122061612542e-02
   109    5.462898959417e-03
   110    4.216945409280e-03
   111    7.147352869181e-03
   112   -5.544159075570e-02
   113    1.094713802414e-01
   114    3.247119890081e-14
   115   -2.167217037717e-02
   116   -8.660017377790e-02
   117    1.683981931338e-01
   118    1.891515328293e-14
   119   -1.015983830960e-02
   120   -8.173402578127e-02
   121    1.505046910743e-01
   122    7.896472128772e-14
   123    3.198966567170e-02
   124   -1.264102780230e-02
   125    1.333314068674e-03
   126   -1.239171834939e-13
   127    2.684985643049e-04
   128    9.447138792492e-16
   129   -1.110954104675e-14
   130    7.564168733256e-03
   131   -4.788626064496e-03
   132    2.373530057537e-02
   133    3.934883896720e-02
   134    6.062904639147e-02
   135    2.688752981707e-02
   136    5.372758296843e-14
   137   -1.046494012075e-01
   138    9.102006624777e-02
   139    3.169548473988e-02
   140    9.711522389212e-14
   141   -2.059811220170e-01
   142    7.885386971814e-02
   143    4.866996072931e-02
   144    5.774356197110e-14
   145   -1.822023065448e-01
   146   -8.352916479384e-03
   147    4.376082146367e-03
   148   -3.500648611557e-14
   149   -1.383212808615e-03
   150    5.436329698426e-15
   151    2.525862938737e-15
   152    9.535011905349e-05
   153   -5.231727637716e-03
   154   -1.226498109709e-02
   155   -2.002258484896e-02
   156   -2.600743381125e-02
   157    5.998971984679e-02
   158    3.610093471753e-15
   159    5.260796916884e-02
   160   -4.471349065369e-02
   161    8.664363487229e-02
   162    8.482137560020e-15
   163    1.025442213718e-01
   164   -3.816104082441e-02
   165    9.210317297571e-02
   166   -3.941285137699e-14
   167    1.104449923868e-01
   168   -5.602325213929e-03
   169    8.078359776582e-03
   170    7.869871492565e-15
   171    6.826665242383e-04
   172    6.477426153412e-15
   173   -3.586586559595e-15
   174   -2.773315707568e-03
   175   -1.546418068599e-03
   176   -4.755998135317e-03
   177   -7.845736421407e-03
   178    8.510519819284e-05
   179    3.107474580082e-02
   180    6.582667857423e-14
   181    2.022705694691e-02
   182    1.518347301975e-03
   183    4.435682179924e-02
   184    9.127763989998e-14
   185    6.402124512686e-02
   186   -1.676558498812e-02
   187    3.900808536145e-02
   188    1.215350411124e-13
   189    2.955463254810e-01
   190   -3.467034217637e-02
   191    4.487600383996e-02
   192   -1.808618533926e-13
   193    2.537203408749e-04
   194   -2.995960845378e-15
   195    2.105849213732e-16
   196   -5.138116784397e-03
   197    2.604267909464e-04
   198   -1.004854910040e-02
   199   -1.715241190664e-02
   200   -3.394018833455e-03
   201    1.466576197729e-02
   202    1.685428112313e-03
   203   -2.628688717137e-04
   204    4.641589398839e-15
Sym=X
Ene= 2.001670
Spin=Alpha
Occup=1
     1    7.659151960694e-03
     2    1.217253091676e-02
     3    2.586437989460e-02
     4   -1.379175425812e-02
     5    3.049153969148e-13
     6   -3.174089617453e-02
     7    4.607640375965e-02
     8   -2.211709706080e-02
     9    5.283398745774e-13
    10   -3.741558643720e-03
    11    2.467582804669e-02
    12   -2.892573561031e-04
    13    2.607278347927e-13
    14    2.926365329985e-01
    15    7.850063796761e-02
    16    9.966047596132e-02
    17    1.503417002480e-13
    18    1.702912754172e-03
    19   -5.758322005207e-14
    20    5.698672706687e-14
    21   -3.552457052859e-03
    22   -3.934776710643e-04
    23   -1.022872552608e-02
    24   -1.543075897182e-02
    25   -1.897739582093e-02
    26    4.379406895056e-03
    27   -2.432104388839e-03
    28    1.542831744758e-03
    29    4.665801274161e-14
    30    4.093065803760e-03
    31    1.086476815682e-02
    32    7.317236626063e-03
    33    4.743077788398e-02
    34    9.913421916222e-04
    35    4.831196672704e-04
    36    2.963523122436e-14
    37   -1.416413443461e-02
    38   -1.334380763738e-02
    39    8.524872795284e-03
    40    2.375522554060e-02
    41   -2.126756451493e-03
    42    2.315546334759e-03
    43   -6.508166581535e-15
    44    1.608839668508e-02
    45    2.474673240832e-02
    46    7.468069028137e-02
    47   -8.152523746216e-02
    48    1.470834419081e-13
    49   -6.970051700146e-02
    50    1.146628371769e-01
    51   -1.357719101027e-01
    52    2.640588516785e-13
    53   -7.180730682012e-02
    54    1.904765851394e-02
    55    4.499954181838e-03
    56    1.141427254381e-13
    57   -4.593065419785e-02
    58    2.129445772117e-03
    59    3.255412350998e-02
    60   -4.626034247941e-14
    61    5.573594838908e-03
    62   -3.335745205069e-14
    63   -1.008990918945e-13
    64   -3.859714165244e-02
    65    5.384192099811e-03
    66    2.207742095014e-03
    67    2.697626641681e-03
    68   -8.876732861067e-02
    69    2.478976663106e-01
    70   -8.102519785782e-15
    71    2.857457172238e-04
    72   -1.001491977927e-01
    73    2.829159054212e-01
    74    6.061205509262e-15
    75    8.324382604857e-02
    76   -1.431809156477e-02
    77    1.671112396083e-01
    78   -4.592668299911e-14
    79    2.391562687607e-02
    80   -6.183814306818e-04
    81   -1.362064257103e-03
    82    1.923000629384e-14
    83    9.402130220426e-03
    84    1.166014783448e-14
    85   -1.025239380302e-14
    86   -2.559389831553e-03
    87    1.731107526267e-02
    88    1.184952595109e-02
    89    1.939399425438e-02
    90   -2.457141466400e-03
    91   -9.330094503759e-03
    92   -3.041552589108e-13
    93   -5.449031849578e-02
    94   -5.388443355360e-03
    95   -7.356388599598e-03
    96   -5.581805121926e-13
    97   -6.693050219169e-02
    98    3.658491713421e-02
    99   -5.940362577642e-02
   100   -2.942862070093e-13
   101    2.342740724230e-01
   102    4.079002678396e-02
   103   -1.161051265276e-01
   104    9.076415023121e-14
   105    2.058768826112e-03
   106   -5.445924170071e-14
   107   -7.831504015546e-14
   108    4.168565808724e-02
   109   -2.246790575966e-02
   110   -1.002377729534e-02
   111   -1.697408617001e-02
   112    1.156747231845e-01
   113   -1.251084278836e-01
   114   -4.507460944857e-13
   115    5.159766538350e-02
   116    1.771167618586e-01
   117   -1.939911633491e-01
   118   -7.253097993122e-13
   119    6.382713661324e-02
   120    1.532052644269e-01
   121   -1.850023529438e-01
   122   -5.988502194348e-13
   123    1.397922259392e-02
   124   -5.552830566995e-03
   125   -7.286916952230e-03
   126   -1.035612337596e-13
   127    1.697276464085e-03
   128    4.895402216215e-14
   129    3.248686661322e-14
   130   -1.079000994603e-02
   131    2.522341394210e-03
   132   -3.821994442540e-03
   133   -7.361376582867e-03
   134    2.333716005015e-02
   135   -2.792747276618e-02
   136   -1.854958697978e-13
   137    2.273690342174e-02
   138    3.115860657312e-02
   139   -4.297918475679e-02
   140   -3.157971639975e-13
   141    7.431534647193e-02
   142    6.961103995155e-02
   143   -5.124246586395e-02
   144   -2.981740399320e-13
   145    9.785442632697e-02
   146   -2.165766477023e-02
   147   -3.951270882029e-02
   148   -4.956096329672e-14
   149    1.189693268673e-03
   150   -2.281083909492e-14
   151    1.160380687923e-14
   152   -3.570167573429e-03
   153    7.544946149302e-03
   154   -1.370244412803e-02
   155   -2.222428584897e-02
   156   -7.839652647612e-03
   157    7.336229002404e-02
   158    6.420683692848e-13
   159    5.697681903080e-02
   160   -1.377104683442e-02
   161    1.120748892514e-01
   162    1.057648607729e-12
   163    9.190827664371e-02
   164   -6.872359572449e-03
   165    9.403821783971e-02
   166    1.038267501671e-12
   167    1.130492687420e-02
   168   -1.151864687304e-02
   169   -4.035024795013e-02
   170    2.260532652267e-14
   171   -4.042576209624e-04
   172    3.118713973751e-14
   173    1.605861083136e-14
   174   -5.298900945687e-03
   175    4.408471455991e-03
   176    5.927900274101e-03
   177    9.635036470963e-03
   178    7.430335902061e-03
   179   -3.425116357791e-02
   180    7.996532845642e-14
   181   -2.425134318823e-02
   182    9.381511279699e-03
   183   -4.637814186515e-02
   184    1.311545978463e-13
   185   -1.021834039327e-01
   186    1.566660514398e-02
   187   -6.509207651231e-02
   188    1.729679484067e-13
   189   -5.758263470925e-01
   190    8.857285075089e-02
   191   -6.817558135152e-02
   192   -1.503766670345e-13
   193   -1.095176779298e-03
   194   -3.684896634873e-14
   195   -4.531007961437e-14
   196   -3.883181012372e-03
   197   -1.806783528282e-04
   198    1.387501385307e-02
   199    2.472434063481e-02
   200   -1.946996759249e-03
   201   -3.968126350887e-02
   202   -2.403986842113e-03
   203    2.646385834928e-03
   204   -5.088686676068e-16
Sym=X
Ene= 2.001459
Spin=Alpha
Occup=1
     1    2.511993110079e-13
     2    3.731182099565e-13
     3    3.815709179138e-15
     4   -2.911934055309e-13
     5   -1.058611494951e-01
     6   -8.610734351676e-13
     7    5.221490566117e-14
     8   -4.578801377933e-13
     9   -1.817540813113e-01
    10   -2.494802433589e-13
    11   -8.978243243833e-14
    12   -2.507766271455e-13
    13   -1.231353187508e-01
    14   -7.688635360587e-12
    15   -2.610794911390e-12
    16   -7.350980849859e-13
    17   -2.442874717014e-02
    18    3.847101656401e-14
    19    9.262077891530e-03
    20   -1.885227551503e-02
    21   -6.453090047932e-14
    22    1.649631487813e-14
    23   -1.325593486103e-13
    24   -3.107703347002e-13
    25    7.428566017461e-13
    26   -2.763603074672e-13
    27   -3.816804485108e-14
    28   -5.305071956896e-15
    29   -1.317474054400e-02
    30    7.822995208076e-14
    31    9.272378873939e-14
    32    1.944296677576e-13
    33   -1.254598541934e-13
    34   -2.226835278651e-15
    35   -1.119909374147e-14
    36   -8.177375968697e-03
    37    7.321061557046e-14
    38    2.057769461462e-13
    39   -5.012221989445e-13
    40    3.734191392085e-13
    41   -1.471894136549e-14
    42   -1.630225630555e-14
    43   -1.163157075101e-03
    44   -3.341133399929e-13
    45   -2.567717341835e-13
    46    1.952501598228e-13
    47   -2.291080317980e-13
    48   -6.331312526089e-02
    49   -1.243923579442e-13
    50    3.140432050949e-13
    51   -3.924603247235e-13
    52   -1.112887839739e-01
    53   -2.368366596027e-13
    54    2.297513650551e-13
    55    3.233173086236e-14
    56   -4.720016984162e-02
    57    4.996308028575e-13
    58   -1.528120137387e-13
    59   -5.749604571238e-13
    60   -2.330798334524e-02
    61    2.111302812396e-14
    62   -4.823994963220e-03
    63    2.139693964092e-02
    64   -1.249023081520e-13
    65    3.288912667658e-14
    66   -9.209820779069e-14
    67   -1.337877239309e-13
    68   -2.901065209163e-13
    69    8.114092667819e-13
    70    2.817608139035e-03
    71    4.827258261795e-13
    72   -3.150459013473e-13
    73    9.251178244006e-13
    74   -2.393916411531e-04
    75    5.322520611800e-13
    76   -6.070121774286e-14
    77    5.210668633576e-13
    78    9.303875239718e-03
    79    1.996446314712e-13
    80    3.805389389982e-14
    81    3.443961686246e-14
    82    1.863684908883e-02
    83    2.343107595352e-14
    84   -4.876316119587e-03
    85    3.287441499494e-03
    86   -4.600793078478e-15
    87    4.767575186952e-14
    88    3.082760400270e-13
    89    2.598933445402e-13
    90    1.233728377198e-13
    91   -1.796784347282e-13
    92    4.415963967501e-02
    93   -2.955907423211e-14
    94    1.957730088240e-13
    95   -2.573508653934e-13
    96    7.754443673550e-02
    97    4.582154854914e-14
    98    1.126248186438e-13
    99   -2.737035598924e-13
   100    6.220391313933e-02
   101    5.072744918252e-12
   102    7.490127062005e-13
   103   -2.133584763444e-12
   104    7.334236547468e-03
   105    7.985869510001e-15
   106    2.614270225587e-02
   107    2.111904507071e-02
   108    1.080328644184e-13
   109   -7.643572204754e-14
   110    1.725156459035e-13
   111    1.027352008547e-13
   112    3.793687348303e-13
   113   -4.679333371844e-13
   114    1.156650758946e-01
   115    2.661633213814e-13
   116    5.753228486917e-13
   117   -7.312911394266e-13
   118    1.812091632143e-01
   119    2.712341395767e-13
   120    5.305992351730e-13
   121   -6.351404634149e-13
   122    1.662154384139e-01
   123   -2.608588765231e-13
   124    3.383323500596e-14
   125    3.721336377101e-14
   126    1.843823339122e-02
   127    9.158426285631e-16
   128   -1.023826697133e-02
   129   -6.071781042731e-03
   130   -4.611196515216e-14
   131    1.977206301273e-14
   132    1.274194163430e-13
   133    9.773375743802e-14
   134   -2.033630651588e-14
   135    7.738394766536e-14
   136   -3.129989340192e-02
   137    5.181643123342e-14
   138   -4.550001873616e-14
   139    1.240232707569e-13
   140   -4.935932177050e-02
   141    7.836378820043e-14
   142    1.134061217936e-13
   143    3.008620564103e-14
   144   -5.574804000319e-02