[Molden Format]
[Atoms] (Angs)
  C      1    6     -0.00714236     -1.70213747     -0.00000000
  H      2    1     -2.06882847     -1.44022412      0.00000000
  H      3    1     -0.12337987     -2.77567521      0.00000000
  H      4    1      0.04651892      1.98813947     -0.00000000
  C      5    6     -1.21953563      0.40211669      0.00000000
  O      6    8     -2.25921553      1.03043814      0.00000000
  C      7    6      1.28797806      0.34644937     -0.00000000
  O      8    8      2.31273661      1.00537216     -0.00000000
  N      9    7      0.03446295      0.97739857     -0.00000000
  N     10    7     -1.17287765     -0.98229824      0.00000000
  C     11    6      1.20107039     -1.10433419     -0.00000000
  H     12    1      2.11220096     -1.67699125     -0.00000000
[GTO]
1    0
S    6    1.000000
   4.56324000E+03    1.96665000E-03 
   6.82024000E+02    1.52306000E-02 
   1.54973000E+02    7.61269000E-02 
   4.44553000E+01    2.60801000E-01 
   1.30290000E+01    6.16462000E-01 
   1.82773000E+00    2.21006000E-01 
SP   3    1.000000
   2.09642000E+01    1.14660000E-01   4.02487000E-02 
   4.80331000E+00    9.19999000E-01   2.37594000E-01 
   1.45933000E+00   -3.03068000E-03   8.15854000E-01 
SP   1    1.000000
   4.83456000E-01    1.00000000E+00   1.00000000E+00 
SP   1    1.000000
   1.45585000E-01    1.00000000E+00   1.00000000E+00 
SP   1    1.000000
   4.38000000E-02    1.00000000E+00   1.00000000E+00 
D    1    1.000000
   6.26000000E-01    1.00000000E+00 

2    0
S    3    1.000000
   3.38650000E+01    2.54938000E-02 
   5.09479000E+00    1.90373000E-01 
   1.15879000E+00    8.52161000E-01 
S    1    1.000000
   3.25840000E-01    1.00000000E+00 
S    1    1.000000
   1.02741000E-01    1.00000000E+00 
S    1    1.000000
   3.60000000E-02    1.00000000E+00 
P    1    1.000000
   7.50000000E-01    1.00000000E+00 

3    0
S    3    1.000000
   3.38650000E+01    2.54938000E-02 
   5.09479000E+00    1.90373000E-01 
   1.15879000E+00    8.52161000E-01 
S    1    1.000000
   3.25840000E-01    1.00000000E+00 
S    1    1.000000
   1.02741000E-01    1.00000000E+00 
S    1    1.000000
   3.60000000E-02    1.00000000E+00 
P    1    1.000000
   7.50000000E-01    1.00000000E+00 

4    0
S    3    1.000000
   3.38650000E+01    2.54938000E-02 
   5.09479000E+00    1.90373000E-01 
   1.15879000E+00    8.52161000E-01 
S    1    1.000000
   3.25840000E-01    1.00000000E+00 
S    1    1.000000
   1.02741000E-01    1.00000000E+00 
S    1    1.000000
   3.60000000E-02    1.00000000E+00 
P    1    1.000000
   7.50000000E-01    1.00000000E+00 

5    0
S    6    1.000000
   4.56324000E+03    1.96665000E-03 
   6.82024000E+02    1.52306000E-02 
   1.54973000E+02    7.61269000E-02 
   4.44553000E+01    2.60801000E-01 
   1.30290000E+01    6.16462000E-01 
   1.82773000E+00    2.21006000E-01 
SP   3    1.000000
   2.09642000E+01    1.14660000E-01   4.02487000E-02 
   4.80331000E+00    9.19999000E-01   2.37594000E-01 
   1.45933000E+00   -3.03068000E-03   8.15854000E-01 
SP   1    1.000000
   4.83456000E-01    1.00000000E+00   1.00000000E+00 
SP   1    1.000000
   1.45585000E-01    1.00000000E+00   1.00000000E+00 
SP   1    1.000000
   4.38000000E-02    1.00000000E+00   1.00000000E+00 
D    1    1.000000
   6.26000000E-01    1.00000000E+00 

6    0
S    6    1.000000
   8.58850000E+03    1.89515000E-03 
   1.29723000E+03    1.43859000E-02 
   2.99296000E+02    7.07320000E-02 
   8.73771000E+01    2.40001000E-01 
   2.56789000E+01    5.94797000E-01 
   3.74004000E+00    2.80802000E-01 
SP   3    1.000000
   4.21175000E+01    1.13889000E-01   3.65114000E-02 
   9.62837000E+00    9.20811000E-01   2.37153000E-01 
   2.85332000E+00   -3.27447000E-03   8.19702000E-01 
SP   1    1.000000
   9.05661000E-01    1.00000000E+00   1.00000000E+00 
SP   1    1.000000
   2.55611000E-01    1.00000000E+00   1.00000000E+00 
SP   1    1.000000
   8.45000000E-02    1.00000000E+00   1.00000000E+00 
D    1    1.000000
   1.29200000E+00    1.00000000E+00 

7    0
S    6    1.000000
   4.56324000E+03    1.96665000E-03 
   6.82024000E+02    1.52306000E-02 
   1.54973000E+02    7.61269000E-02 
   4.44553000E+01    2.60801000E-01 
   1.30290000E+01    6.16462000E-01 
   1.82773000E+00    2.21006000E-01 
SP   3    1.000000
   2.09642000E+01    1.14660000E-01   4.02487000E-02 
   4.80331000E+00    9.19999000E-01   2.37594000E-01 
   1.45933000E+00   -3.03068000E-03   8.15854000E-01 
SP   1    1.000000
   4.83456000E-01    1.00000000E+00   1.00000000E+00 
SP   1    1.000000
   1.45585000E-01    1.00000000E+00   1.00000000E+00 
SP   1    1.000000
   4.38000000E-02    1.00000000E+00   1.00000000E+00 
D    1    1.000000
   6.26000000E-01    1.00000000E+00 

8    0
S    6    1.000000
   8.58850000E+03    1.89515000E-03 
   1.29723000E+03    1.43859000E-02 
   2.99296000E+02    7.07320000E-02 
   8.73771000E+01    2.40001000E-01 
   2.56789000E+01    5.94797000E-01 
   3.74004000E+00    2.80802000E-01 
SP   3    1.000000
   4.21175000E+01    1.13889000E-01   3.65114000E-02 
   9.62837000E+00    9.20811000E-01   2.37153000E-01 
   2.85332000E+00   -3.27447000E-03   8.19702000E-01 
SP   1    1.000000
   9.05661000E-01    1.00000000E+00   1.00000000E+00 
SP   1    1.000000
   2.55611000E-01    1.00000000E+00   1.00000000E+00 
SP   1    1.000000
   8.45000000E-02    1.00000000E+00   1.00000000E+00 
D    1    1.000000
   1.29200000E+00    1.00000000E+00 

9    0
S    6    1.000000
   6.29348000E+03    1.96979000E-03 
   9.49044000E+02    1.49613000E-02 
   2.18776000E+02    7.35006000E-02 
   6.36916000E+01    2.48937000E-01 
   1.88282000E+01    6.02460000E-01 
   2.72023000E+00    2.56202000E-01 
SP   3    1.000000
   3.06331000E+01    1.11906000E-01   3.83119000E-02 
   7.02614000E+00    9.21666000E-01   2.37403000E-01 
   2.11205000E+00   -2.56919000E-03   8.17592000E-01 
SP   1    1.000000
   6.84009000E-01    1.00000000E+00   1.00000000E+00 
SP   1    1.000000
   2.00878000E-01    1.00000000E+00   1.00000000E+00 
SP   1    1.000000
   6.39000000E-02    1.00000000E+00   1.00000000E+00 
D    1    1.000000
   9.13000000E-01    1.00000000E+00 

10    0
S    6    1.000000
   6.29348000E+03    1.96979000E-03 
   9.49044000E+02    1.49613000E-02 
   2.18776000E+02    7.35006000E-02 
   6.36916000E+01    2.48937000E-01 
   1.88282000E+01    6.02460000E-01 
   2.72023000E+00    2.56202000E-01 
SP   3    1.000000
   3.06331000E+01    1.11906000E-01   3.83119000E-02 
   7.02614000E+00    9.21666000E-01   2.37403000E-01 
   2.11205000E+00   -2.56919000E-03   8.17592000E-01 
SP   1    1.000000
   6.84009000E-01    1.00000000E+00   1.00000000E+00 
SP   1    1.000000
   2.00878000E-01    1.00000000E+00   1.00000000E+00 
SP   1    1.000000
   6.39000000E-02    1.00000000E+00   1.00000000E+00 
D    1    1.000000
   9.13000000E-01    1.00000000E+00 

11    0
S    6    1.000000
   4.56324000E+03    1.96665000E-03 
   6.82024000E+02    1.52306000E-02 
   1.54973000E+02    7.61269000E-02 
   4.44553000E+01    2.60801000E-01 
   1.30290000E+01    6.16462000E-01 
   1.82773000E+00    2.21006000E-01 
SP   3    1.000000
   2.09642000E+01    1.14660000E-01   4.02487000E-02 
   4.80331000E+00    9.19999000E-01   2.37594000E-01 
   1.45933000E+00   -3.03068000E-03   8.15854000E-01 
SP   1    1.000000
   4.83456000E-01    1.00000000E+00   1.00000000E+00 
SP   1    1.000000
   1.45585000E-01    1.00000000E+00   1.00000000E+00 
SP   1    1.000000
   4.38000000E-02    1.00000000E+00   1.00000000E+00 
D    1    1.000000
   6.26000000E-01    1.00000000E+00 

12    0
S    3    1.000000
   3.38650000E+01    2.54938000E-02 
   5.09479000E+00    1.90373000E-01 
   1.15879000E+00    8.52161000E-01 
S    1    1.000000
   3.25840000E-01    1.00000000E+00 
S    1    1.000000
   1.02741000E-01    1.00000000E+00 
S    1    1.000000
   3.60000000E-02    1.00000000E+00 
P    1    1.000000
   7.50000000E-01    1.00000000E+00 

[MO]
Sym=X
Ene= 2.007842
Spin=Alpha
Occup=1
     1    5.173143308779e-15
     2    1.266012435577e-15
     3   -3.881230709574e-15
     4    2.970429001821e-14
     5    3.436413832703e-02
     6    1.977802079539e-14
     7    8.153272787215e-15
     8    2.734002853122e-14
     9    5.972353136350e-02
    10   -4.209679698071e-13
    11    9.775334642347e-14
    12   -1.043909843074e-13
    13    3.298801743195e-02
    14    5.956544824268e-12
    15    1.666845104170e-12
    16    8.547355705219e-13
    17    1.532248585407e-03
    18    6.339773892776e-15
    19   -1.370357968940e-02
    20    6.709951217018e-03
    21    2.141615666606e-14
    22    9.719994645601e-16
    23    3.337820030649e-14
    24    2.503028030215e-13
    25   -9.831877018278e-14
    26    4.611374580879e-13
    27    1.494513710187e-14
    28    5.054546314871e-15
    29    9.235367952430e-03
    30   -3.482638433195e-14
    31   -5.030119528676e-14
    32   -5.117060230145e-14
    33    1.986601285654e-13
    34    3.975451721446e-16
    35    3.824546094019e-15
    36    2.762459457174e-03
    37    7.271140093051e-15
    38   -1.881466527364e-13
    39    4.854778262775e-13
    40   -3.045312695523e-13
    41   -4.805611045122e-15
    42    9.211144777180e-15
    43   -9.104467294693e-03
    44    5.517164125307e-14
    45    5.941984590310e-14
    46    7.645774464661e-15
    47   -3.841690346297e-14
    48    2.319505195344e-02
    49   -6.700480114060e-14
    50    2.648390745016e-14
    51   -3.717843995853e-14
    52    4.079928299681e-02
    53   -3.227421421947e-14
    54   -1.489964835528e-13
    55   -3.317825509405e-13
    56    2.794094465832e-02
    57   -1.254909161438e-12
    58   -6.062879315156e-15
    59    6.939170916876e-13
    60    6.020357742750e-03
    61    3.495170726545e-15
    62   -1.796750527607e-02
    63   -1.421694451786e-02
    64    1.121260647403e-15
    65    1.249219885197e-14
    66    2.376109521145e-14
    67    3.516473233619e-14
    68   -2.670665419478e-14
    69    1.697887039311e-14
    70    3.830324660684e-02
    71   -8.641095208294e-14
    72   -5.948354101039e-14
    73   -2.905093731347e-15
    74    6.025874059758e-02
    75   -1.136804755975e-13
    76    3.789161190046e-14
    77    1.265723148715e-13
    78    5.297788583067e-02
    79    3.327592773931e-13
    80    3.562122562855e-14
    81   -2.679346364649e-13
    82   -7.140955431936e-04
    83    3.994021853370e-15
    84    3.836639734866e-03
    85   -2.638374080258e-03
    86   -2.323240484128e-15
    87    3.565960048026e-15
    88   -6.057759564455e-14
    89   -6.640375515686e-14
    90   -2.333917694534e-14
    91    5.325766263015e-14
    92   -1.147194291552e-01
    93    8.026026765172e-14
    94   -4.992268574741e-14
    95    8.987373894314e-14
    96   -2.030066881641e-01
    97    4.062710070511e-13
    98   -8.770787823321e-15
    99   -1.594193879816e-13
   100   -1.127040229120e-01
   101    1.622261825787e-12
   102   -1.408706336786e-12
   103    2.128832779003e-13
   104   -3.640185617907e-02
   105   -1.239910661491e-14
   106   -1.269737273424e-02
   107   -2.507912141438e-02
   108    4.447651663076e-14
   109   -1.053660711391e-14
   110   -9.851172694496e-15
   111   -1.423304440046e-14
   112    5.140799661308e-14
   113   -1.743871524634e-13
   114   -2.422821431524e-01
   115    5.143045579543e-14
   116    4.766943441003e-14
   117   -1.855175199764e-13
   118   -2.837812524218e-01
   119   -1.210881791907e-14
   120    1.538998050541e-15
   121   -6.540211220157e-14
   122   -1.740858336803e-01
   123    5.344076373080e-14
   124    1.922148625939e-13
   125    1.641638286196e-13
   126    1.380662236385e-02
   127   -3.193314010712e-15
   128    2.042914793767e-02
   129    1.217605047558e-02
   130   -1.900166299772e-15
   131    6.335127594821e-15
   132   -2.148530554897e-14
   133   -3.705350714049e-14
   134    6.314545965483e-14
   135   -2.294131152476e-14
   136   -1.101457807344e-01
   137    1.056439981334e-13
   138    1.175991564794e-13
   139   -6.565830164289e-14
   140   -1.822129512964e-01
   141    3.340105786704e-13
   142    6.092217621619e-14
   143    3.198348242209e-13
   144   -1.725829778787e-01
   145   -1.439341183121e-12
   146   -4.080306519182e-13
   147   -4.719667425283e-13
   148   -1.268269281631e-04
   149   -8.978974638754e-15
   150   -1.015409690749e-02
   151    5.193337584261e-03
   152   -3.787882646835e-15
   153   -7.252133764418e-15
   154   -2.253128061955e-14
   155   -4.523569213066e-14
   156   -7.589526368809e-15
   157   -1.371832238000e-14
   158    1.060181608084e-01
   159    1.476671200870e-13
   160   -5.724275238607e-14
   161   -1.254761675925e-14
   162    1.748513028438e-01
   163   -6.355876725661e-14
   164    4.482452415222e-13
   165   -4.279408387679e-14
   166    1.674548589502e-01
   167    7.074488039259e-13
   168   -1.774086256451e-14
   169   -3.367623667351e-13
   170    1.017496212258e-02
   171    2.290369068431e-15
   172    4.264053727571e-03
   173    1.331332584552e-03
   174   -3.170786576133e-15
   175   -3.271236461666e-15
   176   -1.431874997951e-13
   177   -1.123274878660e-13
   178   -2.126415016758e-14
   179   -3.161815914324e-14
   180   -1.403060077827e-02
   181   -3.468946164502e-14
   182   -2.876363704632e-14
   183   -6.060937873257e-14
   184   -2.601667167434e-02
   185   -4.201441094595e-14
   186    2.016318618285e-15
   187   -1.177564134508e-13
   188   -1.083480300290e-02
   189   -6.154254632577e-12
   190    2.424171407833e-12
   191    8.023464381983e-13
   192    1.508839757433e-02
   193    9.548970017578e-17
   194   -3.384921930189e-03
   195   -1.227552089513e-02
   196    3.437824046566e-15
   197   -1.113845692359e-14
   198   -3.425166754548e-15
   199   -1.260610025390e-14
   200   -1.490285156986e-13
   201   -3.170223298429e-13
   202   -2.881181992431e-16
   203   -2.502529766573e-15
   204   -1.603159135337e-03
Sym=X
Ene= 2.002760
Spin=Alpha
Occup=1
     1    9.359829606766e-03
     2    1.588346320790e-02
     3   -2.405433980989e-02
     4   -2.304394808545e-02
     5    6.297437193093e-14
     6   -4.400798570991e-02
     7   -4.005820707844e-02
     8   -3.871686807579e-02
     9    1.146183234549e-13
    10   -7.189772384626e-02
    11   -2.986143751117e-02
    12   -5.684834555645e-02
    13    9.025983958414e-14
    14   -2.181791577635e-01
    15   -5.732853235622e-02
    16   -4.458816591067e-02
    17   -4.147814404498e-14
    18    1.182421314848e-03
    19    2.348157088387e-14
    20    1.095838568200e-14
    21   -8.591388594461e-03
    22    4.849752592052e-04
    23   -1.497216918433e-03
    24   -5.260636184521e-03
    25   -6.660603012954e-04
    26    1.175875781574e-02
    27   -4.948070929176e-04
    28   -2.124481262311e-04
    29   -6.756596733351e-16
    30    1.625619951619e-02
    31    2.245525298250e-02
    32    1.023821425129e-02
    33   -1.835231475445e-02
    34   -1.297180990994e-03
    35   -3.618301917782e-04
    36    1.034204299238e-14
    37    2.366904188911e-03
    38    1.543485779916e-02
    39    1.479947460526e-02
    40   -4.648785350503e-02
    41   -2.738620526467e-03
    42   -3.635897668991e-04
    43   -6.985247866139e-16
    44   -1.382916012147e-02
    45   -2.285117530690e-02
    46    3.738940261261e-02
    47    1.597827618842e-02
    48    3.959977133278e-14
    49    6.331709464692e-02
    50    6.276764319487e-02
    51    2.542197901122e-02
    52    8.357079631462e-14
    53    6.223560715475e-02
    54    5.096332243820e-02
    55    1.620806260427e-02
    56   -3.051726634521e-14
    57    4.746230740687e-02
    58    2.668908477568e-02
    59    4.040692064108e-02
    60    1.838761858303e-14
    61   -1.975804380321e-03
    62    2.495657114817e-15
    63    2.427203839270e-15
    64   -1.295958869023e-02
    65    4.303231923484e-03
    66    3.926337585187e-03
    67    6.574423031621e-03
    68    1.720176997707e-02
    69    4.643447390845e-02
    70    8.510823235182e-14
    71   -1.889909734169e-02
    72    2.826012695059e-02
    73    7.109567615439e-02
    74    1.081104369875e-13
    75   -1.053506746739e-02
    76    2.250528655534e-02
    77    5.846877978720e-02
    78    6.809876305422e-14
    79    1.767329657476e-02
    80    6.037429876006e-03
    81    8.571666297826e-04
    82   -4.890141603252e-15
    83    2.489045871941e-04
    84    3.915207514432e-15
    85   -6.648421580637e-15
    86    4.154661900992e-03
    87    2.664065929211e-03
    88   -8.014425308113e-03
    89   -1.378680003913e-02
    90    4.342410686267e-02
    91   -4.065295517045e-02
    92   -2.244391124549e-14
    93    4.079991660307e-02
    94    7.393124893308e-02
    95   -7.860672487527e-02
    96   -3.355568350703e-14
    97    5.627432777621e-02
    98   -6.342090031559e-03
    99    1.541704542011e-02
   100   -8.677682414551e-14
   101   -2.261686323918e-01
   102   -1.823026057796e-02
   103    1.205718527906e-01
   104   -4.728916863387e-14
   105    2.675993650911e-04
   106   -2.853366166893e-14
   107   -3.658193270154e-14
   108   -5.470008149156e-02
   109    3.447962781858e-02
   110   -6.033659827657e-03
   111   -8.580964872604e-03
   112   -2.200632807337e-01
   113    2.751469300461e-01
   114   -2.875555621005e-13
   115    2.550387296632e-02
   116   -2.524298763044e-01
   117    3.156257605907e-01
   118   -3.019170599235e-13
   119   -7.072254725941e-03
   120   -1.686887137789e-01
   121    2.326880319819e-01
   122   -1.358068179550e-13
   123   -2.204775008047e-02
   124    6.394791323786e-03
   125    5.534716316042e-03
   126   -1.306032573227e-14
   127   -2.335762305755e-03
   128    1.631774925189e-14
   129    3.964042895797e-15
   130    1.227886899906e-02
   131   -2.571596177002e-03
   132    2.235498038779e-02
   133    3.686852232073e-02
   134   -8.254681418598e-02
   135    2.375551006310e-02
   136    3.483443356058e-14
   137   -9.891643337926e-02
   138   -1.300252259986e-01
   139    2.916248668992e-02
   140    5.230680678394e-14
   141   -1.759229337094e-01
   142   -9.693058106797e-02
   143    4.682071774899e-02
   144    8.281100782168e-14
   145   -1.331790543843e-01
   146    5.457436775693e-02
   147    2.312674397390e-02
   148    2.900385922970e-14
   149   -1.009266321567e-03
   150   -7.884572477014e-15
   151   -3.138308664566e-15
   152   -1.123992836562e-05
   153    4.128222176496e-03
   154   -1.333017522713e-03
   155   -2.209953288723e-03
   156   -1.161755223343e-03
   157    7.864887339148e-03
   158   -1.359224037687e-14
   159    5.745551304378e-03
   160   -2.690492685515e-03
   161    1.063698382375e-02
   162   -1.679640627579e-14
   163    1.901909967911e-02
   164    1.442507510604e-03
   165    8.625544750702e-03
   166    5.598003188370e-15
   167    5.575455287022e-02
   168    7.315645070956e-03
   169    2.958164399903e-02
   170    9.252069461664e-15
   171    2.610763025688e-04
   172    8.219156894676e-15
   173    8.478935653468e-15
   174   -2.782918221809e-03
   175    1.068297860581e-03
   176   -1.825360008286e-02
   177   -2.950697504962e-02
   178    3.544764691418e-02
   179    5.748065104171e-02
   180    7.273487950515e-14
   181    7.364335644737e-02
   182    5.666228948824e-02
   183    8.093751710065e-02
   184    1.137098831215e-13
   185    1.539349598614e-01
   186   -2.219357457468e-03
   187    8.092951218305e-02
   188    1.400875878983e-13
   189    4.678919116096e-01
   190   -7.090438367977e-02
   191    3.719964270527e-02
   192    6.510940967643e-14
   193   -8.673092309637e-04
   194    7.921229106213e-15
   195   -5.693480901528e-15
   196   -3.766052217726e-03
   197    2.503195030621e-03
   198    1.249052060209e-02
   199    1.496355648168e-02
   200    1.793647779597e-03
   201    2.686952330135e-02
   202   -1.659887934960e-03
   203    2.019661923620e-03
   204    3.154159841326e-15
Sym=X
Ene= 2.001835
Spin=Alpha
Occup=1
     1    5.617006071374e-04
     2    7.215579865671e-04
     3   -8.211760270552e-03
     4    1.127233477247e-02
     5   -1.795648977055e-13
     6   -3.174731432750e-03
     7   -1.307908219895e-02
     8    1.759396498512e-02
     9   -2.960413642831e-13
    10    1.104952524081e-03
    11   -2.084945666939e-02
    12    8.236175294284e-03
    13   -3.922050870868e-13
    14   -2.747323423530e-02
    15   -3.865719613239e-02
    16   -6.473202714973e-03
    17   -1.034019785368e-13
    18   -9.200808583012e-04
    19   -1.203160452194e-13
    20   -1.455982365070e-14
    21    9.719936774037e-04
    22    7.061052061280e-03
    23    2.035476615939e-02
    24    3.996018371691e-02
    25    2.416084226787e-02
    26   -3.237241305129e-02
    27    3.727784306628e-03
    28    3.096586095540e-03
    29    4.757325082838e-14
    30   -7.377105288086e-03
    31   -1.253369247992e-02
    32    2.424074681955e-03
    33   -1.058039455532e-02
    34   -1.833835183760e-04
    35   -1.675710067655e-03
    36   -8.471467946440e-15
    37   -9.116976135814e-03
    38   -1.012200583859e-02
    39   -2.487609081957e-02
    40    1.124765982349e-02
    41    2.510602226847e-03
    42    3.128148502239e-03
    43   -3.302756413053e-14
    44    1.201125434005e-02
    45    1.945923571600e-02
    46   -5.261704275409e-03
    47   -1.018936768483e-02
    48    4.470049985803e-14
    49   -5.602915164872e-02
    50   -6.808687220874e-03
    51   -1.156962651502e-02
    52    8.743574862311e-14
    53   -3.940933202157e-02
    54   -6.169135195036e-02
    55   -9.363598723459e-02
    56   -1.832295368714e-15
    57   -7.635697114505e-03
    58   -5.756183121212e-02
    59   -7.630073435213e-02
    60    1.706428756859e-15
    61    1.880255264743e-03
    62   -4.431427346909e-14
    63   -1.042105544697e-13
    64    5.416450200247e-02
    65    2.871417660642e-02
    66   -8.105957862743e-03
    67   -1.366881180316e-02
    68   -1.213319123100e-01
    69   -1.618531287744e-01
    70    4.338033330998e-14
    71    4.032833334225e-02
    72   -1.870833472731e-01
    73   -2.506694114425e-01
    74    6.242256302463e-14
    75    4.710858031910e-02
    76   -1.622532676061e-01
    77   -2.323835583395e-01
    78    5.369606555648e-14
    79    5.507442017063e-03
    80   -3.669297525033e-03
    81   -1.156779759026e-02
    82   -1.767147767618e-14
    83    9.955467130440e-04
    84   -4.514027721414e-16
    85   -4.286660712288e-15
    86   -1.315080191737e-02
    87   -4.727957428847e-03
    88    1.168431789362e-02
    89    1.756052813281e-02
    90   -7.112540761893e-02
    91   -8.170536916688e-02
    92   -8.703082691616e-14
    93   -4.919738660877e-02
    94   -1.104006042628e-01
    95   -1.360791599810e-01
    96   -1.826500816292e-13
    97   -3.552493093364e-02
    98   -1.595949985310e-02
    99   -2.615349294633e-02
   100   -6.662418458926e-14
   101   -6.072753038813e-02
   102    6.987942883124e-03
   103    2.319571705740e-02
   104    3.121955225812e-14
   105    6.457719890835e-03
   106    1.463799045237e-13
   107    7.705436229198e-14
   108   -2.003931216349e-02
   109   -1.014577176601e-02
   110    4.278954567155e-03
   111    5.822277287612e-03
   112    1.139858887773e-01
   113    1.749915333302e-01
   114    9.640082834200e-13
   115   -1.289854604633e-02
   116    1.304629542185e-01
   117    1.996540618028e-01
   118    1.093343726529e-12
   119    7.538983576705e-02
   120    3.608769904795e-02
   121    1.110978485719e-01
   122    8.047481863035e-13
   123    1.691146041735e-02
   124    2.348243383430e-03
   125    4.266665274284e-03
   126    1.180878906207e-13
   127    8.611295074064e-03
   128   -3.330863919936e-14
   129   -1.799129657109e-14
   130   -5.351087465551e-03
   131   -1.463991949509e-02
   132   -9.524039799248e-03
   133   -1.627152963459e-02
   134   -1.931193402964e-02
   135   -2.700996845354e-02
   136   -4.915888215763e-13
   137    4.236147598248e-02
   138   -2.330323711326e-02
   139   -3.688746207342e-02
   140   -8.064352553527e-13
   141    1.202865713852e-01
   142   -7.147060632042e-02
   143   -4.123497617200e-02
   144   -7.568991366051e-13
   145    1.403031291021e-01
   146   -2.268280090311e-03
   147    1.388686702074e-02
   148   -1.230120063273e-13
   149    1.355816990126e-03
   150   -1.546355959622e-14
   151    1.305666009742e-14
   152   -6.096072314395e-03
   153   -7.216196517441e-03
   154    1.103519738146e-02
   155    1.823013917319e-02
   156   -1.525930734356e-02
   157   -4.648320868451e-02
   158    4.602713972021e-13
   159   -4.870263227008e-02
   160   -2.098042443295e-02
   161   -6.643101135886e-02
   162    7.271330024599e-13
   163   -1.317045667652e-01
   164   -6.102885848942e-03
   165   -8.423080836609e-02
   166    8.278205154949e-13
   167   -1.498557898598e-01
   168   -6.863373735390e-03
   169    2.118682669843e-03
   170    2.537366925260e-13
   171   -2.076426363683e-03
   172   -7.272212799502e-15
   173    2.252142899427e-14
   174    1.572843376471e-04
   175    1.470909817485e-04
   176   -1.127594929062e-02
   177   -1.795340348119e-02
   178   -2.153406651758e-02
   179    5.613024508096e-02
   180   -3.943207376464e-13
   181    4.311249502003e-02
   182   -3.091695586479e-02
   183    8.775611991129e-02
   184   -6.854083414769e-13
   185    6.128226986111e-02
   186   -3.475504787103e-02
   187    5.967849316560e-02
   188   -6.616809373479e-13
   189    1.229186853945e-01
   190   -3.312688354903e-02
   191    3.133495471594e-03
   192   -5.540492982061e-14
   193   -1.942403915852e-03
   194    4.053819181984e-14
   195   -2.248989847204e-15
   196   -5.735055232779e-03
   197   -3.145929680770e-03
   198   -2.934189523237e-02
   199   -4.611295005635e-02
   200   -3.555363893159e-04
   201    1.300806653977e-02
   202    4.850917322904e-03
   203   -1.535996767312e-03
   204   -2.861442496880e-14
Sym=X
Ene= 2.001396
Spin=Alpha
Occup=1
     1    5.526792120060e-13
     2    5.801325063964e-13
     3    2.022433202733e-13
     4   -9.870510414244e-14
     5   -6.290736303603e-02
     6   -6.279608981154e-13
     7    3.235894140117e-13
     8   -1.481653103554e-13
     9   -1.072926718185e-01
    10    7.000564514638e-14
    11    2.614035182142e-15
    12    1.034642816695e-13
    13   -1.177124100317e-01
    14   -1.149580251415e-12
    15   -2.277725092004e-13
    16    2.928556402257e-13
    17   -1.444620535392e-02
    18    3.129908350389e-14
    19   -2.905260478244e-02
    20   -5.024643776326e-03
    21   -8.653548005109e-14
    22    2.149475923305e-14
    23   -2.178706593045e-13
    24   -5.682939625653e-13
    25   -1.901644507081e-13
    26   -3.701158326495e-13
    27   -6.565646715802e-14
    28   -7.529306446635e-15
    29    9.966944861414e-03
    30   -1.725983311346e-14
    31    6.061877338825e-14
    32    8.586322264865e-14
    33    2.121645771668e-13
    34    4.782196485725e-15
    35   -2.505271033357e-14
    36   -4.972699522852e-03
    37    1.501635245766e-13
    38    4.386923049089e-13
    39   -4.890457451219e-13
    40    5.461963955429e-13
    41   -1.273643625545e-14
    42   -4.914299934396e-14
    43   -8.887063207633e-03
    44   -6.721638727892e-13
    45   -6.830041995582e-13
    46    1.844212834839e-13
    47   -1.156620467203e-13
    48    1.391835918814e-02
    49    6.750647954620e-13
    50    2.897162514729e-13
    51   -2.284263834916e-13
    52    2.758390076383e-02
    53    4.118065854918e-13
    54    4.977639221921e-13
    55    7.064543815029e-13
    56    1.502073975644e-02
    57    7.188401567583e-13
    58    9.237651585682e-14
    59   -4.388309049501e-13
    60   -1.155871507231e-02
    61   -3.687154820835e-14
    62   -1.754944222195e-02
    63   -1.795018187121e-02
    64   -2.776616361386e-13
    65   -9.562622044324e-14
    66    6.937016553843e-15
    67    2.899243259987e-14
    68    4.420296219658e-13
    69    7.800036022367e-13
    70    1.841063529911e-02
    71   -1.444815056969e-13
    72    7.120334571698e-13
    73    1.235227145733e-12
    74    2.905120028108e-02
    75   -7.737418676481e-14
    76    5.607439049707e-13
    77    9.753655942913e-13
    78    2.229632190437e-02
    79   -2.850366357112e-13
    80   -1.416490525689e-14
    81    3.818654387515e-13
    82    4.808800613141e-03
    83   -2.638188770360e-16
    84    1.808700470889e-03
    85   -1.704747131134e-03
    86    5.161560098440e-14
    87    2.833486973634e-14
    88   -3.020292697702e-13
    89   -3.346224578104e-13
    90    2.706395086913e-13
    91    8.197818423057e-14
    92   -2.375011946106e-02
    93    5.087094644310e-13
    94    4.428109421467e-13
    95    1.706751565068e-13
    96   -4.611065222390e-02
    97   -2.316141269841e-13
    98    2.040919954560e-13
    99    4.602652984787e-14
   100   -1.970857830959e-02
   101    1.303118889341e-12
   102    1.649548609589e-12
   103   -1.347372024967e-12
   104    1.652885596271e-02
   105   -2.220280790154e-14
   106    4.073991957902e-02
   107    2.351023573606e-02
   108    2.775831594004e-14
   109    5.744579643384e-14
   110   -3.026884913223e-15
   111   -2.173928580461e-15
   112   -4.490584062674e-13
   113   -5.371865314406e-13
   114    2.545957821907e-01
   115   -3.115394904404e-14
   116   -5.034552277601e-13
   117   -6.281147375468e-13
   118    2.887431280766e-01
   119   -2.930195234490e-13
   120   -9.380713681541e-14
   121   -3.884281052966e-13
   122    2.019130875538e-01
   123   -2.093693396109e-13
   124   -3.397572710710e-13
   125   -9.782954904982e-14
   126    2.927278645024e-02
   127   -2.764298950434e-14
   128   -8.847672642562e-03
   129   -4.959463613425e-03
   130    1.132099691923e-14
   131    5.388923302457e-14
   132    4.655427114882e-13
   133    3.584170386303e-13
   134   -5.529353019291e-14
   135    1.595111721484e-13
   136   -1.177058810189e-01
   137    1.792706204374e-13
   138   -1.406796456989e-13
   139    2.603381466843e-13
   140   -1.914810516054e-01
   141   -5.335006936927e-13
   142    2.618445044946e-13
   143   -1.968920714935e-13
   144   -2.001529814654e-01