[Molden Format]
[Atoms] (Angs)
  C      1    6     -0.00714236     -1.70213747     -0.00000000
  H      2    1     -2.06882847     -1.44022412      0.00000000
  H      3    1     -0.12337987     -2.77567521      0.00000000
  H      4    1      0.04651892      1.98813947     -0.00000000
  C      5    6     -1.21953563      0.40211669      0.00000000
  O      6    8     -2.25921553      1.03043814      0.00000000
  C      7    6      1.28797806      0.34644937     -0.00000000
  O      8    8      2.31273661      1.00537216     -0.00000000
  N      9    7      0.03446295      0.97739857     -0.00000000
  N     10    7     -1.17287765     -0.98229824      0.00000000
  C     11    6      1.20107039     -1.10433419     -0.00000000
  H     12    1      2.11220096     -1.67699125     -0.00000000
[GTO]
1    0
S    6    1.000000
   4.56324000E+03    1.96665000E-03 
   6.82024000E+02    1.52306000E-02 
   1.54973000E+02    7.61269000E-02 
   4.44553000E+01    2.60801000E-01 
   1.30290000E+01    6.16462000E-01 
   1.82773000E+00    2.21006000E-01 
SP   3    1.000000
   2.09642000E+01    1.14660000E-01   4.02487000E-02 
   4.80331000E+00    9.19999000E-01   2.37594000E-01 
   1.45933000E+00   -3.03068000E-03   8.15854000E-01 
SP   1    1.000000
   4.83456000E-01    1.00000000E+00   1.00000000E+00 
SP   1    1.000000
   1.45585000E-01    1.00000000E+00   1.00000000E+00 
SP   1    1.000000
   4.38000000E-02    1.00000000E+00   1.00000000E+00 
D    1    1.000000
   6.26000000E-01    1.00000000E+00 

2    0
S    3    1.000000
   3.38650000E+01    2.54938000E-02 
   5.09479000E+00    1.90373000E-01 
   1.15879000E+00    8.52161000E-01 
S    1    1.000000
   3.25840000E-01    1.00000000E+00 
S    1    1.000000
   1.02741000E-01    1.00000000E+00 
S    1    1.000000
   3.60000000E-02    1.00000000E+00 
P    1    1.000000
   7.50000000E-01    1.00000000E+00 

3    0
S    3    1.000000
   3.38650000E+01    2.54938000E-02 
   5.09479000E+00    1.90373000E-01 
   1.15879000E+00    8.52161000E-01 
S    1    1.000000
   3.25840000E-01    1.00000000E+00 
S    1    1.000000
   1.02741000E-01    1.00000000E+00 
S    1    1.000000
   3.60000000E-02    1.00000000E+00 
P    1    1.000000
   7.50000000E-01    1.00000000E+00 

4    0
S    3    1.000000
   3.38650000E+01    2.54938000E-02 
   5.09479000E+00    1.90373000E-01 
   1.15879000E+00    8.52161000E-01 
S    1    1.000000
   3.25840000E-01    1.00000000E+00 
S    1    1.000000
   1.02741000E-01    1.00000000E+00 
S    1    1.000000
   3.60000000E-02    1.00000000E+00 
P    1    1.000000
   7.50000000E-01    1.00000000E+00 

5    0
S    6    1.000000
   4.56324000E+03    1.96665000E-03 
   6.82024000E+02    1.52306000E-02 
   1.54973000E+02    7.61269000E-02 
   4.44553000E+01    2.60801000E-01 
   1.30290000E+01    6.16462000E-01 
   1.82773000E+00    2.21006000E-01 
SP   3    1.000000
   2.09642000E+01    1.14660000E-01   4.02487000E-02 
   4.80331000E+00    9.19999000E-01   2.37594000E-01 
   1.45933000E+00   -3.03068000E-03   8.15854000E-01 
SP   1    1.000000
   4.83456000E-01    1.00000000E+00   1.00000000E+00 
SP   1    1.000000
   1.45585000E-01    1.00000000E+00   1.00000000E+00 
SP   1    1.000000
   4.38000000E-02    1.00000000E+00   1.00000000E+00 
D    1    1.000000
   6.26000000E-01    1.00000000E+00 

6    0
S    6    1.000000
   8.58850000E+03    1.89515000E-03 
   1.29723000E+03    1.43859000E-02 
   2.99296000E+02    7.07320000E-02 
   8.73771000E+01    2.40001000E-01 
   2.56789000E+01    5.94797000E-01 
   3.74004000E+00    2.80802000E-01 
SP   3    1.000000
   4.21175000E+01    1.13889000E-01   3.65114000E-02 
   9.62837000E+00    9.20811000E-01   2.37153000E-01 
   2.85332000E+00   -3.27447000E-03   8.19702000E-01 
SP   1    1.000000
   9.05661000E-01    1.00000000E+00   1.00000000E+00 
SP   1    1.000000
   2.55611000E-01    1.00000000E+00   1.00000000E+00 
SP   1    1.000000
   8.45000000E-02    1.00000000E+00   1.00000000E+00 
D    1    1.000000
   1.29200000E+00    1.00000000E+00 

7    0
S    6    1.000000
   4.56324000E+03    1.96665000E-03 
   6.82024000E+02    1.52306000E-02 
   1.54973000E+02    7.61269000E-02 
   4.44553000E+01    2.60801000E-01 
   1.30290000E+01    6.16462000E-01 
   1.82773000E+00    2.21006000E-01 
SP   3    1.000000
   2.09642000E+01    1.14660000E-01   4.02487000E-02 
   4.80331000E+00    9.19999000E-01   2.37594000E-01 
   1.45933000E+00   -3.03068000E-03   8.15854000E-01 
SP   1    1.000000
   4.83456000E-01    1.00000000E+00   1.00000000E+00 
SP   1    1.000000
   1.45585000E-01    1.00000000E+00   1.00000000E+00 
SP   1    1.000000
   4.38000000E-02    1.00000000E+00   1.00000000E+00 
D    1    1.000000
   6.26000000E-01    1.00000000E+00 

8    0
S    6    1.000000
   8.58850000E+03    1.89515000E-03 
   1.29723000E+03    1.43859000E-02 
   2.99296000E+02    7.07320000E-02 
   8.73771000E+01    2.40001000E-01 
   2.56789000E+01    5.94797000E-01 
   3.74004000E+00    2.80802000E-01 
SP   3    1.000000
   4.21175000E+01    1.13889000E-01   3.65114000E-02 
   9.62837000E+00    9.20811000E-01   2.37153000E-01 
   2.85332000E+00   -3.27447000E-03   8.19702000E-01 
SP   1    1.000000
   9.05661000E-01    1.00000000E+00   1.00000000E+00 
SP   1    1.000000
   2.55611000E-01    1.00000000E+00   1.00000000E+00 
SP   1    1.000000
   8.45000000E-02    1.00000000E+00   1.00000000E+00 
D    1    1.000000
   1.29200000E+00    1.00000000E+00 

9    0
S    6    1.000000
   6.29348000E+03    1.96979000E-03 
   9.49044000E+02    1.49613000E-02 
   2.18776000E+02    7.35006000E-02 
   6.36916000E+01    2.48937000E-01 
   1.88282000E+01    6.02460000E-01 
   2.72023000E+00    2.56202000E-01 
SP   3    1.000000
   3.06331000E+01    1.11906000E-01   3.83119000E-02 
   7.02614000E+00    9.21666000E-01   2.37403000E-01 
   2.11205000E+00   -2.56919000E-03   8.17592000E-01 
SP   1    1.000000
   6.84009000E-01    1.00000000E+00   1.00000000E+00 
SP   1    1.000000
   2.00878000E-01    1.00000000E+00   1.00000000E+00 
SP   1    1.000000
   6.39000000E-02    1.00000000E+00   1.00000000E+00 
D    1    1.000000
   9.13000000E-01    1.00000000E+00 

10    0
S    6    1.000000
   6.29348000E+03    1.96979000E-03 
   9.49044000E+02    1.49613000E-02 
   2.18776000E+02    7.35006000E-02 
   6.36916000E+01    2.48937000E-01 
   1.88282000E+01    6.02460000E-01 
   2.72023000E+00    2.56202000E-01 
SP   3    1.000000
   3.06331000E+01    1.11906000E-01   3.83119000E-02 
   7.02614000E+00    9.21666000E-01   2.37403000E-01 
   2.11205000E+00   -2.56919000E-03   8.17592000E-01 
SP   1    1.000000
   6.84009000E-01    1.00000000E+00   1.00000000E+00 
SP   1    1.000000
   2.00878000E-01    1.00000000E+00   1.00000000E+00 
SP   1    1.000000
   6.39000000E-02    1.00000000E+00   1.00000000E+00 
D    1    1.000000
   9.13000000E-01    1.00000000E+00 

11    0
S    6    1.000000
   4.56324000E+03    1.96665000E-03 
   6.82024000E+02    1.52306000E-02 
   1.54973000E+02    7.61269000E-02 
   4.44553000E+01    2.60801000E-01 
   1.30290000E+01    6.16462000E-01 
   1.82773000E+00    2.21006000E-01 
SP   3    1.000000
   2.09642000E+01    1.14660000E-01   4.02487000E-02 
   4.80331000E+00    9.19999000E-01   2.37594000E-01 
   1.45933000E+00   -3.03068000E-03   8.15854000E-01 
SP   1    1.000000
   4.83456000E-01    1.00000000E+00   1.00000000E+00 
SP   1    1.000000
   1.45585000E-01    1.00000000E+00   1.00000000E+00 
SP   1    1.000000
   4.38000000E-02    1.00000000E+00   1.00000000E+00 
D    1    1.000000
   6.26000000E-01    1.00000000E+00 

12    0
S    3    1.000000
   3.38650000E+01    2.54938000E-02 
   5.09479000E+00    1.90373000E-01 
   1.15879000E+00    8.52161000E-01 
S    1    1.000000
   3.25840000E-01    1.00000000E+00 
S    1    1.000000
   1.02741000E-01    1.00000000E+00 
S    1    1.000000
   3.60000000E-02    1.00000000E+00 
P    1    1.000000
   7.50000000E-01    1.00000000E+00 

[MO]
Sym=X
Ene= 2.007750
Spin=Alpha
Occup=1
     1   -6.307658742408e-15
     2   -9.482862659808e-15
     3   -8.524011528317e-15
     4    3.026776080845e-14
     5    4.571177968780e-02
     6    2.544505478375e-14
     7    2.648109852116e-15
     8    2.522756867611e-14
     9    7.932764624886e-02
    10   -4.596444541918e-13
    11    1.030119863801e-13
    12   -1.231637904813e-13
    13    5.175306975765e-02
    14    6.178847128039e-12
    15    1.719743191225e-12
    16    8.685242890484e-13
    17    1.297113181442e-03
    18    6.395291358664e-15
    19   -9.201535860162e-03
    20    8.071991374100e-03
    21    2.320483232418e-14
    22   -6.590576625116e-16
    23    3.767918701988e-14
    24    2.796905162005e-13
    25   -9.550614939106e-14
    26    5.231955071278e-13
    27    1.813122677736e-14
    28    6.133788551460e-15
    29    7.934608482523e-03
    30   -3.558791731875e-14
    31   -5.752015264075e-14
    32   -4.964299890116e-14
    33    1.860875924663e-13
    34    9.153911217508e-17
    35    4.025853166179e-15
    36    3.577082527277e-03
    37    8.915478519317e-15
    38   -2.052535519517e-13
    39    5.443921268472e-13
    40   -3.737500119720e-13
    41   -5.279631573720e-15
    42    8.904685287816e-15
    43   -8.651266528718e-03
    44    6.547504941971e-14
    45    6.918686604164e-14
    46    7.022665788788e-15
    47   -4.211240584323e-14
    48    1.746257665130e-02
    49   -7.166870750174e-14
    50    2.687118777214e-14
    51   -4.261642193060e-14
    52    3.025833573560e-02
    53   -4.163029055115e-14
    54   -1.575450641301e-13
    55   -3.688829030252e-13
    56    2.340120855889e-02
    57   -1.345645457377e-12
    58    1.442391221198e-14
    59    7.973913715304e-13
    60    9.055552399214e-03
    61    4.104203531282e-15
    62   -1.670752844397e-02
    63   -1.278354016711e-02
    64    3.967622217798e-16
    65    1.415092677792e-14
    66    2.381275102793e-14
    67    3.627358788005e-14
    68   -3.032825236955e-14
    69    1.761959161109e-14
    70    3.447898037845e-02
    71   -9.090687578154e-14
    72   -6.709625619134e-14
    73   -5.496654154174e-15
    74    5.414120171684e-02
    75   -1.165018190277e-13
    76    4.172478599398e-14
    77    1.390988497471e-13
    78    4.876830610144e-02
    79    3.678837243395e-13
    80    3.967361088845e-14
    81   -3.008827466778e-13
    82   -1.133415375343e-03
    83    4.043060896996e-15
    84    3.262550293680e-03
    85   -2.204454990805e-03
    86   -2.813541956783e-15
    87    3.638977445378e-15
    88   -5.162835145729e-14
    89   -5.579293417607e-14
    90   -1.755838326529e-14
    91    6.329815082072e-14
    92   -1.098971601604e-01
    93    5.970887194944e-14
    94   -4.328782837072e-14
    95    1.037624976340e-13
    96   -1.943785735671e-01
    97    4.513634937961e-13
    98   -1.502527877264e-14
    99   -1.679632396067e-13
   100   -1.066221790836e-01
   101    1.478912865007e-12
   102   -1.554387316410e-12
   103    3.475755935625e-13
   104   -3.261753906873e-02
   105   -1.280565958535e-14
   106   -1.599814702844e-02
   107   -2.833206725757e-02
   108    4.568452204181e-14
   109   -9.882283595824e-15
   110   -1.115009843798e-14
   111   -1.602774954485e-14
   112    4.196921997434e-14
   113   -1.735638323257e-13
   114   -2.649587538010e-01
   115    5.820889244491e-14
   116    3.590049154802e-14
   117   -1.831782901247e-13
   118   -3.084198349500e-01
   119   -1.241212681769e-14
   120   -1.191078856037e-14
   121   -5.494537440121e-14
   122   -1.913492333870e-01
   123    6.226413590379e-14
   124    2.227935692302e-13
   125    1.729594069119e-13
   126    9.402924960645e-03
   127   -4.054615065547e-15
   128    2.091328059643e-02
   129    1.261096637876e-02
   130   -1.110376863161e-15
   131    6.689148147634e-15
   132   -3.274428576595e-14
   133   -4.434758980185e-14
   134    6.285604882353e-14
   135   -1.873723397026e-14
   136   -1.044892741697e-01
   137    9.484297474195e-14
   138    1.190899292124e-13
   139   -6.312925398166e-14
   140   -1.731079468643e-01
   141    3.406061033485e-13
   142    5.449438108924e-14
   143    3.663340158756e-13
   144   -1.633949585447e-01
   145   -1.637816916565e-12
   146   -4.270379122636e-13
   147   -5.236475199164e-13
   148    1.039797550934e-04
   149   -8.607498558672e-15
   150   -9.157918923878e-03
   151    4.904610169675e-03
   152   -4.005645873331e-15
   153   -6.554922800821e-15
   154   -2.336411895642e-14
   155   -5.031050734109e-14
   156   -6.737823212776e-15
   157   -1.661439900733e-14
   158    9.350365686909e-02
   159    1.724507516273e-13
   160   -6.013657392409e-14
   161   -1.536872590259e-14
   162    1.545768415803e-01
   163   -6.869329168621e-14
   164    5.017206797174e-13
   165   -4.743318803726e-14
   166    1.429542846410e-01
   167    7.966547512306e-13
   168   -2.102454280883e-15
   169   -3.340840018177e-13
   170    3.575967127201e-03
   171    3.093853006705e-15
   172    4.972028219468e-03
   173    5.339613995004e-04
   174   -4.291034292843e-15
   175   -4.317741173322e-15
   176   -1.283142354430e-13
   177   -9.996047487339e-14
   178   -1.477362489780e-14
   179   -4.236392906657e-14
   180    5.104339142888e-03
   181   -3.389062453559e-14
   182   -2.213266790255e-14
   183   -7.906710773890e-14
   184    6.853378764127e-03
   185   -3.570912342122e-14
   186    1.942432171118e-14
   187   -1.354684018667e-13
   188    2.219215914383e-02
   189   -6.067206701576e-12
   190    2.580788300753e-12
   191    9.175166440464e-13
   192    1.312905067353e-02
   193    1.479143336840e-15
   194   -6.017442092061e-03
   195   -1.191286683653e-02
   196    5.902544558491e-15
   197   -1.178845405264e-14
   198    5.606320525084e-15
   199    4.875173656797e-15
   200   -1.901156638852e-13
   201   -3.243963239764e-13
   202   -2.743623177238e-15
   203   -1.884200821277e-15
   204   -1.641471645109e-04
Sym=X
Ene= 2.002662
Spin=Alpha
Occup=1
     1    1.004791602526e-02
     2    1.690669126465e-02
     3   -2.730359000398e-02
     4   -2.468201529478e-02
     5    2.377547927307e-13
     6   -4.629886480665e-02
     7   -4.479900395560e-02
     8   -4.119463784210e-02
     9    4.124772799290e-13
    10   -7.142111344872e-02
    11   -3.147163475931e-02
    12   -5.850744245098e-02
    13    4.350595423533e-13
    14   -2.151068799580e-01
    15   -6.036837138756e-02
    16   -4.320722693516e-02
    17   -1.065034177457e-14
    18    1.191364301931e-03
    19    1.245210474147e-13
    20    2.268043223599e-14
    21   -8.764425314794e-03
    22    3.541865401719e-04
    23   -7.837028916334e-04
    24   -4.875738663288e-03
    25    8.424662792920e-04
    26    1.130756788861e-02
    27   -3.232780330774e-04
    28   -1.622422784463e-04
    29   -3.955682610788e-14
    30    1.733663251347e-02
    31    2.402326740066e-02
    32    1.035722711186e-02
    33   -1.888636533842e-02
    34   -1.387816069907e-03
    35   -2.244570187248e-04
    36    2.399229509742e-14
    37    4.070018781571e-03
    38    1.795251578558e-02
    39    1.353122717794e-02
    40   -4.555344033997e-02
    41   -2.835293133087e-03
    42   -5.634441464442e-04
    43    3.382672911406e-14
    44   -1.377321440159e-02
    45   -2.268414617848e-02
    46    3.715178539097e-02
    47    1.663387463440e-02
    48   -1.992055795149e-14
    49    6.250345255070e-02
    50    6.249478031091e-02
    51    2.648832045877e-02
    52   -3.165874225084e-14
    53    6.298771520023e-02
    54    5.064307873378e-02
    55    1.472844272053e-02
    56   -1.009272571041e-13
    57    4.350262668156e-02
    58    2.482619490848e-02
    59    3.883242682319e-02
    60    5.746022980493e-14
    61   -1.957530346928e-03
    62    6.979831787465e-14
    63    7.292458772567e-14
    64   -1.248918513993e-02
    65    5.009732158509e-03
    66    3.919204037178e-03
    67    6.579256607489e-03
    68    1.616852049911e-02
    69    4.458847769665e-02
    70    7.873688330865e-15
    71   -1.902764774402e-02
    72    2.669551894772e-02
    73    6.818429742881e-02
    74   -1.367821122856e-14
    75   -1.064820906247e-02
    76    2.089839286445e-02
    77    5.563900205187e-02
    78   -2.458313187745e-14
    79    1.808907461143e-02
    80    5.976948305351e-03
    81    6.328424171800e-04
    82   -2.145100853750e-14
    83    1.970227068301e-04
    84   -3.950125822361e-15
    85    4.247197201463e-16
    86    4.029812161916e-03
    87    2.594213836028e-03
    88   -8.791866102055e-03
    89   -1.523650760697e-02
    90    4.366144122603e-02
    91   -4.773143551436e-02
    92    9.866721859261e-14
    93    4.509562258357e-02
    94    7.479623806506e-02
    95   -8.970957838801e-02
    96    1.933761450226e-13
    97    6.447880830537e-02
    98   -6.352413662373e-03
    99    1.231970973203e-02
   100    1.550989703255e-14
   101   -2.008281053116e-01
   102   -1.807794454312e-02
   103    1.126823820175e-01
   104   -6.618697810904e-14
   105    3.692272516169e-04
   106   -1.620429665670e-13
   107   -1.043474774550e-13
   108   -5.539566329450e-02
   109    3.388789375120e-02
   110   -5.613588174634e-03
   111   -7.967494846605e-03
   112   -2.133249750670e-01
   113    2.737837047711e-01
   114   -1.052801813744e-12
   115    2.366773333542e-02
   116   -2.446146293478e-01
   117    3.137685885034e-01
   118   -1.164240727935e-12
   119   -7.714007886856e-03
   120   -1.645207489970e-01
   121    2.320951049491e-01
   122   -7.433391764658e-13
   123   -2.483618253552e-02
   124    7.036186259024e-03
   125    6.769022247040e-03
   126   -1.179052212357e-13
   127   -2.034225943067e-03
   128    3.824399895059e-14
   129    1.723967363750e-14
   130    1.175677722549e-02
   131   -2.523445481305e-03
   132    2.226661838172e-02
   133    3.680351662633e-02
   134   -8.479327012398e-02
   135    2.574846865571e-02
   136    4.829354153747e-13
   137   -9.917598157411e-02
   138   -1.334956487609e-01
   139    3.238891990194e-02
   140    7.822435599365e-13
   141   -1.761064627334e-01
   142   -1.000695352857e-01
   143    4.976388181833e-02
   144    8.425808971576e-13
   145   -1.320215408106e-01
   146    5.383330260395e-02
   147    2.656172093865e-02
   148    1.055525451974e-13
   149   -1.019313101700e-03
   150    8.343113550723e-15
   151   -1.847635641550e-14
   152   -4.624954936816e-04
   153    4.053060580346e-03
   154   -1.513590659033e-03
   155   -2.507247870541e-03
   156   -1.290541404069e-03
   157    6.060561944185e-03
   158   -4.112074466753e-13
   159    6.567153218957e-03
   160   -2.823390364535e-03
   161    7.764675107678e-03
   162   -6.641650549709e-13
   163    1.815691004627e-02
   164    1.225565924182e-03
   165    6.028910512690e-03
   166   -7.365011793734e-13
   167    5.230774952204e-02
   168    8.872998971337e-03
   169    3.158665104130e-02
   170   -1.623082830455e-13
   171    1.962562518280e-04
   172    1.785137399631e-14
   173   -9.740176308974e-15
   174   -2.851556619764e-03
   175    9.010958471770e-04
   176   -1.897344047358e-02
   177   -3.078696727721e-02
   178    3.862047078107e-02
   179    6.299143166627e-02
   180    4.479145501167e-13
   181    7.716604143464e-02
   182    6.168381730915e-02
   183    9.008283840643e-02
   184    7.553861707341e-13
   185    1.553220120332e-01
   186    3.252046440937e-04
   187    8.451480025734e-02
   188    7.969611989592e-13
   189    4.481729915894e-01
   190   -7.025453454073e-02
   191    2.876561960825e-02
   192    1.172256980612e-13
   193   -1.204223401952e-03
   194   -3.632835426853e-14
   195    8.122843363532e-15
   196   -5.078568176992e-03
   197    2.399724672328e-03
   198    1.268760649052e-02
   199    1.506024496300e-02
   200    7.291884712239e-04
   201    2.503359570628e-02
   202   -1.570667744800e-03
   203    2.442489488202e-03
   204    3.198135202977e-14
Sym=X
Ene= 2.002414
Spin=Alpha
Occup=1
     1    3.641991631204e-13
     2    4.000115961970e-13
     3   -4.549845521514e-14
     4   -8.660901335429e-14
     5   -5.241774434184e-02
     6   -5.227470564874e-13
     7   -8.271815045959e-14
     8   -1.309877811085e-13
     9   -8.924416670220e-02
    10   -2.638850830998e-14
    11   -2.594643785255e-13
    12   -5.613991532388e-15
    13   -1.029732568420e-01
    14   -1.328564332311e-12
    15   -5.225048191918e-13
    16    1.774978669608e-13
    17   -1.029306136765e-02
    18    1.316325890442e-14
    19   -2.947858231655e-02
    20   -3.655449723384e-03
    21   -8.285664267586e-14
    22    4.559563003823e-14
    23   -2.909381171324e-14
    24   -2.387165053173e-13
    25   -7.672407548565e-14
    26   -5.266769484507e-13
    27   -2.559117926231e-14
    28    1.009288009389e-14
    29    1.118544593238e-02
    30    2.501671514428e-14
    31    1.019956864657e-13
    32    1.115967859997e-13
    33    8.197490592768e-14
    34   -3.970406204436e-15
    35   -2.252396867454e-14
    36   -4.080865729838e-03
    37    7.422134112984e-14
    38    3.560008021755e-13
    39   -5.187072219395e-13
    40    4.479749077840e-13
    41   -2.947723347081e-15
    42   -1.912507528128e-14
    43   -1.015953096234e-02
    44   -3.741474814444e-13
    45   -3.709240686608e-13
    46    2.060935529035e-13
    47   -6.593177660510e-14
    48    1.561554983576e-02
    49    3.006002881047e-13
    50    3.425471078715e-13
    51   -1.132107253413e-13
    52    3.045550408677e-02
    53    3.065118308248e-13
    54    1.947774316508e-13
    55    1.035006591394e-13
    56    1.911622768570e-02
    57    6.671779661051e-13
    58   -2.210559359792e-13
    59   -7.543924976318e-13
    60   -1.148653548332e-02
    61   -1.940822896850e-14
    62   -1.983381001802e-02
    63   -2.044349287780e-02
    64    6.208000673642e-14
    65    1.034828862806e-13
    66   -1.044939020898e-14
    67   -1.501153422253e-14
    68   -3.052505572153e-13
    69   -2.196556257044e-13
    70    2.206578106396e-02
    71    3.067093559265e-14
    72   -4.398410953490e-13
    73   -3.166541008852e-13
    74    3.485605492679e-02
    75    1.430439979610e-13
    76   -4.528106297061e-13
    77   -4.708552706590e-13
    78    2.719232995756e-02
    79   -1.815497459927e-13
    80   -1.448425356403e-14
    81    2.754715603419e-13
    82    5.189699631627e-03
    83    5.866656438796e-15
    84    2.138433191875e-03
    85   -1.942097334925e-03
    86   -2.354448659830e-14
    87    1.317222706466e-15
    88   -1.528860807938e-13
    89   -1.792003026707e-13
    90   -4.509324409430e-14
    91   -5.780203622203e-13
    92   -3.354474837195e-02
    93    3.012919339882e-13
    94   -2.669342692643e-14
    95   -9.710262550344e-13
    96   -6.335622762801e-02
    97   -2.193635084111e-13
    98    5.993083569718e-14
    99   -7.770325207062e-14
   100   -2.739206684748e-02
   101    6.915449688847e-14
   102    1.481308037421e-12
   103   -6.768659592838e-13
   104    7.032211547381e-03
   105    2.151282184861e-14
   106    4.009865207433e-02
   107    2.036178085699e-02
   108   -2.905845796558e-13
   109    1.036613377761e-13
   110    6.436184140515e-15
   111    9.560779855669e-15
   112   -4.357932091700e-13
   113    1.525477455014e-12
   114    2.326665877490e-01
   115   -3.709516376888e-14
   116   -4.913513049466e-13
   117    1.730244419832e-12
   118    2.624061240444e-01
   119    1.692420338440e-13
   120   -4.237316510754e-13
   121    1.121225080976e-12
   122    1.846498842883e-01
   123   -1.674465405491e-13
   124   -2.794117523912e-13
   125   -4.009769437141e-14
   126    3.055082828901e-02
   127    2.113169481718e-14
   128   -6.990016474990e-03
   129   -4.114073963124e-03
   130    1.881802926023e-14
   131   -5.014662981887e-14
   132    2.944373273349e-13
   133    2.497336272358e-13
   134   -4.239208092336e-13
   135    6.873262137699e-14
   136   -1.330960756992e-01
   137   -2.818099572175e-14
   138   -6.685424945439e-13
   139    1.292666300048e-13
   140   -2.167607582418e-01
   141   -3.878422286134e-13
   142   -5.296744860176e-13
   143   -2.637474321659e-13
   144   -2.258414657571e-01
   145    1.946383772377e-12
   146    4.698999151838e-13
   147    5.014696864258e-13
   148   -2.274844707877e-02
   149   -5.461401321982e-15
   150   -4.517499560317e-03
   151    4.552972867895e-03
   152   -2.546517732302e-14
   153    1.960024351636e-15
   154   -4.923963646694e-14
   155    1.408618564933e-14
   156   -9.217534204848e-14
   157    1.240996210202e-13
   158    1.136625468392e-01
   159   -3.113439134708e-13
   160   -9.271406750250e-14
   161    1.987514420553e-13
   162    1.849851891147e-01
   163   -2.077189454520e-13
   164   -5.795264027833e-13
   165    3.800020350731e-14
   166    2.124595578507e-01
   167   -1.175687677811e-12
   168   -3.745681938836e-13
   169    8.052215139591e-14
   170    5.117480339000e-02
   171   -6.210479250861e-15
   172   -2.965315789450e-03
   173    5.181456806128e-03
   174   -2.604591843634e-14
   175    2.116264632890e-14
   176   -3.425165100281e-13
   177   -3.478116215967e-13
   178    4.744850488509e-15
   179    5.961758557997e-13
   180   -1.097998120773e-01
   181    3.222476169511e-13
   182    6.184739553822e-14
   183    9.209841207159e-13
   184   -1.878215414086e-01
   185    5.746984334702e-13
   186   -3.274113310137e-13
   187    6.817558603129e-13
   188   -1.918800033312e-01
   189    1.277152354003e-13
   190   -1.606443731127e-12
   191   -9.150713257592e-13
   192   -1.626816833326e-02
   193   -1.428939845712e-14
   194    1.297984718108e-02
   195   -3.686601860150e-03
   196   -8.284379821120e-14
   197    1.632118822402e-14
   198   -1.994847462400e-13
   199   -3.581774501783e-13
   200    3.713590450190e-13
   201    1.639960944764e-13
   202    4.012532723511e-14
   203   -1.401968224094e-15
   204   -8.405486323985e-03
Sym=X
Ene= 2.001858
Spin=Alpha
Occup=1
     1   -8.327076705394e-04
     2   -1.585474884430e-03
     3   -1.898218551494e-02
     4    7.957739958492e-03
     5    2.080458322063e-13
     6    3.061356113751e-03
     7   -2.982934134274e-02
     8    1.309750383203e-02
     9    3.638595506046e-13
    10    5.820775054585e-03
    11   -2.556330583360e-02
    12    3.781734598214e-03
    13    3.534742340071e-13
    14   -4.841801255201e-02
    15   -4.717182080878e-02
    16   -1.568488042909e-02
    17   -1.952321428782e-14
    18   -1.346929610738e-03
    19    7.902677939898e-14
    20    1.449598275017e-14
    21   -1.125929904247e-05
    22    5.750533153389e-03
    23    1.476378510879e-02
    24    3.223312420590e-02
    25    2.662232461250e-02
    26   -3.299786040649e-02
    27    3.146737823909e-03
    28    2.613360431438e-03
    29   -2.489902458629e-14
    30   -2.540619144971e-03
    31   -5.054950080261e-03
    32    2.349102498036e-03
    33   -1.615272245987e-02
    34   -5.893433156610e-04
    35   -9.181771780690e-04
    36    2.166146858616e-14
    37   -5.071002589319e-03
    38   -5.859240734285e-03
    39   -2.813425009393e-02
    40    1.351641268424e-02
    41    2.697128266707e-03
    42    2.650248183366e-03
    43    2.934883069595e-14
    44    1.267788353660e-02
    45    2.033210245725e-02
    46   -1.232341314410e-02
    47   -6.161437139476e-03
    48   -6.883636964524e-14
    49   -5.685241821344e-02
    50   -1.831561328230e-02
    51   -4.439394727272e-03
    52   -1.322835863969e-13
    53   -3.444153221592e-02
    54   -6.857530597572e-02
    55   -9.646972805013e-02
    56   -1.251066514781e-13
    57   -3.171665926154e-03
    58   -5.874273956581e-02
    59   -8.215984987636e-02
    60    7.638668724454e-14
    61    2.046227017208e-03
    62    7.818939998207e-14
    63    2.625363411894e-14
    64    5.675677059492e-02
    65    2.790806264541e-02
    66   -7.287801515882e-03
    67   -1.229128584016e-02
    68   -1.189563701987e-01
    69   -1.742800863278e-01
    70   -1.014710592271e-13
    71    3.630069790575e-02
    72   -1.838843719064e-01
    73   -2.696491794150e-01
    74   -1.650921876657e-13
    75    3.628895416490e-02
    76   -1.629905553569e-01
    77   -2.470873709509e-01
    78   -1.224966071109e-13
    79   -2.139229646909e-04
    80   -4.577510772239e-03
    81   -1.148163182367e-02
    82   -4.865600320466e-14
    83    6.750997641719e-04
    84   -1.482840530847e-14
    85    8.792604781236e-15
    86   -1.325968398105e-02
    87   -5.830945445848e-03
    88    6.054832904805e-03
    89    8.317735021201e-03
    90   -6.511271152567e-02
    91   -8.494817314531e-02
    92    9.770477894855e-14
    93   -2.338989070841e-02
    94   -1.007263161021e-01
    95   -1.408681301446e-01
    96    1.721521179274e-13
    97   -1.717768097870e-02
    98   -1.480845847779e-02
    99   -3.150718920287e-02
   100    8.683823077846e-14
   101   -3.946332692556e-02
   102    7.788865223745e-03
   103    1.261758577067e-02
   104   -5.850935851053e-14
   105    5.341482469973e-03
   106   -1.237145937111e-13
   107   -7.258488061209e-14
   108   -1.895740485474e-02
   109   -9.647567421133e-03
   110    3.818254735948e-03
   111    5.213115478501e-03
   112    1.078768478885e-01
   113    1.564264865628e-01
   114   -6.881774979221e-13
   115   -1.183928612880e-02
   116    1.233324062488e-01
   117    1.780120877626e-01
   118   -7.771637763119e-13
   119    6.897661284716e-02
   120    3.511343728311e-02
   121    9.972477740766e-02
   122   -5.097513340162e-13
   123    1.160384189822e-02
   124    3.467277284831e-03
   125    5.900304439747e-03
   126   -8.108803449846e-14
   127    7.895143750609e-03
   128    2.104758685169e-14
   129    1.329762874130e-14
   130   -5.519410892454e-03
   131   -1.299782441578e-02
   132   -1.003779405622e-02
   133   -1.713057752398e-02
   134   -1.742617938070e-02
   135   -2.223938557031e-02
   136    3.313089759868e-13
   137    4.455658433698e-02
   138   -1.995670605007e-02
   139   -2.885902561777e-02
   140    5.328653735382e-13
   141    1.248407775589e-01
   142   -7.187782598241e-02
   143   -3.397726820138e-02
   144    6.386614190643e-13