[Molden Format]
[Atoms] (Angs)
  C      1    6     -0.00714236     -1.70213747     -0.00000000
  H      2    1     -2.06882847     -1.44022412      0.00000000
  H      3    1     -0.12337987     -2.77567521      0.00000000
  H      4    1      0.04651892      1.98813947     -0.00000000
  C      5    6     -1.21953563      0.40211669      0.00000000
  O      6    8     -2.25921553      1.03043814      0.00000000
  C      7    6      1.28797806      0.34644937     -0.00000000
  O      8    8      2.31273661      1.00537216     -0.00000000
  N      9    7      0.03446295      0.97739857     -0.00000000
  N     10    7     -1.17287765     -0.98229824      0.00000000
  C     11    6      1.20107039     -1.10433419     -0.00000000
  H     12    1      2.11220096     -1.67699125     -0.00000000
[GTO]
1    0
S    6    1.000000
   4.56324000E+03    1.96665000E-03 
   6.82024000E+02    1.52306000E-02 
   1.54973000E+02    7.61269000E-02 
   4.44553000E+01    2.60801000E-01 
   1.30290000E+01    6.16462000E-01 
   1.82773000E+00    2.21006000E-01 
SP   3    1.000000
   2.09642000E+01    1.14660000E-01   4.02487000E-02 
   4.80331000E+00    9.19999000E-01   2.37594000E-01 
   1.45933000E+00   -3.03068000E-03   8.15854000E-01 
SP   1    1.000000
   4.83456000E-01    1.00000000E+00   1.00000000E+00 
SP   1    1.000000
   1.45585000E-01    1.00000000E+00   1.00000000E+00 
SP   1    1.000000
   4.38000000E-02    1.00000000E+00   1.00000000E+00 
D    1    1.000000
   6.26000000E-01    1.00000000E+00 

2    0
S    3    1.000000
   3.38650000E+01    2.54938000E-02 
   5.09479000E+00    1.90373000E-01 
   1.15879000E+00    8.52161000E-01 
S    1    1.000000
   3.25840000E-01    1.00000000E+00 
S    1    1.000000
   1.02741000E-01    1.00000000E+00 
S    1    1.000000
   3.60000000E-02    1.00000000E+00 
P    1    1.000000
   7.50000000E-01    1.00000000E+00 

3    0
S    3    1.000000
   3.38650000E+01    2.54938000E-02 
   5.09479000E+00    1.90373000E-01 
   1.15879000E+00    8.52161000E-01 
S    1    1.000000
   3.25840000E-01    1.00000000E+00 
S    1    1.000000
   1.02741000E-01    1.00000000E+00 
S    1    1.000000
   3.60000000E-02    1.00000000E+00 
P    1    1.000000
   7.50000000E-01    1.00000000E+00 

4    0
S    3    1.000000
   3.38650000E+01    2.54938000E-02 
   5.09479000E+00    1.90373000E-01 
   1.15879000E+00    8.52161000E-01 
S    1    1.000000
   3.25840000E-01    1.00000000E+00 
S    1    1.000000
   1.02741000E-01    1.00000000E+00 
S    1    1.000000
   3.60000000E-02    1.00000000E+00 
P    1    1.000000
   7.50000000E-01    1.00000000E+00 

5    0
S    6    1.000000
   4.56324000E+03    1.96665000E-03 
   6.82024000E+02    1.52306000E-02 
   1.54973000E+02    7.61269000E-02 
   4.44553000E+01    2.60801000E-01 
   1.30290000E+01    6.16462000E-01 
   1.82773000E+00    2.21006000E-01 
SP   3    1.000000
   2.09642000E+01    1.14660000E-01   4.02487000E-02 
   4.80331000E+00    9.19999000E-01   2.37594000E-01 
   1.45933000E+00   -3.03068000E-03   8.15854000E-01 
SP   1    1.000000
   4.83456000E-01    1.00000000E+00   1.00000000E+00 
SP   1    1.000000
   1.45585000E-01    1.00000000E+00   1.00000000E+00 
SP   1    1.000000
   4.38000000E-02    1.00000000E+00   1.00000000E+00 
D    1    1.000000
   6.26000000E-01    1.00000000E+00 

6    0
S    6    1.000000
   8.58850000E+03    1.89515000E-03 
   1.29723000E+03    1.43859000E-02 
   2.99296000E+02    7.07320000E-02 
   8.73771000E+01    2.40001000E-01 
   2.56789000E+01    5.94797000E-01 
   3.74004000E+00    2.80802000E-01 
SP   3    1.000000
   4.21175000E+01    1.13889000E-01   3.65114000E-02 
   9.62837000E+00    9.20811000E-01   2.37153000E-01 
   2.85332000E+00   -3.27447000E-03   8.19702000E-01 
SP   1    1.000000
   9.05661000E-01    1.00000000E+00   1.00000000E+00 
SP   1    1.000000
   2.55611000E-01    1.00000000E+00   1.00000000E+00 
SP   1    1.000000
   8.45000000E-02    1.00000000E+00   1.00000000E+00 
D    1    1.000000
   1.29200000E+00    1.00000000E+00 

7    0
S    6    1.000000
   4.56324000E+03    1.96665000E-03 
   6.82024000E+02    1.52306000E-02 
   1.54973000E+02    7.61269000E-02 
   4.44553000E+01    2.60801000E-01 
   1.30290000E+01    6.16462000E-01 
   1.82773000E+00    2.21006000E-01 
SP   3    1.000000
   2.09642000E+01    1.14660000E-01   4.02487000E-02 
   4.80331000E+00    9.19999000E-01   2.37594000E-01 
   1.45933000E+00   -3.03068000E-03   8.15854000E-01 
SP   1    1.000000
   4.83456000E-01    1.00000000E+00   1.00000000E+00 
SP   1    1.000000
   1.45585000E-01    1.00000000E+00   1.00000000E+00 
SP   1    1.000000
   4.38000000E-02    1.00000000E+00   1.00000000E+00 
D    1    1.000000
   6.26000000E-01    1.00000000E+00 

8    0
S    6    1.000000
   8.58850000E+03    1.89515000E-03 
   1.29723000E+03    1.43859000E-02 
   2.99296000E+02    7.07320000E-02 
   8.73771000E+01    2.40001000E-01 
   2.56789000E+01    5.94797000E-01 
   3.74004000E+00    2.80802000E-01 
SP   3    1.000000
   4.21175000E+01    1.13889000E-01   3.65114000E-02 
   9.62837000E+00    9.20811000E-01   2.37153000E-01 
   2.85332000E+00   -3.27447000E-03   8.19702000E-01 
SP   1    1.000000
   9.05661000E-01    1.00000000E+00   1.00000000E+00 
SP   1    1.000000
   2.55611000E-01    1.00000000E+00   1.00000000E+00 
SP   1    1.000000
   8.45000000E-02    1.00000000E+00   1.00000000E+00 
D    1    1.000000
   1.29200000E+00    1.00000000E+00 

9    0
S    6    1.000000
   6.29348000E+03    1.96979000E-03 
   9.49044000E+02    1.49613000E-02 
   2.18776000E+02    7.35006000E-02 
   6.36916000E+01    2.48937000E-01 
   1.88282000E+01    6.02460000E-01 
   2.72023000E+00    2.56202000E-01 
SP   3    1.000000
   3.06331000E+01    1.11906000E-01   3.83119000E-02 
   7.02614000E+00    9.21666000E-01   2.37403000E-01 
   2.11205000E+00   -2.56919000E-03   8.17592000E-01 
SP   1    1.000000
   6.84009000E-01    1.00000000E+00   1.00000000E+00 
SP   1    1.000000
   2.00878000E-01    1.00000000E+00   1.00000000E+00 
SP   1    1.000000
   6.39000000E-02    1.00000000E+00   1.00000000E+00 
D    1    1.000000
   9.13000000E-01    1.00000000E+00 

10    0
S    6    1.000000
   6.29348000E+03    1.96979000E-03 
   9.49044000E+02    1.49613000E-02 
   2.18776000E+02    7.35006000E-02 
   6.36916000E+01    2.48937000E-01 
   1.88282000E+01    6.02460000E-01 
   2.72023000E+00    2.56202000E-01 
SP   3    1.000000
   3.06331000E+01    1.11906000E-01   3.83119000E-02 
   7.02614000E+00    9.21666000E-01   2.37403000E-01 
   2.11205000E+00   -2.56919000E-03   8.17592000E-01 
SP   1    1.000000
   6.84009000E-01    1.00000000E+00   1.00000000E+00 
SP   1    1.000000
   2.00878000E-01    1.00000000E+00   1.00000000E+00 
SP   1    1.000000
   6.39000000E-02    1.00000000E+00   1.00000000E+00 
D    1    1.000000
   9.13000000E-01    1.00000000E+00 

11    0
S    6    1.000000
   4.56324000E+03    1.96665000E-03 
   6.82024000E+02    1.52306000E-02 
   1.54973000E+02    7.61269000E-02 
   4.44553000E+01    2.60801000E-01 
   1.30290000E+01    6.16462000E-01 
   1.82773000E+00    2.21006000E-01 
SP   3    1.000000
   2.09642000E+01    1.14660000E-01   4.02487000E-02 
   4.80331000E+00    9.19999000E-01   2.37594000E-01 
   1.45933000E+00   -3.03068000E-03   8.15854000E-01 
SP   1    1.000000
   4.83456000E-01    1.00000000E+00   1.00000000E+00 
SP   1    1.000000
   1.45585000E-01    1.00000000E+00   1.00000000E+00 
SP   1    1.000000
   4.38000000E-02    1.00000000E+00   1.00000000E+00 
D    1    1.000000
   6.26000000E-01    1.00000000E+00 

12    0
S    3    1.000000
   3.38650000E+01    2.54938000E-02 
   5.09479000E+00    1.90373000E-01 
   1.15879000E+00    8.52161000E-01 
S    1    1.000000
   3.25840000E-01    1.00000000E+00 
S    1    1.000000
   1.02741000E-01    1.00000000E+00 
S    1    1.000000
   3.60000000E-02    1.00000000E+00 
P    1    1.000000
   7.50000000E-01    1.00000000E+00 

[MO]
Sym=X
Ene= 2.008114
Spin=Alpha
Occup=1
     1   -1.112139768834e-15
     2   -3.376293844651e-15
     3   -9.904331119601e-15
     4    2.724170438214e-14
     5    3.574074250731e-02
     6    1.746327276592e-14
     7    1.826093450380e-15
     8    2.073717402810e-14
     9    6.211480845676e-02
    10   -4.561868414632e-13
    11    1.076123764609e-13
    12   -1.324186948607e-13
    13    3.651701494832e-02
    14    5.717619424527e-12
    15    1.643209429443e-12
    16    7.638222718515e-13
    17    2.922225129912e-03
    18    6.305818342293e-15
    19   -1.176252538847e-02
    20    6.490942225173e-03
    21    2.216303448332e-14
    22    4.453098824715e-16
    23    3.524851804695e-14
    24    2.764230283945e-13
    25   -8.026654771150e-14
    26    4.892716814998e-13
    27    1.828016048795e-14
    28    6.439659494589e-15
    29    8.472416756348e-03
    30   -3.387529523534e-14
    31   -5.587940108792e-14
    32   -5.575755410788e-14
    33    1.735400308638e-13
    34   -3.888722681724e-16
    35    3.763459114324e-15
    36    2.878770632707e-03
    37    3.257056631522e-15
    38   -1.986297993077e-13
    39    4.997383971501e-13
    40   -3.461912363983e-13
    41   -5.973596342845e-15
    42    8.465587572698e-15
    43   -8.054084282782e-03
    44    5.911435388870e-14
    45    6.332169790288e-14
    46    8.812634812472e-15
    47   -3.420169938920e-14
    48    2.592898505435e-02
    49   -6.885800886565e-14
    50    2.989320078757e-14
    51   -3.081226814317e-14
    52    4.548116873092e-02
    53   -3.138129777207e-14
    54   -1.686303741268e-13
    55   -3.507975392078e-13
    56    2.915186441421e-02
    57   -1.222602719217e-12
    58    1.439016322190e-14
    59    7.195366324913e-13
    60    1.083787033002e-02
    61    3.995376607075e-15
    62   -1.875647034223e-02
    63   -1.210812471191e-02
    64    1.388789742628e-15
    65    1.462994683424e-14
    66    2.426047658760e-14
    67    3.649412094070e-14
    68   -2.566944969182e-14
    69    1.878440160317e-14
    70    4.487936162066e-02
    71   -8.987167943535e-14
    72   -5.888915178896e-14
    73   -2.567506731405e-15
    74    7.041389433817e-02
    75   -1.221618015443e-13
    76    4.242662355847e-14
    77    1.387867184153e-13
    78    6.311159302334e-02
    79    3.363684103079e-13
    80    3.166460720038e-14
    81   -2.848125340345e-13
    82   -5.884568031041e-04
    83    3.495305736601e-15
    84    4.432180444562e-03
    85   -3.025100875496e-03
    86   -2.236534589869e-15
    87    3.633861161447e-15
    88   -5.238327489968e-14
    89   -5.820917418688e-14
    90   -1.628998582373e-14
    91    5.109242331220e-14
    92   -1.131911791275e-01
    93    7.094792691205e-14
    94   -3.838807321016e-14
    95    8.256737033889e-14
    96   -1.997489118071e-01
    97    4.416142058574e-13
    98   -2.332237665980e-14
    99   -1.693946102455e-13
   100   -1.111829315591e-01
   101    1.493039524160e-12
   102   -1.496302507616e-12
   103    2.895085332687e-13
   104   -3.964437015262e-02
   105   -1.243692886498e-14
   106   -1.550029772003e-02
   107   -2.528710315099e-02
   108    4.477373823857e-14
   109   -9.540473767427e-15
   110   -1.138191978312e-14
   111   -1.619588809497e-14
   112    4.699309403721e-14
   113   -1.733248003540e-13
   114   -2.585344761305e-01
   115    5.835338754995e-14
   116    4.190659196916e-14
   117   -1.831212472824e-13
   118   -3.016014141369e-01
   119   -7.035229167521e-15
   120   -9.277089123658e-15
   121   -5.727060776677e-14
   122   -1.847184546981e-01
   123    6.740646671060e-14
   124    2.127359886665e-13
   125    1.693449031550e-13
   126    1.260225388448e-02
   127   -4.167279437473e-15
   128    2.088372591122e-02
   129    1.313437952196e-02
   130   -2.242523835838e-15
   131    6.619942118511e-15
   132   -2.103595548969e-14
   133   -3.296829941028e-14
   134    5.504908539109e-14
   135   -2.361024681085e-14
   136   -1.009647446240e-01
   137    8.589342092929e-14
   138    1.062583598472e-13
   139   -7.056960552962e-14
   140   -1.671428688206e-01
   141    3.298101161572e-13
   142    4.417557802635e-14
   143    3.475032248508e-13
   144   -1.581772439279e-01
   145   -1.583839041525e-12
   146   -4.179596534797e-13
   147   -4.616947133389e-13
   148    6.869730601980e-04
   149   -7.445747526201e-15
   150   -9.557472701690e-03
   151    5.288027836038e-03
   152   -3.514578165779e-15
   153   -6.159951028618e-15
   154   -2.051993209765e-14
   155   -4.361836936729e-14
   156   -7.543504813779e-15
   157   -1.902420703654e-14
   158    9.781965289350e-02
   159    1.487687267016e-13
   160   -6.067710960555e-14
   161   -2.046615514497e-14
   162    1.614937879149e-01
   163   -7.942741005120e-14
   164    4.980952961295e-13
   165   -4.692036901565e-14
   166    1.527250751952e-01
   167    8.145488871156e-13
   168    3.455793708131e-14
   169   -3.283466429366e-13
   170    6.246137715580e-03
   171    4.064915440948e-15
   172    4.058141694464e-03
   173    1.361581551461e-03
   174   -4.672112862369e-15
   175   -3.895026604326e-15
   176   -1.383819869259e-13
   177   -1.091492352453e-13
   178   -1.390960086505e-14
   179   -3.215966339346e-14
   180   -8.831344745474e-03
   181   -2.919695214910e-14
   182   -1.996565170529e-14
   183   -6.352573918534e-14
   184   -1.693087140871e-02
   185   -4.211723883595e-14
   186    1.618678686430e-14
   187   -1.159844342621e-13
   188   -1.335030819658e-03
   189   -5.790891749317e-12
   190    2.428401369207e-12
   191    8.859416641742e-13
   192    1.460963442037e-02
   193    1.408376095261e-15
   194   -3.830022551651e-03
   195   -1.219274157580e-02
   196    3.791326998520e-15
   197   -1.131212386960e-14
   198    2.341473845110e-15
   199    2.192586977979e-16
   200   -1.672667296810e-13
   201   -2.891451923148e-13
   202   -2.823084338556e-15
   203   -1.763675962191e-15
   204   -1.168154096811e-03
Sym=X
Ene= 2.002784
Spin=Alpha
Occup=1
     1    8.390408748315e-03
     2    1.425768664361e-02
     3   -2.125431684482e-02
     4   -2.095239206627e-02
     5    9.934885098700e-14
     6   -3.942652895655e-02
     7   -3.590951211243e-02
     8   -3.536644958374e-02
     9    1.749519015237e-13
    10   -7.107891238157e-02
    11   -2.883078421944e-02
    12   -5.582490800879e-02
    13    1.747725226075e-13
    14   -2.367602487924e-01
    15   -6.253880068427e-02
    16   -5.030974854996e-02
    17   -2.442033125210e-14
    18    1.127482692042e-03
    19    5.139371068116e-14
    20    1.213108022457e-14
    21   -8.473451225460e-03
    22    3.301600144029e-04
    23   -3.236323231754e-03
    24   -7.817929280714e-03
    25   -1.593664860737e-03
    26    1.166108817996e-02
    27   -7.183927325548e-04
    28   -2.578440358507e-04
    29   -1.256503567252e-14
    30    1.523266148761e-02
    31    2.088629095334e-02
    32    8.998325079831e-03
    33   -2.036832174650e-02
    34   -1.163535314582e-03
    35   -4.226738977905e-04
    36    1.207169936220e-14
    37    3.650500206952e-03
    38    1.650129036732e-02
    39    1.406829577200e-02
    40   -4.963773215379e-02
    41   -2.134669105336e-03
    42   -7.402240150819e-04
    43    7.297123395998e-15
    44   -1.293486073007e-02
    45   -2.156040217165e-02
    46    3.076744374629e-02
    47    1.377775486992e-02
    48    3.199547324294e-14
    49    6.080883804849e-02
    50    5.205079597660e-02
    51    2.183642968548e-02
    52    6.829941020694e-14
    53    6.435724865832e-02
    54    5.075098653639e-02
    55    2.107294474807e-02
    56   -3.326329497295e-14
    57    3.892316963634e-02
    58    2.441112057778e-02
    59    4.283884762838e-02
    60    2.759312491211e-14
    61   -1.714831749870e-03
    62    1.558697694602e-14
    63    2.566716160818e-14
    64   -1.553902404906e-02
    65    1.793515653740e-03
    66    3.589298718978e-03
    67    6.052067842691e-03
    68    2.327057415116e-02
    69    4.987362006493e-02
    70    8.360423386341e-14
    71   -1.758539122227e-02
    72    3.748801658021e-02
    73    7.647386949664e-02
    74    1.044131399585e-13
    75   -1.269874459457e-02
    76    2.915140172629e-02
    77    6.467585670762e-02
    78    6.581095179595e-14
    79    1.322872290421e-02
    80    5.939048082418e-03
    81    1.984284393071e-03
    82   -2.310931694938e-15
    83    8.717104914848e-05
    84    3.797500530862e-15
    85   -6.153812970803e-15
    86    4.453365754552e-03
    87    2.360845035639e-03
    88   -9.197056560610e-03
    89   -1.598636842769e-02
    90    4.116791139604e-02
    91   -2.925963797030e-02
    92    5.232501011380e-15
    93    4.833951852230e-02
    94    7.108582880291e-02
    95   -5.827728503354e-02
    96    1.750258775591e-14
    97    6.367447471158e-02
    98   -1.199127333162e-02
    99    2.575922290644e-02
   100   -6.714603169278e-14
   101   -2.194329531472e-01
   102   -2.763900347162e-02
   103    1.259466183837e-01
   104   -4.320689131642e-14
   105   -6.515532427600e-04
   106   -6.092789279019e-14
   107   -5.252311710359e-14
   108   -5.515050378718e-02
   109    3.495390022371e-02
   110   -4.078756114144e-04
   111   -3.566446760520e-04
   112   -2.368211562744e-01
   113    2.723752243200e-01
   114   -4.700751615751e-13
   115   -2.825766256238e-03
   116   -2.705142789506e-01
   117    3.123522831566e-01
   118   -5.072237453524e-13
   119   -2.785225583509e-02
   120   -1.749549204783e-01
   121    2.290057019439e-01
   122   -2.779909928297e-13
   123   -2.397211287763e-02
   124    8.013850569729e-03
   125    3.402407775718e-03
   126   -4.758305336858e-14
   127   -2.396596910617e-03
   128    2.150879869218e-14
   129    8.314444039084e-15
   130    1.427126094862e-02
   131   -1.834894792071e-03
   132    2.279357685256e-02
   133    3.761662210635e-02
   134   -7.167312314290e-02
   135    2.652354081314e-02
   136    1.502957393919e-13
   137   -1.008986226323e-01
   138   -1.124718877407e-01
   139    3.328526454039e-02
   140    2.398964855054e-13
   141   -1.852534251609e-01
   142   -8.503430246687e-02
   143    5.231848938601e-02
   144    2.760287958018e-13
   145   -1.481160474397e-01
   146    4.976278535102e-02
   147    2.603018533000e-02
   148    4.632469466211e-14
   149   -1.218211966448e-03
   150   -5.228015921986e-15
   151   -7.341598217336e-15
   152    7.442617302866e-04
   153    3.453428548683e-03
   154   -2.023997072543e-03
   155   -3.360410933685e-03
   156    3.729829641075e-05
   157    1.131456229952e-02
   158   -1.316320523735e-13
   159    8.915574310451e-03
   160   -8.366715777196e-04
   161    1.584293064532e-02
   162   -2.054685425212e-13
   163    2.520232234327e-02
   164    2.646983663434e-03
   165    1.477722828518e-02
   166   -2.116644263553e-13
   167    6.714300781137e-02
   168    8.975366081278e-03
   169    3.274960697863e-02
   170   -4.173179905484e-14
   171    3.345580445981e-04
   172    9.739060456997e-15
   173    4.661560806529e-15
   174   -2.674133607588e-03
   175    7.116333231099e-04
   176   -1.695986543806e-02
   177   -2.760913237776e-02
   178    3.213149342625e-02
   179    5.269700729484e-02
   180    1.618326028332e-13
   181    6.987150273922e-02
   182    5.163086239304e-02
   183    7.347945503896e-02
   184    2.667357536481e-13
   185    1.548553594389e-01
   186   -3.963741264282e-03
   187    7.746610886550e-02
   188    2.967376348290e-13
   189    4.965030636674e-01
   190   -7.216265925262e-02
   191    3.780716198434e-02
   192    7.169545460707e-14
   193   -5.540247143838e-04
   194   -2.391825446197e-15
   195   -4.253816488182e-15
   196   -2.709735518170e-03
   197    2.694575761290e-03
   198    1.159863378246e-02
   199    1.382188491820e-02
   200    6.683185341952e-04
   201    2.502990392379e-02
   202   -1.644498288910e-03
   203    1.630638036847e-03
   204    1.022018344996e-14
Sym=X
Ene= 2.002034
Spin=Alpha
Occup=1
     1    3.874568643009e-13
     2    4.074501975696e-13
     3    1.768519291238e-14
     4    9.999145972946e-14
     5   -5.399513667415e-02
     6   -4.713627597272e-13
     7    1.552238067842e-14
     8    1.620426485897e-13
     9   -9.149217948012e-02
    10    9.854202302983e-14
    11   -2.902156794308e-13
    12    1.960665339135e-13
    13   -1.088774449487e-01
    14   -1.380708353674e-12
    15   -6.870108634155e-13
    16    1.454556974860e-13
    17   -1.531658456412e-02
    18    5.634010285402e-15
    19   -2.980795376211e-02
    20   -3.466778114920e-03
    21   -5.646898304408e-14
    22    9.800141260001e-14
    23    8.663390145497e-14
    24    2.634352723997e-14
    25    9.743738610613e-14
    26   -7.651837855874e-13
    27   -5.250621583921e-15
    28    3.171471206403e-14
    29    1.114847665875e-02
    30   -1.132548010861e-13
    31   -1.177826673050e-13
    32    1.001117949173e-13
    33    3.307056263151e-14
    34   -1.245472510531e-15
    35   -4.263322564378e-14
    36   -4.212591544813e-03
    37    2.462649918128e-14
    38    2.790610095610e-13
    39   -7.156645444197e-13
    40    5.790403624875e-13
    41    2.031676219797e-14
    42   -3.511851611099e-16
    43   -9.180475470982e-03
    44   -3.217873216436e-13
    45   -2.447096232217e-13
    46    1.845735716457e-13
    47   -2.217356763488e-13
    48    1.567153948737e-02
    49   -1.929759151640e-13
    50    3.167837851906e-13
    51   -3.289479632090e-13
    52    3.058682830838e-02
    53   -1.420571553863e-13
    54   -3.047361464012e-13
    55   -5.875604524447e-13
    56    1.406678898447e-02
    57    5.512814479494e-13
    58   -6.631860344124e-13
    59   -1.363599089823e-12
    60   -1.567764301533e-02
    61   -5.648113603767e-15
    62   -1.971112335903e-02
    63   -1.996098158206e-02
    64    4.578776106914e-13
    65    3.128647101063e-13
    66   -3.749801632220e-14
    67   -8.047034699091e-14
    68   -1.266242775835e-12
    69   -1.415797093645e-12
    70    2.199867861096e-02
    71    2.853597844694e-13
    72   -1.921719343943e-12
    73   -2.168199700356e-12
    74    3.460765568877e-02
    75    5.105221008382e-13
    76   -1.695633058567e-12
    77   -2.196860942946e-12
    78    2.778592336205e-02
    79   -1.245950445977e-13
    80   -4.653191632345e-14
    81    1.899013140104e-13
    82    7.242212661313e-03
    83    1.649811602618e-14
    84    2.110745694605e-03
    85   -1.974013758863e-03
    86   -1.288717169873e-13
    87   -2.730510308881e-14
    88   -6.783300652366e-14
    89    1.314708210385e-14
    90   -6.685239838637e-13
    91   -1.047475829641e-12
    92   -2.431947814235e-02
    93   -4.247345340177e-13
    94   -1.001581586500e-12
    95   -1.723706078935e-12
    96   -4.655820551525e-02
    97   -8.029932148884e-13
    98   -8.408211456472e-14
    99   -1.606714710371e-13
   100   -1.573326855066e-02
   101   -5.637168705811e-14
   102    1.504209517230e-12
   103   -6.783492070792e-13
   104    1.419716939908e-02
   105    7.563869980461e-14
   106    4.152395585446e-02
   107    2.187229572996e-02
   108   -3.350314960337e-13
   109   -3.780346063575e-14
   110    1.154325704985e-13
   111    1.643956950741e-13
   112    8.390617127569e-13
   113    2.281187583274e-12
   114    2.438432955576e-01
   115   -5.027961657229e-13
   116    9.760101851167e-13
   117    2.593893967681e-12
   118    2.766691608649e-01
   119    6.126718240617e-13
   120    1.613370279792e-13
   121    1.438433225146e-12
   122    1.931331129920e-01
   123    4.082290203091e-14
   124   -2.705353326879e-13
   125   -4.608352787407e-14
   126    3.006503978150e-02
   127    9.587325327867e-14
   128   -8.412770360461e-03
   129   -5.416709196672e-03
   130   -3.970303948012e-14
   131   -1.633385678490e-13
   132    2.219083986495e-13
   133    7.947783033093e-14
   134   -4.391845365665e-13
   135   -1.635489365796e-13
   136   -1.259963950445e-01
   137    5.465482620341e-13
   138   -6.409267056943e-13
   139   -1.796351273240e-13
   140   -2.049783953359e-01
   141    8.574636362197e-13
   142   -9.000196168255e-13
   143   -6.566304163920e-13
   144   -2.159637068993e-01
   145    3.046739723685e-12
   146    3.404387156638e-13
   147    5.849308490918e-13
   148   -2.284797059952e-02
   149    1.617047544904e-15
   150   -3.393073428755e-03
   151    4.683298121905e-03
   152   -7.010301790130e-14
   153   -4.587554006520e-14
   154    2.121394705093e-14
   155    1.396731666034e-13
   156   -1.831491415453e-13
   157   -1.455880584585e-13
   158    1.140428223160e-01
   159   -6.742504366864e-13
   160   -2.110571626888e-13
   161   -1.739630905870e-13
   162    1.852161082351e-01
   163   -1.148673005452e-12
   164   -6.010269975563e-13
   165   -4.826239596478e-13
   166    2.160771308450e-01
   167   -2.235374344764e-12
   168   -4.223904230829e-13
   169    3.189007636288e-14
   170    5.515373811019e-02
   171   -2.240598922581e-14
   172   -3.125436996374e-03
   173    4.855132131001e-03
   174   -2.069692413591e-14
   175    2.794364692885e-14
   176   -4.321587210537e-13
   177   -4.634927000708e-13
   178   -2.621589854710e-13
   179    8.138295826403e-13
   180   -1.083467263538e-01
   181    5.273071489630e-13
   182   -3.366759643530e-13
   183    1.273963551554e-12
   184   -1.846743099944e-01
   185    8.412894958262e-13
   186   -5.829440833560e-13
   187    9.867932282427e-13
   188   -1.913179198410e-01
   189    4.020753008381e-13
   190   -1.778036568979e-12
   191   -8.720107133628e-13
   192   -1.971637439736e-02
   193   -2.669093762681e-14
   194    1.363914518303e-02
   195   -1.935847160167e-03
   196   -9.273547276577e-14
   197   -1.068507491536e-14
   198   -4.194524007651e-13
   199   -6.966019022416e-13
   200    3.925959987589e-13
   201    2.781201319234e-13
   202    7.618292684748e-14
   203   -1.866829244246e-14
   204   -8.214924730744e-03
Sym=X
Ene= 2.001873
Spin=Alpha
Occup=1
     1   -7.220684699695e-05
     2   -2.505583608906e-04
     3   -7.775503945928e-03
     4    1.540767673065e-02
     5    6.147425301550e-13
     6   -8.913001954660e-04
     7   -1.295592563597e-02
     8    2.369234021327e-02
     9    1.052673786239e-12
    10   -1.634097451835e-03
    11   -1.924396109226e-02
    12    8.774197271006e-03
    13    1.172176957395e-12
    14   -3.438798287482e-02
    15   -4.163156572860e-02
    16   -6.244669709248e-03
    17    1.108621889274e-13
    18   -1.104798290422e-03
    19    2.945080058891e-13
    20    3.992001567212e-14
    21    1.455074250770e-03
    22    6.336350586569e-03
    23    1.801418040766e-02
    24    3.779006645951e-02
    25    2.398092074357e-02
    26   -3.197915702940e-02
    27    3.452780636741e-03
    28    2.894609571282e-03
    29   -1.041426920080e-13
    30   -1.021553845853e-02
    31   -1.765829554990e-02
    32    1.683843986330e-03
    33   -1.039106360984e-02
    34   -2.860927735338e-04
    35   -2.101230805004e-03
    36    5.327176274462e-14
    37   -5.029586180640e-03
    38   -4.635584994321e-03
    39   -2.260940674328e-02
    40    8.653853305808e-03
    41    2.283673528808e-03
    42    2.302024200562e-03
    43    9.451758232066e-14
    44    1.052455096297e-02
    45    1.743690154284e-02
    46    2.295303199103e-03
    47   -9.684005056392e-03
    48   -1.626145574513e-13
    49   -5.237748070106e-02
    50    6.141345505641e-03
    51   -1.076890154406e-02
    52   -3.198116494177e-13
    53   -4.177821128462e-02
    54   -5.625201642329e-02
    55   -9.372973133869e-02
    56   -2.008639397337e-13
    57   -1.398087005311e-02
    58   -5.783618452142e-02
    59   -7.227272919674e-02
    60    2.072001736633e-13
    61    1.545570208686e-03
    62    2.234945442864e-13
    63    1.675391263443e-13
    64    5.298305971284e-02
    65    2.995479347982e-02
    66   -7.725423539961e-03
    67   -1.307505188508e-02
    68   -1.246631866418e-01
    69   -1.574919751324e-01
    70   -2.449608134001e-13
    71    3.861692490218e-02
    72   -1.919118609325e-01
    73   -2.440668891047e-01
    74   -3.925032940231e-13
    75    5.118332127414e-02
    76   -1.637677601704e-01
    77   -2.282658053236e-01
    78   -3.082396194492e-13
    79    1.157363683545e-02
    80   -2.341091471711e-03
    81   -1.209406741758e-02
    82   -1.094221294604e-13
    83    1.101574318465e-03
    84   -2.821107031471e-14
    85    2.202665209090e-14
    86   -1.308489502938e-02
    87   -3.918605968545e-03
    88    1.673264368016e-02
    89    2.585296426404e-02
    90   -6.870287990839e-02
    91   -8.203182748119e-02
    92    2.482815440260e-13
    93   -7.258899298432e-02
    94   -1.056953502215e-01
    95   -1.366533963251e-01
    96    4.622382857908e-13
    97   -4.741930725115e-02
    98   -1.820552116591e-02
    99   -1.546692547373e-02
   100    1.628313664710e-13
   101   -5.762176999209e-02
   102    1.708158721545e-03
   103    2.735987473933e-02
   104   -1.721721106464e-13
   105    7.197006963854e-03
   106   -4.344389397389e-13
   107   -2.373524003941e-13
   108   -2.331661364265e-02
   109   -8.565184733714e-03
   110    9.377235972930e-03
   111    1.322838860724e-02
   112    1.063946095226e-01
   113    1.874668437158e-01
   114   -2.511671314608e-12
   115   -3.788379959614e-02
   116    1.222028083517e-01
   117    2.141844207596e-01
   118   -2.849156970770e-12
   119    6.473004415617e-02
   120    2.840074953983e-02
   121    1.181645193368e-01
   122   -1.943484953763e-12
   123    1.664260900122e-02
   124    3.265084360451e-03
   125    3.246741722662e-03
   126   -3.038264634021e-13
   127    9.104719769926e-03
   128    8.720821745398e-14
   129    5.683256357869e-14
   130   -4.627916291459e-03
   131   -1.565147843380e-02
   132   -1.020263275017e-02
   133   -1.719562382143e-02
   134   -2.851129804466e-02
   135   -2.212108058186e-02
   136    1.245622002610e-12
   137    4.407029465540e-02
   138   -3.762353355379e-02
   139   -2.957055496356e-02
   140    2.019105278465e-12
   141    1.160547695138e-01
   142   -8.298610302992e-02
   143   -3.509954856489e-02
   144    2.217526800686e-12