[Molden Format]
[Atoms] (Angs)
  C      1    6     -0.00714236     -1.70213747     -0.00000000
  H      2    1     -2.06882847     -1.44022412      0.00000000
  H      3    1     -0.12337987     -2.77567521      0.00000000
  H      4    1      0.04651892      1.98813947     -0.00000000
  C      5    6     -1.21953563      0.40211669      0.00000000
  O      6    8     -2.25921553      1.03043814      0.00000000
  C      7    6      1.28797806      0.34644937     -0.00000000
  O      8    8      2.31273661      1.00537216     -0.00000000
  N      9    7      0.03446295      0.97739857     -0.00000000
  N     10    7     -1.17287765     -0.98229824      0.00000000
  C     11    6      1.20107039     -1.10433419     -0.00000000
  H     12    1      2.11220096     -1.67699125     -0.00000000
[GTO]
1    0
S    6    1.000000
   4.56324000E+03    1.96665000E-03 
   6.82024000E+02    1.52306000E-02 
   1.54973000E+02    7.61269000E-02 
   4.44553000E+01    2.60801000E-01 
   1.30290000E+01    6.16462000E-01 
   1.82773000E+00    2.21006000E-01 
SP   3    1.000000
   2.09642000E+01    1.14660000E-01   4.02487000E-02 
   4.80331000E+00    9.19999000E-01   2.37594000E-01 
   1.45933000E+00   -3.03068000E-03   8.15854000E-01 
SP   1    1.000000
   4.83456000E-01    1.00000000E+00   1.00000000E+00 
SP   1    1.000000
   1.45585000E-01    1.00000000E+00   1.00000000E+00 
SP   1    1.000000
   4.38000000E-02    1.00000000E+00   1.00000000E+00 
D    1    1.000000
   6.26000000E-01    1.00000000E+00 

2    0
S    3    1.000000
   3.38650000E+01    2.54938000E-02 
   5.09479000E+00    1.90373000E-01 
   1.15879000E+00    8.52161000E-01 
S    1    1.000000
   3.25840000E-01    1.00000000E+00 
S    1    1.000000
   1.02741000E-01    1.00000000E+00 
S    1    1.000000
   3.60000000E-02    1.00000000E+00 
P    1    1.000000
   7.50000000E-01    1.00000000E+00 

3    0
S    3    1.000000
   3.38650000E+01    2.54938000E-02 
   5.09479000E+00    1.90373000E-01 
   1.15879000E+00    8.52161000E-01 
S    1    1.000000
   3.25840000E-01    1.00000000E+00 
S    1    1.000000
   1.02741000E-01    1.00000000E+00 
S    1    1.000000
   3.60000000E-02    1.00000000E+00 
P    1    1.000000
   7.50000000E-01    1.00000000E+00 

4    0
S    3    1.000000
   3.38650000E+01    2.54938000E-02 
   5.09479000E+00    1.90373000E-01 
   1.15879000E+00    8.52161000E-01 
S    1    1.000000
   3.25840000E-01    1.00000000E+00 
S    1    1.000000
   1.02741000E-01    1.00000000E+00 
S    1    1.000000
   3.60000000E-02    1.00000000E+00 
P    1    1.000000
   7.50000000E-01    1.00000000E+00 

5    0
S    6    1.000000
   4.56324000E+03    1.96665000E-03 
   6.82024000E+02    1.52306000E-02 
   1.54973000E+02    7.61269000E-02 
   4.44553000E+01    2.60801000E-01 
   1.30290000E+01    6.16462000E-01 
   1.82773000E+00    2.21006000E-01 
SP   3    1.000000
   2.09642000E+01    1.14660000E-01   4.02487000E-02 
   4.80331000E+00    9.19999000E-01   2.37594000E-01 
   1.45933000E+00   -3.03068000E-03   8.15854000E-01 
SP   1    1.000000
   4.83456000E-01    1.00000000E+00   1.00000000E+00 
SP   1    1.000000
   1.45585000E-01    1.00000000E+00   1.00000000E+00 
SP   1    1.000000
   4.38000000E-02    1.00000000E+00   1.00000000E+00 
D    1    1.000000
   6.26000000E-01    1.00000000E+00 

6    0
S    6    1.000000
   8.58850000E+03    1.89515000E-03 
   1.29723000E+03    1.43859000E-02 
   2.99296000E+02    7.07320000E-02 
   8.73771000E+01    2.40001000E-01 
   2.56789000E+01    5.94797000E-01 
   3.74004000E+00    2.80802000E-01 
SP   3    1.000000
   4.21175000E+01    1.13889000E-01   3.65114000E-02 
   9.62837000E+00    9.20811000E-01   2.37153000E-01 
   2.85332000E+00   -3.27447000E-03   8.19702000E-01 
SP   1    1.000000
   9.05661000E-01    1.00000000E+00   1.00000000E+00 
SP   1    1.000000
   2.55611000E-01    1.00000000E+00   1.00000000E+00 
SP   1    1.000000
   8.45000000E-02    1.00000000E+00   1.00000000E+00 
D    1    1.000000
   1.29200000E+00    1.00000000E+00 

7    0
S    6    1.000000
   4.56324000E+03    1.96665000E-03 
   6.82024000E+02    1.52306000E-02 
   1.54973000E+02    7.61269000E-02 
   4.44553000E+01    2.60801000E-01 
   1.30290000E+01    6.16462000E-01 
   1.82773000E+00    2.21006000E-01 
SP   3    1.000000
   2.09642000E+01    1.14660000E-01   4.02487000E-02 
   4.80331000E+00    9.19999000E-01   2.37594000E-01 
   1.45933000E+00   -3.03068000E-03   8.15854000E-01 
SP   1    1.000000
   4.83456000E-01    1.00000000E+00   1.00000000E+00 
SP   1    1.000000
   1.45585000E-01    1.00000000E+00   1.00000000E+00 
SP   1    1.000000
   4.38000000E-02    1.00000000E+00   1.00000000E+00 
D    1    1.000000
   6.26000000E-01    1.00000000E+00 

8    0
S    6    1.000000
   8.58850000E+03    1.89515000E-03 
   1.29723000E+03    1.43859000E-02 
   2.99296000E+02    7.07320000E-02 
   8.73771000E+01    2.40001000E-01 
   2.56789000E+01    5.94797000E-01 
   3.74004000E+00    2.80802000E-01 
SP   3    1.000000
   4.21175000E+01    1.13889000E-01   3.65114000E-02 
   9.62837000E+00    9.20811000E-01   2.37153000E-01 
   2.85332000E+00   -3.27447000E-03   8.19702000E-01 
SP   1    1.000000
   9.05661000E-01    1.00000000E+00   1.00000000E+00 
SP   1    1.000000
   2.55611000E-01    1.00000000E+00   1.00000000E+00 
SP   1    1.000000
   8.45000000E-02    1.00000000E+00   1.00000000E+00 
D    1    1.000000
   1.29200000E+00    1.00000000E+00 

9    0
S    6    1.000000
   6.29348000E+03    1.96979000E-03 
   9.49044000E+02    1.49613000E-02 
   2.18776000E+02    7.35006000E-02 
   6.36916000E+01    2.48937000E-01 
   1.88282000E+01    6.02460000E-01 
   2.72023000E+00    2.56202000E-01 
SP   3    1.000000
   3.06331000E+01    1.11906000E-01   3.83119000E-02 
   7.02614000E+00    9.21666000E-01   2.37403000E-01 
   2.11205000E+00   -2.56919000E-03   8.17592000E-01 
SP   1    1.000000
   6.84009000E-01    1.00000000E+00   1.00000000E+00 
SP   1    1.000000
   2.00878000E-01    1.00000000E+00   1.00000000E+00 
SP   1    1.000000
   6.39000000E-02    1.00000000E+00   1.00000000E+00 
D    1    1.000000
   9.13000000E-01    1.00000000E+00 

10    0
S    6    1.000000
   6.29348000E+03    1.96979000E-03 
   9.49044000E+02    1.49613000E-02 
   2.18776000E+02    7.35006000E-02 
   6.36916000E+01    2.48937000E-01 
   1.88282000E+01    6.02460000E-01 
   2.72023000E+00    2.56202000E-01 
SP   3    1.000000
   3.06331000E+01    1.11906000E-01   3.83119000E-02 
   7.02614000E+00    9.21666000E-01   2.37403000E-01 
   2.11205000E+00   -2.56919000E-03   8.17592000E-01 
SP   1    1.000000
   6.84009000E-01    1.00000000E+00   1.00000000E+00 
SP   1    1.000000
   2.00878000E-01    1.00000000E+00   1.00000000E+00 
SP   1    1.000000
   6.39000000E-02    1.00000000E+00   1.00000000E+00 
D    1    1.000000
   9.13000000E-01    1.00000000E+00 

11    0
S    6    1.000000
   4.56324000E+03    1.96665000E-03 
   6.82024000E+02    1.52306000E-02 
   1.54973000E+02    7.61269000E-02 
   4.44553000E+01    2.60801000E-01 
   1.30290000E+01    6.16462000E-01 
   1.82773000E+00    2.21006000E-01 
SP   3    1.000000
   2.09642000E+01    1.14660000E-01   4.02487000E-02 
   4.80331000E+00    9.19999000E-01   2.37594000E-01 
   1.45933000E+00   -3.03068000E-03   8.15854000E-01 
SP   1    1.000000
   4.83456000E-01    1.00000000E+00   1.00000000E+00 
SP   1    1.000000
   1.45585000E-01    1.00000000E+00   1.00000000E+00 
SP   1    1.000000
   4.38000000E-02    1.00000000E+00   1.00000000E+00 
D    1    1.000000
   6.26000000E-01    1.00000000E+00 

12    0
S    3    1.000000
   3.38650000E+01    2.54938000E-02 
   5.09479000E+00    1.90373000E-01 
   1.15879000E+00    8.52161000E-01 
S    1    1.000000
   3.25840000E-01    1.00000000E+00 
S    1    1.000000
   1.02741000E-01    1.00000000E+00 
S    1    1.000000
   3.60000000E-02    1.00000000E+00 
P    1    1.000000
   7.50000000E-01    1.00000000E+00 

[MO]
Sym=X
Ene= 2.008092
Spin=Alpha
Occup=1
     1    3.393281117764e-15
     2    8.511386477430e-17
     3   -5.777219493252e-15
     4    3.071070879600e-14
     5    3.624648363198e-02
     6    1.885220877408e-14
     7    6.415199703791e-15
     8    2.684613441655e-14
     9    6.293460006860e-02
    10   -4.422416388617e-13
    11    9.878361541982e-14
    12   -1.161312143884e-13
    13    3.668155701657e-02
    14    5.994920296845e-12
    15    1.686306573753e-12
    16    8.392454200531e-13
    17    7.098389184907e-03
    18    6.635503080556e-15
    19   -1.273062871252e-02
    20    6.680303467711e-03
    21    2.230497243390e-14
    22    7.434511657622e-16
    23    3.122006836542e-14
    24    2.619089053479e-13
    25   -8.172418306105e-14
    26    4.935292287034e-13
    27    1.610139439433e-14
    28    5.270042482927e-15
    29    8.995303854109e-03
    30   -3.656157040423e-14
    31   -5.819490197730e-14
    32   -4.851244637228e-14
    33    1.925845827114e-13
    34    1.705921028865e-16
    35    3.574211353829e-15
    36    2.937965721977e-03
    37    7.173172465728e-15
    38   -1.953531224008e-13
    39    5.106886887480e-13
    40   -3.411685013374e-13
    41   -5.411728990570e-15
    42    8.592333543280e-15
    43   -8.753007417710e-03
    44    5.646027874127e-14
    45    6.048047892216e-14
    46    6.850220481932e-15
    47   -3.330325040725e-14
    48    2.140499052197e-02
    49   -6.538598619539e-14
    50    2.579198017169e-14
    51   -2.772880534341e-14
    52    3.757936368644e-02
    53   -3.497220774006e-14
    54   -1.548702301607e-13
    55   -3.460319614956e-13
    56    2.484029886603e-02
    57   -1.272245301584e-12
    58    9.333931950599e-15
    59    7.334607579775e-13
    60    1.178771286553e-02
    61    3.710218296488e-15
    62   -1.736624287002e-02
    63   -1.382340909398e-02
    64    2.821883302054e-15
    65    1.339472492283e-14
    66    2.185259776524e-14
    67    3.375460373536e-14
    68   -2.426007396096e-14
    69    1.558672206964e-14
    70    3.638081602991e-02
    71   -8.648197748190e-14
    72   -5.678923374380e-14
    73   -6.600021425970e-15
    74    5.709659412942e-02
    75   -1.185538236033e-13
    76    4.281365112558e-14
    77    1.312478367163e-13
    78    5.096778912762e-02
    79    3.520770032436e-13
    80    3.801469616608e-14
    81   -2.861473579034e-13
    82   -1.577983361153e-03
    83    3.674141616246e-15
    84    3.582277012062e-03
    85   -2.484957009404e-03
    86   -2.065184556747e-15
    87    3.402546413508e-15
    88   -5.963150857742e-14
    89   -6.474377775341e-14
    90   -2.139620956541e-14
    91    5.424688364661e-14
    92   -1.138736272942e-01
    93    7.428711431926e-14
    94   -4.748957759195e-14
    95    8.974021958988e-14
    96   -2.014992022591e-01
    97    4.321371329668e-13
    98   -1.736008988968e-14
    99   -1.646129024148e-13
   100   -1.096676527506e-01
   101    1.615675259621e-12
   102   -1.505580179542e-12
   103    2.605843959407e-13
   104   -2.939557620594e-02
   105   -1.270081401285e-14
   106   -1.439860452729e-02
   107   -2.530294081961e-02
   108    4.476257186015e-14
   109   -1.021067618410e-14
   110   -1.057723416193e-14
   111   -1.511342748320e-14
   112    4.814543956662e-14
   113   -1.717360925154e-13
   114   -2.528690241169e-01
   115    5.481315404097e-14
   116    4.358809953159e-14
   117   -1.815556682292e-13
   118   -2.954828585805e-01
   119   -9.262153842537e-15
   120   -5.879862141551e-15
   121   -6.024436961948e-14
   122   -1.813247126710e-01
   123    6.184884738514e-14
   124    2.105023643401e-13
   125    1.724448739534e-13
   126    1.218037441042e-02
   127   -3.634673954314e-15
   128    2.062341223950e-02
   129    1.264015213784e-02
   130   -1.786268582832e-15
   131    6.304980430714e-15
   132   -2.592515550275e-14
   133   -4.031500064501e-14
   134    6.023776647756e-14
   135   -2.259291296007e-14
   136   -1.058942625277e-01
   137    1.033634651989e-13
   138    1.138343740837e-13
   139   -6.735165062917e-14
   140   -1.753602703285e-01
   141    3.390238265448e-13
   142    5.383606011827e-14
   143    3.408935805990e-13
   144   -1.648883572789e-01
   145   -1.579874914611e-12
   146   -4.158107039058e-13
   147   -4.804315353211e-13
   148   -2.446043051886e-03
   149   -8.523738140864e-15
   150   -9.702707774040e-03
   151    5.162259864833e-03
   152   -3.748833782744e-15
   153   -6.920272831640e-15
   154   -1.942586790496e-14
   155   -4.077736937310e-14
   156   -5.115405598679e-15
   157   -1.735912408439e-14
   158    1.024974429866e-01
   159    1.382656803519e-13
   160   -5.590981537929e-14
   161   -1.809553834402e-14
   162    1.689788436158e-01
   163   -8.709844179882e-14
   164    4.799752945938e-13
   165   -4.432064228859e-14
   166    1.615352376346e-01
   167    7.660415410105e-13
   168    1.356686643782e-14
   169   -3.312407173254e-13
   170    6.321276038905e-03
   171    3.386495845943e-15
   172    4.205777497604e-03
   173    1.019505368987e-03
   174   -3.878971816299e-15
   175   -3.780721477271e-15
   176   -1.388881461197e-13
   177   -1.092699170153e-13
   178   -1.866569945862e-14
   179   -3.336607643399e-14
   180   -1.092246684592e-02
   181   -3.206169916500e-14
   182   -2.682077674051e-14
   183   -6.430684784884e-14
   184   -2.054925135500e-02
   185   -3.266200711107e-14
   186    1.222242016404e-14
   187   -1.230269479131e-13
   188   -6.641421728936e-03
   189   -6.128380445968e-12
   190    2.505223157089e-12
   191    8.552123592719e-13
   192    8.827219239612e-03
   193    4.859768126661e-16
   194   -3.878611570139e-03
   195   -1.236389115526e-02
   196    4.142314728839e-15
   197   -1.142564486781e-14
   198   -5.933827169182e-16
   199   -7.550477362352e-15
   200   -1.692629708531e-13
   201   -3.161855800370e-13
   202   -1.482646145848e-15
   203   -2.301404389539e-15
   204   -1.346053965004e-03
Sym=X
Ene= 2.002859
Spin=Alpha
Occup=1
     1    8.626132584037e-03
     2    1.464755882234e-02
     3   -2.121776417195e-02
     4   -2.054023621302e-02
     5    6.077040962222e-14
     6   -4.063758308580e-02
     7   -3.581919194491e-02
     8   -3.480356385065e-02
     9    1.102776815003e-13
    10   -6.927782517463e-02
    11   -2.851555601920e-02
    12   -5.363539194795e-02
    13    9.048254863606e-14
    14   -2.270970891760e-01
    15   -5.962718338730e-02
    16   -4.577258259123e-02
    17   -3.390177231316e-14
    18    1.134521960526e-03
    19    2.602337246998e-14
    20    1.018953641112e-14
    21   -8.405848625166e-03
    22    7.232585765173e-04
    23   -1.816470450511e-03
    24   -5.600368839379e-03
    25   -1.424465069163e-03
    26    1.133308804415e-02
    27   -5.495118428381e-04
    28   -2.305937955190e-04
    29   -2.281214103085e-15
    30    1.475631100307e-02
    31    2.033637902255e-02
    32    1.015975555641e-02
    33   -1.835221406150e-02
    34   -1.146675746968e-03
    35   -5.375771954774e-04
    36    1.002663681420e-14
    37    3.101764559915e-03
    38    1.627989189925e-02
    39    1.549244004723e-02
    40   -4.744935631222e-02
    41   -2.512051150358e-03
    42   -4.552327404375e-04
    43    8.675373022034e-16
    44   -1.325342750840e-02
    45   -2.192493029324e-02
    46    3.348124559821e-02
    47    1.526904984860e-02
    48    3.713972933188e-14
    49    6.100006528210e-02
    50    5.635572946218e-02
    51    2.430570245951e-02
    52    7.935007945226e-14
    53    6.281155691677e-02
    54    5.025214969960e-02
    55    1.864179502497e-02
    56   -3.392962668391e-14
    57    4.345840218350e-02
    58    2.566058743974e-02
    59    4.139426414653e-02
    60    2.313270303358e-14
    61   -1.776446631072e-03
    62    5.943631820400e-15
    63    4.987987364529e-15
    64   -1.399944231826e-02
    65    3.245615812180e-03
    66    3.796989834873e-03
    67    6.390522877396e-03
    68    2.007051436552e-02
    69    4.714951549905e-02
    70    7.933598235204e-14
    71   -1.854679008133e-02
    72    3.257163979774e-02
    73    7.220335946040e-02
    74    9.886220631114e-14
    75   -1.220249774093e-02
    76    2.546041796576e-02
    77    6.027486592703e-02
    78    5.923145188776e-14
    79    1.527385304268e-02
    80    5.901476358701e-03
    81    1.392967745099e-03
    82   -5.265286513603e-15
    83    1.285010245422e-04
    84    3.432358739379e-15
    85   -6.364221108347e-15
    86    4.239060012075e-03
    87    2.445613142051e-03
    88   -7.586678223527e-03
    89   -1.319336255973e-02
    90    4.175737506717e-02
    91   -3.594035010632e-02
    92   -1.903406326026e-14
    93    3.963279493931e-02
    94    7.159997901653e-02
    95   -7.047889706854e-02
    96   -2.738612276098e-14
    97    5.748951321009e-02
    98   -8.562033098351e-03
    99    1.888280314645e-02
   100   -8.584556910489e-14
   101   -2.244373105528e-01
   102   -2.061845455511e-02
   103    1.237829935853e-01
   104   -3.482018030244e-14
   105    1.147492910018e-04
   106   -3.253660613470e-14
   107   -3.657012334329e-14
   108   -5.519600167778e-02
   109    3.483455965707e-02
   110   -4.712530927450e-03
   111   -6.648798731330e-03
   112   -2.248763805286e-01
   113    2.775622656667e-01
   114   -3.049979715753e-13
   115    1.926308086962e-02
   116   -2.576618023427e-01
   117    3.184085108307e-01
   118   -3.215491706644e-13
   119   -1.223239962987e-02
   120   -1.708695082967e-01
   121    2.342853904661e-01
   122   -1.475198129083e-13
   123   -2.221775070676e-02
   124    6.519062866510e-03
   125    4.552923409359e-03
   126   -1.875692236769e-14
   127   -2.201604328495e-03
   128    1.650222578956e-14
   129    4.607744793322e-15
   130    1.291806965537e-02
   131   -2.472093715171e-03
   132    2.298796759217e-02
   133    3.803318023843e-02
   134   -7.808891609553e-02
   135    2.565428279540e-02
   136    5.490016667072e-14
   137   -1.025425565180e-01
   138   -1.228575406651e-01
   139    3.211406701600e-02
   140    8.468740953689e-14
   141   -1.807236900427e-01
   142   -9.171589698630e-02
   143    4.949398339127e-02
   144    1.176727457496e-13
   145   -1.389531251789e-01
   146    5.163336263669e-02
   147    2.334696104598e-02
   148    2.915887957009e-14
   149   -1.021651475613e-03
   150   -7.395461290372e-15
   151   -3.610153527115e-15
   152    1.334337438879e-04
   153    3.731828100367e-03
   154   -1.462397986420e-03
   155   -2.421665645730e-03
   156   -1.161675391575e-03
   157    9.034167318281e-03
   158   -2.992285425345e-14
   159    6.311415038582e-03
   160   -2.643585633679e-03
   161    1.232161154772e-02
   162   -4.283283436687e-14
   163    2.037217699140e-02
   164    7.638265555080e-04
   165    1.116653380415e-02
   166   -2.085283943436e-14
   167    5.906946996387e-02
   168    6.660664424917e-03
   169    3.019352137202e-02
   170    2.011276576791e-15
   171    2.981935211118e-04
   172    7.974647921152e-15
   173    8.220857317956e-15
   174   -2.531156436187e-03
   175    9.715104586806e-04
   176   -1.774739021385e-02
   177   -2.878226441717e-02
   178    3.147741759652e-02
   179    5.514454738023e-02
   180    7.582946945262e-14
   181    7.223448727096e-02
   182    5.065328552744e-02
   183    7.713788115095e-02
   184    1.189470053906e-13
   185    1.525905345877e-01
   186   -4.216648685395e-03
   187    7.922934806310e-02
   188    1.466911510980e-13
   189    4.816779830913e-01
   190   -7.305672602837e-02
   191    3.752467026643e-02
   192    5.500696541740e-14
   193   -6.764548473178e-04
   194    8.132519129840e-15
   195   -5.643695554323e-15
   196   -2.873198358090e-03
   197    2.741808019276e-03
   198    1.064507409836e-02
   199    1.218612707927e-02
   200    7.270018491222e-04
   201    2.731679585857e-02
   202   -1.445833369159e-03
   203    1.671538394997e-03
   204    3.612396942393e-15
Sym=X
Ene= 2.001885
Spin=Alpha
Occup=1
     1   -4.305517395832e-04
     2   -9.179709857197e-04
     3   -7.574070401957e-03
     4    1.178109625000e-02
     5   -2.152338048471e-13
     6    1.042940420099e-03
     7   -1.242441025109e-02
     8    1.820553088392e-02
     9   -3.542448511750e-13
    10    2.821559080785e-03
    11   -2.014770237572e-02
    12    6.964625783940e-03
    13   -4.986515175805e-13
    14   -3.676257819127e-02
    15   -4.060577785477e-02
    16   -8.957436473982e-03
    17   -1.560392805987e-13
    18   -1.066689150182e-03
    19   -1.642566937948e-13
    20   -1.286375893986e-14
    21    6.840564591849e-04
    22    6.713147277170e-03
    23    1.700363667134e-02
    24    3.627247997746e-02
    25    2.433935911011e-02
    26   -3.277956769746e-02
    27    3.276869550556e-03
    28    3.041013135936e-03
    29    6.885756889498e-14
    30   -6.815154556045e-03
    31   -1.204349253552e-02
    32    1.981062297424e-03
    33   -1.113977360049e-02
    34   -2.188460607401e-04
    35   -1.601031257569e-03
    36   -1.167937884013e-14
    37   -7.278189791823e-03
    38   -7.794399674067e-03
    39   -2.414566143356e-02
    40    1.084436651210e-02
    41    2.477308424570e-03
    42    2.855232434155e-03
    43   -5.524942183822e-14
    44    1.033161079439e-02
    45    1.681662425177e-02
    46   -3.368953117396e-03
    47   -1.201150800197e-02
    48    7.522876632817e-14
    49   -4.917576562695e-02
    50   -3.491325561844e-03
    51   -1.438221093708e-02
    52    1.446631322464e-13
    53   -3.720645038525e-02
    54   -6.026547426443e-02
    55   -9.482494796618e-02
    56    3.309689468264e-14
    57   -6.037738244122e-03
    58   -5.759266649473e-02
    59   -7.656964417737e-02
    60   -5.941988011776e-14
    61    1.498702514300e-03
    62   -9.471096709608e-14
    63   -1.391487651321e-13
    64    5.362721736250e-02
    65    2.890559381028e-02
    66   -7.633303833247e-03
    67   -1.288422287992e-02
    68   -1.231662416279e-01
    69   -1.638662743304e-01
    70    1.239889285290e-13
    71    3.801949065074e-02
    72   -1.898442666721e-01
    73   -2.537372913149e-01
    74    1.900888197995e-13
    75    4.586576852524e-02
    76   -1.644220307411e-01
    77   -2.354611513695e-01
    78    1.646413817606e-13
    79    7.283094455833e-03
    80   -3.418617856394e-03
    81   -1.215002404120e-02
    82    1.579138978275e-14
    83    9.872454347109e-04
    84    6.048390771002e-15
    85   -9.480529436991e-15
    86   -1.326025171765e-02
    87   -4.681370845570e-03
    88    1.401836044684e-02
    89    2.152105227256e-02
    90   -6.917800131747e-02
    91   -8.025070948406e-02
    92   -1.162067174280e-13
    93   -6.051378825357e-02
    94   -1.070814813253e-01
    95   -1.337406494180e-01
    96   -2.424750348533e-13
    97   -4.110505022709e-02
    98   -1.480892444406e-02
    99   -2.021301358827e-02
   100   -6.391862599191e-14
   101   -6.315042260528e-02
   102    5.899714855454e-03
   103    2.489504960312e-02
   104    2.487646067352e-15
   105    6.847672900684e-03
   106    2.278777735142e-13
   107    1.028879451328e-13
   108   -2.081253881692e-02
   109   -9.317419727060e-03
   110    5.182192440866e-03
   111    7.126240050281e-03
   112    1.115767083693e-01
   113    1.779482569402e-01
   114    1.409053238179e-12
   115   -1.709492070398e-02
   116    1.277823857690e-01
   117    2.031425637765e-01
   118    1.599167857846e-12
   119    7.228163821560e-02
   120    3.438724015032e-02
   121    1.129732335457e-01
   122    1.151426662776e-12
   123    1.478539842730e-02
   124    3.254053736671e-03
   125    3.939899236578e-03
   126    1.683875952248e-13
   127    8.679803256095e-03
   128   -4.882589079345e-14
   129   -2.935685476176e-14
   130   -5.054363627783e-03
   131   -1.483259313427e-02
   132   -9.510757754211e-03
   133   -1.622359709422e-02
   134   -2.274874590554e-02
   135   -2.465317239114e-02
   136   -7.746021384591e-13
   137    4.206808401600e-02
   138   -2.863964249954e-02
   139   -3.311386710730e-02
   140   -1.266242122379e-12
   141    1.188936269930e-01
   142   -7.576149355725e-02
   143   -3.831807752149e-02
   144   -1.248548230467e-12
   145    1.362255426930e-01
   146   -8.422057348270e-04
   147    1.487637015150e-02
   148   -1.639700075912e-13
   149    1.259702497804e-03
   150   -2.109659068552e-14
   151    2.111235248815e-14
   152   -6.261895045836e-03
   153   -6.628566723922e-03
   154    1.081452930663e-02
   155    1.792962121700e-02
   156   -1.203256960842e-02
   157   -4.300168484214e-02
   158    6.768526461411e-13
   159   -4.814408533655e-02
   160   -1.575372477839e-02
   161   -6.075960048179e-02
   162    1.081111438110e-12
   163   -1.316265693200e-01
   164   -1.419241402551e-03
   165   -8.049055788921e-02
   166    1.211193116210e-12
   167   -1.491997758841e-01
   168   -6.119336721962e-03
   169    2.693659546195e-03
   170    3.609298159158e-13
   171   -2.138953641177e-03
   172   -9.027838810671e-15
   173    2.855252427794e-14
   174   -2.757246304162e-04
   175    1.550708809697e-05
   176   -1.096605732344e-02
   177   -1.760080928366e-02
   178   -2.203757205305e-02
   179    5.395507091809e-02
   180   -5.172297337943e-13
   181    4.268949081325e-02
   182   -3.175573998383e-02
   183    8.388000867568e-02
   184   -8.927306924353e-13
   185    6.649967974215e-02
   186   -3.460816773817e-02
   187    6.173817668959e-02
   188   -8.920177699565e-13
   189    1.362861950582e-01
   190   -3.527439829907e-02
   191    4.002593944076e-03
   192   -3.670997731198e-14
   193   -1.864988133200e-03
   194    5.283176807933e-14
   195   -5.091365979006e-15
   196   -4.868403719416e-03
   197   -2.772441752933e-03
   198   -2.898339948257e-02
   199   -4.584050671838e-02
   200   -7.701981038290e-04
   201    1.344752196476e-02
   202    4.740707907170e-03
   203   -1.599850163863e-03
   204   -3.896169753599e-14
Sym=X
Ene= 2.001563
Spin=Alpha
Occup=1
     1   -4.488876712070e-13
     2   -4.769368241242e-13
     3   -2.015289739993e-13
     4    1.096262823297e-13
     5    4.822652352904e-02
     6    5.364015277380e-13
     7   -3.213720935106e-13
     8    1.608047908277e-13
     9    8.169316029357e-02
    10   -1.481416731508e-13
    11   -4.325463492728e-14
    12   -1.298638731826e-13
    13    9.797363844278e-02
    14    1.032602349066e-12
    15    6.443112257429e-14
    16   -2.755421877010e-13
    17    1.949563346887e-02
    18   -2.817914778294e-14
    19    2.760872627471e-02
    20    2.933322898920e-03
    21    8.139225278226e-14
    22   -8.361275515684e-15
    23    2.302098106736e-13
    24    6.168178551046e-13
    25    2.846232180942e-13
    26    3.040116311467e-13
    27    6.908463528431e-14
    28    1.560266070801e-14
    29   -1.066993402006e-02
    30   -3.571339209348e-15
    31   -9.948344511252e-14
    32   -8.355286422212e-14
    33   -2.288933965491e-13
    34   -5.386839339297e-15
    35    1.824274536523e-14
    36    3.880221493305e-03
    37   -1.482293225337e-13
    38   -4.231298967568e-13
    39    4.164243183506e-13
    40   -4.931859545997e-13
    41    1.679523652690e-14
    42    4.899188750356e-14
    43    1.020148997326e-02
    44    5.999354855015e-13
    45    6.188303228229e-13
    46   -1.747334279149e-13
    47    6.597367008631e-14
    48   -1.557112591288e-02
    49   -6.569099129523e-13
    50   -2.689871053990e-13
    51    1.575043353505e-13
    52   -3.004114453975e-02
    53   -4.715230076245e-13
    54   -5.973861170483e-13
    55   -8.897219394511e-13
    56   -1.752452294761e-02
    57   -8.220107591912e-13
    58   -2.397084066858e-13
    59    2.759800355004e-13
    60    1.820635207525e-02
    61    3.357135611094e-14
    62    2.164862526165e-02
    63    1.841742791876e-02
    64    3.711827608551e-13
    65    1.521725470844e-13
    66   -4.949042807250e-14
    67   -7.737952829443e-14
    68   -6.751947999833e-13
    69   -1.090261571395e-12
    70   -2.917765058477e-02
    71    2.142359079522e-13
    72   -1.070209964128e-12
    73   -1.715420963705e-12
    74   -4.587817085471e-02
    75    1.637569671200e-13
    76   -8.706026830694e-13
    77   -1.419843168970e-12
    78   -3.842877922088e-02
    79    3.190318629785e-13
    80    1.386553350610e-14
    81   -4.055326017022e-13
    82   -9.346225325559e-03
    83    1.431627956889e-15
    84   -2.563252235960e-03
    85    2.212504367259e-03
    86   -7.699126471596e-14
    87   -3.738531171255e-14
    88    2.982169363339e-13
    89    3.507613675955e-13
    90   -3.851715748100e-13
    91   -2.310093225846e-13
    92    2.066965880154e-02
    93   -6.263455172689e-13
    94   -6.196427265037e-13
    95   -4.176629480779e-13
    96    4.088509603566e-02
    97    1.512919445808e-13
    98   -2.038304213075e-13
    99   -5.717683410382e-14
   100    1.180116591114e-02
   101   -7.585178659571e-13
   102   -1.656827043543e-12
   103    1.194860158540e-12
   104   -5.242304137154e-03
   105    3.482594457091e-14
   106   -4.298077276743e-02
   107   -2.060033849110e-02
   108   -6.081969083278e-14
   109   -7.603609022337e-14
   110    8.659138839670e-15
   111    9.245540810058e-15
   112    6.655140175030e-13
   113    8.297361412813e-13
   114   -2.568887872749e-01
   115    2.037890177694e-14
   116    7.498562618914e-13
   117    9.623259141753e-13
   118   -2.918806302399e-01
   119    4.211583609365e-13
   120    1.725747726011e-13
   121    5.708894194492e-13
   122   -2.021366324314e-01
   123    1.848486694319e-13
   124    3.590104285058e-13
   125    1.199607268557e-13
   126   -2.964682524025e-02
   127    4.299244410858e-14
   128    9.017235050955e-03
   129    5.577277050842e-03
   130   -2.171739497952e-14
   131   -7.945069853892e-14
   132   -4.477961745379e-13
   133   -3.695922152500e-13
   134   -4.293199870756e-15
   135   -1.986091555887e-13
   136    1.328775436982e-01
   137   -4.422065632938e-14
   138    5.877652326300e-14
   139   -3.122163940423e-13
   140    2.160037969318e-01
   141    7.976141004613e-13
   142   -4.150993836201e-13
   143    1.260496273783e-13
   144    2.283190310027e-01