[Molden Format]
[Atoms] (Angs)
  C      1    6     -0.00714236     -1.70213747     -0.00000000
  H      2    1     -2.06882847     -1.44022412      0.00000000
  H      3    1     -0.12337987     -2.77567521      0.00000000
  H      4    1      0.04651892      1.98813947     -0.00000000
  C      5    6     -1.21953563      0.40211669      0.00000000
  O      6    8     -2.25921553      1.03043814      0.00000000
  C      7    6      1.28797806      0.34644937     -0.00000000
  O      8    8      2.31273661      1.00537216     -0.00000000
  N      9    7      0.03446295      0.97739857     -0.00000000
  N     10    7     -1.17287765     -0.98229824      0.00000000
  C     11    6      1.20107039     -1.10433419     -0.00000000
  H     12    1      2.11220096     -1.67699125     -0.00000000
[GTO]
1    0
S    6    1.000000
   4.56324000E+03    1.96665000E-03 
   6.82024000E+02    1.52306000E-02 
   1.54973000E+02    7.61269000E-02 
   4.44553000E+01    2.60801000E-01 
   1.30290000E+01    6.16462000E-01 
   1.82773000E+00    2.21006000E-01 
SP   3    1.000000
   2.09642000E+01    1.14660000E-01   4.02487000E-02 
   4.80331000E+00    9.19999000E-01   2.37594000E-01 
   1.45933000E+00   -3.03068000E-03   8.15854000E-01 
SP   1    1.000000
   4.83456000E-01    1.00000000E+00   1.00000000E+00 
SP   1    1.000000
   1.45585000E-01    1.00000000E+00   1.00000000E+00 
SP   1    1.000000
   4.38000000E-02    1.00000000E+00   1.00000000E+00 
D    1    1.000000
   6.26000000E-01    1.00000000E+00 

2    0
S    3    1.000000
   3.38650000E+01    2.54938000E-02 
   5.09479000E+00    1.90373000E-01 
   1.15879000E+00    8.52161000E-01 
S    1    1.000000
   3.25840000E-01    1.00000000E+00 
S    1    1.000000
   1.02741000E-01    1.00000000E+00 
S    1    1.000000
   3.60000000E-02    1.00000000E+00 
P    1    1.000000
   7.50000000E-01    1.00000000E+00 

3    0
S    3    1.000000
   3.38650000E+01    2.54938000E-02 
   5.09479000E+00    1.90373000E-01 
   1.15879000E+00    8.52161000E-01 
S    1    1.000000
   3.25840000E-01    1.00000000E+00 
S    1    1.000000
   1.02741000E-01    1.00000000E+00 
S    1    1.000000
   3.60000000E-02    1.00000000E+00 
P    1    1.000000
   7.50000000E-01    1.00000000E+00 

4    0
S    3    1.000000
   3.38650000E+01    2.54938000E-02 
   5.09479000E+00    1.90373000E-01 
   1.15879000E+00    8.52161000E-01 
S    1    1.000000
   3.25840000E-01    1.00000000E+00 
S    1    1.000000
   1.02741000E-01    1.00000000E+00 
S    1    1.000000
   3.60000000E-02    1.00000000E+00 
P    1    1.000000
   7.50000000E-01    1.00000000E+00 

5    0
S    6    1.000000
   4.56324000E+03    1.96665000E-03 
   6.82024000E+02    1.52306000E-02 
   1.54973000E+02    7.61269000E-02 
   4.44553000E+01    2.60801000E-01 
   1.30290000E+01    6.16462000E-01 
   1.82773000E+00    2.21006000E-01 
SP   3    1.000000
   2.09642000E+01    1.14660000E-01   4.02487000E-02 
   4.80331000E+00    9.19999000E-01   2.37594000E-01 
   1.45933000E+00   -3.03068000E-03   8.15854000E-01 
SP   1    1.000000
   4.83456000E-01    1.00000000E+00   1.00000000E+00 
SP   1    1.000000
   1.45585000E-01    1.00000000E+00   1.00000000E+00 
SP   1    1.000000
   4.38000000E-02    1.00000000E+00   1.00000000E+00 
D    1    1.000000
   6.26000000E-01    1.00000000E+00 

6    0
S    6    1.000000
   8.58850000E+03    1.89515000E-03 
   1.29723000E+03    1.43859000E-02 
   2.99296000E+02    7.07320000E-02 
   8.73771000E+01    2.40001000E-01 
   2.56789000E+01    5.94797000E-01 
   3.74004000E+00    2.80802000E-01 
SP   3    1.000000
   4.21175000E+01    1.13889000E-01   3.65114000E-02 
   9.62837000E+00    9.20811000E-01   2.37153000E-01 
   2.85332000E+00   -3.27447000E-03   8.19702000E-01 
SP   1    1.000000
   9.05661000E-01    1.00000000E+00   1.00000000E+00 
SP   1    1.000000
   2.55611000E-01    1.00000000E+00   1.00000000E+00 
SP   1    1.000000
   8.45000000E-02    1.00000000E+00   1.00000000E+00 
D    1    1.000000
   1.29200000E+00    1.00000000E+00 

7    0
S    6    1.000000
   4.56324000E+03    1.96665000E-03 
   6.82024000E+02    1.52306000E-02 
   1.54973000E+02    7.61269000E-02 
   4.44553000E+01    2.60801000E-01 
   1.30290000E+01    6.16462000E-01 
   1.82773000E+00    2.21006000E-01 
SP   3    1.000000
   2.09642000E+01    1.14660000E-01   4.02487000E-02 
   4.80331000E+00    9.19999000E-01   2.37594000E-01 
   1.45933000E+00   -3.03068000E-03   8.15854000E-01 
SP   1    1.000000
   4.83456000E-01    1.00000000E+00   1.00000000E+00 
SP   1    1.000000
   1.45585000E-01    1.00000000E+00   1.00000000E+00 
SP   1    1.000000
   4.38000000E-02    1.00000000E+00   1.00000000E+00 
D    1    1.000000
   6.26000000E-01    1.00000000E+00 

8    0
S    6    1.000000
   8.58850000E+03    1.89515000E-03 
   1.29723000E+03    1.43859000E-02 
   2.99296000E+02    7.07320000E-02 
   8.73771000E+01    2.40001000E-01 
   2.56789000E+01    5.94797000E-01 
   3.74004000E+00    2.80802000E-01 
SP   3    1.000000
   4.21175000E+01    1.13889000E-01   3.65114000E-02 
   9.62837000E+00    9.20811000E-01   2.37153000E-01 
   2.85332000E+00   -3.27447000E-03   8.19702000E-01 
SP   1    1.000000
   9.05661000E-01    1.00000000E+00   1.00000000E+00 
SP   1    1.000000
   2.55611000E-01    1.00000000E+00   1.00000000E+00 
SP   1    1.000000
   8.45000000E-02    1.00000000E+00   1.00000000E+00 
D    1    1.000000
   1.29200000E+00    1.00000000E+00 

9    0
S    6    1.000000
   6.29348000E+03    1.96979000E-03 
   9.49044000E+02    1.49613000E-02 
   2.18776000E+02    7.35006000E-02 
   6.36916000E+01    2.48937000E-01 
   1.88282000E+01    6.02460000E-01 
   2.72023000E+00    2.56202000E-01 
SP   3    1.000000
   3.06331000E+01    1.11906000E-01   3.83119000E-02 
   7.02614000E+00    9.21666000E-01   2.37403000E-01 
   2.11205000E+00   -2.56919000E-03   8.17592000E-01 
SP   1    1.000000
   6.84009000E-01    1.00000000E+00   1.00000000E+00 
SP   1    1.000000
   2.00878000E-01    1.00000000E+00   1.00000000E+00 
SP   1    1.000000
   6.39000000E-02    1.00000000E+00   1.00000000E+00 
D    1    1.000000
   9.13000000E-01    1.00000000E+00 

10    0
S    6    1.000000
   6.29348000E+03    1.96979000E-03 
   9.49044000E+02    1.49613000E-02 
   2.18776000E+02    7.35006000E-02 
   6.36916000E+01    2.48937000E-01 
   1.88282000E+01    6.02460000E-01 
   2.72023000E+00    2.56202000E-01 
SP   3    1.000000
   3.06331000E+01    1.11906000E-01   3.83119000E-02 
   7.02614000E+00    9.21666000E-01   2.37403000E-01 
   2.11205000E+00   -2.56919000E-03   8.17592000E-01 
SP   1    1.000000
   6.84009000E-01    1.00000000E+00   1.00000000E+00 
SP   1    1.000000
   2.00878000E-01    1.00000000E+00   1.00000000E+00 
SP   1    1.000000
   6.39000000E-02    1.00000000E+00   1.00000000E+00 
D    1    1.000000
   9.13000000E-01    1.00000000E+00 

11    0
S    6    1.000000
   4.56324000E+03    1.96665000E-03 
   6.82024000E+02    1.52306000E-02 
   1.54973000E+02    7.61269000E-02 
   4.44553000E+01    2.60801000E-01 
   1.30290000E+01    6.16462000E-01 
   1.82773000E+00    2.21006000E-01 
SP   3    1.000000
   2.09642000E+01    1.14660000E-01   4.02487000E-02 
   4.80331000E+00    9.19999000E-01   2.37594000E-01 
   1.45933000E+00   -3.03068000E-03   8.15854000E-01 
SP   1    1.000000
   4.83456000E-01    1.00000000E+00   1.00000000E+00 
SP   1    1.000000
   1.45585000E-01    1.00000000E+00   1.00000000E+00 
SP   1    1.000000
   4.38000000E-02    1.00000000E+00   1.00000000E+00 
D    1    1.000000
   6.26000000E-01    1.00000000E+00 

12    0
S    3    1.000000
   3.38650000E+01    2.54938000E-02 
   5.09479000E+00    1.90373000E-01 
   1.15879000E+00    8.52161000E-01 
S    1    1.000000
   3.25840000E-01    1.00000000E+00 
S    1    1.000000
   1.02741000E-01    1.00000000E+00 
S    1    1.000000
   3.60000000E-02    1.00000000E+00 
P    1    1.000000
   7.50000000E-01    1.00000000E+00 

[MO]
Sym=X
Ene= 2.006017
Spin=Alpha
Occup=1
     1   -3.746531586351e-15
     2   -2.708166632329e-14
     3    4.093689635212e-14
     4    2.811980125431e-14
     5    9.577632294274e-02
     6    8.068612640075e-14
     7    9.826772865714e-14
     8    2.397608197936e-16
     9    1.659460918461e-01
    10   -1.934775792322e-13
    11   -2.189489823297e-14
    12   -6.437640703430e-14
    13    1.392458808761e-01
    14    3.773340665803e-12
    15    1.039141317621e-12
    16    7.167049584487e-13
    17    1.185364553571e-02
    18   -2.529971004808e-17
    19    1.208990940567e-02
    20    1.308041686440e-02
    21    1.048640680582e-14
    22    1.452201238096e-14
    23   -2.567989569054e-14
    24    2.887266091423e-13
    25   -2.536288178690e-13
    26   -1.451305639914e-14
    27    1.786868647715e-14
    28    5.608316400603e-15
    29    1.229253201206e-04
    30    3.322645854506e-15
    31   -7.835310123294e-15
    32   -1.013833298146e-13
    33    1.379889712459e-13
    34    6.566692903263e-15
    35   -1.949486602908e-16
    36    7.012460464317e-03
    37   -2.716031194542e-14
    38   -3.610990631117e-13
    39   -6.754408110754e-14
    40    1.864180133737e-14
    41   -6.212259318082e-15
    42    3.009590754506e-14
    43   -6.381047739497e-03
    44    8.322894162300e-15
    45    3.991148425618e-15
    46    1.337533488178e-14
    47   -5.425187535980e-15
    48   -1.029931593431e-01
    49    1.906031914569e-14
    50    1.900112581825e-14
    51    8.733683279877e-15
    52   -1.831312773856e-01
    53    2.270093160033e-13
    54   -4.524442772824e-13
    55   -6.870147384728e-13
    56   -1.022494206105e-01
    57   -2.781303785612e-13
    58   -7.545546364163e-14
    59    8.036253877963e-14
    60   -1.712580384418e-02
    61   -3.789509766294e-15
    62    1.837819446869e-02
    63   -2.276047835587e-02
    64    7.647583295338e-15
    65    1.956757441150e-15
    66   -6.222940982880e-15
    67   -1.010453884188e-14
    68   -7.950953241602e-14
    69   -9.350219414362e-14
    70   -2.390235740836e-01
    71    4.056787848463e-14
    72   -9.211581584135e-14
    73   -1.098104252208e-13
    74   -2.792953195397e-01
    75   -1.995793387368e-14
    76   -2.067040846670e-14
    77    3.086143992354e-14
    78   -1.715470039835e-01
    79   -1.949845723421e-13
    80   -3.528180411247e-14
    81    8.643013651556e-14
    82    6.646045420067e-03
    83    1.116400921133e-15
    84   -1.938692216647e-02
    85    1.160776027284e-02
    86   -4.465894513972e-15
    87   -4.485533051751e-16
    88   -1.268640459060e-14
    89    5.011188741010e-15
    90    3.398016081223e-14
    91   -4.826143585960e-14
    92    3.780847014729e-02
    93   -1.172891135287e-13
    94    1.767135219788e-14
    95   -5.528459323403e-14
    96    6.625803649801e-02
    97    3.699756758510e-13
    98   -2.463233213323e-13
    99   -4.169817028819e-13
   100    5.061408722527e-02
   101   -2.134752560363e-12
   102    3.104194190322e-13
   103    5.647851846095e-13
   104    1.041067352553e-02
   105   -2.600960154508e-15
   106    8.559956541516e-03
   107   -1.225683190580e-02
   108    5.590992842240e-15
   109    2.196570288842e-14
   110    4.909371474238e-15
   111   -4.617863989196e-15
   112    3.466693290694e-14
   113   -2.100350067901e-14
   114    3.070122192654e-02
   115    5.387857137111e-14
   116    7.026445571372e-14
   117   -4.149202756569e-14
   118    4.954023878191e-02
   119    1.052480353818e-13
   120    3.142449477263e-14
   121   -7.717944585504e-14
   122    3.642528139877e-02
   123    3.401071160213e-13
   124   -1.847653151041e-13
   125   -6.200517255127e-14
   126   -1.284002266810e-02
   127    1.155246758838e-15
   128   -4.439786740100e-03
   129   -3.079989538521e-03
   130   -5.525253026456e-15
   131   -2.254254199949e-15
   132   -5.778897524151e-14
   133   -2.412690017217e-14
   134   -5.218910060782e-14
   135   -3.091710544111e-14
   136   -7.012476836021e-02
   137   -1.726377501372e-13
   138   -8.606154182933e-14
   139   -1.036595042958e-13
   140   -1.178236439977e-01
   141    3.898460015776e-13
   142   -2.973594941599e-13
   143    5.681893530298e-13
   144   -1.081963375400e-01
   145    7.841926207335e-13
   146   -2.622611701001e-13
   147   -2.464498119254e-13
   148   -2.520277670048e-03
   149    1.228054037086e-15
   150    1.140449205803e-02
   151    2.338274125991e-03
   152   -1.232026197834e-14
   153    6.365325163408e-15
   154    1.699958019240e-14
   155    2.074889311297e-14
   156    1.042221784477e-14
   157    1.163987508125e-15
   158    1.481357603327e-02
   159    5.271126118033e-16
   160   -2.835214627174e-14
   161    1.043988406925e-15
   162    2.347501147208e-02
   163   -5.141570399796e-13
   164    6.048367339390e-13
   165   -1.009968490364e-13
   166    1.696112151826e-02
   167   -4.619134475336e-13
   168   -5.361226513401e-13
   169   -3.639779445313e-13
   170   -7.204658321169e-03
   171    8.507816402419e-15
   172    8.463697821822e-03
   173   -1.167982362513e-02
   174   -6.585971022676e-15
   175   -7.791677562291e-15
   176    1.803499943184e-13
   177    1.191995880422e-13
   178   -3.803872600140e-14
   179   -2.854944313622e-14
   180    1.030927589308e-01
   181    1.725528036426e-13
   182   -5.443749376316e-14
   183   -4.876373396073e-14
   184    1.792362483842e-01
   185   -3.027288407818e-13
   186   -1.086684918349e-13
   187   -2.078042479697e-13
   188    1.556034541924e-01
   189   -1.595036803735e-12
   190    6.265458000313e-13
   191    8.837617909989e-13
   192    4.710817162917e-03
   193   -1.017008207810e-14
   194   -1.767066840105e-02
   195    3.494780897469e-05
   196    6.881792542162e-15
   197    2.416669348495e-16
   198    2.026925363182e-14
   199    2.530581307229e-14
   200    9.411352034812e-14
   201   -6.978805816873e-14
   202   -4.998292963630e-15
   203   -2.304788847443e-15
   204    8.336124044010e-03
Sym=X
Ene= 2.003766
Spin=Alpha
Occup=1
     1    8.728498784057e-03
     2    1.442659342809e-02
     3    1.372055041225e-02
     4   -3.080133976538e-02
     5    4.957805470959e-14
     6   -3.842405470488e-02
     7    2.278329870596e-02
     8   -5.108531081287e-02
     9    1.160901115071e-13
    10   -4.000479794445e-02
    11   -9.389294862154e-03
    12   -4.624119457987e-02
    13    4.155192135104e-14
    14   -9.575672917935e-02
    15    4.813066858176e-04
    16   -1.003659425309e-02
    17    1.145513424210e-13
    18    2.211836171890e-03
    19    1.889482732286e-15
    20    1.043819489159e-14
    21   -1.124888058275e-02
    22    5.392674703478e-03
    23    2.314662883050e-03
    24   -1.248317234270e-02
    25   -2.693809307545e-02
    26    2.796695036904e-02
    27   -8.009689356136e-04
    28    9.897709917832e-04
    29   -7.676957884918e-15
    30    2.219958675164e-02
    31    3.602395266638e-02
    32    1.570303623024e-02
    33    3.777446481508e-03
    34    6.815143351104e-04
    35    7.003772850678e-04
    36    6.315587649976e-15
    37    5.155640931266e-03
    38    2.123331779464e-02
    39    3.314187341638e-02
    40   -4.541574410754e-02
    41    1.666333687806e-03
    42   -1.673175997496e-03
    43    1.026457855314e-14
    44   -8.814249831223e-03
    45   -1.458225312541e-02
    46   -4.391631253621e-02
    47   -2.186199070398e-02
    48   -1.422332612130e-14
    49    4.283436021670e-02
    50   -7.336842751560e-02
    51   -4.321888589902e-02
    52   -3.139965134192e-14
    53    5.014206066621e-02
    54    3.785126001087e-02
    55    5.829239025472e-02
    56    3.537728873047e-14
    57    3.932425340471e-02
    58    6.060874993031e-02
    59    7.626547114544e-02
    60   -1.224750505718e-13
    61   -2.134815957254e-03
    62    1.780701411770e-14
    63   -6.975181344587e-15
    64   -5.570377785094e-02
    65   -3.189483652055e-02
    66   -5.253999856115e-03
    67   -7.509661626168e-03
    68    2.094791970547e-01
    69    2.522919707720e-01
    70   -1.393137352001e-13
    71    2.278555375426e-02
    72    2.411539935522e-01
    73    2.890376474330e-01
    74   -1.467754264141e-13
    75   -1.324375590025e-02
    76    1.496471910927e-01
    77    2.091993073098e-01
    78   -1.290914877110e-13
    79   -1.821725846117e-02
    80   -4.476522720352e-03
    81    4.595245357259e-03
    82    5.196724070098e-14
    83   -2.761823578490e-03
    84   -9.366452032551e-15
    85   -1.542075430332e-15
    86    1.379163943355e-02
    87    1.661649552156e-03
    88   -1.513119896435e-02
    89   -2.511180227376e-02
    90   -3.503697161887e-02
    91    1.016518476199e-04
    92    2.685566384455e-14
    93    6.717139830102e-02
    94   -5.870265586256e-02
    95   -1.698732634275e-03
    96    2.953489116641e-14
    97    6.705441146172e-02
    98   -5.109455845248e-02
    99    5.611755832787e-03
   100    9.304811879536e-14
   101   -1.581135725392e-01
   102   -6.848163866876e-03
   103    9.260638655306e-02
   104    2.169132421026e-13
   105   -1.837480569132e-03
   106   -1.231415971549e-14
   107   -6.683046840834e-15
   108   -2.930077406963e-02
   109    4.232711370366e-03
   110    3.799148945742e-03
   111    6.436384327094e-03
   112   -4.925863234815e-02
   113    1.014049469188e-01
   114   -1.851333570819e-15
   115   -1.953703054158e-02
   116   -7.712883183819e-02
   117    1.559282141601e-01
   118   -3.623164425505e-14
   119   -8.384775545702e-03
   120   -7.334449198741e-02
   121    1.393873194811e-01
   122    3.203671687469e-14
   123    3.148796139141e-02
   124   -1.277951552390e-02
   125    1.600312377750e-03
   126   -1.350904384429e-13
   127    2.584706872915e-04
   128    4.354266203708e-15
   129   -9.131704466688e-15
   130    6.799216827555e-03
   131   -4.551002742068e-03
   132    2.337858092287e-02
   133    3.879980107926e-02
   134    5.808205755149e-02
   135    2.686673816611e-02
   136    7.438422944176e-14
   137   -1.033554734658e-01
   138    8.656010329306e-02
   139    3.164300724600e-02
   140    1.310629043530e-13
   141   -2.047106793049e-01
   142    7.862635080528e-02
   143    4.866744618533e-02
   144    9.097607406888e-14
   145   -1.786322552496e-01
   146   -7.259507947741e-03
   147    3.395957094744e-03
   148   -2.908268211498e-14
   149   -1.451206991177e-03
   150    3.082219825938e-15
   151    2.409937994326e-15
   152   -5.565113620462e-05
   153   -4.280875950500e-03
   154   -1.286859484026e-02
   155   -2.097956220941e-02
   156   -2.844445902534e-02
   157    6.425869526383e-02
   158    1.872827139095e-14
   159    5.488467281858e-02
   160   -4.870600125310e-02
   161    9.321026605026e-02
   162    3.322905690877e-14
   163    1.054662731314e-01
   164   -4.125255511561e-02
   165    9.591809001102e-02
   166   -1.346335566256e-14
   167    1.098307586976e-01
   168   -5.806207934043e-03
   169    4.203408207050e-03
   170    7.547436131922e-15
   171    5.658307028868e-04
   172    6.904371852837e-15
   173   -1.823851000721e-15
   174   -3.292749390043e-03
   175   -1.135315002845e-03
   176   -5.353874835603e-03
   177   -8.810892506988e-03
   178    2.481530585066e-03
   179    2.825422901326e-02
   180    6.133791864628e-14
   181    2.245547939916e-02
   182    5.273961455945e-03
   183    4.032850903896e-02
   184    8.251277066820e-14
   185    5.950271418447e-02
   186   -1.274074287536e-02
   187    3.367415941221e-02
   188    1.206067591524e-13
   189    2.482474628721e-01
   190   -2.725792937650e-02
   191    3.943118410242e-02
   192   -1.871164040351e-13
   193   -6.042736558595e-06
   194   -2.578652772714e-15
   195   -1.004213807749e-15
   196   -5.497128852865e-03
   197    3.849831855753e-04
   198   -6.917677475007e-03
   199   -1.298973786868e-02
   200   -3.782374291562e-03
   201    1.157852630582e-02
   202    1.181173824593e-03
   203    4.073077860247e-05
   204    3.833576679137e-15
Sym=X
Ene= 2.002013
Spin=Alpha
Occup=1
     1   -8.858140904175e-14
     2   -1.477302546201e-13
     3    1.089027967737e-13
     4    1.271339772334e-13
     5    8.611004070483e-02
     6    3.859414415137e-13
     7    1.620343967807e-13
     8    2.000861810510e-13
     9    1.478288771263e-01
    10    6.423582856819e-14
    11    1.937831435421e-13
    12    1.982745173260e-13
    13    9.729378996015e-02
    14    9.048794984623e-12
    15    2.893114806461e-12
    16    1.309762148264e-12
    17    1.977957670995e-02
    18   -1.334801609511e-14
    19   -8.304601108504e-03
    20    1.606493568426e-02
    21    4.411260405804e-14
    22   -2.298852980145e-14
    23    1.252114608469e-13
    24    2.682268251320e-13
    25   -7.824015745715e-13
    26    3.138952138215e-13
    27    2.916617289235e-14
    28    1.983439997221e-14
    29    1.090315948646e-02
    30   -5.135411286632e-14
    31   -1.994940119385e-14
    32   -1.386435194686e-13
    33    3.756592334811e-13
    34    6.021341098808e-15
    35    1.264220190224e-14
    36    6.760430196395e-03
    37   -1.251481332725e-13
    38   -2.571138124009e-13
    39    4.831153052145e-13
    40   -1.800997011201e-13
    41    1.892024935884e-15
    42    2.535742042479e-14
    43    1.614492259748e-03
    44    3.143254197575e-13
    45    3.108716614019e-13
    46    1.992978679192e-13
    47   -2.369538505794e-13
    48    6.052844625374e-02
    49   -2.984487496178e-13
    50    2.966379154498e-13
    51   -3.870446390569e-13
    52    1.060199845996e-01
    53   -2.184875671011e-13
    54   -1.127312505274e-13
    55   -2.030437840411e-14
    56    4.975721835551e-02
    57   -9.438717057134e-13
    58    7.675332892327e-14
    59    7.185469122299e-13
    60    2.210854645043e-02
    61    1.435327824316e-14
    62    5.441340105884e-03
    63   -1.717738006774e-02
    64   -9.159795635073e-14
    65    9.513499216375e-15
    66    8.202829316972e-14
    67    1.162292546734e-13
    68   -2.469441555378e-13
    69    5.676943409559e-13
    70   -8.777944793534e-04
    71   -3.685120303303e-13
    72   -2.871360622926e-13
    73    6.457665639170e-13
    74    2.418661342881e-03
    75    3.216339784738e-15
    76   -4.377610071157e-14
    77    4.034319419596e-13
    78   -7.745545467840e-03
    79   -3.022789795983e-14
    80   -2.680064509785e-14
    81   -4.342725767375e-14
    82   -2.002054631266e-02
    83    2.827921469817e-14
    84    4.849066348467e-03
    85   -3.127158874610e-03
    86   -1.226318299504e-14
    87    4.794382519628e-14
    88   -1.695907773993e-13
    89   -1.119692228919e-13
    90   -2.999599335667e-14
    91    2.136039280961e-13
    92   -7.442641388297e-02
    93   -1.510080490335e-13
    94   -6.061518830662e-14
    95    3.648965517507e-13
    96   -1.304709802120e-01
    97   -3.751208995893e-13
    98    1.458520283368e-13
    99   -6.191460136346e-14
   100   -9.682478125835e-02
   101   -2.893678480423e-12
   102   -5.003792908576e-13
   103    1.189864507473e-12
   104   -1.613837223633e-02
   105   -2.554934442005e-15
   106   -3.491103728336e-02
   107   -2.569303928528e-02
   108    1.592416149319e-13
   109   -5.193244458116e-14
   110   -2.348002914072e-13
   111   -2.309033371759e-13
   112    2.129666839752e-13
   113   -3.845984292216e-13
   114   -1.653183378889e-01
   115    1.792995269380e-13
   116    3.308360776379e-13
   117   -5.883953860260e-13
   118   -2.594934584409e-01
   119    1.264225351536e-13
   120    3.166615145120e-13
   121   -5.768897477711e-13
   122   -2.360903277364e-01
   123    2.314594088075e-13
   124   -4.813388313678e-14
   125   -7.040876198676e-14
   126   -2.281671863353e-02
   127   -1.008020408135e-15
   128    1.547786099454e-02
   129    9.154161972540e-03
   130   -1.171141360010e-14
   131    1.274819226254e-14
   132   -1.235355298139e-13
   133   -1.235424766459e-13
   134    1.710372631922e-13
   135   -1.957605059235e-13
   136    3.444155089771e-02
   137    1.112446541486e-13
   138    2.540262790413e-13
   139   -3.028416835032e-13
   140    5.392548000213e-02
   141    4.057063313147e-13
   142    3.080812094498e-13
   143   -2.763779627440e-13
   144    6.832565261349e-02
   145    2.830551505023e-13
   146   -3.759972144056e-13
   147   -1.095971297075e-12
   148    5.352937842373e-03
   149    1.380715991173e-15
   150   -9.769224215723e-03
   151   -1.666447464236e-03
   152    5.033745481196e-15
   153    1.582354281191e-14
   154    5.532569056614e-14
   155   -9.467706650608e-14
   156   -1.498954950313e-14
   157    5.439558742284e-14
   158    1.449151056843e-01
   159    7.637658549810e-13
   160   -2.185512081001e-14
   161    9.324035375577e-14
   162    2.389771431651e-01
   163    7.060250787369e-13
   164    6.541508369835e-14
   165    6.606314332832e-14
   166    2.116808482466e-01
   167    4.959365578208e-13
   168   -1.052595648716e-12
   169   -8.124423496865e-13
   170   -1.508536344020e-02
   171   -1.809751331981e-14
   172    8.282247623021e-03
   173    4.543182275352e-03
   174    1.208140911423e-14
   175    7.981717730306e-15
   176   -2.956691300902e-13
   177   -2.202737650299e-13
   178   -1.471382032504e-13
   179   -2.797717838280e-13
   180    4.300492769373e-02
   181   -1.251736130215e-13
   182   -2.162971736423e-13
   183   -4.196699759457e-13
   184    7.150935156785e-02
   185   -4.127794601823e-13
   186   -9.948251024239e-14
   187   -3.689827817168e-13
   188    8.336131756287e-02
   189   -6.007135901949e-12
   190    2.550968357474e-12
   191    2.287398335519e-12
   192   -1.862213574497e-03
   193   -5.560038717773e-15
   194   -1.419048942533e-02
   195   -1.009193379259e-02
   196    4.281237393279e-14
   197    9.624534678856e-15
   198    7.533418609117e-15
   199    1.249138779795e-14
   200    6.157261850715e-14
   201   -1.692137279979e-13
   202   -1.601038582734e-15
   203   -1.003335669064e-14
   204    2.268611374186e-03
Sym=X
Ene= 2.001669
Spin=Alpha
Occup=1
     1    4.837064421335e-03
     2    7.382602452902e-03
     3    3.912359432801e-02
     4   -7.100820242967e-03
     5   -2.802643427187e-13
     6   -1.854394550187e-02
     7    6.586958467430e-02
     8   -1.171390890338e-02
     9   -4.779186240647e-13
    10    9.511751283909e-03
    11    3.218052450291e-02
    12    1.055040686116e-02
    13   -4.225647400761e-13
    14    2.927924728376e-01
    15    8.342545646501e-02
    16    9.779140435225e-02
    17    1.434159466246e-14
    18    1.731345516869e-03
    19   -1.272310158758e-14
    20   -4.855013582063e-14
    21   -1.947341018271e-03
    22    8.500941644676e-04
    23   -8.628437785105e-03
    24   -1.126131418029e-02
    25   -1.989771123616e-02
    26    1.772049635325e-03
    27   -2.375898452356e-03
    28    1.829312771946e-03
    29   -2.043618598520e-14
    30   -4.446019486061e-04
    31    3.402757911920e-03
    32    4.314571404257e-03
    33    4.874176531399e-02
    34    1.591937953672e-03
    35    1.757497456961e-04
    36   -1.607582448795e-14
    37   -1.312748204689e-02
    38   -1.457968681218e-02
    39    8.308327891167e-03
    40    2.661337776632e-02
    41   -2.159170786597e-03
    42    2.037777997793e-03
    43   -2.228843686148e-14
    44    1.417384481571e-02
    45    2.166020374566e-02
    46    7.448312023675e-02
    47   -8.176229044609e-02
    48   -2.169519582954e-13
    49   -6.122729265976e-02
    50    1.145749581538e-01
    51   -1.359764531216e-01
    52   -3.735843636460e-13
    53   -6.922503812140e-02
    54    1.674990674768e-02
    55    1.649929176907e-03
    56   -1.633683917896e-13
    57   -4.553984521676e-02
    58   -1.211235064550e-03
    59    2.757554300658e-02
    60   -1.798556456597e-13
    61    5.126218196865e-03
    62   -8.321920254086e-14
    63    5.643895568726e-15
    64   -3.566836323554e-02
    65    7.135527548116e-03
    66    2.318885114654e-03
    67    2.870015448823e-03
    68   -9.529763321770e-02
    69    2.315281488931e-01
    70    6.828635704967e-14
    71   -6.967028495401e-04
    72   -1.074891620220e-01
    73    2.639372808871e-01
    74    7.293680459047e-14
    75    8.153288494798e-02
    76   -1.986234191392e-02
    77    1.544217111638e-01
    78    5.644904645394e-14
    79    2.278416732309e-02
    80   -7.114674150408e-04
    81   -1.168767004941e-03
    82    1.395186029743e-13
    83    9.177699236590e-03
    84   -1.404188188992e-14
    85    6.534852345312e-15
    86   -3.208378703784e-03
    87    1.668974117942e-02
    88    1.567273485454e-02
    89    2.567768613149e-02
    90    2.348919540669e-03
    91    6.335847465120e-03
    92    3.935428281364e-14
    93   -7.069271487440e-02
    94    2.481665079752e-03
    95    1.873494376296e-02
    96    4.550141835453e-14
    97   -8.197320381514e-02
    98    4.295016680790e-02
    99   -4.966672006504e-02
   100    1.752481978065e-13
   101    2.173433080380e-01
   102    3.813493389448e-02
   103   -1.117230892341e-01
   104    1.585135156069e-13
   105    2.200388966502e-03
   106    1.477249408785e-13
   107    6.624098489655e-14
   108    4.571932470202e-02
   109   -2.187958811444e-02
   110   -9.544941359114e-03
   111   -1.618824231563e-02
   112    1.113997566455e-01
   113   -1.356803739773e-01
   114    4.346088080481e-13
   115    4.944856131409e-02
   116    1.710147580223e-01
   117   -2.099889621302e-01
   118    6.647459052951e-13
   119    5.551199703964e-02
   120    1.521606168337e-01
   121   -1.997697413537e-01
   122    6.746104167659e-13
   123    1.180559226646e-02
   124   -4.724714960420e-03
   125   -1.024916126465e-02
   126    4.258480194430e-14
   127    1.364538426206e-03
   128   -3.027085400593e-14
   129   -1.412468442967e-14
   130   -1.029576841990e-02
   131    3.277014917067e-03
   132   -6.516769788235e-03
   133   -1.177734293171e-02
   134    2.242152740961e-02
   135   -2.817408567246e-02
   136   -4.719986696922e-13
   137    3.455024132841e-02
   138    3.005670902887e-02
   139   -4.254282024903e-02
   140   -7.705379012991e-13
   141    9.200790797474e-02
   142    6.948331567500e-02
   143   -5.321474023161e-02
   144   -8.260350454584e-13