[Molden Format]
[Atoms] (Angs)
  C      1    6     -0.00714236     -1.70213747     -0.00000000
  H      2    1     -2.06882847     -1.44022412      0.00000000
  H      3    1     -0.12337987     -2.77567521      0.00000000
  H      4    1      0.04651892      1.98813947     -0.00000000
  C      5    6     -1.21953563      0.40211669      0.00000000
  O      6    8     -2.25921553      1.03043814      0.00000000
  C      7    6      1.28797806      0.34644937     -0.00000000
  O      8    8      2.31273661      1.00537216     -0.00000000
  N      9    7      0.03446295      0.97739857     -0.00000000
  N     10    7     -1.17287765     -0.98229824      0.00000000
  C     11    6      1.20107039     -1.10433419     -0.00000000
  H     12    1      2.11220096     -1.67699125     -0.00000000
[GTO]
1    0
S    6    1.000000
   4.56324000E+03    1.96665000E-03 
   6.82024000E+02    1.52306000E-02 
   1.54973000E+02    7.61269000E-02 
   4.44553000E+01    2.60801000E-01 
   1.30290000E+01    6.16462000E-01 
   1.82773000E+00    2.21006000E-01 
SP   3    1.000000
   2.09642000E+01    1.14660000E-01   4.02487000E-02 
   4.80331000E+00    9.19999000E-01   2.37594000E-01 
   1.45933000E+00   -3.03068000E-03   8.15854000E-01 
SP   1    1.000000
   4.83456000E-01    1.00000000E+00   1.00000000E+00 
SP   1    1.000000
   1.45585000E-01    1.00000000E+00   1.00000000E+00 
SP   1    1.000000
   4.38000000E-02    1.00000000E+00   1.00000000E+00 
D    1    1.000000
   6.26000000E-01    1.00000000E+00 

2    0
S    3    1.000000
   3.38650000E+01    2.54938000E-02 
   5.09479000E+00    1.90373000E-01 
   1.15879000E+00    8.52161000E-01 
S    1    1.000000
   3.25840000E-01    1.00000000E+00 
S    1    1.000000
   1.02741000E-01    1.00000000E+00 
S    1    1.000000
   3.60000000E-02    1.00000000E+00 
P    1    1.000000
   7.50000000E-01    1.00000000E+00 

3    0
S    3    1.000000
   3.38650000E+01    2.54938000E-02 
   5.09479000E+00    1.90373000E-01 
   1.15879000E+00    8.52161000E-01 
S    1    1.000000
   3.25840000E-01    1.00000000E+00 
S    1    1.000000
   1.02741000E-01    1.00000000E+00 
S    1    1.000000
   3.60000000E-02    1.00000000E+00 
P    1    1.000000
   7.50000000E-01    1.00000000E+00 

4    0
S    3    1.000000
   3.38650000E+01    2.54938000E-02 
   5.09479000E+00    1.90373000E-01 
   1.15879000E+00    8.52161000E-01 
S    1    1.000000
   3.25840000E-01    1.00000000E+00 
S    1    1.000000
   1.02741000E-01    1.00000000E+00 
S    1    1.000000
   3.60000000E-02    1.00000000E+00 
P    1    1.000000
   7.50000000E-01    1.00000000E+00 

5    0
S    6    1.000000
   4.56324000E+03    1.96665000E-03 
   6.82024000E+02    1.52306000E-02 
   1.54973000E+02    7.61269000E-02 
   4.44553000E+01    2.60801000E-01 
   1.30290000E+01    6.16462000E-01 
   1.82773000E+00    2.21006000E-01 
SP   3    1.000000
   2.09642000E+01    1.14660000E-01   4.02487000E-02 
   4.80331000E+00    9.19999000E-01   2.37594000E-01 
   1.45933000E+00   -3.03068000E-03   8.15854000E-01 
SP   1    1.000000
   4.83456000E-01    1.00000000E+00   1.00000000E+00 
SP   1    1.000000
   1.45585000E-01    1.00000000E+00   1.00000000E+00 
SP   1    1.000000
   4.38000000E-02    1.00000000E+00   1.00000000E+00 
D    1    1.000000
   6.26000000E-01    1.00000000E+00 

6    0
S    6    1.000000
   8.58850000E+03    1.89515000E-03 
   1.29723000E+03    1.43859000E-02 
   2.99296000E+02    7.07320000E-02 
   8.73771000E+01    2.40001000E-01 
   2.56789000E+01    5.94797000E-01 
   3.74004000E+00    2.80802000E-01 
SP   3    1.000000
   4.21175000E+01    1.13889000E-01   3.65114000E-02 
   9.62837000E+00    9.20811000E-01   2.37153000E-01 
   2.85332000E+00   -3.27447000E-03   8.19702000E-01 
SP   1    1.000000
   9.05661000E-01    1.00000000E+00   1.00000000E+00 
SP   1    1.000000
   2.55611000E-01    1.00000000E+00   1.00000000E+00 
SP   1    1.000000
   8.45000000E-02    1.00000000E+00   1.00000000E+00 
D    1    1.000000
   1.29200000E+00    1.00000000E+00 

7    0
S    6    1.000000
   4.56324000E+03    1.96665000E-03 
   6.82024000E+02    1.52306000E-02 
   1.54973000E+02    7.61269000E-02 
   4.44553000E+01    2.60801000E-01 
   1.30290000E+01    6.16462000E-01 
   1.82773000E+00    2.21006000E-01 
SP   3    1.000000
   2.09642000E+01    1.14660000E-01   4.02487000E-02 
   4.80331000E+00    9.19999000E-01   2.37594000E-01 
   1.45933000E+00   -3.03068000E-03   8.15854000E-01 
SP   1    1.000000
   4.83456000E-01    1.00000000E+00   1.00000000E+00 
SP   1    1.000000
   1.45585000E-01    1.00000000E+00   1.00000000E+00 
SP   1    1.000000
   4.38000000E-02    1.00000000E+00   1.00000000E+00 
D    1    1.000000
   6.26000000E-01    1.00000000E+00 

8    0
S    6    1.000000
   8.58850000E+03    1.89515000E-03 
   1.29723000E+03    1.43859000E-02 
   2.99296000E+02    7.07320000E-02 
   8.73771000E+01    2.40001000E-01 
   2.56789000E+01    5.94797000E-01 
   3.74004000E+00    2.80802000E-01 
SP   3    1.000000
   4.21175000E+01    1.13889000E-01   3.65114000E-02 
   9.62837000E+00    9.20811000E-01   2.37153000E-01 
   2.85332000E+00   -3.27447000E-03   8.19702000E-01 
SP   1    1.000000
   9.05661000E-01    1.00000000E+00   1.00000000E+00 
SP   1    1.000000
   2.55611000E-01    1.00000000E+00   1.00000000E+00 
SP   1    1.000000
   8.45000000E-02    1.00000000E+00   1.00000000E+00 
D    1    1.000000
   1.29200000E+00    1.00000000E+00 

9    0
S    6    1.000000
   6.29348000E+03    1.96979000E-03 
   9.49044000E+02    1.49613000E-02 
   2.18776000E+02    7.35006000E-02 
   6.36916000E+01    2.48937000E-01 
   1.88282000E+01    6.02460000E-01 
   2.72023000E+00    2.56202000E-01 
SP   3    1.000000
   3.06331000E+01    1.11906000E-01   3.83119000E-02 
   7.02614000E+00    9.21666000E-01   2.37403000E-01 
   2.11205000E+00   -2.56919000E-03   8.17592000E-01 
SP   1    1.000000
   6.84009000E-01    1.00000000E+00   1.00000000E+00 
SP   1    1.000000
   2.00878000E-01    1.00000000E+00   1.00000000E+00 
SP   1    1.000000
   6.39000000E-02    1.00000000E+00   1.00000000E+00 
D    1    1.000000
   9.13000000E-01    1.00000000E+00 

10    0
S    6    1.000000
   6.29348000E+03    1.96979000E-03 
   9.49044000E+02    1.49613000E-02 
   2.18776000E+02    7.35006000E-02 
   6.36916000E+01    2.48937000E-01 
   1.88282000E+01    6.02460000E-01 
   2.72023000E+00    2.56202000E-01 
SP   3    1.000000
   3.06331000E+01    1.11906000E-01   3.83119000E-02 
   7.02614000E+00    9.21666000E-01   2.37403000E-01 
   2.11205000E+00   -2.56919000E-03   8.17592000E-01 
SP   1    1.000000
   6.84009000E-01    1.00000000E+00   1.00000000E+00 
SP   1    1.000000
   2.00878000E-01    1.00000000E+00   1.00000000E+00 
SP   1    1.000000
   6.39000000E-02    1.00000000E+00   1.00000000E+00 
D    1    1.000000
   9.13000000E-01    1.00000000E+00 

11    0
S    6    1.000000
   4.56324000E+03    1.96665000E-03 
   6.82024000E+02    1.52306000E-02 
   1.54973000E+02    7.61269000E-02 
   4.44553000E+01    2.60801000E-01 
   1.30290000E+01    6.16462000E-01 
   1.82773000E+00    2.21006000E-01 
SP   3    1.000000
   2.09642000E+01    1.14660000E-01   4.02487000E-02 
   4.80331000E+00    9.19999000E-01   2.37594000E-01 
   1.45933000E+00   -3.03068000E-03   8.15854000E-01 
SP   1    1.000000
   4.83456000E-01    1.00000000E+00   1.00000000E+00 
SP   1    1.000000
   1.45585000E-01    1.00000000E+00   1.00000000E+00 
SP   1    1.000000
   4.38000000E-02    1.00000000E+00   1.00000000E+00 
D    1    1.000000
   6.26000000E-01    1.00000000E+00 

12    0
S    3    1.000000
   3.38650000E+01    2.54938000E-02 
   5.09479000E+00    1.90373000E-01 
   1.15879000E+00    8.52161000E-01 
S    1    1.000000
   3.25840000E-01    1.00000000E+00 
S    1    1.000000
   1.02741000E-01    1.00000000E+00 
S    1    1.000000
   3.60000000E-02    1.00000000E+00 
P    1    1.000000
   7.50000000E-01    1.00000000E+00 

[MO]
Sym=X
Ene= 2.000000
Spin=Alpha
Occup=1
     1   -1.099785601868e-01
     2   -9.112969600138e-02
     3    3.878725640308e-04
     4    2.864285627183e-05
     5   -3.792340258537e-15
     6   -5.476475473783e-04
     7   -3.472910839276e-04
     8    4.706469217074e-05
     9   -2.842293907409e-15
    10   -1.577386628486e-04
    11    2.619737664556e-04
    12    1.804491380377e-04
    13   -5.997168606803e-15
    14   -1.700597897841e-03
    15   -7.585040875639e-05
    16   -6.550944593350e-04
    17    8.637174921543e-15
    18    1.795487043009e-04
    19   -1.326247311864e-15
    20   -9.518218371100e-16
    21   -4.576161540337e-06
    22   -1.277323165513e-04
    23    4.607538558672e-05
    24    7.899997677886e-06
    25    1.182469350174e-04
    26    1.149034700885e-04
    27    2.221098660811e-05
    28    1.757683365067e-05
    29   -1.682838228761e-16
    30   -8.488326115643e-05
    31    1.590385047191e-04
    32   -1.302767815938e-04
    33   -2.287526933411e-04
    34    5.190398961156e-06
    35    2.488555213094e-05
    36   -1.087444565391e-15
    37   -1.619883757717e-05
    38    4.988835241464e-05
    39   -1.663397328715e-04
    40    8.466128514755e-06
    41   -1.210795712931e-05
    42   -3.779669775182e-05
    43    4.195833282525e-16
    44    3.386795743737e-01
    45    2.804287724323e-01
    46    3.828279927458e-04
    47   -2.959193566046e-04
    48    9.424534381502e-16
    49    2.174025670706e-03
    50   -4.703619696297e-04
    51    2.904645806745e-04
    52    5.666823235836e-15
    53    1.602344711227e-04
    54    8.387438923031e-05
    55   -5.107876122032e-05
    56    3.629148921028e-15
    57   -1.031905753329e-03
    58   -6.432219870345e-04
    59    2.445993192919e-04
    60   -1.411575596689e-16
    61   -2.471631988606e-04
    62    8.489444899260e-16
    63    7.263249862778e-16
    64    1.018826022544e-04
    65   -2.100983892705e-04
    66   -4.309625704010e-02
    67   -3.692805339359e-02
    68    2.842080783250e-05
    69   -1.390105742122e-05
    70    7.740183623430e-16
    71   -1.123233201155e-04
    72    2.564603835301e-04
    73   -1.545347745351e-04
    74    5.856910461991e-15
    75   -4.097765061795e-04
    76   -2.964760385536e-04
    77    1.830491616121e-04
    78   -1.269236481707e-15
    79    4.541949929850e-04
    80    4.184462097844e-04
    81   -2.369212260043e-04
    82    1.610794980802e-15
    83   -1.983908497680e-05
    84    4.733375808721e-16
    85   -7.829881634366e-16
    86    4.577587776624e-05
    87   -8.797637596130e-05
    88   -1.447010114025e-01
    89   -1.198809970174e-01
    90    2.084620624476e-04
    91   -2.426325095111e-04
    92   -2.554912210451e-15
    93   -6.401534665665e-04
    94   -2.075064464167e-04
    95   -1.627070151245e-04
    96   -3.011222850352e-15
    97   -4.149051435185e-05
    98   -3.952707979826e-05
    99   -4.066639464671e-04
   100   -2.700109392326e-15
   101   -4.145847631616e-04
   102   -2.386811991374e-04
   103   -3.442441192526e-05
   104    1.035243941058e-14
   105    1.144165076854e-04
   106   -2.608753308246e-15
   107   -2.891639944270e-16
   108   -9.197535100829e-05
   109   -6.574783428297e-05
   110    7.447347429362e-02
   111    6.372725729628e-02
   112   -1.429342583829e-04
   113   -6.734144777932e-05
   114   -5.394066885866e-15
   115    5.895390781418e-04
   116    1.609025555686e-04
   117    9.819659051351e-05
   118   -5.675213639715e-15
   119    1.954603748298e-04
   120   -1.890454155870e-04
   121   -5.114324506115e-05
   122   -5.132833504846e-15
   123    4.009650864878e-05
   124    1.379712643870e-04
   125    6.164196359151e-05
   126   -4.819001180942e-15
   127   -8.038658495281e-06
   128   -2.536199441355e-16
   129    6.446058613424e-17
   130   -2.456658733034e-05
   131   -3.970646386828e-05
   132   -5.146292492247e-02
   133   -4.324378330743e-02
   134   -8.651023189999e-05
   135    1.980499413087e-06
   136    4.791808921548e-15
   137   -3.610481501884e-04
   138   -4.230562266939e-04
   139   -1.044100307458e-04
   140    9.099997404804e-15
   141   -8.515753063930e-06
   142    2.659136656607e-04
   143    7.440946941341e-05
   144    6.943397590139e-15
   145    8.357553001607e-05
   146    2.352960569272e-04
   147    2.128614024737e-04
   148   -1.104607139561e-15
   149   -7.617365190160e-06
   150    1.636515328373e-16
   151    2.426860035022e-16
   152    5.475098653355e-05
   153    1.176644977652e-04
   154    8.568529146190e-02
   155    7.191471940028e-02
   156    9.801239128251e-07
   157    8.913169080667e-05
   158   -3.608137513043e-15
   159    1.028175044113e-03
   160   -1.340604710442e-04
   161    4.189630522972e-04
   162   -3.125519761283e-15
   163   -3.819275728773e-04
   164    6.611417070957e-06
   165   -1.970578912494e-04
   166   -3.459655012112e-15
   167    1.050908549450e-03
   168    5.286995378508e-04
   169   -1.618212995851e-05
   170   -5.314125387680e-15
   171   -1.260926132151e-05
   172   -1.181781982466e-15
   173    6.741418957449e-16
   174   -1.488314243628e-04
   175    3.658118581978e-05
   176    3.896338086676e-01
   177    3.227298697812e-01
   178   -5.754754882700e-05
   179    1.469051516959e-04
   180   -2.330687532268e-15
   181    3.242279191890e-03
   182   -2.324248145986e-04
   183   -3.093355928621e-04
   184   -5.032793283573e-15
   185   -1.080501238093e-03
   186    2.121111741686e-04
   187   -1.904693756661e-04
   188    9.761150101343e-17
   189    1.795744596701e-03
   190   -9.429013294000e-04
   191    7.099502029910e-04
   192   -1.089946622468e-14
   193   -2.937090452925e-04
   194   -3.197729061125e-16
   195   -1.702764452615e-16
   196    1.772646238257e-04
   197    8.482600973651e-05
   198    2.830063532642e-04
   199   -2.475336519173e-04
   200    4.256661559302e-04
   201    6.270128657363e-04
   202    4.049720008402e-05
   203   -3.604209362124e-05
   204   -1.202548252369e-17
Sym=X
Ene= 2.000000
Spin=Alpha
Occup=1
     1   -7.984322078344e-02
     2   -6.613953115104e-02
     3    5.572488498736e-05
     4   -2.030973734411e-05
     5   -1.774176943683e-16
     6   -4.971484823613e-04
     7   -2.695654493369e-04
     8    9.560358361073e-05
     9   -1.968933497312e-15
    10    4.500829013838e-04
    11   -7.383504119724e-05
    12    4.105458428090e-04
    13   -4.061515792433e-15
    14    7.601504178515e-05
    15   -2.747970764174e-04
    16   -3.283767141960e-04
    17    1.462595951143e-16
    18    5.147034595299e-05
    19   -7.854058334472e-17
    20    6.943859727613e-16
    21    1.652850691432e-05
    22   -1.247674607395e-04
    23    1.697101445994e-04
    24   -2.605054732394e-04
    25    5.153325244598e-04
    26    2.954812080078e-05
    27   -7.257796937227e-05
    28   -4.225424624635e-05
    29   -2.161035287569e-16
    30   -6.434152130052e-05
    31    1.273269527299e-04
    32    7.427923104155e-07
    33   -2.622270762126e-04
    34    1.323366360274e-06
    35    2.001043224802e-05
    36   -3.571671074246e-17
    37   -1.336814437480e-04
    38    2.843914128677e-06
    39   -5.311265582077e-04
    40   -3.005531374560e-04
    41    1.403523950304e-06
    42    2.151248109350e-05
    43    1.879287295355e-15
    44   -1.654740853706e-01
    45   -1.369924389692e-01
    46   -2.067000163896e-04
    47    2.773722318932e-05
    48    2.723771067722e-14
    49   -1.120008213644e-03
    50    2.615302658178e-04
    51   -3.751876331323e-04
    52    4.533963790599e-14
    53    4.624884077302e-04
    54    4.715925789111e-04
    55   -5.481065221980e-04
    56    2.650267832851e-14
    57    1.354052633379e-04
    58   -2.996579133612e-05
    59   -1.800839901737e-04
    60    9.643697867520e-15
    61    1.380637637522e-04
    62   -3.638798830972e-17
    63    2.747580101979e-15
    64   -1.929233971616e-04
    65    9.770013455681e-05
    66   -1.518226063252e-01
    67   -1.298171507210e-01
    68   -4.979610362145e-04
    69    3.194358575834e-04
    70    2.469152342544e-14
    71   -1.700345328836e-03
    72    5.582697531155e-05
    73   -4.993289434703e-05
    74    3.571079413676e-14
    75    7.389470174569e-04
    76    1.709579908980e-04
    77   -2.695356880093e-05
    78    3.268209743351e-14
    79   -2.894791065073e-04
    80   -1.057371312170e-04
    81    8.148744934794e-05
    82   -6.295538114773e-15
    83    3.655496818157e-05
    84    2.793606841814e-15
    85   -1.894315798386e-15
    86   -1.838824373152e-05
    87    1.963686614112e-05
    88   -1.705018017015e-01
    89   -1.411547814411e-01
    90    2.644734919337e-04
    91   -1.424789460238e-04
    92    5.140166639543e-15
    93   -1.298643872447e-03
    94   -1.945269166873e-04
    95    9.839879797867e-05
    96    6.092098817165e-15
    97    1.008310864862e-03
    98    1.249748509633e-04
    99   -2.048656980935e-04
   100    2.329590204150e-15
   101    4.712104583703e-03
   102   -7.592332562313e-04
   103   -1.026428654808e-03
   104   -1.821827754509e-15
   105    1.042235298161e-04
   106   -3.814524648562e-15
   107    9.518117398511e-16
   108    2.975988110814e-06
   109   -1.155229757656e-04
   110    2.138189081686e-02
   111    1.832119078608e-02
   112    9.695990139988e-06
   113    1.339818114132e-05
   114   -4.038124984428e-15
   115    6.345263232588e-05
   116    1.426486336670e-04
   117    9.067908314241e-05
   118   -8.350944638153e-15
   119    3.520863893559e-06
   120   -8.192972601419e-05
   121   -1.253274135004e-05
   122   -7.282792503407e-15
   123   -3.053924437913e-04
   124    1.557836267929e-04
   125    1.940292967006e-04
   126   -1.384786162252e-16
   127    1.136343398393e-05
   128   -1.174239585773e-16
   129   -2.015122873251e-16
   130   -2.213712283585e-05
   131   -5.268944690787e-05
   132   -2.495468609137e-01
   133   -2.094844874814e-01
   134    8.729102421437e-05
   135    1.091270340039e-04
   136    3.270866222320e-14
   137   -2.734130606970e-03
   138   -7.804625398083e-05
   139    1.068384533999e-04
   140    5.312147503385e-14
   141    4.435633189150e-04
   142   -2.787221990298e-05
   143    2.108239060792e-04
   144    5.102543172335e-14
   145   -1.855223595263e-03
   146   -2.383146047317e-04
   147    1.274561384403e-03
   148   -3.316354070907e-15
   149    3.203085968649e-05
   150   -1.154403405314e-15
   151   -2.606413203970e-15
   152   -1.013064862837e-04
   153    2.243988971983e-05
   154    3.947095878233e-01
   155    3.314690926199e-01
   156    1.099784490460e-04
   157   -1.832324565667e-05
   158    8.911802197569e-15
   159    3.798552240342e-03
   160   -1.477248370459e-04
   161   -1.190203099671e-04
   162    1.665338338464e-14
   163   -1.348860562001e-03
   164   -3.887732344297e-04
   165   -2.653015081731e-04
   166    1.129320714428e-14
   167    6.247232572614e-04
   168    6.407799091080e-04
   169    5.676917351577e-04
   170   -4.039187673889e-15
   171    1.913170004767e-05
   172   -8.397161619340e-18
   173    2.290666158272e-15
   174    8.097991626077e-05
   175    6.539032829402e-05
   176   -8.601256279760e-02
   177   -7.121774788363e-02
   178    5.453751747989e-05
   179   -6.412472171598e-05
   180   -1.359182986574e-15
   181   -8.259339421019e-04
   182    7.197021215550e-06
   183   -4.186714349010e-05
   184   -4.193368106226e-15
   185   -1.143634936745e-04
   186    7.984283078552e-05
   187   -2.468093278008e-04
   188   -2.627890292487e-15
   189   -3.168421813355e-03
   190    5.648105895243e-04
   191   -9.500251720326e-04
   192   -3.466453791404e-16
   193    2.392350159143e-05
   194    5.321295756653e-16
   195    1.439335089924e-15
   196    1.380343334446e-05
   197   -3.762206834854e-05
   198   -6.430974197357e-05
   199   -3.733627364177e-06
   200   -1.812615171888e-04
   201   -2.828725393570e-04
   202    1.250448866188e-05
   203   -3.648824844150e-07
   204   -4.974987422513e-17
Sym=X
Ene= 2.000000
Spin=Alpha
Occup=1
     1   -2.757573756088e-01
     2   -2.283341068425e-01
     3    4.845920529709e-04
     4   -1.987754850616e-04
     5   -1.470958456882e-15
     6   -2.254289874474e-03
     7   -5.369213136684e-04
     8   -4.758452415845e-05
     9   -2.370623720928e-15
    10    7.550605800950e-04
    11    3.408406049768e-04
    12   -4.157419188078e-05
    13   -7.487120099904e-16
    14    8.384240785057e-03
    15    2.830583671274e-04
    16    1.843601834928e-03
    17   -6.950573316591e-16
    18    1.813576910824e-04
    19    8.296145646901e-16
    20   -8.627460542724e-16
    21   -5.672524298510e-05
    22   -2.414365464693e-04
    23   -8.049590492840e-05
    24   -1.422138262647e-05
    25   -2.650568339788e-04
    26   -5.306731805232e-04
    27   -3.061497658014e-05
    28    1.715716617913e-05
    29   -4.731889083110e-16
    30   -1.842510713324e-04
    31   -9.393369782387e-06
    32   -1.462780979863e-04
    33    3.293684980681e-04
    34   -3.430505179089e-05
    35   -1.762401532911e-05
    36   -7.598966616320e-17
    37    4.456058045741e-05
    38   -1.588008283492e-04
    39    1.394321147940e-04
    40    6.320924637900e-05
    41   -9.503804645131e-06
    42    6.392106607946e-05
    43   -1.187010290031e-15
    44    6.088887570155e-02
    45    5.042711634607e-02
    46    1.069091580978e-04
    47   -1.969367308828e-05
    48   -1.224969306290e-14
    49    3.256769626309e-04
    50   -4.797856056707e-05
    51    1.400930622300e-04
    52   -2.034250058461e-14
    53    1.011511977851e-03
    54    5.137139307098e-04
    55   -1.787477243069e-04
    56   -1.086554420435e-14
    57   -1.718058216747e-03
    58   -5.315128587380e-04
    59    4.930998111916e-05
    60   -5.290990144859e-15
    61   -5.423841320192e-05
    62    1.161877824042e-16
    63   -7.127400048378e-16
    64    5.426230747834e-05
    65   -5.418599897774e-06
    66   -2.504600582175e-02
    67   -2.143235698172e-02
    68   -4.643089025069e-05
    69    2.178105627150e-05
    70   -1.185085969042e-14
    71   -2.064816504543e-04
    72    5.508653599379e-05
    73   -2.831974305960e-05
    74   -1.785869232826e-14
    75    5.272487948164e-06
    76   -8.150741845889e-05
    77    2.090647301985e-06
    78   -1.562950582881e-14
    79    1.201421847421e-04
    80    8.897459971744e-05
    81    6.736951304975e-06
    82    2.165604467926e-15
    83   -4.662746452387e-07
    84   -1.354421847473e-15
    85    1.048194948521e-15
    86    8.126342729497e-06
    87   -1.391814426864e-05
    88   -3.808181212145e-01
    89   -3.152972592051e-01
    90    4.737508208567e-04
    91   -2.590979681246e-04
    92   -5.615573684697e-15
    93   -2.657658415410e-03
    94   -6.738286848877e-04
    95    2.129334356793e-04
    96   -7.017915511030e-15
    97    2.469906461971e-04
    98   -1.678075165941e-04
    99   -5.939094222116e-04
   100   -6.799999775653e-15
   101    8.357950252539e-03
   102   -1.326344897898e-03
   103   -1.800123646372e-03
   104    2.253652514221e-15
   105    2.900248295930e-04
   106    6.723536591299e-16
   107   -6.997933563707e-16
   108    8.698648013856e-05
   109   -3.554532975366e-04
   110   -7.844020523905e-02
   111   -6.700908791543e-02
   112    3.858197015393e-04
   113    2.316898383651e-04
   114   -3.754763816030e-15
   115   -1.176630774192e-03
   116    1.600704398905e-04
   117    1.312909499357e-04
   118   -4.643694139633e-15
   119    7.849571238124e-04
   120   -2.832914474932e-04
   121   -1.750600707716e-04
   122   -3.378954025706e-15
   123   -5.572099473999e-04
   124    2.873090776094e-04
   125    3.776368537864e-04
   126    7.568523281325e-17
   127    4.577814205233e-05
   128    9.219811342002e-16
   129    1.724401866362e-16
   130   -2.802927035207e-05
   131   -9.622691951711e-05
   132    1.341782914562e-01
   133    1.127224160056e-01
   134   -9.971887303420e-05
   135   -1.298180740508e-05
   136   -1.274710486873e-14
   137    1.105967266679e-03
   138   -4.568600804210e-04
   139    1.988876408009e-04
   140   -2.078268556780e-14
   141   -5.810885473807e-04
   142    4.351888389239e-04
   143    3.415373330628e-04
   144   -1.896144249647e-14
   145   -2.517295876937e-04
   146   -2.186645704861e-04
   147   -4.528924029115e-05
   148    2.149410775890e-15
   149    4.317600929860e-05
   150    5.922468121230e-16
   151    1.062819544236e-15
   152   -1.236851640444e-04
   153    1.373924257315e-04
   154   -1.554232306844e-01
   155   -1.304614941196e-01
   156   -9.857937825438e-05
   157    4.525143770491e-05
   158   -6.748384046809e-15
   159   -1.773937889270e-03
   160   -2.729846396618e-04
   161    2.295094788983e-04
   162   -9.153637989889e-15
   163    2.966693175903e-04
   164    1.977851195262e-05
   165   -3.048388167962e-04
   166   -7.995564759382e-15
   167   -1.804035224461e-03
   168   -8.570101806747e-04
   169    4.776672910978e-05
   170    2.450370141884e-15
   171    2.534232035105e-05
   172   -1.483683107328e-16
   173   -1.181974051255e-15
   174   -8.804853986279e-05
   175    1.049228220898e-04
   176   -2.060615865984e-01
   177   -1.706168087743e-01
   178    1.677275089350e-04
   179   -1.331877893316e-04
   180   -1.655533717305e-15
   181   -2.001031935633e-03
   182   -7.220331565068e-05
   183   -1.064247520922e-04
   184   -9.903572884046e-16
   185    2.253764858842e-04
   186    1.876588186253e-04
   187    5.073765260214e-05
   188   -5.717251780778e-16
   189   -1.233087475080e-02
   190    3.072146278631e-03
   191   -2.050027722743e-03
   192   -3.917430206181e-16
   193    4.449656253023e-05
   194    4.814747810623e-16
   195   -4.902385932733e-16
   196    1.290745442483e-05
   197   -4.119188155574e-05
   198   -1.533234415678e-04
   199    9.079591129795e-05
   200   -4.405509724036e-04
   201   -1.082001816778e-03
   202    7.128323294330e-06
   203    9.430808200185e-06
   204   -3.191234566995e-16
Sym=X
Ene= 2.000000
Spin=Alpha
Occup=1
     1   -5.173740512944e-02
     2   -4.283759723005e-02
     3    1.487751441694e-04
     4   -3.621021340170e-05
     5    2.641249792968e-15
     6   -4.248722683761e-04
     7   -7.866033927543e-05
     8   -4.554888388593e-05
     9    8.001980861270e-15
    10   -3.673489568859e-04
    11   -1.074885631405e-04
    12   -4.662669309093e-04
    13    3.614479476644e-15
    14   -1.388176842718e-03
    15   -2.457754159006e-04
    16   -8.057891498830e-04
    17    9.670497188975e-15
    18    4.875186289087e-05
    19   -5.023951954185e-16
    20    3.250556159330e-16
    21   -2.927493254368e-05
    22   -3.352309539990e-06
    23   -9.396247885583e-05
    24    6.352265753524e-05
    25   -3.334804773225e-04
    26   -2.422083632542e-04
    27   -5.048060270670e-06
    28    1.089234351432e-05
    29    4.402264378841e-16
    30   -3.044133024661e-05
    31   -9.528394852207e-05
    32   -1.953102389270e-04
    33   -3.093543636313e-04
    34    4.229334108647e-06
    35   -2.055562182943e-05
    36    1.139004615113e-17
    37    8.974881948461e-06
    38    1.071757010278e-05
    39    1.374364182673e-04
    40   -1.119645238495e-04
    41   -8.034865611501e-06
    42    7.232266473239e-06
    43   -1.400009037763e-15
    44   -1.045606759453e-01
    45   -8.650447197771e-02
    46   -6.670800053721e-05
    47    8.976104645144e-05
    48   -1.106455865868e-14
    49   -9.647003986286e-04
    50    3.856525924995e-04
    51   -1.867062670454e-04
    52   -2.262773613947e-14
    53   -3.283209724089e-04
    54    1.717128729301e-05
    55   -4.916415688263e-05
    56   -7.526684392140e-15
    57    3.741617697846e-04
    58   -1.763883414601e-04
    59    4.245127570360e-05
    60   -1.730805119104e-15
    61    1.205188021952e-04
    62   -1.759171378885e-15
    63   -2.274932100481e-15
    64   -7.045272917460e-05
    65    2.133219953752e-04
    66   -3.963065534170e-01
    67   -3.389378665391e-01
    68   -1.171069537402e-03
    69    7.121993105659e-04
    70   -9.727366499272e-15
    71   -4.069441492106e-03
    72    3.902716242863e-04
    73   -2.355060177883e-04
    74   -1.256957716677e-14
    75    1.034871699646e-03
    76   -2.889740968949e-05
    77    1.390878273412e-05
    78   -1.215418013189e-14
    79   -1.467767725383e-03
    80   -2.766437174518e-04
    81    1.303662039798e-04
    82    2.274749152425e-15
    83    7.253236440475e-05
    84   -1.252784063716e-15
    85    7.288681648136e-16
    86    1.711613400405e-05
    87   -2.190844441803e-05
    88    4.908100363077e-02
    89    4.058816720972e-02
    90   -3.948624272390e-05
    91    5.674001103262e-05
    92   -9.858730875125e-15
    93    5.521506209748e-04
    94    2.698320377794e-04
    95    1.009132088298e-04
    96   -1.758866350325e-14
    97   -3.457917155717e-04
    98    3.386603580647e-04
    99    5.595099739489e-04
   100   -8.407752889886e-15
   101   -4.128478029389e-03
   102   -9.390508906395e-05
   103    1.213883410230e-03
   104    1.047001970809e-14
   105   -6.205811422011e-05
   106    1.524951345293e-15
   107   -1.215844212113e-15
   108    3.550216588406e-05
   109    1.399929119547e-04
   110    3.114833893552e-01
   111    2.663985858662e-01
   112   -8.847839473642e-04
   113   -5.331832628539e-04
   114   -7.117425033132e-15
   115    3.171039834323e-03
   116    3.165784476524e-04
   117    1.876302799780e-04
   118   -8.859191159766e-15
   119   -9.013196135995e-04
   120   -8.483422516239e-06
   121   -3.028178251288e-05
   122   -7.507329034675e-15
   123    9.434446751507e-04
   124   -1.209231373164e-04
   125   -9.713488721229e-05
   126   -1.441223819190e-15
   127   -7.175519963346e-05
   128    1.088271814346e-15
   129    7.664315051966e-16
   130   -1.873745243079e-05
   131   -2.808517890998e-05
   132    2.305350509598e-02
   133    1.936694014939e-02
   134    2.091198413913e-06
   135   -2.023350388416e-06
   136   -2.380710319010e-14
   137    1.793965429209e-04
   138    2.013605297995e-04
   139    2.873443390424e-05
   140   -4.098164080428e-14
   141    7.515716696576e-05
   142   -1.954045463243e-04
   143   -1.348004383562e-04
   144   -3.590242054661e-14