[Molden Format]
[Atoms] (Angs)
  C      1    6     -0.00714236     -1.70213747     -0.00000000
  H      2    1     -2.06882847     -1.44022412      0.00000000
  H      3    1     -0.12337987     -2.77567521      0.00000000
  H      4    1      0.04651892      1.98813947     -0.00000000
  C      5    6     -1.21953563      0.40211669      0.00000000
  O      6    8     -2.25921553      1.03043814      0.00000000
  C      7    6      1.28797806      0.34644937     -0.00000000
  O      8    8      2.31273661      1.00537216     -0.00000000
  N      9    7      0.03446295      0.97739857     -0.00000000
  N     10    7     -1.17287765     -0.98229824      0.00000000
  C     11    6      1.20107039     -1.10433419     -0.00000000
  H     12    1      2.11220096     -1.67699125     -0.00000000
[GTO]
1    0
S    6    1.000000
   4.56324000E+03    1.96665000E-03 
   6.82024000E+02    1.52306000E-02 
   1.54973000E+02    7.61269000E-02 
   4.44553000E+01    2.60801000E-01 
   1.30290000E+01    6.16462000E-01 
   1.82773000E+00    2.21006000E-01 
SP   3    1.000000
   2.09642000E+01    1.14660000E-01   4.02487000E-02 
   4.80331000E+00    9.19999000E-01   2.37594000E-01 
   1.45933000E+00   -3.03068000E-03   8.15854000E-01 
SP   1    1.000000
   4.83456000E-01    1.00000000E+00   1.00000000E+00 
SP   1    1.000000
   1.45585000E-01    1.00000000E+00   1.00000000E+00 
SP   1    1.000000
   4.38000000E-02    1.00000000E+00   1.00000000E+00 
D    1    1.000000
   6.26000000E-01    1.00000000E+00 

2    0
S    3    1.000000
   3.38650000E+01    2.54938000E-02 
   5.09479000E+00    1.90373000E-01 
   1.15879000E+00    8.52161000E-01 
S    1    1.000000
   3.25840000E-01    1.00000000E+00 
S    1    1.000000
   1.02741000E-01    1.00000000E+00 
S    1    1.000000
   3.60000000E-02    1.00000000E+00 
P    1    1.000000
   7.50000000E-01    1.00000000E+00 

3    0
S    3    1.000000
   3.38650000E+01    2.54938000E-02 
   5.09479000E+00    1.90373000E-01 
   1.15879000E+00    8.52161000E-01 
S    1    1.000000
   3.25840000E-01    1.00000000E+00 
S    1    1.000000
   1.02741000E-01    1.00000000E+00 
S    1    1.000000
   3.60000000E-02    1.00000000E+00 
P    1    1.000000
   7.50000000E-01    1.00000000E+00 

4    0
S    3    1.000000
   3.38650000E+01    2.54938000E-02 
   5.09479000E+00    1.90373000E-01 
   1.15879000E+00    8.52161000E-01 
S    1    1.000000
   3.25840000E-01    1.00000000E+00 
S    1    1.000000
   1.02741000E-01    1.00000000E+00 
S    1    1.000000
   3.60000000E-02    1.00000000E+00 
P    1    1.000000
   7.50000000E-01    1.00000000E+00 

5    0
S    6    1.000000
   4.56324000E+03    1.96665000E-03 
   6.82024000E+02    1.52306000E-02 
   1.54973000E+02    7.61269000E-02 
   4.44553000E+01    2.60801000E-01 
   1.30290000E+01    6.16462000E-01 
   1.82773000E+00    2.21006000E-01 
SP   3    1.000000
   2.09642000E+01    1.14660000E-01   4.02487000E-02 
   4.80331000E+00    9.19999000E-01   2.37594000E-01 
   1.45933000E+00   -3.03068000E-03   8.15854000E-01 
SP   1    1.000000
   4.83456000E-01    1.00000000E+00   1.00000000E+00 
SP   1    1.000000
   1.45585000E-01    1.00000000E+00   1.00000000E+00 
SP   1    1.000000
   4.38000000E-02    1.00000000E+00   1.00000000E+00 
D    1    1.000000
   6.26000000E-01    1.00000000E+00 

6    0
S    6    1.000000
   8.58850000E+03    1.89515000E-03 
   1.29723000E+03    1.43859000E-02 
   2.99296000E+02    7.07320000E-02 
   8.73771000E+01    2.40001000E-01 
   2.56789000E+01    5.94797000E-01 
   3.74004000E+00    2.80802000E-01 
SP   3    1.000000
   4.21175000E+01    1.13889000E-01   3.65114000E-02 
   9.62837000E+00    9.20811000E-01   2.37153000E-01 
   2.85332000E+00   -3.27447000E-03   8.19702000E-01 
SP   1    1.000000
   9.05661000E-01    1.00000000E+00   1.00000000E+00 
SP   1    1.000000
   2.55611000E-01    1.00000000E+00   1.00000000E+00 
SP   1    1.000000
   8.45000000E-02    1.00000000E+00   1.00000000E+00 
D    1    1.000000
   1.29200000E+00    1.00000000E+00 

7    0
S    6    1.000000
   4.56324000E+03    1.96665000E-03 
   6.82024000E+02    1.52306000E-02 
   1.54973000E+02    7.61269000E-02 
   4.44553000E+01    2.60801000E-01 
   1.30290000E+01    6.16462000E-01 
   1.82773000E+00    2.21006000E-01 
SP   3    1.000000
   2.09642000E+01    1.14660000E-01   4.02487000E-02 
   4.80331000E+00    9.19999000E-01   2.37594000E-01 
   1.45933000E+00   -3.03068000E-03   8.15854000E-01 
SP   1    1.000000
   4.83456000E-01    1.00000000E+00   1.00000000E+00 
SP   1    1.000000
   1.45585000E-01    1.00000000E+00   1.00000000E+00 
SP   1    1.000000
   4.38000000E-02    1.00000000E+00   1.00000000E+00 
D    1    1.000000
   6.26000000E-01    1.00000000E+00 

8    0
S    6    1.000000
   8.58850000E+03    1.89515000E-03 
   1.29723000E+03    1.43859000E-02 
   2.99296000E+02    7.07320000E-02 
   8.73771000E+01    2.40001000E-01 
   2.56789000E+01    5.94797000E-01 
   3.74004000E+00    2.80802000E-01 
SP   3    1.000000
   4.21175000E+01    1.13889000E-01   3.65114000E-02 
   9.62837000E+00    9.20811000E-01   2.37153000E-01 
   2.85332000E+00   -3.27447000E-03   8.19702000E-01 
SP   1    1.000000
   9.05661000E-01    1.00000000E+00   1.00000000E+00 
SP   1    1.000000
   2.55611000E-01    1.00000000E+00   1.00000000E+00 
SP   1    1.000000
   8.45000000E-02    1.00000000E+00   1.00000000E+00 
D    1    1.000000
   1.29200000E+00    1.00000000E+00 

9    0
S    6    1.000000
   6.29348000E+03    1.96979000E-03 
   9.49044000E+02    1.49613000E-02 
   2.18776000E+02    7.35006000E-02 
   6.36916000E+01    2.48937000E-01 
   1.88282000E+01    6.02460000E-01 
   2.72023000E+00    2.56202000E-01 
SP   3    1.000000
   3.06331000E+01    1.11906000E-01   3.83119000E-02 
   7.02614000E+00    9.21666000E-01   2.37403000E-01 
   2.11205000E+00   -2.56919000E-03   8.17592000E-01 
SP   1    1.000000
   6.84009000E-01    1.00000000E+00   1.00000000E+00 
SP   1    1.000000
   2.00878000E-01    1.00000000E+00   1.00000000E+00 
SP   1    1.000000
   6.39000000E-02    1.00000000E+00   1.00000000E+00 
D    1    1.000000
   9.13000000E-01    1.00000000E+00 

10    0
S    6    1.000000
   6.29348000E+03    1.96979000E-03 
   9.49044000E+02    1.49613000E-02 
   2.18776000E+02    7.35006000E-02 
   6.36916000E+01    2.48937000E-01 
   1.88282000E+01    6.02460000E-01 
   2.72023000E+00    2.56202000E-01 
SP   3    1.000000
   3.06331000E+01    1.11906000E-01   3.83119000E-02 
   7.02614000E+00    9.21666000E-01   2.37403000E-01 
   2.11205000E+00   -2.56919000E-03   8.17592000E-01 
SP   1    1.000000
   6.84009000E-01    1.00000000E+00   1.00000000E+00 
SP   1    1.000000
   2.00878000E-01    1.00000000E+00   1.00000000E+00 
SP   1    1.000000
   6.39000000E-02    1.00000000E+00   1.00000000E+00 
D    1    1.000000
   9.13000000E-01    1.00000000E+00 

11    0
S    6    1.000000
   4.56324000E+03    1.96665000E-03 
   6.82024000E+02    1.52306000E-02 
   1.54973000E+02    7.61269000E-02 
   4.44553000E+01    2.60801000E-01 
   1.30290000E+01    6.16462000E-01 
   1.82773000E+00    2.21006000E-01 
SP   3    1.000000
   2.09642000E+01    1.14660000E-01   4.02487000E-02 
   4.80331000E+00    9.19999000E-01   2.37594000E-01 
   1.45933000E+00   -3.03068000E-03   8.15854000E-01 
SP   1    1.000000
   4.83456000E-01    1.00000000E+00   1.00000000E+00 
SP   1    1.000000
   1.45585000E-01    1.00000000E+00   1.00000000E+00 
SP   1    1.000000
   4.38000000E-02    1.00000000E+00   1.00000000E+00 
D    1    1.000000
   6.26000000E-01    1.00000000E+00 

12    0
S    3    1.000000
   3.38650000E+01    2.54938000E-02 
   5.09479000E+00    1.90373000E-01 
   1.15879000E+00    8.52161000E-01 
S    1    1.000000
   3.25840000E-01    1.00000000E+00 
S    1    1.000000
   1.02741000E-01    1.00000000E+00 
S    1    1.000000
   3.60000000E-02    1.00000000E+00 
P    1    1.000000
   7.50000000E-01    1.00000000E+00 

[MO]
Sym=X
Ene= 2.000000
Spin=Alpha
Occup=1
     1   -2.155507804892e-07
     2    9.827771539245e-07
     3   -5.631023436823e-06
     4    3.268885694172e-06
     5    2.475306214364e-15
     6   -9.744333502334e-06
     7    2.491444275632e-05
     8   -1.385101157237e-05
     9    7.483169030180e-15
    10    2.702834557273e-04
    11    1.496561266896e-04
    12    2.048742233850e-04
    13   -1.405108389349e-15
    14    3.909483152700e-04
    15    2.308855612929e-04
    16    5.546720655718e-04
    17    8.061974457618e-15
    18    5.296350317787e-07
    19   -1.768044908473e-15
    20   -3.715061381138e-16
    21    5.710957377332e-06
    22    5.802001894512e-07
    23    2.628403463146e-06
    24    3.182142894964e-05
    25    9.441044915306e-05
    26    1.433970704244e-04
    27    9.159885583587e-06
    28   -6.331445906170e-06
    29    1.098349740680e-15
    30   -1.888238590375e-06
    31    2.526440361046e-05
    32    9.402827059263e-05
    33    2.869793323826e-04
    34   -5.277086450340e-06
    35    2.915294280674e-06
    36    7.556146174182e-17
    37    9.815775343172e-07
    38   -1.230702023979e-05
    39   -6.213413488974e-06
    40    1.820161407054e-04
    41    1.516575367113e-05
    42    8.886875842791e-07
    43   -2.760566351957e-15
    44    3.998099722240e-06
    45   -5.672555233594e-05
    46   -4.872942847399e-05
    47    2.657013067597e-05
    48   -7.299494353965e-15
    49    2.284750312804e-04
    50   -2.364907087057e-04
    51    1.580690308592e-04
    52   -1.079476894227e-14
    53    1.788336997730e-04
    54   -2.490116422575e-04
    55    2.076583950084e-04
    56   -6.781033730137e-15
    57    4.984494437683e-04
    58    4.426694885633e-04
    59   -1.852238909555e-04
    60    3.476811107818e-16
    61   -4.411544494856e-05
    62   -7.604700729335e-15
    63   -3.187238435973e-15
    64    7.140476621555e-05
    65   -1.278945646950e-04
    66    3.945288205746e-01
    67    3.374371931171e-01
    68    1.119089671740e-03
    69   -6.854829978006e-04
    70    7.316680101129e-15
    71    3.964978511113e-03
    72   -4.506545234985e-04
    73    2.774995499909e-04
    74    1.069620784372e-14
    75   -9.775442403138e-04
    76    8.313333101980e-05
    77   -6.322318601148e-05
    78    1.343307179470e-14
    79    1.195793821303e-03
    80    1.364937157850e-04
    81   -3.830163739562e-05
    82    3.043777223536e-15
    83   -6.276698480100e-05
    84    2.662244642674e-17
    85   -6.024023119074e-17
    86   -2.805122053417e-05
    87    4.971761364387e-05
    88   -3.981279715714e-06
    89    5.354051163692e-05
    90   -4.347579576303e-05
    91   -2.988078257258e-05
    92   -1.757551359153e-14
    93   -2.212116439408e-04
    94   -2.269139176016e-04
    95   -1.551413765017e-04
    96   -3.164333753097e-14
    97   -2.667391091183e-06
    98   -3.705515589962e-04
    99   -3.873903239418e-04
   100   -1.992865832166e-14
   101    2.077754997394e-03
   102    5.494121865279e-04
   103   -8.310790595345e-04
   104   -2.150613835872e-14
   105    3.893320523043e-05
   106    3.017880000488e-15
   107   -2.025514215012e-15
   108   -6.595941393131e-05
   109   -1.269573644572e-04
   110   -3.853298898616e-01
   111   -3.295693888701e-01
   112    1.068998954925e-03
   113    6.428543083765e-04
   114   -8.919166838478e-15
   115   -3.855420073085e-03
   116   -4.302661826728e-04
   117   -2.584364330103e-04
   118   -1.342942835467e-14
   119    9.817455720465e-04
   120    7.088109797408e-05
   121    4.291022381517e-05
   122   -1.291664935087e-14
   123   -9.687582526144e-04
   124    5.284252577090e-05
   125    4.127201442123e-05
   126    1.446681133818e-14
   127    8.352855116504e-05
   128    1.531389986653e-15
   129    1.236756727102e-15
   130    2.669450996174e-05
   131    5.263279927996e-05
   132   -2.727710114262e-08
   133   -8.128871031119e-07
   134    1.551887011638e-05
   135   -1.279981508493e-06
   136   -4.211701530751e-14
   137    8.264485527696e-06
   138   -4.275153559175e-05
   139    3.198015495792e-06
   140   -6.861861383569e-14
   141   -3.848650788838e-05
   142    8.454581954718e-05
   143    3.090178141271e-05
   144   -7.012073016454e-14
   145    7.755315794769e-05
   146    8.112810672832e-04
   147    3.689689622046e-05
   148    6.887010140277e-15
   149    1.105407294247e-06
   150   -1.078499505631e-15
   151    2.221190104542e-15
   152    1.362988769534e-06
   153    1.309255380919e-05
   154    2.792835335237e-07
   155    5.945544120827e-07
   156    3.506693861492e-06
   157   -7.064655255095e-06
   158    6.878188702537e-15
   159   -1.199249459884e-05
   160   -1.047809191980e-05
   161    1.955137592171e-05
   162    9.086088557963e-15
   163    9.048459691418e-05
   164    1.142025668848e-04
   165    3.673189942715e-05
   166    1.471143178671e-14
   167   -1.733165267368e-04
   168    2.454865238976e-04
   169   -2.689065697945e-04
   170   -4.529793418321e-15
   171   -6.105764001720e-06
   172    1.073319066211e-15
   173   -3.068342283786e-16
   174   -1.357887070537e-05
   175   -8.752905962478e-06
   176   -6.038750126180e-07
   177   -1.834850391346e-06
   178    3.261619517406e-06
   179    1.059385689341e-05
   180   -4.158848450512e-15
   181    2.958062875077e-05
   182   -5.459471134863e-06
   183   -4.675920175817e-05
   184   -4.052691691613e-15
   185   -5.696844294253e-04
   186    4.631744176407e-04
   187   -1.322596976489e-04
   188    8.240129242278e-17
   189   -3.262036624855e-03
   190    2.767119188244e-04
   191   -1.033953623693e-03
   192    6.161493754362e-15
   193    8.129613140582e-06
   194   -6.775271684354e-16
   195   -3.164320470688e-15
   196    2.069268006822e-05
   197   -1.863465840974e-05
   198    3.689412202998e-06
   199   -9.825661630370e-05
   200   -1.496295538992e-04
   201   -3.873225075079e-04
   202    1.302474418016e-05
   203   -7.660588575153e-06
   204    9.613172011619e-16
Sym=X
Ene= 2.000000
Spin=Alpha
Occup=1
     1    3.057281444374e-07
     2    5.762991774757e-07
     3    1.019235776566e-06
     4   -3.665080309037e-06
     5    1.362932329353e-15
     6   -5.507368046120e-06
     7   -1.010180371949e-05
     8    1.194358822449e-05
     9    3.225111334601e-15
    10    6.049304845203e-04
    11    4.520542456265e-05
    12    1.609547929896e-04
    13    8.641164945766e-17
    14   -4.944266936075e-04
    15   -6.664444315790e-04
    16    3.133063107920e-04
    17    1.726058665902e-14
    18   -1.814124001027e-06
    19   -1.510185828325e-15
    20   -1.840397946760e-15
    21   -6.467937397102e-08
    22   -6.949950167567e-06
    23   -2.711017968248e-06
    24   -3.940634352618e-05
    25   -4.215334617796e-05
    26   -2.439359226124e-04
    27   -4.243068875072e-06
    28    4.828275352702e-06
    29    9.981114670236e-16
    30    5.359411600330e-06
    31   -3.006332739448e-05
    32    9.269107787458e-05
    33    1.533597380876e-04
    34   -2.909881883916e-06
    35   -3.725060172442e-06
    36   -9.810422681044e-16
    37   -3.893570599224e-06
    38   -9.167901391774e-05
    39   -1.398757791488e-04
    40   -3.068111999334e-04
    41   -1.099891966667e-07
    42    8.596294369115e-06
    43   -7.597583982590e-15
    44   -2.980078547725e-06
    45    5.296547052200e-05
    46    3.778301500737e-05
    47   -2.644746305399e-05
    48   -3.098610005011e-14
    49   -2.078035480418e-04
    50    2.753437367611e-04
    51   -1.500645968772e-04
    52   -6.062576149664e-14
    53    2.607536819010e-04
    54    4.488093995749e-04
    55   -2.223740138327e-04
    56   -2.285709561658e-14
    57   -1.142897857615e-04
    58   -4.255520417408e-04
    59    4.335600089586e-04
    60    1.914555163878e-15
    61    3.672069919091e-05
    62   -1.102814203618e-14
    63   -4.559444799189e-15
    64   -5.997466160531e-05
    65    1.250735286379e-04
    66   -3.853261692119e-01
    67   -3.295676932590e-01
    68   -1.093595893375e-03
    69    6.698360879287e-04
    70   -5.651594712456e-15
    71   -3.860102585406e-03
    72    4.461501612583e-04
    73   -2.719371476197e-04
    74   -9.592083574226e-15
    75    9.149713334205e-04
    76   -1.058695835785e-04
    77    6.207511361659e-05
    78    1.568215617133e-15
    79   -8.175960781870e-04
    80    6.107076382663e-05
    81   -2.542797626674e-05
    82    5.189165462571e-15
    83    6.082050687102e-05
    84   -2.135980136235e-15
    85    1.028803989205e-15
    86    2.685760689715e-05
    87   -4.848745116974e-05
    88   -3.454375488985e-06
    89    5.376540690033e-05
    90   -3.845107008699e-05
    91   -3.310634766473e-05
    92   -3.200604817754e-14
    93   -2.196605729182e-04
    94   -2.588060837491e-04
    95   -1.434362114656e-04
    96   -6.122842196627e-14
    97    2.835064336178e-04
    98   -5.200908541292e-04
    99   -3.300729767561e-04
   100   -2.669478798061e-14
   101    1.044069966592e-03
   102    3.943971734550e-04
   103    1.334582977679e-04
   104   -3.640519269102e-15
   105    3.548742242843e-05
   106    9.248012431054e-15
   107   -4.018739924201e-15
   108   -5.618680967742e-05
   109   -1.330655517490e-04
   110   -3.945327272979e-01
   111   -3.374416656168e-01
   112    1.094138759685e-03
   113    6.589960348709e-04
   114   -1.177459949010e-14
   115   -3.936565384482e-03
   116   -4.422545928279e-04
   117   -2.668679545825e-04
   118   -1.346921529391e-14
   119    9.523215928271e-04
   120    9.194776278382e-05
   121    5.353871614367e-05
   122   -8.272967276874e-15
   123   -7.238193162676e-04
   124   -6.848339500998e-05
   125   -6.167030091474e-05
   126    9.742551767000e-15
   127    8.513089779238e-05
   128    1.921495224147e-15
   129    2.635746554261e-16
   130    2.624987574985e-05
   131    5.337748243982e-05
   132   -4.322322904425e-07
   133   -3.155415984136e-06
   134    6.366326467485e-08
   135    4.012035740652e-07
   136   -9.270341040353e-14
   137    4.807788099700e-05
   138    1.444193787239e-06
   139   -5.290136352392e-06
   140   -1.506538642524e-13
   141   -4.707140141919e-04
   142    1.872961532885e-05
   143    3.938291818560e-04
   144   -1.463248424752e-13
   145    6.156182351972e-05
   146    4.614020840728e-05
   147    1.600282487692e-04
   148   -7.701812321659e-15
   149    1.140599304930e-05
   150   -2.325844194851e-16
   151    6.373631222501e-15
   152   -3.134060123400e-05
   153    3.489677841167e-06
   154   -2.439432000077e-07
   155   -1.526114394363e-06
   156   -3.901311514064e-06
   157    6.557375326386e-06
   158   -7.683604620648e-16
   159    2.488074818227e-05
   160    1.199934549500e-05
   161   -1.654237205650e-05
   162   -5.315749806089e-15
   163   -2.990840790738e-04
   164   -2.122454333057e-04
   165   -6.419802967172e-05
   166    6.562780348992e-15
   167   -1.340858127384e-04
   168   -1.705486701983e-04
   169    2.489298808897e-04
   170   -9.204433788940e-15
   171    4.739300385786e-06
   172    9.869289412109e-16
   173   -2.985014500282e-15
   174    1.230445847839e-05
   175    9.125433266253e-06
   176   -8.010152748922e-07
   177   -9.748879213497e-07
   178    1.541236868595e-06
   179    1.193213509011e-05
   180   -5.271186855499e-15
   181    1.274223763529e-05
   182    3.695921954001e-06
   183   -5.751220012684e-05
   184   -9.663803759368e-15
   185   -4.949157830251e-04
   186    4.044772895606e-04
   187   -9.433083641376e-05
   188   -1.735030008440e-15
   189    8.897085804288e-04
   190   -3.692089165753e-04
   191   -6.301097356083e-04
   192   -9.084479614547e-15
   193    9.022316915564e-07
   194   -1.024211450939e-17
   195   -4.263543261946e-15
   196    2.116098515656e-05
   197   -1.463266727309e-05
   198    1.886750659693e-06
   199   -8.843346731206e-05
   200   -1.232072727536e-04
   201   -1.396111177432e-04
   202    1.402726116566e-05
   203   -8.451920506678e-06
   204   -2.194556975146e-16
Sym=X
Ene= 2.000000
Spin=Alpha
Occup=1
     1    1.656143397713e-03
     2    1.290132046460e-03
     3   -1.056638220051e-04
     4   -2.295749143917e-04
     5   -2.188435456732e-15
     6    5.369710600878e-04
     7   -2.275482207034e-04
     8   -2.787565373162e-04
     9   -1.922605191890e-15
    10   -3.105240782365e-04
    11   -7.755967632227e-05
    12   -6.788614046921e-04
    13   -3.838918385801e-15
    14   -1.144515027870e-02
    15   -2.514833572559e-03
    16   -2.701869881415e-03
    17   -8.919677512749e-15
    18    7.720269442360e-06
    19    3.439925851764e-16
    20    3.634350104503e-16
    21   -4.945219564847e-05
    22   -1.455591376062e-05
    23   -1.295651903631e-04
    24   -3.541310281289e-04
    25    6.308233723988e-05
    26    3.441303522275e-04
    27   -3.143313372084e-05
    28   -4.859693081756e-05
    29   -1.209450042766e-15
    30    2.735952696387e-04
    31    3.457179867575e-04
    32   -1.668928914639e-04
    33   -8.111335535260e-04
    34    1.063851672870e-06
    35    4.470119949600e-05
    36   -4.157055940001e-17
    37    5.069767589644e-03
    38    5.684724452394e-03
    39   -1.242250902986e-03
    40   -9.789324221093e-04
    41   -2.125396932443e-07
    42   -1.131750447838e-03
    43   -9.390269067760e-16
    44    3.870667661548e-02
    45    3.129406222032e-02
    46    7.275415695300e-04
    47    1.883395308585e-03
    48    4.270146524516e-15
    49    4.245261712471e-03
    50    1.375432238868e-03
    51    3.095884605123e-03
    52    1.412726270991e-14
    53    9.786664979094e-04
    54    8.863533714741e-04
    55    6.791443181734e-04
    56   -2.431923919519e-15
    57    4.648780273589e-04
    58    3.542329102748e-04
    59    9.007664204477e-04
    60   -9.692604892020e-15
    61   -3.161958353348e-04
    62   -3.111043243656e-15
    63    9.282946532171e-16
    64   -4.009540324400e-05
    65    1.876478622700e-04
    66   -5.377155650503e-04
    67   -8.906267681948e-04
    68    1.918508676763e-03
    69    1.700926698636e-03
    70    1.258796554808e-14
    71    2.451402846792e-03
    72    3.097607890368e-03
    73    2.617911382340e-03
    74    1.998050350227e-14
    75    1.546926690348e-03
    76    2.032765526342e-03
    77    2.431327175680e-03
    78    1.721597984717e-14
    79   -5.846488414663e-04
    80   -4.706284315263e-06
    81    1.195848973620e-04
    82    6.970871398901e-15
    83   -1.055330285962e-04
    84    1.476773510079e-15
    85   -8.660950857227e-16
    86    3.271034541402e-04
    87   -1.965690513634e-05
    88    7.226663052477e-02
    89    5.899740384813e-02
    90   -7.359440307638e-04
    91    2.334623282925e-03
    92    2.427341285955e-16
    93    4.932797731400e-03
    94   -1.239208148920e-03
    95    3.673564796402e-03
    96   -2.033715001796e-15
    97    1.725917437877e-03
    98   -9.459725868605e-04
    99    1.019690232388e-03
   100   -1.108112132693e-16
   101   -6.255047054687e-03
   102   -1.677909596878e-04
   103    2.703194277266e-03
   104   -1.987855542591e-14
   105   -3.945030014362e-04
   106    1.978669985014e-15
   107   -1.604237501590e-16
   108   -4.060541302029e-04
   109    1.609775892335e-05
   110   -5.130876214574e-04
   111   -8.454479979040e-04
   112   -3.179674900846e-03
   113    2.666711303736e-03
   114    4.197732888792e-15
   115    2.285781078384e-03
   116   -5.016559568697e-03
   117    4.102203822576e-03
   118    3.977596448880e-15
   119    8.977529292011e-04
   120   -3.543807952881e-03
   121    3.980573885249e-03
   122    5.421974918606e-15
   123   -5.230103584789e-04
   124    1.261496801467e-04
   125   -1.256888101107e-04
   126    5.174704499598e-15
   127   -1.331089261344e-04
   128   -3.133184203406e-16
   129    2.559137120710e-16
   130    4.389774718541e-04
   131    4.453077396420e-05
   132    5.473009404144e-01
   133    4.567190046633e-01
   134   -2.443175793796e-05
   135    2.800282209165e-03
   136   -4.858268843843e-15
   137    2.105341252282e-02
   138    2.862329975517e-04
   139    4.516122474033e-03
   140   -7.059853182426e-15
   141    8.160056934614e-03
   142   -1.353242967038e-04
   143    3.596172399378e-03
   144   -9.341399768108e-15
   145   -2.424577235872e-03
   146    5.568984758957e-04
   147    2.101197015659e-03
   148    1.156499105464e-14
   149   -4.981605446583e-04
   150   -9.992557286065e-16
   151    8.683182711004e-17
   152    3.209876901093e-05
   153   -5.903042046489e-05
   154    5.281223356719e-03
   155    4.544722432071e-03
   156    1.536808104255e-04
   157   -2.413970416215e-04
   158   -2.933256076428e-17
   159   -5.193908460239e-04
   160    2.116405756387e-04
   161   -2.823942102124e-04
   162    2.858263449990e-15
   163   -5.088856793257e-05
   164   -1.053257545000e-04
   165   -1.453903716377e-04
   166    3.046773479375e-15
   167    3.236888978976e-03
   168    8.092642675775e-04
   169    1.268877147592e-03
   170    8.515984051273e-15
   171    3.710273714192e-05
   172    3.702381379634e-17
   173    9.924766202744e-16
   174    5.100008348597e-06
   175   -1.318825368788e-05
   176    1.090653908287e-02
   177    9.206929951648e-03
   178   -2.122453265664e-04
   179   -2.718628106896e-05
   180   -2.491511846800e-15
   181   -7.858666947233e-04
   182   -2.599020219653e-04
   183   -7.897321855882e-05
   184   -3.160383107703e-15
   185    3.061607469702e-04
   186   -2.235018487576e-04
   187    3.585850147857e-04
   188   -7.556758993578e-15
   189    1.795546328529e-02
   190   -3.677062811589e-03
   191    1.467416204984e-03
   192    1.998105270174e-14
   193    8.594412665588e-05
   194    5.752444772140e-16
   195   -3.146056574432e-16
   196    4.176869189273e-05
   197    6.178412532281e-05
   198   -2.785988367899e-04
   199   -4.509456509764e-04
   200   -1.600154741329e-06
   201    1.209174467705e-03
   202    3.434144953299e-05
   203   -6.013570064766e-05
   204    1.345031100196e-15
Sym=X
Ene= 1.999999
Spin=Alpha
Occup=1
     1    2.949843945529e-03
     2    2.288422117522e-03
     3   -2.199804070675e-04
     4   -3.734372280754e-04
     5   -3.732290555931e-15
     6    1.064235333335e-03
     7   -4.666342266555e-04
     8   -5.106979652529e-04
     9   -8.271591879615e-15
    10   -3.387667074394e-03
    11   -3.146060065197e-04
    12   -2.388202322418e-03
    13   -8.080819719302e-15
    14   -3.010542385135e-02
    15   -5.571685452685e-03
    16   -7.718447103006e-03
    17   -8.697609110750e-15
    18    5.692965114728e-05
    19    4.881512902463e-16
    20    6.511373345693e-17
    21   -1.083638403396e-04
    22   -2.997499454930e-05
    23   -1.860346864921e-04
    24   -3.710197841347e-04
    25    6.183315291426e-04
    26    1.026344085564e-03
    27   -2.737824501184e-05
    28   -6.696677113556e-05
    29   -1.019646775844e-15
    30    4.686977724618e-04
    31    5.837696109341e-04
    32   -7.433289942069e-04
    33   -2.328370180174e-03
    34    7.051511991476e-06
    35    8.635344403978e-05
    36    7.512803560867e-17
    37    8.054767314000e-03
    38    1.018318942647e-02
    39   -2.716340950010e-03
    40   -1.922361249960e-03
    41    1.673611031348e-05
    42   -2.064219225562e-03
    43    1.864424078330e-15
    44    1.564778978907e-01
    45    1.285003294708e-01
    46    7.965703211619e-04
    47    2.909984874565e-03
    48    1.316934122883e-14
    49    6.698760056978e-03
    50    1.242113623605e-03
    51    5.135802560186e-03
    52    2.185703778923e-14
    53   -9.880011967400e-05
    54   -5.767223473348e-04
    55    1.686827502241e-03
    56    6.306310000876e-15
    57    2.105747814632e-03
    58    7.117949394046e-04
    59    1.377236526587e-03
    60    8.179939178495e-15
    61   -5.264301750053e-04
    62    5.984494692954e-15
    63    2.232201498806e-15
    64   -2.676978141654e-04
    65    1.228243147443e-04
    66   -1.070299216695e-03
    67   -1.773344297326e-03
    68    3.222733568098e-03
    69    2.850605077792e-03
    70    7.703208728171e-16
    71    4.907991563526e-03
    72    5.163820226710e-03
    73    4.353610359561e-03
    74    1.609357073067e-15
    75    2.414494018718e-03
    76    3.193736454437e-03
    77    4.337048460036e-03
    78    1.249753912990e-15
    79   -2.012536524617e-03
    80   -1.872838322297e-04
    81    4.166867124714e-04
    82   -9.754604698873e-15
    83   -1.840875268679e-04
    84    1.189460541648e-15
    85   -5.350303616765e-16
    86    5.445364813682e-04
    87   -6.157044124425e-05
    88    5.306851775822e-01
    89    4.381673442003e-01
    90   -1.069729943472e-03
    91    4.428321522204e-03
    92    1.117042067800e-14
    93    1.039439854075e-02
    94   -3.719982391129e-04
    95    6.763574473921e-03
    96    2.267103510057e-14
    97    1.127165967769e-03
    98    3.596932164314e-04
    99    3.352344600255e-03
   100    4.408821436096e-15
   101   -1.653891703572e-02
   102    4.416816614470e-04
   103    6.348547428098e-03
   104   -3.280155370850e-14
   105   -9.457614365864e-04
   106   -4.121018549366e-15
   107    2.725532499526e-15
   108   -1.068721603398e-03
   109    7.027926210593e-04
   110   -1.375020828333e-03
   111   -2.259313596006e-03
   112   -6.328922130708e-03
   113    5.195220183469e-03
   114   -1.574755567308e-15
   115    6.115148853433e-03
   116   -9.872012137295e-03
   117    7.971563972254e-03
   118    1.552820492156e-15
   119    1.449763517307e-03
   120   -6.470925369891e-03
   121    8.296751836206e-03
   122   -7.846668952212e-15
   123   -1.535180365546e-03
   124    1.705063828731e-04
   125   -3.916780318968e-04
   126    1.056744221204e-14
   127   -2.698926112086e-04
   128   -8.995562446795e-16
   129   -3.333076337185e-17
   130    8.549696338459e-04
   131    1.827276528810e-04
   132   -8.815865108860e-02
   133   -7.852315450878e-02
   134    2.080813350620e-04
   135    5.467844896736e-03
   136    4.048721134456e-14
   137    2.337870655291e-02
   138    7.026882019487e-04
   139    7.847413720893e-03
   140    6.733396760031e-14
   141    1.571212224321e-02
   142   -6.676467793954e-04
   143    5.169638561731e-03
   144    6.480983043469e-14