[Molden Format]
[Atoms] (Angs)
  C      1    6     -0.00714236     -1.70213747     -0.00000000
  H      2    1     -2.06882847     -1.44022412      0.00000000
  H      3    1     -0.12337987     -2.77567521      0.00000000
  H      4    1      0.04651892      1.98813947     -0.00000000
  C      5    6     -1.21953563      0.40211669      0.00000000
  O      6    8     -2.25921553      1.03043814      0.00000000
  C      7    6      1.28797806      0.34644937     -0.00000000
  O      8    8      2.31273661      1.00537216     -0.00000000
  N      9    7      0.03446295      0.97739857     -0.00000000
  N     10    7     -1.17287765     -0.98229824      0.00000000
  C     11    6      1.20107039     -1.10433419     -0.00000000
  H     12    1      2.11220096     -1.67699125     -0.00000000
[GTO]
1    0
S    6    1.000000
   4.56324000E+03    1.96665000E-03 
   6.82024000E+02    1.52306000E-02 
   1.54973000E+02    7.61269000E-02 
   4.44553000E+01    2.60801000E-01 
   1.30290000E+01    6.16462000E-01 
   1.82773000E+00    2.21006000E-01 
SP   3    1.000000
   2.09642000E+01    1.14660000E-01   4.02487000E-02 
   4.80331000E+00    9.19999000E-01   2.37594000E-01 
   1.45933000E+00   -3.03068000E-03   8.15854000E-01 
SP   1    1.000000
   4.83456000E-01    1.00000000E+00   1.00000000E+00 
SP   1    1.000000
   1.45585000E-01    1.00000000E+00   1.00000000E+00 
SP   1    1.000000
   4.38000000E-02    1.00000000E+00   1.00000000E+00 
D    1    1.000000
   6.26000000E-01    1.00000000E+00 

2    0
S    3    1.000000
   3.38650000E+01    2.54938000E-02 
   5.09479000E+00    1.90373000E-01 
   1.15879000E+00    8.52161000E-01 
S    1    1.000000
   3.25840000E-01    1.00000000E+00 
S    1    1.000000
   1.02741000E-01    1.00000000E+00 
S    1    1.000000
   3.60000000E-02    1.00000000E+00 
P    1    1.000000
   7.50000000E-01    1.00000000E+00 

3    0
S    3    1.000000
   3.38650000E+01    2.54938000E-02 
   5.09479000E+00    1.90373000E-01 
   1.15879000E+00    8.52161000E-01 
S    1    1.000000
   3.25840000E-01    1.00000000E+00 
S    1    1.000000
   1.02741000E-01    1.00000000E+00 
S    1    1.000000
   3.60000000E-02    1.00000000E+00 
P    1    1.000000
   7.50000000E-01    1.00000000E+00 

4    0
S    3    1.000000
   3.38650000E+01    2.54938000E-02 
   5.09479000E+00    1.90373000E-01 
   1.15879000E+00    8.52161000E-01 
S    1    1.000000
   3.25840000E-01    1.00000000E+00 
S    1    1.000000
   1.02741000E-01    1.00000000E+00 
S    1    1.000000
   3.60000000E-02    1.00000000E+00 
P    1    1.000000
   7.50000000E-01    1.00000000E+00 

5    0
S    6    1.000000
   4.56324000E+03    1.96665000E-03 
   6.82024000E+02    1.52306000E-02 
   1.54973000E+02    7.61269000E-02 
   4.44553000E+01    2.60801000E-01 
   1.30290000E+01    6.16462000E-01 
   1.82773000E+00    2.21006000E-01 
SP   3    1.000000
   2.09642000E+01    1.14660000E-01   4.02487000E-02 
   4.80331000E+00    9.19999000E-01   2.37594000E-01 
   1.45933000E+00   -3.03068000E-03   8.15854000E-01 
SP   1    1.000000
   4.83456000E-01    1.00000000E+00   1.00000000E+00 
SP   1    1.000000
   1.45585000E-01    1.00000000E+00   1.00000000E+00 
SP   1    1.000000
   4.38000000E-02    1.00000000E+00   1.00000000E+00 
D    1    1.000000
   6.26000000E-01    1.00000000E+00 

6    0
S    6    1.000000
   8.58850000E+03    1.89515000E-03 
   1.29723000E+03    1.43859000E-02 
   2.99296000E+02    7.07320000E-02 
   8.73771000E+01    2.40001000E-01 
   2.56789000E+01    5.94797000E-01 
   3.74004000E+00    2.80802000E-01 
SP   3    1.000000
   4.21175000E+01    1.13889000E-01   3.65114000E-02 
   9.62837000E+00    9.20811000E-01   2.37153000E-01 
   2.85332000E+00   -3.27447000E-03   8.19702000E-01 
SP   1    1.000000
   9.05661000E-01    1.00000000E+00   1.00000000E+00 
SP   1    1.000000
   2.55611000E-01    1.00000000E+00   1.00000000E+00 
SP   1    1.000000
   8.45000000E-02    1.00000000E+00   1.00000000E+00 
D    1    1.000000
   1.29200000E+00    1.00000000E+00 

7    0
S    6    1.000000
   4.56324000E+03    1.96665000E-03 
   6.82024000E+02    1.52306000E-02 
   1.54973000E+02    7.61269000E-02 
   4.44553000E+01    2.60801000E-01 
   1.30290000E+01    6.16462000E-01 
   1.82773000E+00    2.21006000E-01 
SP   3    1.000000
   2.09642000E+01    1.14660000E-01   4.02487000E-02 
   4.80331000E+00    9.19999000E-01   2.37594000E-01 
   1.45933000E+00   -3.03068000E-03   8.15854000E-01 
SP   1    1.000000
   4.83456000E-01    1.00000000E+00   1.00000000E+00 
SP   1    1.000000
   1.45585000E-01    1.00000000E+00   1.00000000E+00 
SP   1    1.000000
   4.38000000E-02    1.00000000E+00   1.00000000E+00 
D    1    1.000000
   6.26000000E-01    1.00000000E+00 

8    0
S    6    1.000000
   8.58850000E+03    1.89515000E-03 
   1.29723000E+03    1.43859000E-02 
   2.99296000E+02    7.07320000E-02 
   8.73771000E+01    2.40001000E-01 
   2.56789000E+01    5.94797000E-01 
   3.74004000E+00    2.80802000E-01 
SP   3    1.000000
   4.21175000E+01    1.13889000E-01   3.65114000E-02 
   9.62837000E+00    9.20811000E-01   2.37153000E-01 
   2.85332000E+00   -3.27447000E-03   8.19702000E-01 
SP   1    1.000000
   9.05661000E-01    1.00000000E+00   1.00000000E+00 
SP   1    1.000000
   2.55611000E-01    1.00000000E+00   1.00000000E+00 
SP   1    1.000000
   8.45000000E-02    1.00000000E+00   1.00000000E+00 
D    1    1.000000
   1.29200000E+00    1.00000000E+00 

9    0
S    6    1.000000
   6.29348000E+03    1.96979000E-03 
   9.49044000E+02    1.49613000E-02 
   2.18776000E+02    7.35006000E-02 
   6.36916000E+01    2.48937000E-01 
   1.88282000E+01    6.02460000E-01 
   2.72023000E+00    2.56202000E-01 
SP   3    1.000000
   3.06331000E+01    1.11906000E-01   3.83119000E-02 
   7.02614000E+00    9.21666000E-01   2.37403000E-01 
   2.11205000E+00   -2.56919000E-03   8.17592000E-01 
SP   1    1.000000
   6.84009000E-01    1.00000000E+00   1.00000000E+00 
SP   1    1.000000
   2.00878000E-01    1.00000000E+00   1.00000000E+00 
SP   1    1.000000
   6.39000000E-02    1.00000000E+00   1.00000000E+00 
D    1    1.000000
   9.13000000E-01    1.00000000E+00 

10    0
S    6    1.000000
   6.29348000E+03    1.96979000E-03 
   9.49044000E+02    1.49613000E-02 
   2.18776000E+02    7.35006000E-02 
   6.36916000E+01    2.48937000E-01 
   1.88282000E+01    6.02460000E-01 
   2.72023000E+00    2.56202000E-01 
SP   3    1.000000
   3.06331000E+01    1.11906000E-01   3.83119000E-02 
   7.02614000E+00    9.21666000E-01   2.37403000E-01 
   2.11205000E+00   -2.56919000E-03   8.17592000E-01 
SP   1    1.000000
   6.84009000E-01    1.00000000E+00   1.00000000E+00 
SP   1    1.000000
   2.00878000E-01    1.00000000E+00   1.00000000E+00 
SP   1    1.000000
   6.39000000E-02    1.00000000E+00   1.00000000E+00 
D    1    1.000000
   9.13000000E-01    1.00000000E+00 

11    0
S    6    1.000000
   4.56324000E+03    1.96665000E-03 
   6.82024000E+02    1.52306000E-02 
   1.54973000E+02    7.61269000E-02 
   4.44553000E+01    2.60801000E-01 
   1.30290000E+01    6.16462000E-01 
   1.82773000E+00    2.21006000E-01 
SP   3    1.000000
   2.09642000E+01    1.14660000E-01   4.02487000E-02 
   4.80331000E+00    9.19999000E-01   2.37594000E-01 
   1.45933000E+00   -3.03068000E-03   8.15854000E-01 
SP   1    1.000000
   4.83456000E-01    1.00000000E+00   1.00000000E+00 
SP   1    1.000000
   1.45585000E-01    1.00000000E+00   1.00000000E+00 
SP   1    1.000000
   4.38000000E-02    1.00000000E+00   1.00000000E+00 
D    1    1.000000
   6.26000000E-01    1.00000000E+00 

12    0
S    3    1.000000
   3.38650000E+01    2.54938000E-02 
   5.09479000E+00    1.90373000E-01 
   1.15879000E+00    8.52161000E-01 
S    1    1.000000
   3.25840000E-01    1.00000000E+00 
S    1    1.000000
   1.02741000E-01    1.00000000E+00 
S    1    1.000000
   3.60000000E-02    1.00000000E+00 
P    1    1.000000
   7.50000000E-01    1.00000000E+00 

[MO]
Sym=X
Ene= 2.000000
Spin=Alpha
Occup=1
     1   -1.106330713262e-01
     2   -9.166879988359e-02
     3    3.923171111844e-04
     4    2.433418511071e-05
     5   -1.009390201220e-14
     6   -5.685475007369e-04
     7   -3.396238879443e-04
     8    3.763883856893e-05
     9   -1.298469027152e-14
    10   -1.817625227626e-04
    11    2.669282912669e-04
    12    1.390155961686e-04
    13   -1.262456334026e-14
    14   -1.412029723270e-03
    15   -5.688470487321e-05
    16   -5.845913488346e-04
    17    7.478839904735e-15
    18    1.787286695004e-04
    19   -6.434931825684e-16
    20   -2.135743837662e-15
    21   -6.685180222791e-06
    22   -1.246415802864e-04
    23    3.131680790901e-05
    24    2.544062689785e-05
    25    7.939917852366e-05
    26    9.388951331271e-05
    27    2.594391225534e-05
    28    2.093728215593e-05
    29   -1.239298032775e-15
    30   -8.426778778452e-05
    31    1.465954274123e-04
    32   -1.371603259799e-04
    33   -2.107225529145e-04
    34    4.058337502903e-06
    35    2.256115214078e-05
    36   -1.699935608076e-15
    37   -1.018294598066e-05
    38    4.643307200878e-05
    39   -1.399140463710e-04
    40    2.221187922713e-05
    41   -1.283404303284e-05
    42   -3.595442273084e-05
    43    1.963671431768e-16
    44    3.474207357241e-01
    45    2.876676915181e-01
    46    3.956183582597e-04
    47   -2.959163652258e-04
    48   -4.424588281243e-15
    49    2.222540331707e-03
    50   -4.813449016315e-04
    51    3.116518386435e-04
    52   -3.892926376762e-15
    53    1.618924296130e-04
    54    7.217989717994e-05
    55   -1.305060655319e-05
    56   -7.405891677373e-16
    57   -1.105416257288e-03
    58   -6.658404806604e-04
    59    2.586446742516e-04
    60   -1.569447066591e-15
    61   -2.539375625122e-04
    62   -2.213910014875e-16
    63    2.612314716194e-15
    64    1.110740106016e-04
    65   -2.119153565168e-04
    66   -4.329904346415e-02
    67   -3.710340588643e-02
    68    3.138528636690e-05
    69   -1.679906300292e-05
    70    1.507138039898e-15
    71   -1.046619071949e-04
    72    2.624622024032e-04
    73   -1.572816554008e-04
    74    7.020666571748e-15
    75   -4.346778254662e-04
    76   -3.108849814516e-04
    77    1.841585783684e-04
    78    9.755273355782e-16
    79    4.414184415170e-04
    80    4.205022057013e-04
    81   -2.373542575483e-04
    82    3.583118365427e-15
    83   -2.039259443020e-05
    84    2.244209085017e-16
    85   -5.298518100309e-16
    86    4.704638537845e-05
    87   -8.995564288055e-05
    88   -1.560433235778e-01
    89   -1.292734825142e-01
    90    2.217613200632e-04
    91   -2.492683508460e-04
    92   -2.917935034218e-15
    93   -7.098117973861e-04
    94   -2.257144615335e-04
    95   -1.535128667869e-04
    96   -3.345132724912e-15
    97   -9.707438563794e-05
    98   -3.122163704165e-05
    99   -4.152281727432e-04
   100   -3.039641613727e-15
   101   -3.646552416703e-04
   102   -2.618103669822e-04
   103   -4.558687397315e-05
   104    1.006416266146e-14
   105    1.236618058934e-04
   106   -1.010710255151e-15
   107    5.293754522407e-16
   108   -8.691611422077e-05
   109   -7.466178952562e-05
   110    7.793348593769e-02
   111    6.668906777670e-02
   112   -1.473700486862e-04
   113   -7.023920548296e-05
   114   -9.288032937007e-16
   115    6.114408814231e-04
   116    1.720525205778e-04
   117    1.061993804302e-04
   118    1.605711174417e-15
   119    2.108819632438e-04
   120   -2.014312453579e-04
   121   -5.946463335733e-05
   122    1.697393479478e-15
   123    4.258654612752e-05
   124    1.459965042849e-04
   125    6.994720465302e-05
   126   -3.447053741192e-15
   127   -8.064888429792e-06
   128   -5.566218584852e-16
   129   -7.032578004064e-17
   130   -2.565731477247e-05
   131   -4.329944827945e-05
   132   -3.822888147337e-02
   133   -3.213080144753e-02
   134   -9.392227410489e-05
   135   -2.182203507116e-06
   136   -8.523228964044e-17
   137   -2.319818663674e-04
   138   -4.415149823435e-04
   139   -9.884558784447e-05
   140    1.136292434462e-15
   141   -3.052242239941e-05
   142    2.901852676618e-04
   143    6.657130629627e-05
   144   -7.145287884258e-16
   145    1.658858261932e-04
   146    2.335897009862e-04
   147    1.547477598477e-04
   148    1.576939673697e-16
   149   -6.788403675312e-06
   150    5.928457322628e-16
   151    8.957070838005e-16
   152    5.314647717423e-05
   153    1.230956731120e-04
   154    5.287397627830e-02
   155    4.436272295383e-02
   156   -9.369768223251e-06
   157    9.097796168964e-05
   158   -1.670588210146e-14
   159    7.017063317883e-04
   160   -1.294841288570e-04
   161    4.265762472801e-04
   162   -2.448091247304e-14
   163   -2.739567042985e-04
   164    3.491093892527e-05
   165   -1.820020501980e-04
   166   -2.386356579040e-14
   167    9.697766126007e-04
   168    4.621879550033e-04
   169   -3.102069682039e-05
   170   -5.899211030587e-15
   171   -1.274198581096e-05
   172   -1.658043802864e-15
   173    3.671459189948e-17
   174   -1.541444281251e-04
   175    3.482154614545e-05
   176    3.841325949996e-01
   177    3.181747801045e-01
   178   -5.599582986430e-05
   179    1.412077366402e-04
   180   -6.073601135403e-15
   181    3.187886074239e-03
   182   -2.322150453323e-04
   183   -3.091335064741e-04
   184   -1.076423113207e-14
   185   -1.034596543445e-03
   186    1.907954366026e-04
   187   -1.691710889459e-04
   188   -5.839428062478e-15
   189    1.549215491249e-03
   190   -8.630485589670e-04
   191    6.969032149666e-04
   192   -1.059894636251e-14
   193   -2.906515715860e-04
   194    4.647437278242e-16
   195    3.599653696071e-17
   196    1.764725647574e-04
   197    8.407864895300e-05
   198    2.785264307157e-04
   199   -2.389546107440e-04
   200    4.239940717835e-04
   201    6.065373990235e-04
   202    3.961731197175e-05
   203   -3.584573497603e-05
   204   -2.676720511405e-16
Sym=X
Ene= 2.000000
Spin=Alpha
Occup=1
     1   -8.215868365382e-02
     2   -6.806009135018e-02
     3    7.269082019796e-05
     4   -1.600707107550e-05
     5    4.926687449961e-15
     6   -4.965962556003e-04
     7   -2.781009672570e-04
     8    9.535262620998e-05
     9    6.915642057322e-15
    10    3.452128106584e-04
    11   -6.937654959701e-05
    12    3.780986847412e-04
    13    1.255788703099e-15
    14   -4.397290328655e-04
    15   -3.031834515298e-04
    16   -4.790882042934e-04
    17    1.345752392268e-15
    18    6.032754334369e-05
    19   -9.524627220555e-16
    20    1.160895362413e-15
    21    1.578002909446e-05
    22   -1.259157770099e-04
    23    1.693569878373e-04
    24   -2.488781436392e-04
    25    5.268269034221e-04
    26    5.385197730168e-05
    27   -6.968625026990e-05
    28   -4.093393517591e-05
    29    8.491659920353e-16
    30   -6.648614901212e-05
    31    1.332362515788e-04
    32   -1.947420403805e-05
    33   -3.023499272858e-04
    34    2.448920038223e-06
    35    2.124515128729e-05
    36    3.633846205248e-16
    37   -1.445771564172e-04
    38    2.415368910919e-05
    39   -5.508425877883e-04
    40   -2.991959557389e-04
    41    1.138103993221e-06
    42    1.413792121888e-05
    43    2.023501331599e-16
    44   -1.487028299221e-01
    45   -1.231040789832e-01
    46   -1.920525194602e-04
    47    1.214507379906e-05
    48    1.822319440984e-14
    49   -1.021069806704e-03
    50    2.271161623677e-04
    51   -3.600738616344e-04
    52    2.981606186471e-14
    53    4.030330060365e-04
    54    3.962853351989e-04
    55   -5.200010149794e-04
    56    1.742824840274e-14
    57    1.766004764612e-04
    58   -3.925783350421e-05
    59   -1.799054554238e-04
    60    6.331022770894e-15
    61    1.263342155744e-04
    62   -1.709886660879e-15
    63    1.215109886769e-16
    64   -1.894630075015e-04
    65    8.515835234093e-05
    66   -1.520330881893e-01
    67   -1.300008340729e-01
    68   -4.906101116854e-04
    69    3.155445957204e-04
    70    1.761645497043e-14
    71   -1.683907306197e-03
    72    6.659295962490e-05
    73   -5.649966346763e-05
    74    2.451882230300e-14
    75    6.916051631491e-04
    76    1.532669417091e-04
    77   -1.237033502970e-05
    78    2.408563475503e-14
    79   -3.065955177907e-04
    80   -9.752149767663e-05
    81    7.753243251308e-05
    82   -4.397121201031e-15
    83    3.541190641629e-05
    84    1.816902382133e-15
    85   -1.161511243993e-15
    86   -1.618810428429e-05
    87    1.563146099333e-05
    88   -1.567494099033e-01
    89   -1.297702665502e-01
    90    2.505523645408e-04
    91   -1.412585493660e-04
    92   -4.103444687680e-16
    93   -1.194028252113e-03
    94   -1.634955672990e-04
    95    7.839152030354e-05
    96   -3.943777805870e-15
    97    9.441112146737e-04
    98    1.823936042609e-04
    99   -1.731430590718e-04
   100   -2.377265858673e-15
   101    4.308449791298e-03
   102   -7.088105863614e-04
   103   -9.459082863566e-04
   104   -3.010721569362e-15
   105    9.457858713728e-05
   106   -1.080021931266e-16
   107   -4.319476993803e-17
   108   -8.248018215850e-06
   109   -9.975841271772e-05
   110    2.548322389985e-02
   111    2.182593039757e-02
   112   -8.137060756283e-06
   113    3.910243669372e-06
   114   -1.738921032282e-15
   115    1.205027145986e-04
   116    1.376904579722e-04
   117    8.582426045834e-05
   118   -4.746119993384e-15
   119   -3.795807241767e-05
   120   -7.264701651524e-05
   121   -9.653066146212e-07
   122   -2.254120019325e-15
   123   -3.037714369426e-04
   124    1.534754743815e-04
   125    1.831772893146e-04
   126    2.093803037690e-15
   127    9.460397841190e-06
   128   -1.083952464203e-16
   129    6.303531513842e-17
   130   -2.153745328369e-05
   131   -4.896865686084e-05
   132   -2.765064145269e-01
   133   -2.321268318624e-01
   134    9.280747788706e-05
   135    1.135381509329e-04
   136    8.739168563794e-15
   137   -2.983387412519e-03
   138   -7.960486612811e-05
   139    8.902443034804e-05
   140    1.357771611245e-14
   141    5.549406784513e-04
   142   -3.103174027264e-05
   143    1.606974300190e-04
   144    1.181748818014e-14
   145   -1.817382057850e-03
   146   -2.222642886996e-04
   147    1.284065021953e-03
   148   -3.368533632247e-15
   149    2.968517131370e-05
   150   -1.100471956934e-15
   151   -1.343037755870e-15
   152   -9.027994328035e-05
   153    2.164250851488e-05
   154    3.928713556230e-01
   155    3.299234632504e-01
   156    1.088559694174e-04
   157   -1.389936316040e-05
   158    1.783417321139e-14
   159    3.788709860265e-03
   160   -1.510594708818e-04
   161   -1.008766731521e-04
   162    3.102354415278e-14
   163   -1.313530725308e-03
   164   -3.519304889697e-04
   165   -2.556401246042e-04
   166    2.780536326949e-14
   167    7.736083674181e-04
   168    7.037065328704e-04
   169    5.689259654748e-04
   170   -3.809937340416e-16
   171    1.819410545937e-05
   172    1.616130765795e-16
   173    1.389896988237e-15
   174    7.376244970625e-05
   175    6.504108524598e-05
   176   -5.935984173130e-02
   177   -4.914388236134e-02
   178    4.869397909325e-05
   179   -4.831178600458e-05
   180   -3.488632211865e-16
   181   -5.949166836188e-04
   182   -6.555304489613e-06
   183   -5.218916754466e-05
   184   -1.726390321567e-15
   185   -1.069305412397e-04
   186    3.445317282914e-05
   187   -2.297582770384e-04
   188   -1.772860206614e-15
   189   -2.464269697270e-03
   190    3.620129640330e-04
   191   -8.095493445149e-04
   192   -4.869774076315e-16
   193    6.515106826838e-06
   194   -1.781956687765e-16
   195    6.048166432509e-16
   196    2.079113362708e-05
   197   -2.981232644283e-05
   198   -4.537942405635e-05
   199   -8.172051980578e-06
   200   -1.259954160649e-04
   201   -1.954757799390e-04
   202    1.328936658991e-05
   203   -7.873297042376e-07
   204    1.665485896797e-16
Sym=X
Ene= 2.000000
Spin=Alpha
Occup=1
     1   -2.484517077058e-01
     2   -2.057205824520e-01
     3    4.144845683150e-04
     4   -1.864249718115e-04
     5   -4.458563117033e-15
     6   -2.053686827134e-03
     7   -4.837919572024e-04
     8   -3.891811160765e-05
     9   -7.413105795044e-15
    10    8.396202564455e-04
    11    3.130300527914e-04
    12    3.284069741514e-05
    13   -4.954814876709e-15
    14    8.603312470976e-03
    15    2.853866886491e-04
    16    1.958518079209e-03
    17   -2.384145204502e-15
    18    1.531369192000e-04
    19    1.057479301294e-15
    20   -9.868296002951e-16
    21   -4.821868883860e-05
    22   -2.246689060786e-04
    23   -6.367150066156e-05
    24   -3.546610850860e-05
    25   -2.154711235021e-04
    26   -5.083438931983e-04
    27   -3.171064430301e-05
    28    1.407432218865e-05
    29   -8.729358376515e-16
    30   -1.654120953087e-04
    31   -7.222610090281e-06
    32   -9.865987219198e-05
    33    3.657942651549e-04
    34   -3.380483845901e-05
    35   -1.562977900982e-05
    36   -2.784889806567e-16
    37    4.514290799757e-05
    38   -1.706992549295e-04
    39    1.093298829241e-04
    40    4.417630603650e-05
    41   -9.030098321254e-06
    42    6.787265051311e-05
    43   -5.500416859220e-16
    44    5.306848431360e-02
    45    4.394750849952e-02
    46    9.721981586965e-05
    47   -1.750007553866e-05
    48   -7.790033288843e-15
    49    2.968489106144e-04
    50   -3.817358809247e-05
    51    1.219424300382e-04
    52   -1.277811796207e-14
    53    1.056205245978e-03
    54    5.854365737827e-04
    55   -1.981994870059e-04
    56   -6.205608787384e-15
    57   -1.769396563713e-03
    58   -5.212982931692e-04
    59    6.554141414518e-05
    60   -3.239290108839e-15
    61   -4.965570833400e-05
    62    6.570245315842e-17
    63    3.638879178191e-16
    64    4.563358894820e-05
    65   -7.225152859549e-06
    66   -1.452010510226e-02
    67   -1.242782575918e-02
    68   -2.013140181827e-05
    69    6.326759327905e-06
    70   -6.936592613741e-15
    71   -1.105226276465e-04
    72    3.813507082521e-05
    73   -1.917634696770e-05
    74   -1.059517346037e-14
    75    1.625371219364e-05
    76   -6.657311030634e-05
    77   -7.974129095605e-06
    78   -8.989637474820e-15
    79    1.973890299959e-04
    80    1.008302794542e-04
    81   -1.612988828967e-06
    82    1.128792778605e-15
    83   -1.804239549225e-06
    84   -7.662698674979e-16
    85    7.270345823518e-16
    86    5.623468535630e-06
    87   -1.143613459452e-05
    88   -3.941686759530e-01
    89   -3.263456446143e-01
    90    4.895446468712e-04
    91   -2.643981643219e-04
    92   -1.909041429999e-15
    93   -2.776999962656e-03
    94   -7.110013531836e-04
    95    2.222950715183e-04
    96   -1.100191005820e-15
    97    3.547091163734e-04
    98   -2.228044492513e-04
    99   -6.617275145666e-04
   100   -2.991969032516e-15
   101    8.899459448629e-03
   102   -1.353759608009e-03
   103   -1.925059123588e-03
   104    1.852479944475e-15
   105    3.001034833097e-04
   106    1.480185339645e-16
   107    1.662238091101e-16
   108    9.308041974858e-05
   109   -3.737178107587e-04
   110   -9.963792064687e-02
   111   -8.513640048788e-02
   112    4.503727864368e-04
   113    2.700008905173e-04
   114   -8.151738127519e-16
   115   -1.403666295816e-03
   116    1.459862802408e-04
   117    1.236825956505e-04
   118   -7.941815559816e-17
   119    8.634765805752e-04
   120   -2.892937733064e-04
   121   -1.779456697256e-04
   122   -2.130883354912e-17
   123   -6.234771264782e-04
   124    2.985693341658e-04
   125    3.891542101890e-04
   126    1.503953244821e-16
   127    5.151109234505e-05
   128    4.547007317491e-16
   129   -1.309220728969e-17
   130   -2.756849368469e-05
   131   -9.762193406539e-05
   132    1.384348310984e-01
   133    1.162998494353e-01
   134   -9.900837322456e-05
   135   -1.145240111069e-05
   136   -4.278230766365e-15
   137    1.136229653529e-03
   138   -4.703625900730e-04
   139    2.079057822891e-04
   140   -6.773111606478e-15
   141   -6.400463040903e-04
   142    4.500358467450e-04
   143    3.917050634781e-04
   144   -5.895915146706e-15
   145   -3.782405533187e-04
   146   -1.758664257340e-04
   147    3.660274189982e-05
   148    1.481383402067e-15
   149    4.492687169774e-05
   150    3.684137180912e-16
   151    3.966354246815e-16
   152   -1.310363404724e-04
   153    1.421926686268e-04
   154   -1.208342027003e-01
   155   -1.014220125194e-01
   156   -8.190079681413e-05
   157    4.014325186413e-05
   158   -1.005788847597e-14
   159   -1.404754081680e-03
   160   -2.495494394577e-04
   161    2.051268125854e-04
   162   -1.405197469205e-14
   163    1.661372680242e-04
   164   -3.334355931695e-05
   165   -3.085139080940e-04
   166   -1.416776894555e-14
   167   -1.779598404542e-03
   168   -7.965608674369e-04
   169    9.134996916971e-05
   170    1.545940048998e-15
   171    2.318366798097e-05
   172   -1.976430169864e-16
   173   -7.269670659454e-16
   174   -7.706865044687e-05
   175    9.570366605375e-05
   176   -2.288660490973e-01
   177   -1.895050783511e-01
   178    1.623723988532e-04
   179   -1.521659543341e-04
   180   -3.120086765383e-15
   181   -2.188799349202e-03
   182   -4.829373957077e-05
   183   -9.294357795519e-05
   184   -3.202979441679e-15
   185    1.431437399479e-04
   186    2.580889824057e-04
   187   -7.622466349922e-06
   188   -3.612933918248e-15
   189   -1.294263475586e-02
   190    3.202094353724e-03
   191   -2.244337570034e-03
   192    5.865370768165e-16
   193    6.662221557542e-05
   194    1.109035757661e-15
   195    2.749525117850e-17
   196    7.661032052909e-06
   197   -5.245209130747e-05
   198   -1.692217061405e-04
   199    8.434249682628e-05
   200   -4.993327089883e-04
   201   -1.166908363822e-03
   202    7.029959478619e-06
   203    7.768783285898e-06
   204   -6.592007298958e-16
Sym=X
Ene= 2.000000
Spin=Alpha
Occup=1
     1   -8.394972319629e-02
     2   -6.951150821183e-02
     3    2.061809248973e-04
     4   -5.731912902804e-05
     5    1.398108466819e-14
     6   -6.803931956664e-04
     7   -1.420418540694e-04
     8   -4.910948182458e-05
     9    2.551773998812e-14
    10   -3.076709701545e-04
    11   -7.431383041220e-05
    12   -4.747147372553e-04
    13    1.504696344092e-14
    14   -8.355891263269e-04
    15   -2.097266968886e-04
    16   -7.027070716783e-04
    17    1.176032217118e-14
    18    7.144281627494e-05
    19   -1.353257318010e-15
    20    2.707909861008e-15
    21   -3.644852194125e-05
    22   -2.948636432188e-05
    23   -1.003032921855e-04
    24    5.990321247041e-05
    25   -3.588378453283e-04
    26   -2.838104151737e-04
    27   -1.043267672845e-05
    28    1.060367869598e-05
    29    2.120185820550e-15
    30   -5.267225794448e-05
    31   -9.336289680644e-05
    32   -2.177583185984e-04
    33   -2.933258933234e-04
    34    1.519219876873e-06
    35   -2.227673822109e-05
    36    1.111062790730e-15
    37    1.223137059827e-05
    38    8.922602719125e-07
    39    1.607508954088e-04
    40   -9.644135147018e-05
    41   -7.816657401749e-06
    42    1.167060552417e-05
    43   -2.615573501191e-16
    44   -1.145258086947e-01
    45   -9.475628525730e-02
    46   -7.698356461311e-05
    47    9.991507681690e-05
    48    1.101792382905e-15
    49   -1.028143792218e-03
    50    3.952133671789e-04
    51   -1.851414082884e-04
    52   -7.913866544538e-16
    53   -2.631306561999e-04
    54    3.211310314021e-05
    55   -7.698125274512e-05
    56    3.090256372723e-15
    57    3.439642484849e-04
    58   -1.713564331255e-04
    59    1.038564220617e-05
    60    1.818564291907e-15
    61    1.260628825276e-04
    62    1.337245216291e-15
    63   -5.098701075756e-15
    64   -6.821534569673e-05
    65    2.186527147079e-04
    66   -3.864403759751e-01
    67   -3.304971973782e-01
    68   -1.147580023277e-03
    69    6.973872973965e-04
    70   -1.046500800536e-14
    71   -3.981399117560e-03
    72    3.717176624551e-04
    73   -2.237141550384e-04
    74   -1.318738724312e-14
    75    1.030739127047e-03
    76   -1.726967314021e-05
    77    7.479970997623e-06
    78   -1.624793081123e-14
    79   -1.455130502861e-03
    80   -2.881890004466e-04
    81    1.421112230538e-04
    82   -1.441206373089e-15
    83    7.181701529653e-05
    84   -4.353370685509e-16
    85    2.483739115566e-16
    86    1.539114458829e-05
    87   -1.766388259797e-05
    88    3.523406536307e-02
    89    2.912473108924e-02
    90   -2.340633342111e-05
    91    5.086584750591e-05
    92    7.227782805526e-18
    93    4.500315588895e-04
    94    2.472804013752e-04
    95    1.149804443051e-04
    96   -1.126014895624e-16
    97   -3.335756207494e-04
    98    3.340478938231e-04
    99    5.554715816879e-04
   100    2.885649431395e-15
   101   -3.659561417559e-03
   102   -1.682281555069e-04
   103    1.108773700271e-03
   104    1.596280648161e-14
   105   -5.196123593261e-05
   106   -8.921876341255e-16
   107   -1.778418137271e-15
   108    4.078537594896e-05
   109    1.257326140580e-04
   110    3.098644773705e-01
   111    2.650168116081e-01
   112   -8.740478973875e-04
   113   -5.272299034451e-04
   114   -5.825957433800e-15
   115    3.141314856313e-03
   116    3.239415409515e-04
   117    1.939264090887e-04
   118   -6.618529320572e-15
   119   -8.823949170470e-04
   120   -1.598093123120e-05
   121   -3.844622200510e-05
   122   -8.037856385210e-15
   123    9.257375250168e-04
   124   -1.115577066832e-04
   125   -7.698026202898e-05
   126   -5.792605604107e-15
   127   -7.026996204879e-05
   128    4.200073329637e-16
   129    2.497256363195e-16
   130   -1.970315734602e-05
   131   -3.190997797820e-05
   132    3.229201078689e-02
   133    2.712843794297e-02
   134   -2.833539693302e-07
   135   -2.840849823316e-06
   136   -6.219782093608e-15
   137    2.530578613117e-04
   138    1.968607596794e-04
   139    4.290175599520e-05
   140   -1.196316710333e-14
   141    4.971839404792e-05
   142   -1.910813813522e-04
   143   -1.236856225346e-04
   144   -8.997962767186e-15