[Molden Format]
[Atoms] (Angs)
  C      1    6     -0.00714236     -1.70213747     -0.00000000
  H      2    1     -2.06882847     -1.44022412      0.00000000
  H      3    1     -0.12337987     -2.77567521      0.00000000
  H      4    1      0.04651892      1.98813947     -0.00000000
  C      5    6     -1.21953563      0.40211669      0.00000000
  O      6    8     -2.25921553      1.03043814      0.00000000
  C      7    6      1.28797806      0.34644937     -0.00000000
  O      8    8      2.31273661      1.00537216     -0.00000000
  N      9    7      0.03446295      0.97739857     -0.00000000
  N     10    7     -1.17287765     -0.98229824      0.00000000
  C     11    6      1.20107039     -1.10433419     -0.00000000
  H     12    1      2.11220096     -1.67699125     -0.00000000
[GTO]
1    0
S    6    1.000000
   4.56324000E+03    1.96665000E-03 
   6.82024000E+02    1.52306000E-02 
   1.54973000E+02    7.61269000E-02 
   4.44553000E+01    2.60801000E-01 
   1.30290000E+01    6.16462000E-01 
   1.82773000E+00    2.21006000E-01 
SP   3    1.000000
   2.09642000E+01    1.14660000E-01   4.02487000E-02 
   4.80331000E+00    9.19999000E-01   2.37594000E-01 
   1.45933000E+00   -3.03068000E-03   8.15854000E-01 
SP   1    1.000000
   4.83456000E-01    1.00000000E+00   1.00000000E+00 
SP   1    1.000000
   1.45585000E-01    1.00000000E+00   1.00000000E+00 
SP   1    1.000000
   4.38000000E-02    1.00000000E+00   1.00000000E+00 
D    1    1.000000
   6.26000000E-01    1.00000000E+00 

2    0
S    3    1.000000
   3.38650000E+01    2.54938000E-02 
   5.09479000E+00    1.90373000E-01 
   1.15879000E+00    8.52161000E-01 
S    1    1.000000
   3.25840000E-01    1.00000000E+00 
S    1    1.000000
   1.02741000E-01    1.00000000E+00 
S    1    1.000000
   3.60000000E-02    1.00000000E+00 
P    1    1.000000
   7.50000000E-01    1.00000000E+00 

3    0
S    3    1.000000
   3.38650000E+01    2.54938000E-02 
   5.09479000E+00    1.90373000E-01 
   1.15879000E+00    8.52161000E-01 
S    1    1.000000
   3.25840000E-01    1.00000000E+00 
S    1    1.000000
   1.02741000E-01    1.00000000E+00 
S    1    1.000000
   3.60000000E-02    1.00000000E+00 
P    1    1.000000
   7.50000000E-01    1.00000000E+00 

4    0
S    3    1.000000
   3.38650000E+01    2.54938000E-02 
   5.09479000E+00    1.90373000E-01 
   1.15879000E+00    8.52161000E-01 
S    1    1.000000
   3.25840000E-01    1.00000000E+00 
S    1    1.000000
   1.02741000E-01    1.00000000E+00 
S    1    1.000000
   3.60000000E-02    1.00000000E+00 
P    1    1.000000
   7.50000000E-01    1.00000000E+00 

5    0
S    6    1.000000
   4.56324000E+03    1.96665000E-03 
   6.82024000E+02    1.52306000E-02 
   1.54973000E+02    7.61269000E-02 
   4.44553000E+01    2.60801000E-01 
   1.30290000E+01    6.16462000E-01 
   1.82773000E+00    2.21006000E-01 
SP   3    1.000000
   2.09642000E+01    1.14660000E-01   4.02487000E-02 
   4.80331000E+00    9.19999000E-01   2.37594000E-01 
   1.45933000E+00   -3.03068000E-03   8.15854000E-01 
SP   1    1.000000
   4.83456000E-01    1.00000000E+00   1.00000000E+00 
SP   1    1.000000
   1.45585000E-01    1.00000000E+00   1.00000000E+00 
SP   1    1.000000
   4.38000000E-02    1.00000000E+00   1.00000000E+00 
D    1    1.000000
   6.26000000E-01    1.00000000E+00 

6    0
S    6    1.000000
   8.58850000E+03    1.89515000E-03 
   1.29723000E+03    1.43859000E-02 
   2.99296000E+02    7.07320000E-02 
   8.73771000E+01    2.40001000E-01 
   2.56789000E+01    5.94797000E-01 
   3.74004000E+00    2.80802000E-01 
SP   3    1.000000
   4.21175000E+01    1.13889000E-01   3.65114000E-02 
   9.62837000E+00    9.20811000E-01   2.37153000E-01 
   2.85332000E+00   -3.27447000E-03   8.19702000E-01 
SP   1    1.000000
   9.05661000E-01    1.00000000E+00   1.00000000E+00 
SP   1    1.000000
   2.55611000E-01    1.00000000E+00   1.00000000E+00 
SP   1    1.000000
   8.45000000E-02    1.00000000E+00   1.00000000E+00 
D    1    1.000000
   1.29200000E+00    1.00000000E+00 

7    0
S    6    1.000000
   4.56324000E+03    1.96665000E-03 
   6.82024000E+02    1.52306000E-02 
   1.54973000E+02    7.61269000E-02 
   4.44553000E+01    2.60801000E-01 
   1.30290000E+01    6.16462000E-01 
   1.82773000E+00    2.21006000E-01 
SP   3    1.000000
   2.09642000E+01    1.14660000E-01   4.02487000E-02 
   4.80331000E+00    9.19999000E-01   2.37594000E-01 
   1.45933000E+00   -3.03068000E-03   8.15854000E-01 
SP   1    1.000000
   4.83456000E-01    1.00000000E+00   1.00000000E+00 
SP   1    1.000000
   1.45585000E-01    1.00000000E+00   1.00000000E+00 
SP   1    1.000000
   4.38000000E-02    1.00000000E+00   1.00000000E+00 
D    1    1.000000
   6.26000000E-01    1.00000000E+00 

8    0
S    6    1.000000
   8.58850000E+03    1.89515000E-03 
   1.29723000E+03    1.43859000E-02 
   2.99296000E+02    7.07320000E-02 
   8.73771000E+01    2.40001000E-01 
   2.56789000E+01    5.94797000E-01 
   3.74004000E+00    2.80802000E-01 
SP   3    1.000000
   4.21175000E+01    1.13889000E-01   3.65114000E-02 
   9.62837000E+00    9.20811000E-01   2.37153000E-01 
   2.85332000E+00   -3.27447000E-03   8.19702000E-01 
SP   1    1.000000
   9.05661000E-01    1.00000000E+00   1.00000000E+00 
SP   1    1.000000
   2.55611000E-01    1.00000000E+00   1.00000000E+00 
SP   1    1.000000
   8.45000000E-02    1.00000000E+00   1.00000000E+00 
D    1    1.000000
   1.29200000E+00    1.00000000E+00 

9    0
S    6    1.000000
   6.29348000E+03    1.96979000E-03 
   9.49044000E+02    1.49613000E-02 
   2.18776000E+02    7.35006000E-02 
   6.36916000E+01    2.48937000E-01 
   1.88282000E+01    6.02460000E-01 
   2.72023000E+00    2.56202000E-01 
SP   3    1.000000
   3.06331000E+01    1.11906000E-01   3.83119000E-02 
   7.02614000E+00    9.21666000E-01   2.37403000E-01 
   2.11205000E+00   -2.56919000E-03   8.17592000E-01 
SP   1    1.000000
   6.84009000E-01    1.00000000E+00   1.00000000E+00 
SP   1    1.000000
   2.00878000E-01    1.00000000E+00   1.00000000E+00 
SP   1    1.000000
   6.39000000E-02    1.00000000E+00   1.00000000E+00 
D    1    1.000000
   9.13000000E-01    1.00000000E+00 

10    0
S    6    1.000000
   6.29348000E+03    1.96979000E-03 
   9.49044000E+02    1.49613000E-02 
   2.18776000E+02    7.35006000E-02 
   6.36916000E+01    2.48937000E-01 
   1.88282000E+01    6.02460000E-01 
   2.72023000E+00    2.56202000E-01 
SP   3    1.000000
   3.06331000E+01    1.11906000E-01   3.83119000E-02 
   7.02614000E+00    9.21666000E-01   2.37403000E-01 
   2.11205000E+00   -2.56919000E-03   8.17592000E-01 
SP   1    1.000000
   6.84009000E-01    1.00000000E+00   1.00000000E+00 
SP   1    1.000000
   2.00878000E-01    1.00000000E+00   1.00000000E+00 
SP   1    1.000000
   6.39000000E-02    1.00000000E+00   1.00000000E+00 
D    1    1.000000
   9.13000000E-01    1.00000000E+00 

11    0
S    6    1.000000
   4.56324000E+03    1.96665000E-03 
   6.82024000E+02    1.52306000E-02 
   1.54973000E+02    7.61269000E-02 
   4.44553000E+01    2.60801000E-01 
   1.30290000E+01    6.16462000E-01 
   1.82773000E+00    2.21006000E-01 
SP   3    1.000000
   2.09642000E+01    1.14660000E-01   4.02487000E-02 
   4.80331000E+00    9.19999000E-01   2.37594000E-01 
   1.45933000E+00   -3.03068000E-03   8.15854000E-01 
SP   1    1.000000
   4.83456000E-01    1.00000000E+00   1.00000000E+00 
SP   1    1.000000
   1.45585000E-01    1.00000000E+00   1.00000000E+00 
SP   1    1.000000
   4.38000000E-02    1.00000000E+00   1.00000000E+00 
D    1    1.000000
   6.26000000E-01    1.00000000E+00 

12    0
S    3    1.000000
   3.38650000E+01    2.54938000E-02 
   5.09479000E+00    1.90373000E-01 
   1.15879000E+00    8.52161000E-01 
S    1    1.000000
   3.25840000E-01    1.00000000E+00 
S    1    1.000000
   1.02741000E-01    1.00000000E+00 
S    1    1.000000
   3.60000000E-02    1.00000000E+00 
P    1    1.000000
   7.50000000E-01    1.00000000E+00 

[MO]
Sym=X
Ene= 2.000000
Spin=Alpha
Occup=1
     1   -2.163726451613e-07
     2    9.812801876018e-07
     3   -5.633568967062e-06
     4    3.278096216670e-06
     5    2.523001561661e-15
     6   -9.730449977347e-06
     7    2.493977737738e-05
     8   -1.388101246862e-05
     9    7.658071056841e-15
    10    2.687608210640e-04
    11    1.495419333931e-04
    12    2.044686763703e-04
    13   -1.508921025883e-15
    14    3.921909508105e-04
    15    2.325613799225e-04
    16    5.538821630284e-04
    17    8.967492497388e-15
    18    5.341969396857e-07
    19   -1.449026788187e-15
    20   -8.033548847328e-17
    21    5.711102225218e-06
    22    5.976818889624e-07
    23    2.635215788546e-06
    24    3.192046192275e-05
    25    9.451619125695e-05
    26    1.440102688689e-04
    27    9.170530766663e-06
    28   -6.343571826188e-06
    29    9.933804440129e-16
    30   -1.901715969632e-06
    31    2.533995100952e-05
    32    9.379479742868e-05
    33    2.865926321914e-04
    34   -5.269749548495e-06
    35    2.924655791901e-06
    36    8.080530736721e-17
    37    9.913390698395e-07
    38   -1.207638595251e-05
    39   -5.861506154617e-06
    40    1.827873963844e-04
    41    1.516598250809e-05
    42    8.670667610306e-07
    43   -1.065232875418e-15
    44    4.005334247786e-06
    45   -5.685881691486e-05
    46   -4.882432760414e-05
    47    2.663656795490e-05
    48   -7.616548730694e-16
    49    2.289970408502e-04
    50   -2.371826347287e-04
    51    1.584460210211e-04
    52   -2.836452314621e-16
    53    1.781771677409e-04
    54   -2.501398981746e-04
    55    2.082171455244e-04
    56   -1.973890562444e-15
    57    4.987353742401e-04
    58    4.437386215503e-04
    59   -1.863139896093e-04
    60    2.144252382435e-15
    61   -4.420767941866e-05
    62   -3.595069673434e-15
    63   -2.733092364513e-15
    64    7.155541533255e-05
    65   -1.282088012478e-04
    66    3.954969142372e-01
    67    3.382651991636e-01
    68    1.121837213440e-03
    69   -6.871659051569e-04
    70    4.549651001855e-15
    71    3.974676580701e-03
    72   -4.517754687921e-04
    73    2.781827530649e-04
    74    6.654696455147e-15
    75   -9.798428928645e-04
    76    8.339938633406e-05
    77   -6.337915887705e-05
    78    7.963801205755e-15
    79    1.197846821030e-03
    80    1.363396526768e-04
    81   -3.823754977677e-05
    82    2.893188761097e-16
    83   -6.291978809734e-05
    84    2.185600552579e-16
    85   -1.291095685717e-16
    86   -2.811869774924e-05
    87    4.983943343530e-05
    88   -3.972830086769e-06
    89    5.340488339523e-05
    90   -4.337892528315e-05
    91   -2.979741543469e-05
    92   -1.222960538743e-14
    93   -2.206583849918e-04
    94   -2.262621297501e-04
    95   -1.547800694240e-04
    96   -2.158217718925e-14
    97   -3.380590740104e-06
    98   -3.692420252688e-04
    99   -3.865587572069e-04
   100   -1.605075321196e-14
   101    2.075121942130e-03
   102    5.484182867466e-04
   103   -8.314121720599e-04
   104   -1.848270965376e-14
   105    3.884381068901e-05
   106   -1.539551826954e-16
   107   -1.537533155293e-15
   108   -6.581785778485e-05
   109   -1.266222170274e-04
   110   -3.843361681597e-01
   111   -3.287194641806e-01
   112    1.066243127378e-03
   113    6.411944659174e-04
   114   -1.130455424180e-14
   115   -3.845504904712e-03
   116   -4.291522446620e-04
   117   -2.577642887730e-04
   118   -1.697948189901e-14
   119    9.793467621112e-04
   120    7.064958191375e-05
   121    4.277538623420e-05
   122   -1.764610298866e-14
   123   -9.669343127288e-04
   124    5.301463670280e-05
   125    4.142702400456e-05
   126    1.156162386102e-14
   127    8.331412884522e-05
   128    1.320830615248e-15
   129    1.025347634021e-15
   130    2.662838819253e-05
   131    5.249835387150e-05
   132   -2.747874437393e-08
   133   -8.060112929280e-07
   134    1.551866123054e-05
   135   -1.281004334731e-06
   136   -1.898762680781e-14
   137    8.143403208438e-06
   138   -4.275503328161e-05
   139    3.211286624783e-06
   140   -3.072908763873e-14
   141   -3.730230194883e-05
   142    8.449843526220e-05
   143    2.991093294404e-05
   144   -3.171634493886e-14
   145    7.739805759762e-05
   146    8.111624245796e-04
   147    3.649418953809e-05
   148    7.592051424165e-15
   149    1.076713326943e-06
   150   -6.288594066049e-16
   151    9.929193836363e-16
   152    1.441826012448e-06
   153    1.308373373111e-05
   154    2.798866493249e-07
   155    5.983829715372e-07
   156    3.516496262027e-06
   157   -7.081127828674e-06
   158    8.306639179693e-15
   159   -1.205504458042e-05
   160   -1.050824582085e-05
   161    1.959292994087e-05
   162    1.120200217043e-14
   163    9.123669649670e-05
   164    1.147361372360e-04
   165    3.689328225955e-05
   166    1.634247427196e-14
   167   -1.729786907384e-04
   168    2.459147780067e-04
   169   -2.695319457699e-04
   170   -6.371083030747e-15
   171   -6.117667258403e-06
   172    1.467690170395e-15
   173   -2.631089810350e-16
   174   -1.360978133589e-05
   175   -8.775834526760e-06
   176   -6.018898867010e-07
   177   -1.832419112437e-06
   178    3.257732765202e-06
   179    1.056380577713e-05
   180   -3.095396645892e-15
   181    2.954848305844e-05
   182   -5.468750545209e-06
   183   -4.661437505249e-05
   184   -2.212332347035e-15
   185   -5.684376015815e-04
   186    4.621554372082e-04
   187   -1.320219793250e-04
   188    1.439883005209e-15
   189   -3.264264584509e-03
   190    2.776398625406e-04
   191   -1.032365228594e-03
   192    3.634562200331e-15
   193    8.127317330567e-06
   194   -8.850585445124e-16
   195   -2.413839673454e-15
   196    2.063938129920e-05
   197   -1.859778915154e-05
   198    3.684655512466e-06
   199   -9.803383717418e-05
   200   -1.493191361521e-04
   201   -3.869700773651e-04
   202    1.298941531755e-05
   203   -7.639302219911e-06
   204    1.026508928108e-15
Sym=X
Ene= 2.000000
Spin=Alpha
Occup=1
     1    3.051900350494e-07
     2    5.787732326297e-07
     3    1.005066029547e-06
     4   -3.656847299867e-06
     5    5.383342433488e-16
     6   -5.531859158790e-06
     7   -1.003909771185e-05
     8    1.190870386059e-05
     9    1.521605408650e-15
    10    6.056084925604e-04
    11    4.558176097648e-05
    12    1.614696627820e-04
    13   -1.052419525627e-15
    14   -4.934417813034e-04
    15   -6.658615255328e-04
    16    3.147006393500e-04
    17    1.912500577961e-14
    18   -1.812785671149e-06
    19   -1.005096947676e-15
    20   -1.397975230023e-15
    21   -5.031288562479e-08
    22   -6.948468627564e-06
    23   -2.704398601603e-06
    24   -3.932617034707e-05
    25   -4.191570686994e-05
    26   -2.435744101855e-04
    27   -4.220012737829e-06
    28    4.812331972973e-06
    29    6.211032295769e-16
    30    5.354646848704e-06
    31   -2.999967319184e-05
    32    9.292732242723e-05
    33    1.540811784094e-04
    34   -2.923147894423e-06
    35   -3.717714129042e-06
    36   -1.041270666699e-15
    37   -3.891035265828e-06
    38   -9.170961939828e-05
    39   -1.398909857696e-04
    40   -3.063523516290e-04
    41   -7.183746218417e-08
    42    8.598489982539e-06
    43   -4.091478788057e-15
    44   -2.969614817234e-06
    45    5.282292176241e-05
    46    3.766031806752e-05
    47   -2.638051865582e-05
    48   -1.822481260622e-14
    49   -2.072280824504e-04
    50    2.747479548494e-04
    51   -1.496664444048e-04
    52   -3.947529627135e-14
    53    2.612027452596e-04
    54    4.481815576287e-04
    55   -2.218509064985e-04
    56   -1.333919208672e-14
    57   -1.130354959931e-04
    58   -4.244370938608e-04
    59    4.330926873724e-04
    60    5.473485695757e-15
    61    3.660960087211e-05
    62   -3.289937882111e-15
    63   -3.305880671381e-15
    64   -5.979484403353e-05
    65    1.247513982436e-04
    66   -3.843324573582e-01
    67   -3.287177798402e-01
    68   -1.090777185574e-03
    69    6.681095575316e-04
    70   -1.070654990522e-14
    71   -3.850115885906e-03
    72    4.450150975830e-04
    73   -2.712381708747e-04
    74   -1.692834461355e-14
    75    9.125093015249e-04
    76   -1.056600941013e-04
    77    6.191589641554e-05
    78   -8.575235346910e-15
    79   -8.145853145507e-04
    80    6.141393819326e-05
    81   -2.552424665711e-05
    82   -2.767228214713e-16
    83    6.066241415171e-05
    84   -1.639746936259e-15
    85    8.583701687362e-16
    86    2.678695856876e-05
    87   -4.836222633249e-05
    88   -3.463963123867e-06
    89    5.390026211989e-05
    90   -3.856032447663e-05
    91   -3.318139110021e-05
    92   -2.249546660758e-14
    93   -2.202163194113e-04
    94   -2.593761106210e-04
    95   -1.438260035210e-04
    96   -4.372747022606e-14
    97    2.834988397739e-04
    98   -5.210213825950e-04
    99   -3.310464577945e-04
   100   -2.042097078475e-14
   101    1.049293498632e-03
   102    3.957780480103e-04
   103    1.313671989023e-04
   104    1.886453549408e-15
   105    3.558524820473e-05
   106    2.255617428520e-15
   107   -3.050033860132e-15
   108   -5.635256573492e-05
   109   -1.333845104590e-04
   110   -3.955008303100e-01
   111   -3.382696759182e-01
   112    1.096824485894e-03
   113    6.606111632542e-04
   114   -1.886010537228e-14
   115   -3.946251755058e-03
   116   -4.433356334518e-04
   117   -2.675172074870e-04
   118   -2.419823319980e-14
   119    9.547883057140e-04
   120    9.212575182523e-05
   121    5.364652931937e-05
   122   -2.091797059287e-14
   123   -7.262540833448e-04
   124   -6.835024282146e-05
   125   -6.156628005161e-05
   126    3.767525306574e-15
   127    8.534075495456e-05
   128    1.677567005835e-15
   129    9.594873464241e-17
   130    2.631695043947e-05
   131    5.350971918608e-05
   132   -4.301952964293e-07
   133   -3.155715318298e-06
   134    1.027020324420e-07
   135    3.980142614360e-07
   136   -4.611538750395e-14
   137    4.809871060515e-05
   138    1.336641097954e-06
   139   -5.282026020328e-06
   140   -7.453518505254e-14
   141   -4.708092333873e-04
   142    1.894224179242e-05
   143    3.939057064927e-04
   144   -6.865762253162e-14
   145    6.175669954397e-05
   146    4.818096031702e-05
   147    1.601205911883e-04
   148   -5.703394626984e-15
   149    1.140873260570e-05
   150    3.020523428500e-17
   151    3.859731577574e-15
   152   -3.133707300760e-05
   153    3.522602760391e-06
   154   -2.432155373331e-07
   155   -1.524592397843e-06
   156   -3.892476033783e-06
   157    6.539580496408e-06
   158   -2.470462629425e-18
   159    2.485049517544e-05
   160    1.197295035769e-05
   161   -1.649313776167e-05
   162   -4.233589505797e-15
   163   -2.988555022751e-04
   164   -2.119574664041e-04
   165   -6.410542208284e-05
   166    6.424037518192e-15
   167   -1.345213462858e-04
   168   -1.699305600722e-04
   169    2.482526372959e-04
   170   -1.278767584693e-14
   171    4.723925862968e-06
   172    1.393707678574e-15
   173   -2.436289374802e-15
   174    1.227026001675e-05
   175    9.103385140279e-06
   176   -8.024736131012e-07
   177   -9.794510665181e-07
   178    1.549435201831e-06
   179    1.195874802456e-05
   180   -3.844827441627e-15
   181    1.281660528700e-05
   182    3.682173824676e-06
   183   -5.762964679504e-05
   184   -7.330499941388e-15
   185   -4.963473280178e-04
   186    4.056411811602e-04
   187   -9.466325053606e-05
   188    2.448807640384e-16
   189    8.814998374971e-04
   190   -3.685116832063e-04
   191   -6.327087844566e-04
   192   -1.392111363875e-14
   193    9.226808035485e-07
   194   -3.377833203126e-16
   195   -2.934586471273e-15
   196    2.121297364519e-05
   197   -1.467949851378e-05
   198    1.896023282164e-06
   199   -8.868036862447e-05
   200   -1.235832950935e-04
   201   -1.405850268077e-04
   202    1.405998256910e-05
   203   -8.471165387427e-06
   204   -1.697535488078e-16
Sym=X
Ene= 1.999999
Spin=Alpha
Occup=1
     1   -7.452074410561e-04
     2   -6.338110087251e-04
     3    1.124206330874e-05
     4   -1.910933954804e-05
     5   -9.441156914414e-16
     6    4.116561705923e-05
     7   -2.025838628360e-05
     8    1.041964561810e-05
     9   -6.858894629639e-16
    10    1.791016175239e-03
    11    1.589741285046e-04
    12    7.237803049506e-04
    13   -1.897641100059e-15
    14    5.304398738976e-03
    15    7.140919702170e-04
    16    1.778863801275e-03
    17   -7.487188212383e-15
    18   -2.491597842506e-05
    19    3.337460489165e-16
    20    6.089647629767e-16
    21   -7.662104409146e-06
    22   -1.113105537081e-05
    23    1.822178431564e-06
    24   -1.278590638500e-04
    25   -4.682064026918e-04
    26   -2.472307793877e-04
    27   -9.615378398255e-06
    28   -8.810934578968e-06
    29   -1.086379978606e-15
    30    2.248551666403e-05
    31    3.017040097115e-05
    32    3.113100328484e-04
    33    6.195944885563e-04
    34   -3.308778472177e-06
    35   -4.069924090576e-06
    36   -3.446515471813e-17
    37   -7.090274021936e-04
    38   -1.514191366544e-03
    39    1.071699753204e-03
    40    1.703315347175e-05
    41    1.269166141079e-05
    42    2.946140854975e-04
    43   -2.278196284863e-16
    44    4.363292509815e-03
    45    3.676476679396e-03
    46   -1.282307327443e-04
    47   -6.671411137569e-05
    48    5.288263215260e-15
    49   -2.904552596403e-04
    50   -1.450946327610e-04
    51   -1.384893168272e-04
    52    1.564325537770e-14
    53    7.296978968956e-04
    54    1.262123035524e-03
    55   -3.566023742679e-04
    56   -1.535241692194e-15
    57   -7.097491444666e-04
    58    5.873835446384e-08
    59    4.363706381516e-04
    60   -9.309040252595e-15
    61    3.731803919133e-05
    62   -1.195497260672e-15
    63    7.327924794032e-16
    64    5.156958391986e-05
    65   -8.627890101991e-05
    66    4.986426323661e-05
    67    8.574035558083e-05
    68    7.613221396470e-05
    69    8.703431153092e-06
    70    8.796752138783e-15
    71   -2.745129038643e-04
    72    1.149484910438e-04
    73    4.105610845623e-05
    74    1.389735969774e-14
    75    1.940499421218e-04
    76    1.775330807072e-04
    77   -6.336150129348e-05
    78    1.085703394533e-14
    79    7.543810974407e-04
    80    2.208141076399e-04
    81   -1.911392316378e-04
    82    6.150859167567e-15
    83    1.007100201313e-06
    84    1.230734392502e-15
    85   -8.132300218743e-16
    86   -4.429235509898e-07
    87   -1.593434978504e-06
    88    1.392252786061e-02
    89    1.155359339820e-02
    90    4.282037632437e-05
    91    1.088788550260e-04
    92    7.756108108568e-16
    93    3.097592936759e-05
    94    1.003975675622e-04
    95    6.822671769285e-05
    96   -8.324548536389e-16
    97    7.236058334617e-04
    98   -1.488199996736e-03
    99   -6.394906202113e-05
   100    1.572340273138e-16
   101   -1.003456105044e-03
   102   -1.490443479145e-04
   103    7.645845799482e-04
   104   -1.455904455548e-14
   105    2.441964292845e-05
   106   -5.974371222432e-17
   107   -4.662960155394e-16
   108   -1.076105805386e-06
   109    1.108824918935e-04
   110    5.795561665896e-05
   111    1.010383306284e-04
   112   -3.019958370648e-04
   113    1.682570599785e-04
   114    6.404356864640e-16
   115   -3.349851053729e-04
   116   -4.701598080357e-04
   117    2.950669467154e-04
   118   -1.943109596390e-15
   119    1.022766402129e-04
   120   -4.132558620368e-04
   121    1.294688089942e-04
   122    2.479547790708e-16
   123    7.496836203252e-04
   124   -2.292337409974e-04
   125   -1.752966583904e-04
   126    2.076581378385e-15
   127   -7.671031044570e-06
   128   -1.976988081698e-16
   129    3.121702716449e-16
   130    2.667925426380e-05
   131    4.806333094749e-06
   132    5.580307408751e-01
   133    4.691381590241e-01
   134   -7.769701637766e-05
   135   -8.156824012863e-04
   136    3.867509208444e-15
   137    2.696083641740e-03
   138    2.194353709108e-04
   139   -8.064433536127e-04
   140    6.849534390396e-15
   141   -5.000898780833e-03
   142   -5.521737431912e-05
   143    3.166286966256e-04
   144    6.275449167255e-15
   145    4.624889654597e-05
   146   -1.686704206546e-04
   147   -1.451186700429e-03
   148    1.000735762510e-14
   149    4.257730966869e-05
   150   -1.115836037203e-15
   151   -2.493683683882e-16
   152    1.349808763541e-05
   153   -2.432554918492e-05
   154   -5.418079514152e-05
   155   -4.605887857152e-05
   156   -9.857798492841e-07
   157   -3.360846216599e-05
   158    1.476544677196e-15
   159    2.535300971393e-05
   160    2.779298165870e-05
   161   -3.397315723628e-05
   162    4.813785946103e-15
   163   -5.982350387488e-04
   164   -6.503864277868e-04
   165   -2.215074828265e-04
   166    4.682100474942e-15
   167   -2.034834080442e-03
   168   -1.194767980049e-03
   169   -6.704689179377e-04
   170    7.283855784825e-15
   171   -2.184277033745e-06
   172    3.457499927406e-16
   173    1.158027877500e-15
   174    3.514932461886e-06
   175   -1.261143003062e-06
   176    6.109926756927e-04
   177    5.161076981498e-04
   178   -3.591157734184e-05
   179   -4.683348670495e-05
   180   -1.405089880459e-15
   181   -2.824240118009e-05
   182   -8.935008767729e-06
   183   -1.304237374219e-04
   184   -1.635690099780e-15
   185   -1.132194304099e-03
   186    1.105543425374e-03
   187   -2.975343425882e-04
   188   -6.067676241302e-15
   189   -3.255393906228e-03
   190    1.468507818248e-03
   191   -1.896243422668e-05
   192    1.616200826758e-14
   193   -4.906534931992e-07
   194    2.806032605916e-16
   195   -2.349114203926e-16
   196    3.200260024924e-05
   197    8.677843754988e-06
   198    4.686932555411e-06
   199   -2.334628751418e-04
   200   -3.771544329549e-04
   201   -3.958196533467e-04
   202    1.508531242961e-05
   203   -3.188596942957e-05
   204    1.389907451424e-15
Sym=X
Ene= 1.999999
Spin=Alpha
Occup=1
     1    9.960764444045e-04
     2    9.292378424240e-04
     3    1.487828727244e-04
     4    1.904556713351e-04
     5    4.128486362533e-15
     6   -6.272821420444e-04
     7    2.862014125141e-04
     8    2.366560349308e-04
     9    7.093488637443e-15
    10    1.217675517434e-03
    11    1.657789937164e-04
    12    1.025533807916e-03
    13    8.488872148617e-15
    14    1.388970898046e-02
    15    2.357319280972e-03
    16    3.432277522056e-03
    17    1.005671482575e-14
    18   -1.259507227854e-05
    19   -6.954183318866e-16
    20    4.987520831736e-16
    21    6.368650313724e-05
    22    1.096812229941e-05
    23    7.260743380724e-05
    24    1.592398016102e-04
    25   -1.445103911663e-04
    26   -3.626771946636e-04
    27    1.009830333504e-05
    28    2.100847997101e-05
    29    1.080088894098e-15
    30   -2.518779954919e-04
    31   -3.207956185373e-04
    32    2.960063002542e-04
    33    9.466020158024e-04
    34   -1.500335475791e-06
    35   -4.662305190405e-05
    36    4.280382380840e-17
    37   -2.831417000472e-03
    38   -3.582834040379e-03
    39    6.487318395691e-04
    40    7.564219904328e-04
    41   -4.867505233072e-05
    42    7.539517775697e-04
    43    4.488155369505e-16
    44   -3.768027211383e-02
    45   -3.101434593237e-02
    46    1.379227784425e-05
    47   -8.146168441155e-04
    48   -1.117223497967e-15
    49   -1.200699057782e-03
    50   -5.002954535119e-05
    51   -1.420314678098e-03
    52   -1.429223095458e-15
    53    8.029522003535e-04
    54    5.917254513695e-04
    55   -3.812298514168e-04
    56    5.010703450598e-15
    57   -1.440062371756e-03
    58   -3.927934085215e-04
    59   -4.589556488976e-04
    60   -3.009264484983e-15
    61    1.046386061735e-04
    62   -1.900047097864e-15
    63   -1.089806033801e-15
    64    1.091057282404e-04
    65   -4.417050311967e-05
    66    3.483829614004e-04
    67    5.795980773577e-04
    68   -8.763402982024e-04
    69   -8.805759912979e-04
    70    9.361957980915e-16
    71   -1.622710080495e-03
    72   -1.423766573603e-03
    73   -1.335576326492e-03
    74    2.070700082526e-15
    75   -9.441487691040e-04
    76   -9.183674333923e-04
    77   -1.351503275985e-03
    78   -6.763011835500e-16
    79    8.333856304978e-04
    80    9.331225574500e-05
    81   -1.862600871979e-04
    82    5.110184377205e-15
    83    5.280872096959e-05
    84   -2.975226971274e-16
    85    1.498433023037e-16
    86   -1.573688891548e-04
    87    1.228278353226e-05
    88   -5.610255493815e-01
    89   -4.639702188758e-01
    90    7.338805220652e-04
    91   -2.175155927771e-03
    92   -4.124908728079e-15
    93   -7.088410402523e-03
    94   -5.831127892103e-04
    95   -3.003817376531e-03
    96   -1.024468819912e-14
    97   -2.088409793186e-04
    98    1.979159876475e-04
    99   -2.068108746352e-03
   100    1.238171962759e-15
   101    1.189202500414e-02
   102   -7.931087505884e-04
   103   -4.273369003863e-03
   104    3.843535312764e-14
   105    6.564138993125e-04
   106   -4.427934675506e-16
   107   -1.652101611778e-15
   108    5.375775016400e-04
   109   -6.960093075030e-04
   110    9.142405238023e-04
   111    1.491654592076e-03
   112    3.075399154983e-03
   113   -2.317644281099e-03
   114   -1.828742244711e-15
   115   -3.970144429390e-03
   116    4.765787231771e-03
   117   -3.566963400100e-03
   118   -6.183490504038e-15
   119   -9.410005714750e-04
   120    2.724326666547e-03
   121   -3.927638106475e-03
   122    1.344566620426e-15
   123    8.864090098167e-05
   124    2.354858536876e-04
   125    5.263771085275e-04
   126   -1.489467519797e-14
   127    1.536347867023e-04
   128    6.135961875749e-16
   129   -1.403220357887e-16
   130   -4.227127163801e-04
   131   -1.721941748068e-04
   132    1.569738192376e-02
   133    1.466473087771e-02
   134   -5.381299967537e-04
   135   -2.041395979204e-03
   136   -9.288202079310e-15
   137   -7.807227090518e-03
   138   -1.360580664631e-03
   139   -2.835888573818e-03
   140   -1.635993073772e-14
   141   -4.642536537898e-03
   142    4.214527055209e-04
   143   -1.950529981322e-03
   144   -1.424940072134e-14