[Molden Format]
[Atoms] (Angs)
  C      1    6     -0.00714236     -1.70213747     -0.00000000
  H      2    1     -2.06882847     -1.44022412      0.00000000
  H      3    1     -0.12337987     -2.77567521      0.00000000
  H      4    1      0.04651892      1.98813947     -0.00000000
  C      5    6     -1.21953563      0.40211669      0.00000000
  O      6    8     -2.25921553      1.03043814      0.00000000
  C      7    6      1.28797806      0.34644937     -0.00000000
  O      8    8      2.31273661      1.00537216     -0.00000000
  N      9    7      0.03446295      0.97739857     -0.00000000
  N     10    7     -1.17287765     -0.98229824      0.00000000
  C     11    6      1.20107039     -1.10433419     -0.00000000
  H     12    1      2.11220096     -1.67699125     -0.00000000
[GTO]
1    0
S    6    1.000000
   4.56324000E+03    1.96665000E-03 
   6.82024000E+02    1.52306000E-02 
   1.54973000E+02    7.61269000E-02 
   4.44553000E+01    2.60801000E-01 
   1.30290000E+01    6.16462000E-01 
   1.82773000E+00    2.21006000E-01 
SP   3    1.000000
   2.09642000E+01    1.14660000E-01   4.02487000E-02 
   4.80331000E+00    9.19999000E-01   2.37594000E-01 
   1.45933000E+00   -3.03068000E-03   8.15854000E-01 
SP   1    1.000000
   4.83456000E-01    1.00000000E+00   1.00000000E+00 
SP   1    1.000000
   1.45585000E-01    1.00000000E+00   1.00000000E+00 
SP   1    1.000000
   4.38000000E-02    1.00000000E+00   1.00000000E+00 
D    1    1.000000
   6.26000000E-01    1.00000000E+00 

2    0
S    3    1.000000
   3.38650000E+01    2.54938000E-02 
   5.09479000E+00    1.90373000E-01 
   1.15879000E+00    8.52161000E-01 
S    1    1.000000
   3.25840000E-01    1.00000000E+00 
S    1    1.000000
   1.02741000E-01    1.00000000E+00 
S    1    1.000000
   3.60000000E-02    1.00000000E+00 
P    1    1.000000
   7.50000000E-01    1.00000000E+00 

3    0
S    3    1.000000
   3.38650000E+01    2.54938000E-02 
   5.09479000E+00    1.90373000E-01 
   1.15879000E+00    8.52161000E-01 
S    1    1.000000
   3.25840000E-01    1.00000000E+00 
S    1    1.000000
   1.02741000E-01    1.00000000E+00 
S    1    1.000000
   3.60000000E-02    1.00000000E+00 
P    1    1.000000
   7.50000000E-01    1.00000000E+00 

4    0
S    3    1.000000
   3.38650000E+01    2.54938000E-02 
   5.09479000E+00    1.90373000E-01 
   1.15879000E+00    8.52161000E-01 
S    1    1.000000
   3.25840000E-01    1.00000000E+00 
S    1    1.000000
   1.02741000E-01    1.00000000E+00 
S    1    1.000000
   3.60000000E-02    1.00000000E+00 
P    1    1.000000
   7.50000000E-01    1.00000000E+00 

5    0
S    6    1.000000
   4.56324000E+03    1.96665000E-03 
   6.82024000E+02    1.52306000E-02 
   1.54973000E+02    7.61269000E-02 
   4.44553000E+01    2.60801000E-01 
   1.30290000E+01    6.16462000E-01 
   1.82773000E+00    2.21006000E-01 
SP   3    1.000000
   2.09642000E+01    1.14660000E-01   4.02487000E-02 
   4.80331000E+00    9.19999000E-01   2.37594000E-01 
   1.45933000E+00   -3.03068000E-03   8.15854000E-01 
SP   1    1.000000
   4.83456000E-01    1.00000000E+00   1.00000000E+00 
SP   1    1.000000
   1.45585000E-01    1.00000000E+00   1.00000000E+00 
SP   1    1.000000
   4.38000000E-02    1.00000000E+00   1.00000000E+00 
D    1    1.000000
   6.26000000E-01    1.00000000E+00 

6    0
S    6    1.000000
   8.58850000E+03    1.89515000E-03 
   1.29723000E+03    1.43859000E-02 
   2.99296000E+02    7.07320000E-02 
   8.73771000E+01    2.40001000E-01 
   2.56789000E+01    5.94797000E-01 
   3.74004000E+00    2.80802000E-01 
SP   3    1.000000
   4.21175000E+01    1.13889000E-01   3.65114000E-02 
   9.62837000E+00    9.20811000E-01   2.37153000E-01 
   2.85332000E+00   -3.27447000E-03   8.19702000E-01 
SP   1    1.000000
   9.05661000E-01    1.00000000E+00   1.00000000E+00 
SP   1    1.000000
   2.55611000E-01    1.00000000E+00   1.00000000E+00 
SP   1    1.000000
   8.45000000E-02    1.00000000E+00   1.00000000E+00 
D    1    1.000000
   1.29200000E+00    1.00000000E+00 

7    0
S    6    1.000000
   4.56324000E+03    1.96665000E-03 
   6.82024000E+02    1.52306000E-02 
   1.54973000E+02    7.61269000E-02 
   4.44553000E+01    2.60801000E-01 
   1.30290000E+01    6.16462000E-01 
   1.82773000E+00    2.21006000E-01 
SP   3    1.000000
   2.09642000E+01    1.14660000E-01   4.02487000E-02 
   4.80331000E+00    9.19999000E-01   2.37594000E-01 
   1.45933000E+00   -3.03068000E-03   8.15854000E-01 
SP   1    1.000000
   4.83456000E-01    1.00000000E+00   1.00000000E+00 
SP   1    1.000000
   1.45585000E-01    1.00000000E+00   1.00000000E+00 
SP   1    1.000000
   4.38000000E-02    1.00000000E+00   1.00000000E+00 
D    1    1.000000
   6.26000000E-01    1.00000000E+00 

8    0
S    6    1.000000
   8.58850000E+03    1.89515000E-03 
   1.29723000E+03    1.43859000E-02 
   2.99296000E+02    7.07320000E-02 
   8.73771000E+01    2.40001000E-01 
   2.56789000E+01    5.94797000E-01 
   3.74004000E+00    2.80802000E-01 
SP   3    1.000000
   4.21175000E+01    1.13889000E-01   3.65114000E-02 
   9.62837000E+00    9.20811000E-01   2.37153000E-01 
   2.85332000E+00   -3.27447000E-03   8.19702000E-01 
SP   1    1.000000
   9.05661000E-01    1.00000000E+00   1.00000000E+00 
SP   1    1.000000
   2.55611000E-01    1.00000000E+00   1.00000000E+00 
SP   1    1.000000
   8.45000000E-02    1.00000000E+00   1.00000000E+00 
D    1    1.000000
   1.29200000E+00    1.00000000E+00 

9    0
S    6    1.000000
   6.29348000E+03    1.96979000E-03 
   9.49044000E+02    1.49613000E-02 
   2.18776000E+02    7.35006000E-02 
   6.36916000E+01    2.48937000E-01 
   1.88282000E+01    6.02460000E-01 
   2.72023000E+00    2.56202000E-01 
SP   3    1.000000
   3.06331000E+01    1.11906000E-01   3.83119000E-02 
   7.02614000E+00    9.21666000E-01   2.37403000E-01 
   2.11205000E+00   -2.56919000E-03   8.17592000E-01 
SP   1    1.000000
   6.84009000E-01    1.00000000E+00   1.00000000E+00 
SP   1    1.000000
   2.00878000E-01    1.00000000E+00   1.00000000E+00 
SP   1    1.000000
   6.39000000E-02    1.00000000E+00   1.00000000E+00 
D    1    1.000000
   9.13000000E-01    1.00000000E+00 

10    0
S    6    1.000000
   6.29348000E+03    1.96979000E-03 
   9.49044000E+02    1.49613000E-02 
   2.18776000E+02    7.35006000E-02 
   6.36916000E+01    2.48937000E-01 
   1.88282000E+01    6.02460000E-01 
   2.72023000E+00    2.56202000E-01 
SP   3    1.000000
   3.06331000E+01    1.11906000E-01   3.83119000E-02 
   7.02614000E+00    9.21666000E-01   2.37403000E-01 
   2.11205000E+00   -2.56919000E-03   8.17592000E-01 
SP   1    1.000000
   6.84009000E-01    1.00000000E+00   1.00000000E+00 
SP   1    1.000000
   2.00878000E-01    1.00000000E+00   1.00000000E+00 
SP   1    1.000000
   6.39000000E-02    1.00000000E+00   1.00000000E+00 
D    1    1.000000
   9.13000000E-01    1.00000000E+00 

11    0
S    6    1.000000
   4.56324000E+03    1.96665000E-03 
   6.82024000E+02    1.52306000E-02 
   1.54973000E+02    7.61269000E-02 
   4.44553000E+01    2.60801000E-01 
   1.30290000E+01    6.16462000E-01 
   1.82773000E+00    2.21006000E-01 
SP   3    1.000000
   2.09642000E+01    1.14660000E-01   4.02487000E-02 
   4.80331000E+00    9.19999000E-01   2.37594000E-01 
   1.45933000E+00   -3.03068000E-03   8.15854000E-01 
SP   1    1.000000
   4.83456000E-01    1.00000000E+00   1.00000000E+00 
SP   1    1.000000
   1.45585000E-01    1.00000000E+00   1.00000000E+00 
SP   1    1.000000
   4.38000000E-02    1.00000000E+00   1.00000000E+00 
D    1    1.000000
   6.26000000E-01    1.00000000E+00 

12    0
S    3    1.000000
   3.38650000E+01    2.54938000E-02 
   5.09479000E+00    1.90373000E-01 
   1.15879000E+00    8.52161000E-01 
S    1    1.000000
   3.25840000E-01    1.00000000E+00 
S    1    1.000000
   1.02741000E-01    1.00000000E+00 
S    1    1.000000
   3.60000000E-02    1.00000000E+00 
P    1    1.000000
   7.50000000E-01    1.00000000E+00 

[MO]
Sym=X
Ene= 2.000372
Spin=Alpha
Occup=1
     1    1.774450819469e-12
     2    1.469336845559e-12
     3    1.687728166405e-13
     4   -5.235919103041e-14
     5    3.558457235003e-03
     6    6.782944986054e-15
     7    2.586130981912e-13
     8   -9.445254308936e-14
     9    6.104809985099e-03
    10    1.557879889734e-13
    11   -7.990475171414e-14
    12    8.182050982779e-14
    13    8.376933876808e-03
    14    6.680488564155e-12
    15    6.727219993357e-13
    16    1.913364916354e-12
    17   -2.897150835756e-03
    18    1.079648189292e-14
    19    7.636279747738e-04
    20    1.655394697939e-04
    21   -1.420712545033e-14
    22    3.719532265339e-14
    23   -1.544724560233e-13
    24   -2.181295318417e-13
    25    1.099649425750e-13
    26   -8.862277554932e-14
    27   -3.515116418070e-14
    28   -1.013218757332e-14
    29   -1.895400745408e-03
    30    3.556552948919e-14
    31    4.625982790028e-14
    32    1.234087153943e-13
    33    5.623731114251e-13
    34    1.230285935779e-14
    35    1.513567293559e-15
    36    2.104169632600e-04
    37   -1.455990926316e-13
    38   -2.290600314597e-13
    39    2.497813695457e-13
    40    1.712560009016e-13
    41    3.431750039439e-15
    42    3.623815814493e-14
    43    4.955892942864e-04
    44   -6.031583623157e-13
    45   -5.671991446779e-13
    46   -2.442308347381e-13
    47    6.198336872945e-14
    48   -1.272168943534e-01
    49    3.818165960169e-13
    50   -3.923211589998e-13
    51    1.079205293054e-13
    52   -2.200146407560e-01
    53    9.407251102849e-14
    54    9.503009307846e-14
    55   -2.383905676649e-13
    56   -1.418223186900e-01
    57   -1.741491457671e-12
    58   -5.085679462817e-13
    59    2.503641174805e-13
    60   -4.354711646206e-02
    61   -1.860975134087e-14
    62    4.318995579599e-02
    63   -2.389618328546e-02
    64    7.176047464999e-14
    65   -5.393580708821e-14
    66   -5.662666531463e-13
    67   -5.917615232301e-13
    68    1.027703934221e-13
    69   -2.753321698788e-13
    70   -2.340726283341e-01
    71    6.044943459090e-13
    72    1.468942497209e-13
    73   -4.222807357678e-13
    74   -3.681014637063e-01
    75    4.040011731202e-13
    76    5.122984802759e-14
    77   -3.105466206243e-13
    78   -3.276515799443e-01
    79    2.269205991656e-13
    80    1.282251937353e-13
    81   -8.225474148456e-14
    82   -2.047441442280e-02
    83   -1.780663814774e-14
    84   -2.294393226449e-02
    85    1.374018335712e-02
    86    1.655079636084e-15
    87   -3.540948572743e-14
    88    2.544877920337e-14
    89    3.819364968293e-14
    90    1.083530377316e-14
    91   -4.870178932778e-14
    92    2.520388642313e-02
    93   -9.136617940575e-14
    94    9.262065997486e-16
    95   -7.659662161619e-14
    96    4.296312223902e-02
    97    7.564623999457e-14
    98    8.168921263960e-14
    99    7.875126715613e-14
   100    2.732375633649e-02
   101    4.762965741009e-12
   102   -5.342643306256e-13
   103   -9.178879163426e-13
   104    1.464452591327e-02
   105    9.354261126923e-15
   106    3.242285840592e-03
   107    4.929611207300e-03
   108   -6.942548317332e-15
   109    1.317363621752e-14
   110    1.120877713724e-12
   111    9.486982748438e-13
   112    4.995859870600e-14
   113    2.059200750187e-14
   114    4.019097600768e-02
   115    7.171851329196e-14
   116    7.941561531947e-14
   117    3.799825715921e-14
   118    6.247322517456e-02
   119    3.488865054062e-14
   120    7.742997663423e-14
   121    1.119358878983e-14
   122    4.868198056553e-02
   123   -2.354861678683e-13
   124    2.123980132344e-14
   125    1.028093494811e-13
   126   -9.570230243865e-03
   127    3.081681621455e-15
   128   -4.041694909914e-03
   129   -2.253912750902e-03
   130   -6.092203387823e-15
   131   -4.692461822601e-15
   132   -6.762168272173e-13
   133   -4.797043689855e-13
   134    2.596982975609e-15
   135   -8.299604523416e-14
   136    6.427046124871e-03
   137   -4.789207420205e-13
   138    4.341083254401e-15
   139   -1.189709744002e-13
   140    6.849597770137e-03
   141   -3.873962916884e-13
   142   -3.620692130752e-14
   143   -5.662723152893e-14
   144    3.792866478506e-02
   145    1.226089933654e-13
   146   -1.737026656717e-13
   147   -4.021735475507e-13
   148    3.066429194849e-02
   149    1.412324080238e-14
   150    1.077124475301e-02
   151    2.601448052120e-03
   152    7.021195358512e-15
   153   -8.085909266984e-15
   154   -6.066002766029e-13
   155   -3.871589363340e-13
   156   -1.338178035396e-14
   157    1.113008871701e-13
   158   -1.774529696031e-02
   159   -6.607620973913e-13
   160   -1.946530467043e-14
   161    1.857042783824e-13
   162   -3.260684316368e-02
   163   -7.503218663605e-13
   164   -1.184694864868e-13
   165    5.278830445537e-14
   166   -1.025822718834e-03
   167   -1.065102668056e-12
   168   -1.745921817538e-13
   169    1.840560521810e-14
   170    3.177511660934e-02
   171    1.409211167586e-14
   172    1.180203644013e-03
   173   -9.718026512149e-03
   174   -1.624976315984e-14
   175   -7.258000950322e-15
   176    1.684327781115e-12
   177    1.317507855722e-12
   178    2.328202995931e-14
   179   -8.212106047285e-14
   180    3.912767295789e-03
   181    3.839511229676e-13
   182    2.578442763587e-14
   183   -1.120147946484e-13
   184    7.951206337919e-03
   185    4.988969873541e-13
   186    7.667598300521e-14
   187   -1.388990052437e-13
   188   -5.169595777018e-03
   189   -8.861938366407e-12
   190    2.242512777671e-12
   191   -1.346129196145e-12
   192   -7.317607922583e-03
   193   -2.306691920026e-14
   194   -7.098358534868e-04
   195    2.428688249109e-03
   196    6.149652559916e-15
   197    3.547215726511e-15
   198    1.359877402905e-13
   199    1.630929254450e-13
   200   -1.604104873093e-13
   201   -9.699603036353e-13
   202   -1.539483610281e-14
   203    1.025764037252e-14
   204    3.738557225527e-04
Sym=X
Ene= 2.000000
Spin=Alpha
Occup=1
     1    2.146692072964e-07
     2   -9.843724658997e-07
     3    5.628261407251e-06
     4   -3.259015632592e-06
     5   -5.728702517607e-12
     6    9.759115359852e-06
     7   -2.488717694652e-05
     8    1.381882981901e-05
     9   -9.754243619791e-12
    10   -2.719098376346e-04
    11   -1.497771952231e-04
    12   -2.053064785660e-04
    13   -5.224549044936e-12
    14   -3.896168579471e-04
    15   -2.290918940745e-04
    16   -5.555129128139e-04
    17   -4.630075063264e-13
    18   -5.247526455771e-07
    19    1.419023384119e-12
    20   -1.103240889405e-12
    21   -5.710762898389e-06
    22   -5.615012805100e-07
    23   -2.621103107617e-06
    24   -3.171530805003e-05
    25   -9.429670763396e-05
    26   -1.427403222911e-04
    27   -9.148438455312e-06
    28    6.318433492330e-06
    29   -1.332313821602e-12
    30    1.873815231554e-06
    31   -2.518343553047e-05
    32   -9.427728486073e-05
    33   -2.873908594291e-04
    34    5.284895453786e-06
    35   -2.905262537351e-06
    36   -4.588396888080e-13
    37   -9.710714997294e-07
    38    1.255363813664e-05
    39    6.589672294169e-06
    40   -1.811901153262e-04
    41   -1.516540322580e-05
    42   -9.118158929686e-07
    43    7.206077094029e-13
    44   -3.990086893664e-06
    45    5.658284181412e-05
    46    4.862761438070e-05
    47   -2.649887213554e-05
    48   -5.205881907328e-14
    49   -2.279151564448e-04
    50    2.357491432699e-04
    51   -1.576647362391e-04
    52   -1.463493804635e-13
    53   -1.795345137853e-04
    54    2.478033786011e-04
    55   -2.070594149906e-04
    56    7.308890875240e-13
    57   -4.981401802007e-04
    58   -4.415230794040e-04
    59    1.840568808279e-04
    60    1.089132799152e-14
    61    4.401649912560e-05
    62   -1.266158424585e-13
    63    2.930800555316e-12
    64   -7.124316669938e-05
    65    1.275576347371e-04
    66   -3.934908035297e-01
    67   -3.365493819389e-01
    68   -1.116143657942e-03
    69    6.836785633757e-04
    70    4.329127847669e-12
    71   -3.954579855620e-03
    72    4.494527013183e-04
    73   -2.767669710583e-04
    74    6.722883881905e-12
    75    9.750792877863e-04
    76   -8.284820717915e-05
    77    6.305598335326e-05
    78    6.603154101411e-12
    79   -1.193590032752e-03
    80   -1.366575124453e-04
    81    3.836990467191e-05
    82    1.301717932753e-12
    83    6.260314004748e-05
    84    2.883005979438e-13
    85   -1.207008171114e-13
    86    2.797887011401e-05
    87   -4.958699464807e-05
    88    3.990034874691e-06
    89   -5.368539331759e-05
    90    4.357907624253e-05
    91    2.996974518275e-05
    92    4.761817277025e-12
    93    2.218017858553e-04
    94    2.276093203612e-04
    95    1.555266967761e-04
    96    8.327793105041e-12
    97    1.904714617696e-06
    98    3.719493415942e-04
    99    3.882768723446e-04
   100    3.936685613257e-12
   101   -2.080556207573e-03
   102   -5.504711914193e-04
   103    8.307170340474e-04
   104    4.630934549952e-13
   105   -3.902853260397e-05
   106    3.277780521677e-13
   107    1.254090141566e-12
   108    6.611032556738e-05
   109    1.273148716606e-04
   110    3.863898521200e-01
   111    3.304759687459e-01
   112   -1.071938509209e-03
   113   -6.446247782082e-04
   114    7.314567950862e-12
   115    3.865996126687e-03
   116    4.314543411699e-04
   117    2.591534301459e-04
   118    1.138728109650e-11
   119   -9.843039126011e-04
   120   -7.112821092869e-05
   121   -4.305408230268e-05
   122    8.742657190786e-12
   123    9.707019347712e-04
   124   -5.265810236882e-05
   125   -4.110596174985e-05
   126   -2.030221250567e-14
   127   -8.375726536807e-05
   128   -7.294117196956e-13
   129   -4.165340277731e-13
   130   -2.676502803209e-05
   131   -5.277620266429e-05
   132    3.171863667815e-08
   133    8.241102770958e-07
   134   -1.551898803605e-05
   135    1.278913030034e-06
   136    7.247059884162e-12
   137   -8.393673817523e-06
   138    4.274749272834e-05
   139   -3.183747008025e-06
   140    1.194319489490e-11
   141    3.975270999169e-05
   142   -8.459589980669e-05
   143   -3.196111303562e-05
   144    1.143244333525e-11
   145   -7.771850342799e-05
   146   -8.114022531961e-04
   147   -3.732725193854e-05
   148    1.344074999008e-12
   149   -1.136089932304e-06
   150    2.770066143770e-13
   151   -1.477674185354e-13
   152   -1.278672705726e-06
   153   -1.310189407860e-05
   154   -2.788807706895e-07
   155   -5.906580529302e-07
   156   -3.496184683400e-06
   157    7.046986521836e-06
   158   -1.505663576779e-11
   159    1.192550223119e-05
   160    1.044577562225e-05
   161   -1.950680769332e-05
   162   -2.452261575665e-11
   163   -8.967969089918e-05
   164   -1.136311806005e-04
   165   -3.655906507605e-05
   166   -2.498803609478e-11
   167    1.736766290511e-04
   168   -2.450268282579e-04
   169    2.682359420702e-04
   170   -2.808656380838e-12
   171    6.092992885409e-06
   172   -5.650485033306e-13
   173    6.664173782637e-16
   174    1.354572095975e-05
   175    8.728325422737e-06
   176    6.060671703242e-07
   177    1.837499359403e-06
   178   -3.265754599931e-06
   179   -1.062591763932e-05
   180   -9.226492123352e-13
   181   -2.961480138909e-05
   182    5.449507854453e-06
   183    4.691375025383e-05
   184   -1.526340524740e-12
   185    5.710137711431e-04
   186   -4.642608505032e-04
   187    1.325129848287e-04
   188   -8.770644815047e-13
   189    3.259631422036e-03
   190   -2.757176997522e-04
   191    1.035644980670e-03
   192    4.614986763440e-13
   193   -8.132010623350e-06
   194    7.237228332112e-13
   195    7.768151948140e-13
   196   -2.074953160154e-05
   197    1.867395542223e-05
   198   -3.694475384281e-06
   199    9.849415932972e-05
   200    1.499604590564e-04
   201    3.876966861347e-04
   202   -1.306243250836e-05
   203    7.683297709265e-06
   204   -2.833168798484e-14
Sym=X
Ene= 2.000000
Spin=Alpha
Occup=1
     1   -3.063269921438e-07
     2   -5.736693025595e-07
     3   -1.034379518713e-06
     4    3.673863113818e-06
     5   -2.230463120297e-12
     6    5.481129785951e-06
     7    1.016879301227e-05
     8   -1.198080357937e-05
     9   -3.797251902138e-12
    10   -6.042011844391e-04
    11   -4.480266082115e-05
    12   -1.604030584726e-04
    13   -2.045302243709e-12
    14    4.954767367398e-04
    15    6.670631651553e-04
    16   -3.118129928108e-04
    17   -1.896498493809e-13
    18    1.815542036542e-06
    19    5.482096117787e-13
    20   -4.262972926066e-13
    21    8.004310893952e-08
    22    6.951485708536e-06
    23    2.718082489108e-06
    24    3.949181187446e-05
    25    4.240717193228e-05
    26    2.443207959992e-04
    27    4.267695854494e-06
    28   -4.845289492468e-06
    29   -5.161703944511e-13
    30   -5.364474415139e-06
    31    3.013118090044e-05
    32   -9.243778961520e-05
    33   -1.525871544768e-04
    34    2.895675111035e-06
    35    3.732888948083e-06
    36   -1.776070648386e-13
    37    3.896142710185e-06
    38    9.164551253911e-05
    39    1.398585714569e-04
    40    3.072997530586e-04
    41    1.507874936938e-07
    42   -8.593860358181e-06
    43    2.928115600704e-13
    44    2.990695960345e-06
    45   -5.311797721227e-05
    46   -3.791397700586e-05
    47    2.651882088969e-05
    48    3.797296584606e-14
    49    2.084173871181e-04
    50   -2.759789555525e-04
    51    1.504892438045e-04
    52    5.295584739992e-14
    53   -2.602716583942e-04
    54   -4.494776675729e-04
    55    2.229318314942e-04
    56    3.228310688611e-13
    57    1.156302745322e-04
    58    4.267413468741e-04
    59   -4.340567346022e-04
    60    3.313186909525e-15
    61   -3.683924089655e-05
    62   -3.530951346245e-14
    63    1.143035391244e-12
    64    6.016653653800e-05
    65   -1.254171344516e-04
    66    3.863861209810e-01
    67    3.304742611209e-01
    68    1.096602441080e-03
    69   -6.716777485871e-04
    70    1.699895657567e-12
    71    3.870755025812e-03
    72   -4.473609224840e-04
    73    2.726826437837e-04
    74    2.641195376452e-12
    75   -9.175977860785e-04
    76    1.060928133303e-04
    77   -6.224500441010e-05
    78    2.577258858514e-12
    79    8.208100051588e-04
    80   -6.070335207260e-05
    81    2.532484525899e-05
    82    4.979672990588e-13
    83   -6.098913890321e-05
    84    1.166891311159e-13
    85   -4.944259223184e-14
    86   -2.693297626380e-05
    87    4.862102399221e-05
    88    3.443099280100e-06
    89   -5.362162919359e-05
    90    3.833397864387e-05
    91    3.302582200175e-05
    92    1.907215344111e-12
    93    2.190646329558e-04
    94    2.581947206710e-04
    95    1.430183028443e-04
    96    3.339000089064e-12
    97   -2.835126023392e-04
    98    5.190921366812e-04
    99    3.290296316875e-04
   100    1.566696543388e-12
   101   -1.038476637675e-03
   102   -3.929177389822e-04
   103   -1.356935746014e-04
   104    1.867193201400e-13
   105   -3.538255352969e-05
   106    1.235713575500e-13
   107    5.022275789576e-13
   108    5.600916912864e-05
   109    1.327235343282e-04
   110    3.934947002327e-01
   111    3.365538498660e-01
   112   -1.091258989285e-03
   113   -6.572642928858e-04
   114    2.914939534865e-12
   115    3.926179415064e-03
   116    4.410955575718e-04
   117    2.661717161305e-04
   118    4.532647139328e-12
   119   -9.496771022008e-04
   120   -9.175671327353e-05
   121   -5.342312414363e-05
   122    3.480474586591e-12
   123    7.212105876634e-04
   124    6.862530103034e-05
   125    6.178110682252e-05
   126   -8.394044145200e-15
   127   -8.490588304657e-05
   128   -2.905345230928e-13
   129   -1.646990996011e-13
   130   -2.617797243995e-05
   131   -5.323569928368e-05
   132    4.268852656976e-07
   133    3.148820653668e-06
   134   -2.191110419285e-08
   135   -4.046770170137e-07
   136    2.955275928994e-12
   137   -4.805569023100e-05
   138   -1.559194686904e-06
   139    5.298669854069e-06
   140    4.866705557090e-12
   141    4.706086909217e-04
   142   -1.850210309934e-05
   143   -3.937446657092e-04
   144    4.659284719356e-12
   145   -6.135294076312e-05
   146   -4.395757138600e-05
   147   -1.599284348276e-04
   148    5.398475456890e-13
   149   -1.140297279014e-05
   150    1.073616040362e-13
   151   -6.454427254067e-14
   152    3.134415419859e-05
   153   -3.454443885175e-06
   154    2.450201269936e-07
   155    1.527979632098e-06
   156    3.910727951241e-06
   157   -6.576352830048e-06
   158   -5.820086767742e-12
   159   -2.491290101944e-05
   160   -1.202749406137e-05
   161    1.659491411620e-05
   162   -9.475961211832e-12
   163    2.993264172640e-04
   164    2.125518885645e-04
   165    6.429661309178e-05
   166   -9.665330048052e-12
   167    1.336190393477e-04
   168    1.712084418373e-04
   169   -2.496523964338e-04
   170   -1.082992884037e-12
   171   -4.755709412065e-06
   172   -2.203465557946e-13
   173    5.810493710143e-15
   174   -1.234094378343e-05
   175   -9.148946816835e-06
   176    7.992378029553e-07
   177    9.698229872991e-07
   178   -1.532455931249e-06
   179   -1.190359351127e-05
   180   -3.650383172099e-13
   181   -1.266261092614e-05
   182   -3.710593863896e-06
   183    5.738620144289e-05
   184   -6.009730094794e-13
   185    4.933814441174e-04
   186   -4.032298098569e-04
   187    9.397469103176e-05
   188   -3.637975213715e-13
   189   -8.984809385550e-04
   190    3.699520177931e-04
   191    6.273259423771e-04
   192    1.759619646652e-13
   193   -8.803592232248e-07
   194    2.824098612790e-13
   195    3.080183683901e-13
   196   -2.110524219737e-05
   197    1.458248337610e-05
   198   -1.876816693335e-06
   199    8.816882452124e-05
   200    1.228042994123e-04
   201    1.385686411413e-04
   202   -1.399217195001e-05
   203    8.431282106567e-06
   204   -1.143054258808e-14
Sym=X
Ene= 1.999999
Spin=Alpha
Occup=1
     1   -6.893258123286e-05
     2   -9.576536299417e-05
     3    8.004962473357e-05
     4    1.359373184880e-04
     5    1.564201075206e-12
     6    1.682072908650e-04
     7    4.515807866439e-05
     8    2.824837867284e-04
     9    2.657882512502e-12
    10   -4.627439433218e-04
    11    3.075214368002e-04
    12   -2.534356333193e-05
    13    1.437170759820e-12
    14    4.036249093828e-03
    15   -1.705296113084e-04
    16    1.044634636929e-03
    17    1.184631963656e-13
    18   -1.271399092879e-05
    19   -3.823581288506e-13
    20    3.007943273562e-13
    21   -6.947713915014e-06
    22   -9.220603395037e-05
    23    1.380238549517e-04
    24    1.983055561924e-04
    25   -3.678364501318e-06
    26   -2.064065097406e-04
    27    8.113396648196e-05
    28    1.099571391744e-04
    29    3.605541460782e-13
    30   -8.149086659434e-05
    31   -4.263553432739e-05
    32   -4.741123966689e-05
    33    2.068781573655e-04
    34   -1.853350511135e-05
    35    1.466410771576e-05
    36    1.253416361074e-13
    37   -1.273543487660e-04
    38   -1.237965057604e-04
    39    5.859993823228e-05
    40    2.088348500149e-05
    41   -7.990716127197e-07
    42   -2.210918390532e-05
    43   -1.913439229223e-13
    44    5.629383706636e-01
    45    4.659845750899e-01
    46    4.515800969909e-04
    47   -8.601132322252e-04
    48   -3.102679806601e-14
    49    4.303304205749e-03
    50   -9.962163405577e-04
    51   -7.574858226869e-04
    52   -3.636805731740e-14
    53   -4.503006473140e-04
    54    4.492231704552e-06
    55   -4.512279389295e-04
    56   -2.533877473454e-13
    57   -3.637746168736e-03
    58   -1.637944903588e-03
    59    5.859701420214e-04
    60   -1.390791139987e-14
    61   -4.654096635505e-04
    62    5.982968011069e-14
    63   -8.024251380051e-13
    64    2.360631428620e-04
    65   -3.755387059719e-04
    66   -8.025450430698e-04
    67   -1.307839161896e-03
    68   -6.774622288155e-04
    69   -5.570868359192e-04
    70   -1.281618076243e-12
    71    3.494792368240e-03
    72   -1.043069332027e-03
    73   -8.713632137958e-04
    74   -1.988816755866e-12
    75    2.124400216876e-03
    76   -1.546222634817e-03
    77   -3.406772409574e-04
    78   -1.941555417909e-12
    79    6.128249610879e-04
    80    5.377095375747e-04
    81   -3.384385851498e-04
    82   -3.702905300265e-13
    83   -3.417840921199e-05
    84   -8.773166726157e-14
    85    3.870115845759e-14
    86   -1.216714776419e-05
    87   -1.590233085351e-04
    88    7.073824458492e-04
    89    6.024235117088e-04
    90   -1.226136047418e-04
    91    7.290319368516e-06
    92   -1.278719572769e-12
    93   -9.458359443135e-05
    94   -2.655462327568e-04
    95   -2.192034267127e-05
    96   -2.235620495435e-12
    97   -5.637799568836e-04
    98    3.372594010626e-04
    99   -1.120865526765e-04
   100   -1.053835998175e-12
   101    3.450758526957e-03
   102   -9.163815196523e-04
   103   -1.885986409099e-04
   104   -1.246877702468e-13
   105    4.599682849311e-06
   106   -9.664127495155e-14
   107   -3.404474216690e-13
   108    4.091816287396e-05
   109   -2.357796748627e-05
   110    9.544859171795e-06
   111    1.547303625328e-05
   112    1.427357167796e-04
   113    6.439928141723e-05
   114   -2.006012758016e-12
   115   -4.161818358177e-05
   116    2.068679435182e-04
   117    9.171181532079e-05
   118   -3.121810359406e-12
   119    1.240150878035e-04
   120    8.454125183876e-05
   121    6.618647892890e-05
   122   -2.402896544646e-12
   123   -3.025051477752e-04
   124    1.536539810694e-04
   125    3.434691601300e-05
   126   -6.746586266839e-15
   127    9.877849733317e-06
   128    1.977004307679e-13
   129    1.126977726989e-13
   130    4.264754964643e-06
   131   -1.632099346304e-05
   132   -8.779079112403e-03
   133   -7.409617129966e-03
   134    8.663539774874e-05
   135   -2.326766823021e-04
   136   -1.917939579447e-12
   137    3.463685099678e-05
   138   -2.002805365642e-04
   139   -4.768786231809e-04
   140   -3.166366133983e-12
   141    1.466166150702e-04
   142    5.329403922109e-04
   143   -2.437945487727e-04
   144   -3.008149932932e-12