[Molden Format]
[Atoms] (Angs)
  C      1    6     -0.00714236     -1.70213747     -0.00000000
  H      2    1     -2.06882847     -1.44022412      0.00000000
  H      3    1     -0.12337987     -2.77567521      0.00000000
  H      4    1      0.04651892      1.98813947     -0.00000000
  C      5    6     -1.21953563      0.40211669      0.00000000
  O      6    8     -2.25921553      1.03043814      0.00000000
  C      7    6      1.28797806      0.34644937     -0.00000000
  O      8    8      2.31273661      1.00537216     -0.00000000
  N      9    7      0.03446295      0.97739857     -0.00000000
  N     10    7     -1.17287765     -0.98229824      0.00000000
  C     11    6      1.20107039     -1.10433419     -0.00000000
  H     12    1      2.11220096     -1.67699125     -0.00000000
[GTO]
1    0
S    6    1.000000
   4.56324000E+03    1.96665000E-03 
   6.82024000E+02    1.52306000E-02 
   1.54973000E+02    7.61269000E-02 
   4.44553000E+01    2.60801000E-01 
   1.30290000E+01    6.16462000E-01 
   1.82773000E+00    2.21006000E-01 
SP   3    1.000000
   2.09642000E+01    1.14660000E-01   4.02487000E-02 
   4.80331000E+00    9.19999000E-01   2.37594000E-01 
   1.45933000E+00   -3.03068000E-03   8.15854000E-01 
SP   1    1.000000
   4.83456000E-01    1.00000000E+00   1.00000000E+00 
SP   1    1.000000
   1.45585000E-01    1.00000000E+00   1.00000000E+00 
SP   1    1.000000
   4.38000000E-02    1.00000000E+00   1.00000000E+00 
D    1    1.000000
   6.26000000E-01    1.00000000E+00 

2    0
S    3    1.000000
   3.38650000E+01    2.54938000E-02 
   5.09479000E+00    1.90373000E-01 
   1.15879000E+00    8.52161000E-01 
S    1    1.000000
   3.25840000E-01    1.00000000E+00 
S    1    1.000000
   1.02741000E-01    1.00000000E+00 
S    1    1.000000
   3.60000000E-02    1.00000000E+00 
P    1    1.000000
   7.50000000E-01    1.00000000E+00 

3    0
S    3    1.000000
   3.38650000E+01    2.54938000E-02 
   5.09479000E+00    1.90373000E-01 
   1.15879000E+00    8.52161000E-01 
S    1    1.000000
   3.25840000E-01    1.00000000E+00 
S    1    1.000000
   1.02741000E-01    1.00000000E+00 
S    1    1.000000
   3.60000000E-02    1.00000000E+00 
P    1    1.000000
   7.50000000E-01    1.00000000E+00 

4    0
S    3    1.000000
   3.38650000E+01    2.54938000E-02 
   5.09479000E+00    1.90373000E-01 
   1.15879000E+00    8.52161000E-01 
S    1    1.000000
   3.25840000E-01    1.00000000E+00 
S    1    1.000000
   1.02741000E-01    1.00000000E+00 
S    1    1.000000
   3.60000000E-02    1.00000000E+00 
P    1    1.000000
   7.50000000E-01    1.00000000E+00 

5    0
S    6    1.000000
   4.56324000E+03    1.96665000E-03 
   6.82024000E+02    1.52306000E-02 
   1.54973000E+02    7.61269000E-02 
   4.44553000E+01    2.60801000E-01 
   1.30290000E+01    6.16462000E-01 
   1.82773000E+00    2.21006000E-01 
SP   3    1.000000
   2.09642000E+01    1.14660000E-01   4.02487000E-02 
   4.80331000E+00    9.19999000E-01   2.37594000E-01 
   1.45933000E+00   -3.03068000E-03   8.15854000E-01 
SP   1    1.000000
   4.83456000E-01    1.00000000E+00   1.00000000E+00 
SP   1    1.000000
   1.45585000E-01    1.00000000E+00   1.00000000E+00 
SP   1    1.000000
   4.38000000E-02    1.00000000E+00   1.00000000E+00 
D    1    1.000000
   6.26000000E-01    1.00000000E+00 

6    0
S    6    1.000000
   8.58850000E+03    1.89515000E-03 
   1.29723000E+03    1.43859000E-02 
   2.99296000E+02    7.07320000E-02 
   8.73771000E+01    2.40001000E-01 
   2.56789000E+01    5.94797000E-01 
   3.74004000E+00    2.80802000E-01 
SP   3    1.000000
   4.21175000E+01    1.13889000E-01   3.65114000E-02 
   9.62837000E+00    9.20811000E-01   2.37153000E-01 
   2.85332000E+00   -3.27447000E-03   8.19702000E-01 
SP   1    1.000000
   9.05661000E-01    1.00000000E+00   1.00000000E+00 
SP   1    1.000000
   2.55611000E-01    1.00000000E+00   1.00000000E+00 
SP   1    1.000000
   8.45000000E-02    1.00000000E+00   1.00000000E+00 
D    1    1.000000
   1.29200000E+00    1.00000000E+00 

7    0
S    6    1.000000
   4.56324000E+03    1.96665000E-03 
   6.82024000E+02    1.52306000E-02 
   1.54973000E+02    7.61269000E-02 
   4.44553000E+01    2.60801000E-01 
   1.30290000E+01    6.16462000E-01 
   1.82773000E+00    2.21006000E-01 
SP   3    1.000000
   2.09642000E+01    1.14660000E-01   4.02487000E-02 
   4.80331000E+00    9.19999000E-01   2.37594000E-01 
   1.45933000E+00   -3.03068000E-03   8.15854000E-01 
SP   1    1.000000
   4.83456000E-01    1.00000000E+00   1.00000000E+00 
SP   1    1.000000
   1.45585000E-01    1.00000000E+00   1.00000000E+00 
SP   1    1.000000
   4.38000000E-02    1.00000000E+00   1.00000000E+00 
D    1    1.000000
   6.26000000E-01    1.00000000E+00 

8    0
S    6    1.000000
   8.58850000E+03    1.89515000E-03 
   1.29723000E+03    1.43859000E-02 
   2.99296000E+02    7.07320000E-02 
   8.73771000E+01    2.40001000E-01 
   2.56789000E+01    5.94797000E-01 
   3.74004000E+00    2.80802000E-01 
SP   3    1.000000
   4.21175000E+01    1.13889000E-01   3.65114000E-02 
   9.62837000E+00    9.20811000E-01   2.37153000E-01 
   2.85332000E+00   -3.27447000E-03   8.19702000E-01 
SP   1    1.000000
   9.05661000E-01    1.00000000E+00   1.00000000E+00 
SP   1    1.000000
   2.55611000E-01    1.00000000E+00   1.00000000E+00 
SP   1    1.000000
   8.45000000E-02    1.00000000E+00   1.00000000E+00 
D    1    1.000000
   1.29200000E+00    1.00000000E+00 

9    0
S    6    1.000000
   6.29348000E+03    1.96979000E-03 
   9.49044000E+02    1.49613000E-02 
   2.18776000E+02    7.35006000E-02 
   6.36916000E+01    2.48937000E-01 
   1.88282000E+01    6.02460000E-01 
   2.72023000E+00    2.56202000E-01 
SP   3    1.000000
   3.06331000E+01    1.11906000E-01   3.83119000E-02 
   7.02614000E+00    9.21666000E-01   2.37403000E-01 
   2.11205000E+00   -2.56919000E-03   8.17592000E-01 
SP   1    1.000000
   6.84009000E-01    1.00000000E+00   1.00000000E+00 
SP   1    1.000000
   2.00878000E-01    1.00000000E+00   1.00000000E+00 
SP   1    1.000000
   6.39000000E-02    1.00000000E+00   1.00000000E+00 
D    1    1.000000
   9.13000000E-01    1.00000000E+00 

10    0
S    6    1.000000
   6.29348000E+03    1.96979000E-03 
   9.49044000E+02    1.49613000E-02 
   2.18776000E+02    7.35006000E-02 
   6.36916000E+01    2.48937000E-01 
   1.88282000E+01    6.02460000E-01 
   2.72023000E+00    2.56202000E-01 
SP   3    1.000000
   3.06331000E+01    1.11906000E-01   3.83119000E-02 
   7.02614000E+00    9.21666000E-01   2.37403000E-01 
   2.11205000E+00   -2.56919000E-03   8.17592000E-01 
SP   1    1.000000
   6.84009000E-01    1.00000000E+00   1.00000000E+00 
SP   1    1.000000
   2.00878000E-01    1.00000000E+00   1.00000000E+00 
SP   1    1.000000
   6.39000000E-02    1.00000000E+00   1.00000000E+00 
D    1    1.000000
   9.13000000E-01    1.00000000E+00 

11    0
S    6    1.000000
   4.56324000E+03    1.96665000E-03 
   6.82024000E+02    1.52306000E-02 
   1.54973000E+02    7.61269000E-02 
   4.44553000E+01    2.60801000E-01 
   1.30290000E+01    6.16462000E-01 
   1.82773000E+00    2.21006000E-01 
SP   3    1.000000
   2.09642000E+01    1.14660000E-01   4.02487000E-02 
   4.80331000E+00    9.19999000E-01   2.37594000E-01 
   1.45933000E+00   -3.03068000E-03   8.15854000E-01 
SP   1    1.000000
   4.83456000E-01    1.00000000E+00   1.00000000E+00 
SP   1    1.000000
   1.45585000E-01    1.00000000E+00   1.00000000E+00 
SP   1    1.000000
   4.38000000E-02    1.00000000E+00   1.00000000E+00 
D    1    1.000000
   6.26000000E-01    1.00000000E+00 

12    0
S    3    1.000000
   3.38650000E+01    2.54938000E-02 
   5.09479000E+00    1.90373000E-01 
   1.15879000E+00    8.52161000E-01 
S    1    1.000000
   3.25840000E-01    1.00000000E+00 
S    1    1.000000
   1.02741000E-01    1.00000000E+00 
S    1    1.000000
   3.60000000E-02    1.00000000E+00 
P    1    1.000000
   7.50000000E-01    1.00000000E+00 

[MO]
Sym=X
Ene= 2.000000
Spin=Alpha
Occup=1
     1    1.249422817253e-01
     2    1.035180182738e-01
     3   -4.197609633933e-04
     4   -1.555573349319e-05
     5    3.471979884257e-15
     6    6.810577865111e-04
     7    3.682982253111e-04
     8   -3.587405813493e-05
     9    2.197535460551e-15
    10    1.383823326412e-04
    11   -2.829759679559e-04
    12   -1.421627146275e-04
    13    5.410479289367e-15
    14    1.110359188320e-03
    15    2.943744615591e-05
    16    5.269942624009e-04
    17   -8.921088822406e-15
    18   -1.892530694023e-04
    19    1.303800158310e-15
    20    8.530275432774e-16
    21    9.642426620782e-06
    22    1.362191592955e-04
    23   -2.775786033515e-05
    24   -2.329765956780e-05
    25   -6.238462177343e-05
    26   -7.334884523357e-05
    27   -2.376757028932e-05
    28   -2.089157843287e-05
    29    1.811695518521e-16
    30    9.413297486251e-05
    31   -1.472775770741e-04
    32    1.452687271663e-04
    33    2.008766821571e-04
    34   -2.928046548783e-06
    35   -2.166118714298e-05
    36    1.078550080424e-15
    37    5.059674366591e-06
    38   -3.756537672371e-05
    39    1.233930598560e-04
    40   -3.211186045532e-05
    41    1.282700550840e-05
    42    3.251099627370e-05
    43   -2.599931509540e-16
    44   -3.432042351311e-01
    45   -2.841755851588e-01
    46   -3.926902202759e-04
    47    2.904581927486e-04
    48    9.478448228055e-16
    49   -2.198308096576e-03
    50    4.747236798706e-04
    51   -3.139861708269e-04
    52   -2.342712388356e-15
    53   -2.012495765891e-04
    54   -9.659488768817e-05
    55    2.770343900067e-05
    56   -1.793249327674e-15
    57    1.130450865052e-03
    58    6.658200453730e-04
    59   -2.451078277034e-04
    60    7.700384403200e-16
    61    2.518422671509e-04
    62   -7.901205851063e-16
    63   -4.281063662506e-16
    64   -1.134865804116e-04
    65    2.090090204993e-04
    66    3.845333840427e-02
    67    3.295791060155e-02
    68   -4.304353350718e-05
    69    2.437929531427e-05
    70    7.962825896230e-16
    71    6.129663176075e-05
    72   -2.538210108647e-04
    73    1.516622588239e-04
    74   -3.649692157450e-15
    75    4.328852719273e-04
    76    3.053644497703e-04
    77   -1.792162922073e-04
    78    3.359181595303e-15
    79   -4.594166781298e-04
    80   -4.185919091485e-04
    81    2.347604648547e-04
    82   -2.213629455882e-15
    83    2.081768211812e-05
    84   -2.755774687924e-16
    85    6.589757892018e-16
    86   -4.629044397268e-05
    87    8.809115101536e-05
    88    1.682692181571e-01
    89    1.393977099136e-01
    90   -2.361882820045e-04
    91    2.568710622483e-04
    92    2.010213809119e-15
    93    7.864406569916e-04
    94    2.446989168587e-04
    95    1.446693560852e-04
    96    1.699183642364e-15
    97    8.390364065540e-05
    98    4.825622916533e-05
    99    4.277626173218e-04
   100    1.579642499373e-15
   101    1.599666198280e-04
   102    3.052032367404e-04
   103    9.659254549331e-05
   104   -1.148806570144e-14
   105   -1.323941913694e-04
   106    1.999840064715e-15
   107    2.463023133091e-16
   108    8.329959416644e-05
   109    8.434485674068e-05
   110   -8.276474050785e-02
   111   -7.082385009772e-02
   112    1.551545045623e-04
   113    7.509836170656e-05
   114    3.921157874430e-15
   115   -6.465321902571e-04
   116   -1.852871828948e-04
   117   -1.154570168046e-04
   118    3.116316950828e-15
   119   -2.230417642250e-04
   120    2.121821059377e-04
   121    6.852772642638e-05
   122    3.146534631872e-15
   123   -5.135755970210e-05
   124   -1.520850701243e-04
   125   -8.116922764595e-05
   126    5.127645976610e-15
   127    8.257622985505e-06
   128    3.591477885685e-16
   129    5.358768125812e-17
   130    2.712030501430e-05
   131    4.727320276561e-05
   132    2.558284549345e-02
   133    2.150940428900e-02
   134    9.860782373608e-05
   135    4.123516921921e-06
   136   -2.187664009327e-15
   137    1.176267704378e-04
   138    4.483100810706e-04
   139    8.897212878816e-05
   140   -4.816128006364e-15
   141    7.429995840180e-05
   142   -2.954767742384e-04
   143   -8.298715907469e-05
   144   -2.700978871560e-15
   145   -1.623610920575e-04
   146   -2.196756101519e-04
   147   -1.379870700467e-04
   148    1.270131901219e-15
   149    5.333148443235e-06
   150   -4.438849804217e-16
   151   -4.239988713515e-16
   152   -4.751217179902e-05
   153   -1.254620115612e-04
   154   -4.673748186294e-02
   155   -3.921344568043e-02
   156    1.413925717253e-05
   157   -9.144246152378e-05
   158    3.662700695728e-15
   159   -6.241437972729e-04
   160    1.433214639907e-04
   161   -4.318206255326e-04
   162    3.299801511699e-15
   163    2.654914892701e-04
   164   -3.033829591716e-05
   165    1.949667308771e-04
   166    3.284689925771e-15
   167   -8.748784111430e-04
   168   -4.160450557292e-04
   169    4.851257293244e-05
   170    5.238921947231e-15
   171    1.118778578321e-05
   172    1.090795893245e-15
   173   -4.231440198104e-16
   174    1.560721410895e-04
   175   -4.079595859666e-05
   176   -3.797268685974e-01
   177   -3.145277773380e-01
   178    4.903554472660e-05
   179   -1.388314410200e-04
   180    1.949073213775e-15
   181   -3.140769456697e-03
   182    2.372206967148e-04
   183    3.148516345637e-04
   184    4.200054026692e-15
   185    1.031209180052e-03
   186   -2.030780030743e-04
   187    1.656829553299e-04
   188   -2.418051798108e-16
   189   -1.144792264071e-03
   190    7.557086273792e-04
   191   -6.528096384154e-04
   192    1.190208461682e-14
   193    2.923291248088e-04
   194    4.352679374308e-16
   195    6.818324239092e-17
   196   -1.776002906703e-04
   197   -8.379607976191e-05
   198   -2.753305181210e-04
   199    2.381343522963e-04
   200   -4.110711819555e-04
   201   -5.758064450295e-04
   202   -4.019357119528e-05
   203    3.557555607668e-05
   204   -2.324967697348e-17
Sym=X
Ene= 2.000000
Spin=Alpha
Occup=1
     1    9.605062252216e-02
     2    7.956351834731e-02
     3   -9.766596308398e-05
     4    2.513972722051e-05
     5   -1.131165115895e-15
     6    6.080970783086e-04
     7    3.076402683367e-04
     8   -9.495622482022e-05
     9   -7.691581228586e-16
    10   -4.328911505010e-04
    11    5.664447562713e-05
    12   -3.987956902937e-04
    13    2.065186183765e-15
    14   -1.090420842353e-04
    15    2.576609188794e-04
    16    3.730912835717e-04
    17   -3.461317766616e-16
    18   -6.909413021992e-05
    19    8.070284191135e-17
    20   -6.938276705257e-16
    21   -1.359008332666e-05
    22    1.384260618793e-04
    23   -1.669837607706e-04
    24    2.579655255356e-04
    25   -5.037837422555e-04
    26   -2.217509138830e-05
    27    7.288760251300e-05
    28    4.119480641852e-05
    29    7.502353372262e-17
    30    7.595231253517e-05
    31   -1.334916659672e-04
    32    2.147315198246e-05
    33    2.865275916095e-04
    34   -1.170004951899e-06
    35   -2.017344885559e-05
    36    1.093734245360e-17
    37    1.329673231837e-04
    38   -4.387369331520e-06
    39    5.267063121097e-04
    40    2.920244805788e-04
    41   -5.113729471942e-07
    42   -2.150338853249e-05
    43   -1.034131205262e-15
    44    1.546620312978e-01
    45    1.280389760959e-01
    46    1.930051777076e-04
    47   -1.941943229071e-05
    48   -1.574064960068e-14
    49    1.055610715095e-03
    50   -2.472820323275e-04
    51    3.628102665351e-04
    52   -2.488322465264e-14
    53   -4.749695804541e-04
    54   -4.757915236822e-04
    55    5.535707895892e-04
    56   -1.362839735946e-14
    57   -8.756674705596e-05
    58    5.850744662069e-05
    59    1.864555312447e-04
    60   -5.979952246602e-15
    61   -1.303113474698e-04
    62    3.411041460358e-16
    63   -1.225543744385e-15
    64    1.883037270041e-04
    65   -9.298364813683e-05
    66    1.559667774105e-01
    67    1.333637396370e-01
    68    5.049512412823e-04
    69   -3.235553742664e-04
    70   -1.570294235330e-14
    71    1.732187589397e-03
    72   -6.666845638378e-05
    73    5.624564091345e-05
    74   -2.142989856607e-14
    75   -7.321043138799e-04
    76   -1.604710938888e-04
    77    2.116183094864e-05
    78   -2.215762437510e-14
    79    2.904054581598e-04
    80    9.751372474153e-05
    81   -7.700348699758e-05
    82    3.056622298668e-15
    83   -3.644328272655e-05
    84   -1.256642488202e-15
    85    1.083480676288e-15
    86    1.665233171024e-05
    87   -1.670138915093e-05
    88    1.849659109308e-01
    89    1.531382970521e-01
    90   -2.857956270287e-04
    91    1.584515025098e-04
    92   -1.838111146466e-15
    93    1.363371271170e-03
    94    2.019504583025e-04
    95   -1.023837654491e-04
    96   -3.226337198811e-16
    97   -9.943624985294e-04
    98   -1.440820533719e-04
    99    2.059891550581e-04
   100   -1.158326306237e-15
   101   -4.660739352755e-03
   102    8.128272690291e-04
   103    1.025513415994e-03
   104    1.835688899386e-15
   105   -1.133319672132e-04
   106    2.401664537882e-15
   107   -2.456673884809e-16
   108   -2.494546948179e-06
   109    1.173687470989e-04
   110   -4.848226460896e-02
   111   -4.150300396256e-02
   112    5.902775083110e-05
   113    2.699952274232e-05
   114    5.310921078220e-15
   115   -3.191892027201e-04
   116   -1.815480779528e-04
   117   -1.148374744475e-04
   118    1.043433459086e-14
   119    3.414931744500e-05
   120    1.013597218896e-04
   121    2.262548407906e-05
   122    8.759581994516e-15
   123    2.528414754451e-04
   124   -1.661278877492e-04
   125   -2.038049526049e-04
   126    6.133577444217e-16
   127   -6.414239592384e-06
   128   -1.352215198526e-16
   129    5.444949369626e-18
   130    2.576223111369e-05
   131    5.977200754293e-05
   132    2.477911307344e-01
   133    2.080094736258e-01
   134   -8.118212954058e-05
   135   -1.092579390449e-04
   136   -1.814620919931e-14
   137    2.720487162269e-03
   138    9.871436226564e-05
   139   -1.089163780086e-04
   140   -2.884521862716e-14
   141   -4.447097665171e-04
   142    1.692692190271e-05
   143   -2.065565765401e-04
   144   -2.929762441595e-14
   145    1.848754940632e-03
   146    2.607020775075e-04
   147   -1.268942177643e-03
   148    9.757176005227e-16
   149   -3.256432042461e-05
   150    4.822641659459e-16
   151    1.483867034583e-15
   152    1.021431908080e-04
   153   -2.820190574810e-05
   154   -3.896442954767e-01
   155   -3.272173001129e-01
   156   -1.048773042154e-04
   157    1.394135766428e-05
   158   -8.206530518249e-15
   159   -3.741086768811e-03
   160    1.638442580306e-04
   161    9.796761834718e-05
   162   -1.521708584693e-14
   163    1.336126182427e-03
   164    3.817796257968e-04
   165    2.767903241505e-04
   166   -1.249358393522e-14
   167   -6.299405340158e-04
   168   -6.303012214999e-04
   169   -5.556295082502e-04
   170    5.178117611163e-16
   171   -2.000037214969e-05
   172   -3.293120208113e-17
   173   -1.087092803341e-15
   174   -7.326362574715e-05
   175   -7.171331910399e-05
   176    6.720098045046e-02
   177    5.563477867614e-02
   178   -5.601178568518e-05
   179    5.740580029916e-05
   180    1.121973599032e-15
   181    6.782705867142e-04
   182    9.183832174943e-06
   183    5.977243627479e-05
   184    3.570198651079e-15
   185    1.212912003743e-04
   186   -6.258627113470e-05
   187    2.393131139326e-04
   188    2.679565154442e-15
   189    3.146010931443e-03
   190   -5.569803174568e-04
   191    8.744854098433e-04
   192    1.550957686677e-15
   193   -6.076272609802e-06
   194   -4.433100312950e-16
   195   -1.112238983068e-15
   196   -2.290702197803e-05
   197    3.194715970054e-05
   198    5.101437363664e-05
   199    9.438541098793e-06
   200    1.523909743706e-04
   201    2.449070337202e-04
   202   -1.425225643298e-05
   203    1.502418763407e-06
   204    9.927622625338e-17
Sym=X
Ene= 2.000000
Spin=Alpha
Occup=1
     1    2.541344628595e-01
     2    2.104237417315e-01
     3   -4.290613583269e-04
     4    1.930593050080e-04
     5    1.082315790513e-15
     6    2.111740857723e-03
     7    4.835862925550e-04
     8    4.984318480193e-05
     9    2.340493038775e-15
    10   -7.935825518483e-04
    11   -3.094367994146e-04
    12    2.820513959586e-05
    13    1.534312925155e-16
    14   -8.572909345079e-03
    15   -3.281479664835e-04
    16   -1.920715481077e-03
    17    1.478528422061e-15
    18   -1.564963742286e-04
    19   -8.467517109250e-16
    20    4.516726293200e-16
    21    5.274896225993e-05
    22    2.212255795379e-04
    23    8.111986063570e-05
    24    1.798775063904e-05
    25    2.704243198416e-04
    26    5.223491517368e-04
    27    3.098935858288e-05
    28   -1.498500854124e-05
    29    3.962567669449e-16
    30    1.687433510895e-04
    31    2.206175419264e-05
    32    1.183676321344e-04
    33   -3.583131464666e-04
    34    3.387781064590e-05
    35    1.912584675737e-05
    36   -1.700281957605e-16
    37   -5.359601754621e-05
    38    1.699477335963e-04
    39   -1.622053035710e-04
    40   -7.364651308743e-05
    41    8.329467582498e-06
    42   -6.946731787748e-05
    43    8.821468316379e-16
    44   -3.229995742544e-02
    45   -2.675093074799e-02
    46   -7.530445157489e-05
    47   -7.520282140974e-06
    48    7.507388433480e-15
    49   -1.613880086540e-04
    50    1.298534075313e-05
    51   -1.207434041210e-04
    52    1.191387933162e-14
    53   -1.005217012942e-03
    54   -5.352639337086e-04
    55    1.694427817895e-04
    56    5.828721338798e-15
    57    1.639477755387e-03
    58    4.585957533371e-04
    59   -2.401698792939e-05
    60    3.695336627524e-15
    61    3.532387615666e-05
    62   -1.061576376122e-16
    63    1.527203849622e-16
    64   -4.919202508447e-05
    65   -7.224047609011e-06
    66    3.555230396023e-03
    67    3.045537401339e-03
    68   -1.439192894879e-06
    69    8.142381945280e-06
    70    8.251928847990e-15
    71    1.934289511813e-05
    72   -1.316894498107e-05
    73    2.906862328668e-06
    74    1.243459321832e-14
    75   -1.172442458150e-05
    76    4.976310178041e-05
    77    2.125742297114e-05
    78    1.150611717027e-14
    79   -1.579416504961e-04
    80   -6.347935100127e-05
    81   -1.812388686602e-05
    82   -6.852516023760e-16
    83    1.729484382220e-06
    84    7.402510936798e-16
    85   -7.889561615051e-16
    86   -2.916626890654e-06
    87    4.557955099630e-06
    88    3.769803428573e-01
    89    3.121177795778e-01
    90   -4.661818565679e-04
    91    2.445345503971e-04
    92    2.928541920978e-15
    93    2.641732217998e-03
    94    6.671173042596e-04
    95   -2.321175546776e-04
    96    2.453538436706e-15
    97   -2.748422291818e-04
    98    1.958426118406e-04
    99    5.834159473260e-04
   100    4.695491666159e-15
   101   -8.350029940702e-03
   102    1.313524069381e-03
   103    1.812052152851e-03
   104   -1.761999644137e-15
   105   -2.855872805643e-04
   106   -5.865481063193e-16
   107    2.482915261919e-16
   108   -9.816761887942e-05
   109    3.524617542548e-04
   110    7.116819742772e-02
   111    6.078996234306e-02
   112   -3.642983032841e-04
   113   -2.171017889205e-04
   114    1.322429428143e-15
   115    1.102096817206e-03
   116   -1.668939029091e-04
   117   -1.358458416167e-04
   118    1.092779868670e-15
   119   -7.679137731246e-04
   120    2.805864234532e-04
   121    1.803214164242e-04
   122    6.223835485988e-16
   123    5.237420332286e-04
   124   -2.792600802878e-04
   125   -3.744435151999e-04
   126   -4.379771300401e-16
   127   -4.395295787807e-05
   128   -6.740491873378e-16
   129    3.282778855021e-17
   130    2.775121416510e-05
   131    9.680100844905e-05
   132   -1.558353085977e-01
   133   -1.309113515223e-01
   134    9.854895444335e-05
   135    1.648833378003e-05
   136    7.086595074632e-15
   137   -1.304108405274e-03
   138    4.281512914402e-04
   139   -2.127491956234e-04
   140    1.133178517493e-14
   141    6.413986098638e-04
   142   -4.178973224739e-04
   143   -3.541268320379e-04
   144    1.068216153163e-14
   145    2.680260185176e-04
   146    2.146395086204e-04
   147    6.697705144112e-05
   148   -1.023404247909e-15
   149   -4.380669122849e-05
   150   -2.803179585379e-16
   151   -5.122460321951e-16
   152    1.304164899642e-04
   153   -1.300498230829e-04
   154    1.567753189836e-01
   155    1.315964161571e-01
   156    9.457955439883e-05
   157   -3.568461292085e-05
   158    5.621496252099e-15
   159    1.789448451132e-03
   160    2.487432624783e-04
   161   -1.873320235074e-04
   162    7.401159358505e-15
   163   -2.998262488712e-04
   164    3.618088298489e-07
   165    2.816241398413e-04
   166    7.520311015950e-15
   167    1.891373362960e-03
   168    8.901453044022e-04
   169   -3.247179170007e-05
   170   -1.193002439731e-15
   171   -2.498409678493e-05
   172   -1.312487169212e-17
   173    5.591405851488e-16
   174    7.293695795080e-05
   175   -9.717136702618e-05
   176    2.332694638920e-01
   177    1.931531315496e-01
   178   -1.656417909792e-04
   179    1.488484547043e-04
   180    8.774269194857e-16
   181    2.225314321831e-03
   182    4.782855871459e-05
   183    8.169970787731e-05
   184   -2.131453610481e-16
   185   -2.589395864257e-04
   186   -2.000799016819e-04
   187   -4.271143974365e-05
   188    1.351034366008e-16
   189    1.256629172221e-02
   190   -3.168891174240e-03
   191    2.098463838411e-03
   192   -8.436510228860e-16
   193   -6.840485591159e-05
   194   -4.528412856703e-16
   195    2.326361445610e-16
   196   -5.422606388950e-07
   197    4.957475846753e-05
   198    1.727614641154e-04
   199   -1.008390080335e-04
   200    4.799601525186e-04
   201    1.133488758926e-03
   202   -4.504969815765e-06
   203   -1.021539966823e-05
   204    2.643495728135e-16
Sym=X
Ene= 2.000000
Spin=Alpha
Occup=1
     1    6.792914945982e-02
     2    5.624578484621e-02
     3   -1.822167887098e-04
     4    4.487797638717e-05
     5   -2.834255460882e-15
     6    5.509852533176e-04
     7    1.067786431966e-04
     8    5.132435211540e-05
     9   -6.325148032502e-15
    10    3.696443853960e-04
    11    9.723882373478e-05
    12    4.831912479824e-04
    13   -4.533261430210e-15
    14    1.277794560526e-03
    15    1.453621140190e-04
    16    8.306308757314e-04
    17   -9.202762643415e-15
    18   -6.163640921769e-05
    19    4.110279747526e-16
    20   -3.336464118412e-17
    21    3.332724847780e-05
    22    1.201672940805e-05
    23    1.013559813068e-04
    24   -6.757563480144e-05
    25    3.606645887176e-04
    26    2.365084518446e-04
    27    8.044244470759e-06
    28   -8.759066058333e-06
    29   -4.317318792405e-16
    30    4.223687871158e-05
    31    9.574014843431e-05
    32    2.150981052259e-04
    33    3.187918683838e-04
    34   -4.040537448282e-06
    35    2.233784558753e-05
    36    1.961022770618e-16
    37   -1.707957729902e-05
    38   -8.804544446717e-06
    39   -1.822247057980e-04
    40    6.287544818050e-05
    41    6.423197854001e-06
    42   -1.109689179605e-05
    43    8.641633840259e-16
    44    1.313946863550e-01
    45    1.087305278237e-01
    46    9.974282225413e-05
    47   -1.181631065343e-04
    48    6.512188331859e-15
    49    1.109363398033e-03
    50   -3.945073877402e-04
    51    1.847504279547e-04
    52    1.376989752739e-14
    53    3.360190840644e-04
    54    1.941742489024e-05
    55    4.044124194882e-05
    56    3.453866833244e-15
    57   -5.283867661391e-04
    58    6.919989446823e-05
    59    4.666735130620e-05
    60    1.096652998732e-15
    61   -1.347876782628e-04
    62    1.534015198508e-15
    63    1.306760742432e-15
    64    6.555810836798e-05
    65   -2.166307225166e-04
    66    3.444589824527e-01
    67    2.945873714663e-01
    68    1.036147094772e-03
    69   -6.287854894546e-04
    70    5.236758170802e-15
    71    3.576296919710e-03
    72   -3.136045535741e-04
    73    1.881278848225e-04
    74    5.429932513849e-15
    75   -9.582137151572e-04
    76   -8.861804812807e-06
    77    9.747062889151e-06
    78    7.045006421440e-15
    79    1.371489916279e-03
    80    3.060106076780e-04
    81   -1.475950090789e-04
    82   -2.322230240160e-15
    83   -6.652726288019e-05
    84    5.408834525165e-16
    85   -3.133820546157e-16
    86   -1.050722464779e-05
    87    8.450978383128e-06
    88   -5.117525010489e-02
    89   -4.231600064148e-02
    90    4.264781251618e-05
    91   -6.326240222029e-05
    92    8.236706871979e-15
    93   -5.936627683371e-04
    94   -2.949113199063e-04
    95   -1.151240111095e-04
    96    1.469437517307e-14
    97    3.711673349295e-04
    98   -3.503915028142e-04
    99   -6.082589057366e-04
   100    7.759254541871e-15
   101    4.372461321652e-03
   102    9.809112433138e-05
   103   -1.210652474363e-03
   104   -1.051070819318e-14
   105    6.659578166396e-05
   106   -9.012477066979e-16
   107    8.870424275744e-16
   108   -4.042896850457e-05
   109   -1.520975459586e-04
   110   -3.482600869299e-01
   111   -2.978531708221e-01
   112    9.872164484420e-04
   113    5.954883490701e-04
   114    6.247320181142e-15
   115   -3.539396735785e-03
   116   -3.565378787022e-04
   117   -2.121292662343e-04
   118    7.998782576735e-15
   119    9.879039679021e-04
   120    1.378295249619e-05
   121    4.088028650518e-05
   122    7.007791773070e-15
   123   -1.038507619467e-03
   124    1.246976921141e-04
   125    9.414653241673e-05
   126    1.570076795426e-15
   127    7.996785982349e-05
   128   -1.047455923902e-15
   129   -8.095180627448e-16
   130    2.119555716591e-05
   131    3.233817640164e-05
   132   -4.147134021793e-02
   133   -3.483623303998e-02
   134   -2.053203747717e-06
   135    4.578099007329e-06
   136    1.787460691405e-14
   137   -3.411650284675e-04
   138   -2.318005243959e-04
   139   -4.241464225845e-05
   140    3.068903526057e-14
   141   -6.544010718683e-05
   142    2.243405344848e-04
   143    1.611415934490e-04
   144    2.705012606870e-14