[Molden Format]
[Atoms] (Angs)
  C      1    6     -0.00714236     -1.70213747     -0.00000000
  H      2    1     -2.06882847     -1.44022412      0.00000000
  H      3    1     -0.12337987     -2.77567521      0.00000000
  H      4    1      0.04651892      1.98813947     -0.00000000
  C      5    6     -1.21953563      0.40211669      0.00000000
  O      6    8     -2.25921553      1.03043814      0.00000000
  C      7    6      1.28797806      0.34644937     -0.00000000
  O      8    8      2.31273661      1.00537216     -0.00000000
  N      9    7      0.03446295      0.97739857     -0.00000000
  N     10    7     -1.17287765     -0.98229824      0.00000000
  C     11    6      1.20107039     -1.10433419     -0.00000000
  H     12    1      2.11220096     -1.67699125     -0.00000000
[GTO]
1    0
S    6    1.000000
   4.56324000E+03    1.96665000E-03 
   6.82024000E+02    1.52306000E-02 
   1.54973000E+02    7.61269000E-02 
   4.44553000E+01    2.60801000E-01 
   1.30290000E+01    6.16462000E-01 
   1.82773000E+00    2.21006000E-01 
SP   3    1.000000
   2.09642000E+01    1.14660000E-01   4.02487000E-02 
   4.80331000E+00    9.19999000E-01   2.37594000E-01 
   1.45933000E+00   -3.03068000E-03   8.15854000E-01 
SP   1    1.000000
   4.83456000E-01    1.00000000E+00   1.00000000E+00 
SP   1    1.000000
   1.45585000E-01    1.00000000E+00   1.00000000E+00 
SP   1    1.000000
   4.38000000E-02    1.00000000E+00   1.00000000E+00 
D    1    1.000000
   6.26000000E-01    1.00000000E+00 

2    0
S    3    1.000000
   3.38650000E+01    2.54938000E-02 
   5.09479000E+00    1.90373000E-01 
   1.15879000E+00    8.52161000E-01 
S    1    1.000000
   3.25840000E-01    1.00000000E+00 
S    1    1.000000
   1.02741000E-01    1.00000000E+00 
S    1    1.000000
   3.60000000E-02    1.00000000E+00 
P    1    1.000000
   7.50000000E-01    1.00000000E+00 

3    0
S    3    1.000000
   3.38650000E+01    2.54938000E-02 
   5.09479000E+00    1.90373000E-01 
   1.15879000E+00    8.52161000E-01 
S    1    1.000000
   3.25840000E-01    1.00000000E+00 
S    1    1.000000
   1.02741000E-01    1.00000000E+00 
S    1    1.000000
   3.60000000E-02    1.00000000E+00 
P    1    1.000000
   7.50000000E-01    1.00000000E+00 

4    0
S    3    1.000000
   3.38650000E+01    2.54938000E-02 
   5.09479000E+00    1.90373000E-01 
   1.15879000E+00    8.52161000E-01 
S    1    1.000000
   3.25840000E-01    1.00000000E+00 
S    1    1.000000
   1.02741000E-01    1.00000000E+00 
S    1    1.000000
   3.60000000E-02    1.00000000E+00 
P    1    1.000000
   7.50000000E-01    1.00000000E+00 

5    0
S    6    1.000000
   4.56324000E+03    1.96665000E-03 
   6.82024000E+02    1.52306000E-02 
   1.54973000E+02    7.61269000E-02 
   4.44553000E+01    2.60801000E-01 
   1.30290000E+01    6.16462000E-01 
   1.82773000E+00    2.21006000E-01 
SP   3    1.000000
   2.09642000E+01    1.14660000E-01   4.02487000E-02 
   4.80331000E+00    9.19999000E-01   2.37594000E-01 
   1.45933000E+00   -3.03068000E-03   8.15854000E-01 
SP   1    1.000000
   4.83456000E-01    1.00000000E+00   1.00000000E+00 
SP   1    1.000000
   1.45585000E-01    1.00000000E+00   1.00000000E+00 
SP   1    1.000000
   4.38000000E-02    1.00000000E+00   1.00000000E+00 
D    1    1.000000
   6.26000000E-01    1.00000000E+00 

6    0
S    6    1.000000
   8.58850000E+03    1.89515000E-03 
   1.29723000E+03    1.43859000E-02 
   2.99296000E+02    7.07320000E-02 
   8.73771000E+01    2.40001000E-01 
   2.56789000E+01    5.94797000E-01 
   3.74004000E+00    2.80802000E-01 
SP   3    1.000000
   4.21175000E+01    1.13889000E-01   3.65114000E-02 
   9.62837000E+00    9.20811000E-01   2.37153000E-01 
   2.85332000E+00   -3.27447000E-03   8.19702000E-01 
SP   1    1.000000
   9.05661000E-01    1.00000000E+00   1.00000000E+00 
SP   1    1.000000
   2.55611000E-01    1.00000000E+00   1.00000000E+00 
SP   1    1.000000
   8.45000000E-02    1.00000000E+00   1.00000000E+00 
D    1    1.000000
   1.29200000E+00    1.00000000E+00 

7    0
S    6    1.000000
   4.56324000E+03    1.96665000E-03 
   6.82024000E+02    1.52306000E-02 
   1.54973000E+02    7.61269000E-02 
   4.44553000E+01    2.60801000E-01 
   1.30290000E+01    6.16462000E-01 
   1.82773000E+00    2.21006000E-01 
SP   3    1.000000
   2.09642000E+01    1.14660000E-01   4.02487000E-02 
   4.80331000E+00    9.19999000E-01   2.37594000E-01 
   1.45933000E+00   -3.03068000E-03   8.15854000E-01 
SP   1    1.000000
   4.83456000E-01    1.00000000E+00   1.00000000E+00 
SP   1    1.000000
   1.45585000E-01    1.00000000E+00   1.00000000E+00 
SP   1    1.000000
   4.38000000E-02    1.00000000E+00   1.00000000E+00 
D    1    1.000000
   6.26000000E-01    1.00000000E+00 

8    0
S    6    1.000000
   8.58850000E+03    1.89515000E-03 
   1.29723000E+03    1.43859000E-02 
   2.99296000E+02    7.07320000E-02 
   8.73771000E+01    2.40001000E-01 
   2.56789000E+01    5.94797000E-01 
   3.74004000E+00    2.80802000E-01 
SP   3    1.000000
   4.21175000E+01    1.13889000E-01   3.65114000E-02 
   9.62837000E+00    9.20811000E-01   2.37153000E-01 
   2.85332000E+00   -3.27447000E-03   8.19702000E-01 
SP   1    1.000000
   9.05661000E-01    1.00000000E+00   1.00000000E+00 
SP   1    1.000000
   2.55611000E-01    1.00000000E+00   1.00000000E+00 
SP   1    1.000000
   8.45000000E-02    1.00000000E+00   1.00000000E+00 
D    1    1.000000
   1.29200000E+00    1.00000000E+00 

9    0
S    6    1.000000
   6.29348000E+03    1.96979000E-03 
   9.49044000E+02    1.49613000E-02 
   2.18776000E+02    7.35006000E-02 
   6.36916000E+01    2.48937000E-01 
   1.88282000E+01    6.02460000E-01 
   2.72023000E+00    2.56202000E-01 
SP   3    1.000000
   3.06331000E+01    1.11906000E-01   3.83119000E-02 
   7.02614000E+00    9.21666000E-01   2.37403000E-01 
   2.11205000E+00   -2.56919000E-03   8.17592000E-01 
SP   1    1.000000
   6.84009000E-01    1.00000000E+00   1.00000000E+00 
SP   1    1.000000
   2.00878000E-01    1.00000000E+00   1.00000000E+00 
SP   1    1.000000
   6.39000000E-02    1.00000000E+00   1.00000000E+00 
D    1    1.000000
   9.13000000E-01    1.00000000E+00 

10    0
S    6    1.000000
   6.29348000E+03    1.96979000E-03 
   9.49044000E+02    1.49613000E-02 
   2.18776000E+02    7.35006000E-02 
   6.36916000E+01    2.48937000E-01 
   1.88282000E+01    6.02460000E-01 
   2.72023000E+00    2.56202000E-01 
SP   3    1.000000
   3.06331000E+01    1.11906000E-01   3.83119000E-02 
   7.02614000E+00    9.21666000E-01   2.37403000E-01 
   2.11205000E+00   -2.56919000E-03   8.17592000E-01 
SP   1    1.000000
   6.84009000E-01    1.00000000E+00   1.00000000E+00 
SP   1    1.000000
   2.00878000E-01    1.00000000E+00   1.00000000E+00 
SP   1    1.000000
   6.39000000E-02    1.00000000E+00   1.00000000E+00 
D    1    1.000000
   9.13000000E-01    1.00000000E+00 

11    0
S    6    1.000000
   4.56324000E+03    1.96665000E-03 
   6.82024000E+02    1.52306000E-02 
   1.54973000E+02    7.61269000E-02 
   4.44553000E+01    2.60801000E-01 
   1.30290000E+01    6.16462000E-01 
   1.82773000E+00    2.21006000E-01 
SP   3    1.000000
   2.09642000E+01    1.14660000E-01   4.02487000E-02 
   4.80331000E+00    9.19999000E-01   2.37594000E-01 
   1.45933000E+00   -3.03068000E-03   8.15854000E-01 
SP   1    1.000000
   4.83456000E-01    1.00000000E+00   1.00000000E+00 
SP   1    1.000000
   1.45585000E-01    1.00000000E+00   1.00000000E+00 
SP   1    1.000000
   4.38000000E-02    1.00000000E+00   1.00000000E+00 
D    1    1.000000
   6.26000000E-01    1.00000000E+00 

12    0
S    3    1.000000
   3.38650000E+01    2.54938000E-02 
   5.09479000E+00    1.90373000E-01 
   1.15879000E+00    8.52161000E-01 
S    1    1.000000
   3.25840000E-01    1.00000000E+00 
S    1    1.000000
   1.02741000E-01    1.00000000E+00 
S    1    1.000000
   3.60000000E-02    1.00000000E+00 
P    1    1.000000
   7.50000000E-01    1.00000000E+00 

[MO]
Sym=X
Ene= 2.000000
Spin=Alpha
Occup=1
     1    1.059689930933e-01
     2    8.780593088699e-02
     3   -3.841863526056e-04
     4   -2.628147633300e-05
     5    2.556723654541e-15
     6    5.362020132241e-04
     7    3.284631221260e-04
     8   -3.680330587019e-05
     9    1.748972435705e-16
    10    1.550258941309e-04
    11   -2.694620914201e-04
    12   -1.507399471676e-04
    13    3.829186735520e-15
    14    1.306654240128e-03
    15    4.247168931284e-05
    16    5.349302779399e-04
    17   -8.823382029086e-15
    18   -1.745362259550e-04
    19    1.258625595549e-15
    20    7.473291565581e-16
    21    5.853867927726e-06
    22    1.205103603727e-04
    23   -2.946913744775e-05
    24   -2.735702401330e-05
    25   -7.015586617234e-05
    26   -9.278734488667e-05
    27   -2.752130383903e-05
    28   -2.154995842312e-05
    29    1.498305442698e-16
    30    8.082449034382e-05
    31   -1.444717518243e-04
    32    1.272146127198e-04
    33    1.911028387563e-04
    34   -3.954078934869e-06
    35   -2.233339468091e-05
    36    1.006096989227e-15
    37    3.536108508265e-06
    38   -3.966234911381e-05
    39    1.263934341978e-04
    40   -2.886119113852e-05
    41    1.276514182512e-05
    42    3.467021892792e-05
    43   -2.079354279947e-17
    44   -3.513031144301e-01
    45   -2.908804390179e-01
    46   -4.013679351459e-04
    47    2.962460548982e-04
    48    4.425060657486e-15
    49   -2.255383467564e-03
    50    4.855596995804e-04
    51   -3.206034180672e-04
    52    3.615933267613e-15
    53   -1.728670566160e-04
    54   -8.862220401461e-05
    55    7.413510840902e-06
    56    1.610379226820e-15
    57    1.130050810392e-03
    58    6.667330072437e-04
    59   -2.680539234773e-04
    60    1.371159881105e-15
    61    2.577403526723e-04
    62   -1.106872303186e-15
    63    2.191679283336e-16
    64   -1.163290130716e-04
    65    2.149973219873e-04
    66    3.650503230144e-02
    67    3.129328383095e-02
    68   -5.205766720072e-05
    69    2.990448491196e-05
    70    5.323254842901e-15
    71    3.319025370599e-05
    72   -2.574791550578e-04
    73    1.538845160667e-04
    74    3.536727256320e-15
    75    4.513951523948e-04
    76    3.128160482533e-04
    77   -1.819637094655e-04
    78    9.286882822744e-15
    79   -4.776864662750e-04
    80   -4.302078858624e-04
    81    2.437196663900e-04
    82   -1.847456492738e-15
    83    2.183292639850e-05
    84    2.477191089664e-16
    85    3.699325602403e-16
    86   -4.718126656985e-05
    87    9.012575996714e-05
    88    1.584664105166e-01
    89    1.312799114841e-01
    90   -2.223265437440e-04
    91    2.505655556234e-04
    92    4.201544642067e-15
    93    7.236513358531e-04
    94    2.378320289074e-04
    95    1.547858242527e-04
    96    5.468933838395e-15
    97    9.508992943480e-05
    98    6.324323672427e-05
    99    4.355620131786e-04
   100    3.868831498438e-15
   101    3.478416040173e-04
   102    2.513310986932e-04
   103    5.345672131373e-05
   104   -1.014987912017e-14
   105   -1.264407239882e-04
   106    1.951433866098e-15
   107    6.708898124297e-16
   108    8.585178308680e-05
   109    7.954668631027e-05
   110   -7.167965610537e-02
   111   -6.134087524955e-02
   112    1.286753636555e-04
   113    5.926224940083e-05
   114    6.102932464733e-15
   115   -5.448726980132e-04
   116   -1.663930612830e-04
   117   -1.032170820503e-04
   118    6.451784958082e-15
   119   -2.427457738396e-04
   120    2.045574266325e-04
   121    6.303802764983e-05
   122    5.885525464680e-15
   123   -3.801021387779e-05
   124   -1.452281961014e-04
   125   -6.892190376930e-05
   126    4.936650399345e-15
   127    6.667888506232e-06
   128    1.406429219639e-16
   129   -1.188106787259e-16
   130    2.532595789524e-05
   131    4.303007567081e-05
   132    2.394966287908e-02
   133    2.014112425771e-02
   134    9.901619857121e-05
   135    6.218711973387e-06
   136    1.607113369564e-15
   137    8.693236121124e-05
   138    4.462150577171e-04
   139    9.762784086142e-05
   140    1.484290658298e-15
   141    8.316443554610e-05
   142   -2.968691441847e-04
   143   -8.287355833948e-05
   144    2.756185964920e-15
   145   -1.956650639674e-04
   146   -2.522399456995e-04
   147   -1.303034439221e-04
   148    5.901138227293e-16
   149    6.969069369666e-06
   150   -4.466509160393e-16
   151   -5.928973893921e-16
   152   -5.291022843949e-05
   153   -1.248551917983e-04
   154   -4.799010586547e-02
   155   -4.026030730590e-02
   156    1.007050634460e-05
   157   -9.088081673990e-05
   158    3.425178698428e-15
   159   -6.600902599847e-04
   160    1.234086990956e-04
   161   -4.280096981451e-04
   162    2.794492541539e-15
   163    2.685726400172e-04
   164   -2.905829088565e-05
   165    1.796161742294e-04
   166    2.614143328848e-15
   167   -9.343979469915e-04
   168   -4.457702338086e-04
   169    4.565283864287e-05
   170    4.721212290512e-15
   171    1.351673128748e-05
   172    9.280909859656e-16
   173    1.363905550753e-17
   174    1.552469511737e-04
   175   -3.249675506386e-05
   176   -3.847635383116e-01
   177   -3.186971985409e-01
   178    5.813028457259e-05
   179   -1.397755743346e-04
   180    1.666172319480e-15
   181   -3.194789407006e-03
   182    2.300688157793e-04
   183    3.098753306270e-04
   184    3.450900326265e-15
   185    1.069979819944e-03
   186   -2.179019068373e-04
   187    1.785108790645e-04
   188   -8.929812841643e-16
   189   -1.430022151931e-03
   190    8.356498798202e-04
   191   -6.749167582621e-04
   192    1.087862355619e-14
   193    2.897965035225e-04
   194    5.504580488602e-16
   195    3.735346359733e-16
   196   -1.771978668912e-04
   197   -8.320924680845e-05
   198   -2.792699994455e-04
   199    2.446666876406e-04
   200   -4.152312563117e-04
   201   -5.930922590606e-04
   202   -3.998481787933e-05
   203    3.676599970345e-05
   204   -1.159703129129e-17
Sym=X
Ene= 2.000000
Spin=Alpha
Occup=1
     1    9.515984824351e-02
     2    7.882668749390e-02
     3   -9.931011424580e-05
     4    2.291518215844e-05
     5   -1.454602270430e-15
     6    5.965649369783e-04
     7    3.068654923575e-04
     8   -9.461468289817e-05
     9   -1.002905270761e-15
    10   -4.200126102337e-04
    11    4.919097583494e-05
    12   -4.015124455781e-04
    13    2.755607079619e-15
    14   -3.813198519823e-05
    15    2.715659787600e-04
    16    3.730421790004e-04
    17    1.592515657690e-16
    18   -7.045117047585e-05
    19    4.604335027852e-16
    20   -6.034528598732e-16
    21   -1.438892192280e-05
    22    1.386286979936e-04
    23   -1.676382823811e-04
    24    2.537706035184e-04
    25   -5.159859299592e-04
    26   -3.094460414630e-05
    27    7.107949269310e-05
    28    4.047920084074e-05
    29   -2.771688149216e-16
    30    7.538178807093e-05
    31   -1.360728188418e-04
    32    2.058397282599e-05
    33    2.830270209954e-04
    34   -1.070186696256e-06
    35   -2.085272037486e-05
    36   -6.379325113861e-17
    37    1.379574843357e-04
    38   -8.761776555882e-06
    39    5.446363311032e-04
    40    2.934508519492e-04
    41   -6.198173539295e-07
    42   -1.979675549747e-05
    43   -4.701944999777e-16
    44    1.436456924843e-01
    45    1.189178522901e-01
    46    1.829896069957e-04
    47   -1.005084170722e-05
    48   -2.205360306940e-14
    49    9.840525726920e-04
    50   -2.237857106111e-04
    51    3.504656871852e-04
    52   -3.624597834769e-14
    53   -4.801742211591e-04
    54   -4.589044158370e-04
    55    5.360242049475e-04
    56   -2.247489838046e-14
    57   -6.927758142018e-05
    58    7.025012597113e-05
    59    1.764516792704e-04
    60   -7.781198162151e-15
    61   -1.214171906869e-04
    62    2.956222941487e-15
    63   -1.518199038087e-15
    64    1.851421125097e-04
    65   -8.271333578410e-05
    66    1.493844562618e-01
    67    1.277362845334e-01
    68    4.812134990852e-04
    69   -3.092772850407e-04
    70   -2.535366857564e-14
    71    1.654379377655e-03
    72   -6.596618258116e-05
    73    5.582983502787e-05
    74   -3.678617480935e-14
    75   -6.900447750284e-04
    76   -1.499532413835e-04
    77    1.541792257099e-05
    78   -3.501597164325e-14
    79    2.579037472122e-04
    80    8.115757307129e-05
    81   -7.017808847357e-05
    82    3.793792179202e-15
    83   -3.455989296209e-05
    84   -2.467194909371e-15
    85    1.685931829733e-15
    86    1.593931218324e-05
    87   -1.480218639301e-05
    88    1.907040012330e-01
    89    1.578868975606e-01
    90   -2.927813589801e-04
    91    1.685608374562e-04
    92    3.507415226553e-15
    93    1.411620658691e-03
    94    2.220389128291e-04
    95   -9.049218770115e-05
    96    9.256490939459e-15
    97   -9.859998397975e-04
    98   -1.414834952108e-04
    99    2.376080686370e-04
   100    6.011354755503e-15
   101   -4.796186505858e-03
   102    7.948615527077e-04
   103    1.068187265496e-03
   104    4.650682279130e-15
   105   -1.200462579972e-04
   106    2.045183481151e-15
   107    5.178419801421e-16
   108    3.720053659369e-06
   109    1.277174466365e-04
   110   -2.658747257651e-02
   111   -2.277768711158e-02
   112   -3.982283149578e-06
   113   -1.160795873649e-05
   114    9.296236249470e-15
   115   -9.500615983195e-05
   116   -1.606257779011e-04
   117   -1.022298749537e-04
   118    1.660723064964e-14
   119   -2.644004867023e-05
   120    1.025209558873e-04
   121    1.944029951752e-05
   122    1.329230349557e-14
   123    3.206453418883e-04
   124   -1.758719760710e-04
   125   -2.094699766606e-04
   126   -8.323023425476e-16
   127   -1.159836710026e-05
   128   -6.192000422181e-16
   129   -4.149436161141e-16
   130    2.498011411588e-05
   131    5.821395593052e-05
   132    2.588833075255e-01
   133    2.173242161344e-01
   134   -8.190331266500e-05
   135   -1.117307799681e-04
   136   -1.270880807945e-14
   137    2.826965065767e-03
   138    1.179407311336e-04
   139   -1.054938805717e-04
   140   -2.014950027865e-14
   141   -4.727890371745e-04
   142   -1.138733194890e-06
   143   -2.033744279718e-04
   144   -1.894299391975e-14
   145    1.850511196517e-03
   146    2.164440994643e-04
   147   -1.294446724465e-03
   148    2.382034642794e-15
   149   -3.291224068409e-05
   150    1.284285993858e-15
   151    1.202340196175e-15
   152    1.008510413372e-04
   153   -3.344525158110e-05
   154   -3.900696278644e-01
   155   -3.275725810573e-01
   156   -1.053339216339e-04
   157    1.148572704978e-05
   158   -1.189477812945e-14
   159   -3.753630128136e-03
   160    1.637739965121e-04
   161    8.753444652564e-05
   162   -2.162760485618e-14
   163    1.331496963109e-03
   164    3.698493986595e-04
   165    2.745586184719e-04
   166   -1.661958801700e-14
   167   -6.806591112540e-04
   168   -6.661061485809e-04
   169   -5.634189525249e-04
   170    2.096323872684e-15
   171   -1.916771842855e-05
   172    1.410196841192e-16
   173   -1.886562301249e-15
   174   -6.913116459406e-05
   175   -7.058612356821e-05
   176    5.958596733272e-02
   177    4.932723134629e-02
   178   -5.379866759458e-05
   179    5.530862269906e-05
   180    2.308207215218e-15
   181    6.146728057057e-04
   182    1.334294020980e-05
   183    6.861173779739e-05
   184    5.448652003791e-15
   185    1.588850342600e-04
   186   -7.576681246876e-05
   187    2.472822249586e-04
   188    3.009062001846e-15
   189    3.211012154095e-03
   190   -5.315911625418e-04
   191    9.179520286817e-04
   192   -1.398784015186e-15
   193   -1.490301362008e-06
   194   -3.399544238346e-16
   195   -4.565962016945e-16
   196   -2.796587085278e-05
   197    3.165930272088e-05
   198    4.560037240328e-05
   199    1.694367833375e-05
   200    1.468710109296e-04
   201    2.476239024476e-04
   202   -1.561076237656e-05
   203    2.705275594245e-06
   204    6.177003296488e-17
Sym=X
Ene= 2.000000
Spin=Alpha
Occup=1
     1    2.404759027406e-01
     2    1.991137474070e-01
     3   -4.034316011093e-04
     4    1.844325504245e-04
     5    8.725997018016e-16
     6    2.003513980682e-03
     7    4.592477846488e-04
     8    4.569143178294e-05
     9    1.382491936054e-15
    10   -8.195042968532e-04
    11   -3.103617347160e-04
    12   -6.481692760536e-06
    13   -6.765085410735e-16
    14   -8.605019742587e-03
    15   -3.054235239111e-04
    16   -1.980330079526e-03
    17    2.166579041795e-15
    18   -1.463701248508e-04
    19   -9.985871389050e-16
    20    6.798367103216e-16
    21    4.876099029466e-05
    22    2.135898766232e-04
    23    7.514400424422e-05
    24    2.008119288912e-05
    25    2.513313652871e-04
    26    5.120172060548e-04
    27    2.760791694656e-05
    28   -1.622184420063e-05
    29    6.771513649661e-16
    30    1.591810805932e-04
    31    1.847531154516e-05
    32    9.574281208700e-05
    33   -3.826066280216e-04
    34    3.370974080366e-05
    35    1.740702416312e-05
    36    7.479760143537e-17
    37   -5.480536118292e-05
    38    1.734791644630e-04
    39   -1.455360578626e-04
    40   -6.166098196327e-05
    41    8.921974214877e-06
    42   -6.802138217761e-05
    43    1.066734877841e-15
    44   -5.515548660917e-02
    45   -4.567454496469e-02
    46   -1.016294748460e-04
    47    1.210600380313e-05
    48    1.714611112131e-14
    49   -3.130492765413e-04
    50    4.007717463829e-05
    51   -1.369207741826e-04
    52    2.897225759555e-14
    53   -1.025556740066e-03
    54   -5.644329895819e-04
    55    1.649421869914e-04
    56    1.654484702340e-14
    57    1.751323843065e-03
    58    5.070366375949e-04
    59   -7.175152441916e-05
    60    5.951673870302e-15
    61    5.194842158959e-05
    62   -2.820195420817e-15
    63    1.330931755156e-15
    64   -5.470508403175e-05
    65    7.018563510831e-06
    66    7.355579540827e-03
    67    6.300597807055e-03
    68   -6.675444855625e-07
    69    7.457949682303e-06
    70    2.280094628905e-14
    71    3.562609129805e-05
    72   -3.222456170070e-05
    73    1.462830964528e-05
    74    3.538432823940e-14
    75    9.662040670171e-06
    76    7.054928488860e-05
    77    1.112444295111e-05
    78    3.096265983141e-14
    79   -2.021225267641e-04
    80   -9.871821430450e-05
    81    2.480535692853e-06
    82   -3.246122266706e-17
    83    3.068958510981e-06
    84    2.291655448132e-15
    85   -1.808201331688e-15
    86   -5.858024173525e-06
    87    1.097670183465e-05
    88    3.839308837376e-01
    89    3.178702302415e-01
    90   -4.733017721305e-04
    91    2.540001020745e-04
    92    3.357650420513e-15
    93    2.698146087990e-03
    94    6.978149653382e-04
    95   -2.205561198908e-04
    96    3.386914685929e-15
    97   -2.982516268988e-04
    98    2.350727660199e-04
    99    6.438185239183e-04
   100    4.219559425491e-15
   101   -8.568148116793e-03
   102    1.304868434558e-03
   103    1.852942726485e-03
   104   -1.684271819635e-15
   105   -2.933992969620e-04
   106    1.260905713344e-16
   107    6.744324941425e-16
   108   -9.491074753178e-05
   109    3.659899359095e-04
   110    9.729209878780e-02
   111    8.313200477426e-02
   112   -4.397927330377e-04
   113   -2.629289229331e-04
   114    4.308538966475e-15
   115    1.371488855656e-03
   116   -1.417088845416e-04
   117   -1.209112176180e-04
   118    5.436019394559e-15
   119   -8.550085974171e-04
   120    2.846614020707e-04
   121    1.789943488565e-04
   122    5.108096111657e-15
   123    5.906021223334e-04
   124   -2.867169234712e-04
   125   -3.762444163465e-04
   126    1.170210952695e-15
   127   -5.003333205641e-05
   128   -7.692827796479e-16
   129   -1.584164542151e-16
   130    2.649733480160e-05
   131    9.503392438742e-05
   132   -1.576702653730e-01
   133   -1.324494115089e-01
   134    1.039419842469e-04
   135    1.835888060378e-05
   136    7.988764692637e-15
   137   -1.337234358712e-03
   138    4.581093682508e-04
   139   -2.054835223593e-04
   140    1.315596638093e-14
   141    6.797044059683e-04
   142   -4.461053564733e-04
   143   -3.823216342686e-04
   144    9.953907918689e-15
   145    2.682304621046e-04
   146    1.678155383168e-04
   147    4.442488856107e-05
   148   -3.375847188502e-15
   149   -4.340225584451e-05
   150   -9.143297453199e-16
   151   -9.580807600296e-16
   152    1.273036681099e-04
   153   -1.388674161351e-04
   154    1.468958356999e-01
   155    1.233071626167e-01
   156    8.871289966285e-05
   157   -3.912386593446e-05
   158    8.846160408843e-15
   159    1.659411684126e-03
   160    2.363394551017e-04
   161   -2.019562995641e-04
   162    1.243900506806e-14
   163   -2.522542777063e-04
   164    1.479428380150e-05
   165    2.864911032997e-04
   166    1.064240859487e-14
   167    1.835643638817e-03
   168    8.483430912851e-04
   169   -5.492497807158e-05
   170   -3.376702094567e-15
   171   -2.230093365018e-05
   172   -2.314506767989e-16
   173    1.580441425506e-15
   174    7.819287829436e-05
   175   -9.091777309644e-05
   176    2.274344858669e-01
   177    1.883208058578e-01
   178   -1.586307098877e-04
   179    1.507261496131e-04
   180    2.250125730921e-16
   181    2.170886940290e-03
   182    4.489558632918e-05
   183    8.695261080195e-05
   184   -1.684651145992e-15
   185   -1.618887166818e-04
   186   -2.511533122409e-04
   187   -8.861493809995e-06
   188   -9.501240047789e-16
   189    1.272412660322e-02
   190   -3.172115070825e-03
   191    2.179691719253e-03
   192   -1.222593714077e-15
   193   -6.839080004632e-05
   194   -1.864080208519e-16
   195    2.476732754232e-16
   196   -5.032370825412e-06
   197    5.138660428228e-05
   198    1.681048810525e-04
   199   -8.642883755507e-05
   200    4.919095564783e-04
   201    1.152107378373e-03
   202   -5.905760776309e-06
   203   -7.840620885589e-06
   204    1.878479438444e-16
Sym=X
Ene= 2.000000
Spin=Alpha
Occup=1
     1   -4.128906558268e-02
     2   -3.418173864269e-02
     3    1.039092307942e-04
     4   -4.325901117786e-05
     5   -1.657837157533e-15
     6   -3.683095342494e-04
     7   -6.331544834440e-05
     8   -2.684551335435e-05
     9    3.430658487725e-15
    10   -1.430419482039e-04
    11   -5.824596062421e-05
    12   -3.593713001305e-04
    13   -2.499058111311e-15
    14   -5.339944649176e-04
    15   -4.585153032004e-04
    16   -3.356776957459e-04
    17    1.053076263257e-14
    18    2.963609716653e-05
    19    1.091509811925e-16
    20   -7.133778714470e-16
    21   -2.864725427329e-05
    22   -9.309290523657e-06
    23   -7.822758840758e-05
    24    4.154267438384e-05
    25   -3.179931420386e-04
    26   -3.284748785935e-04
    27   -1.455649781356e-06
    28    1.823169102589e-05
    29   -3.916397381127e-16
    30   -2.118483225344e-05
    31   -8.771653038469e-05
    32   -1.232341190114e-04
    33   -1.473793390491e-04
    34   -7.343469697871e-07
    35   -1.675974590252e-05
    36   -4.472051823191e-16
    37    1.942754012584e-05
    38   -1.855235296188e-05
    39    1.247925075102e-04
    40   -2.060208611397e-04
    41   -1.154390495090e-05
    42   -1.816571742976e-06
    43   -3.234888005755e-16
    44   -1.659931177640e-02
    45   -1.366199670039e-02
    46    4.402123787594e-05
    47    9.013752851355e-06
    48   -1.148925915212e-14
    49   -4.344763644411e-04
    50    3.449375383501e-04
    51   -1.504198713152e-04
    52   -2.373036183200e-14
    53   -1.994163680031e-04
    54    1.657675270995e-04
    55   -1.480714677136e-04
    56   -7.700794316722e-15
    57   -2.133865886721e-04
    58   -4.779563192283e-04
    59    3.060023440213e-04
    60   -1.716429858650e-15
    61    6.526573617655e-05
    62    1.312448138975e-15
    63   -1.161630123036e-15
    64   -5.417058177306e-05
    65    1.908503667897e-04
    66   -4.987443962285e-01
    67   -4.265701265354e-01
    68   -1.423129198294e-03
    69    8.673245789810e-04
    70   -1.552165886874e-14
    71   -5.013944354897e-03
    72    5.650637244577e-04
    73   -3.416918372644e-04
    74   -2.150190670728e-14
    75    1.166353769162e-03
    76   -1.266387133198e-04
    77    7.723360287672e-05
    78   -2.019348445704e-14
    79   -1.583904205394e-03
    80   -1.685232970890e-04
    81    7.106252168374e-05
    82   -1.872759216623e-16
    83    8.116592932751e-05
    84   -1.514016693964e-15
    85    9.744748484215e-16
    86    3.627839276702e-05
    87   -5.659999813355e-05
    88    8.312806919521e-02
    89    6.881019797880e-02
    90   -9.909004989871e-05
    91    8.890558934871e-05
    92   -2.870429503501e-15
    93    6.487343280845e-04
    94    2.064675929741e-04
    95    5.157730928625e-05
    96   -4.700536652146e-15
    97   -2.556280066949e-04
    98    1.646408162305e-04
    99    4.143396452795e-04
   100   -7.690647479881e-16
   101   -2.838754873687e-03
   102   -5.340131313883e-05
   103    1.149533401559e-03
   104    1.299174840135e-14
   105   -7.370114193047e-05
   106   -2.775862865336e-16
   107   -3.005481305907e-16
   108    3.004740143496e-05
   109    1.057471899979e-04
   110    1.433558261069e-01
   111    1.225929705568e-01
   112   -4.332803886523e-04
   113   -2.637831333821e-04
   114   -3.372223191817e-15
   115    1.526136436924e-03
   116    1.049493711052e-04
   117    5.986100156034e-05
   118   -1.339130044508e-15
   119   -5.328905088273e-04
   120    5.144075510975e-05
   121    1.066866369108e-05
   122   -2.429378018558e-15
   123    5.975059424543e-04
   124   -1.493527334728e-04
   125   -1.256890413905e-04
   126   -3.611433838891e-15
   127   -3.770836864297e-05
   128    2.688353295756e-17
   129    1.831047804945e-16
   130   -1.147864472667e-06
   131    2.780526460245e-06
   132    3.778293957106e-02
   133    3.171436088698e-02
   134   -1.174168865184e-05
   135   -2.000180190974e-05
   136   -9.053473684740e-15
   137    4.322561545952e-04
   138    1.529358864787e-04
   139   -2.287195489250e-05
   140   -1.665796220398e-14
   141   -1.268363999195e-04
   142   -1.336351755268e-04
   143    6.085671405733e-06
   144   -1.296137061173e-14