[Molden Format]
[Atoms] (Angs)
  C      1    6     -0.00714236     -1.70213747     -0.00000000
  H      2    1     -2.06882847     -1.44022412      0.00000000
  H      3    1     -0.12337987     -2.77567521      0.00000000
  H      4    1      0.04651892      1.98813947     -0.00000000
  C      5    6     -1.21953563      0.40211669      0.00000000
  O      6    8     -2.25921553      1.03043814      0.00000000
  C      7    6      1.28797806      0.34644937     -0.00000000
  O      8    8      2.31273661      1.00537216     -0.00000000
  N      9    7      0.03446295      0.97739857     -0.00000000
  N     10    7     -1.17287765     -0.98229824      0.00000000
  C     11    6      1.20107039     -1.10433419     -0.00000000
  H     12    1      2.11220096     -1.67699125     -0.00000000
[GTO]
1    0
S    6    1.000000
   4.56324000E+03    1.96665000E-03 
   6.82024000E+02    1.52306000E-02 
   1.54973000E+02    7.61269000E-02 
   4.44553000E+01    2.60801000E-01 
   1.30290000E+01    6.16462000E-01 
   1.82773000E+00    2.21006000E-01 
SP   3    1.000000
   2.09642000E+01    1.14660000E-01   4.02487000E-02 
   4.80331000E+00    9.19999000E-01   2.37594000E-01 
   1.45933000E+00   -3.03068000E-03   8.15854000E-01 
SP   1    1.000000
   4.83456000E-01    1.00000000E+00   1.00000000E+00 
SP   1    1.000000
   1.45585000E-01    1.00000000E+00   1.00000000E+00 
SP   1    1.000000
   4.38000000E-02    1.00000000E+00   1.00000000E+00 
D    1    1.000000
   6.26000000E-01    1.00000000E+00 

2    0
S    3    1.000000
   3.38650000E+01    2.54938000E-02 
   5.09479000E+00    1.90373000E-01 
   1.15879000E+00    8.52161000E-01 
S    1    1.000000
   3.25840000E-01    1.00000000E+00 
S    1    1.000000
   1.02741000E-01    1.00000000E+00 
S    1    1.000000
   3.60000000E-02    1.00000000E+00 
P    1    1.000000
   7.50000000E-01    1.00000000E+00 

3    0
S    3    1.000000
   3.38650000E+01    2.54938000E-02 
   5.09479000E+00    1.90373000E-01 
   1.15879000E+00    8.52161000E-01 
S    1    1.000000
   3.25840000E-01    1.00000000E+00 
S    1    1.000000
   1.02741000E-01    1.00000000E+00 
S    1    1.000000
   3.60000000E-02    1.00000000E+00 
P    1    1.000000
   7.50000000E-01    1.00000000E+00 

4    0
S    3    1.000000
   3.38650000E+01    2.54938000E-02 
   5.09479000E+00    1.90373000E-01 
   1.15879000E+00    8.52161000E-01 
S    1    1.000000
   3.25840000E-01    1.00000000E+00 
S    1    1.000000
   1.02741000E-01    1.00000000E+00 
S    1    1.000000
   3.60000000E-02    1.00000000E+00 
P    1    1.000000
   7.50000000E-01    1.00000000E+00 

5    0
S    6    1.000000
   4.56324000E+03    1.96665000E-03 
   6.82024000E+02    1.52306000E-02 
   1.54973000E+02    7.61269000E-02 
   4.44553000E+01    2.60801000E-01 
   1.30290000E+01    6.16462000E-01 
   1.82773000E+00    2.21006000E-01 
SP   3    1.000000
   2.09642000E+01    1.14660000E-01   4.02487000E-02 
   4.80331000E+00    9.19999000E-01   2.37594000E-01 
   1.45933000E+00   -3.03068000E-03   8.15854000E-01 
SP   1    1.000000
   4.83456000E-01    1.00000000E+00   1.00000000E+00 
SP   1    1.000000
   1.45585000E-01    1.00000000E+00   1.00000000E+00 
SP   1    1.000000
   4.38000000E-02    1.00000000E+00   1.00000000E+00 
D    1    1.000000
   6.26000000E-01    1.00000000E+00 

6    0
S    6    1.000000
   8.58850000E+03    1.89515000E-03 
   1.29723000E+03    1.43859000E-02 
   2.99296000E+02    7.07320000E-02 
   8.73771000E+01    2.40001000E-01 
   2.56789000E+01    5.94797000E-01 
   3.74004000E+00    2.80802000E-01 
SP   3    1.000000
   4.21175000E+01    1.13889000E-01   3.65114000E-02 
   9.62837000E+00    9.20811000E-01   2.37153000E-01 
   2.85332000E+00   -3.27447000E-03   8.19702000E-01 
SP   1    1.000000
   9.05661000E-01    1.00000000E+00   1.00000000E+00 
SP   1    1.000000
   2.55611000E-01    1.00000000E+00   1.00000000E+00 
SP   1    1.000000
   8.45000000E-02    1.00000000E+00   1.00000000E+00 
D    1    1.000000
   1.29200000E+00    1.00000000E+00 

7    0
S    6    1.000000
   4.56324000E+03    1.96665000E-03 
   6.82024000E+02    1.52306000E-02 
   1.54973000E+02    7.61269000E-02 
   4.44553000E+01    2.60801000E-01 
   1.30290000E+01    6.16462000E-01 
   1.82773000E+00    2.21006000E-01 
SP   3    1.000000
   2.09642000E+01    1.14660000E-01   4.02487000E-02 
   4.80331000E+00    9.19999000E-01   2.37594000E-01 
   1.45933000E+00   -3.03068000E-03   8.15854000E-01 
SP   1    1.000000
   4.83456000E-01    1.00000000E+00   1.00000000E+00 
SP   1    1.000000
   1.45585000E-01    1.00000000E+00   1.00000000E+00 
SP   1    1.000000
   4.38000000E-02    1.00000000E+00   1.00000000E+00 
D    1    1.000000
   6.26000000E-01    1.00000000E+00 

8    0
S    6    1.000000
   8.58850000E+03    1.89515000E-03 
   1.29723000E+03    1.43859000E-02 
   2.99296000E+02    7.07320000E-02 
   8.73771000E+01    2.40001000E-01 
   2.56789000E+01    5.94797000E-01 
   3.74004000E+00    2.80802000E-01 
SP   3    1.000000
   4.21175000E+01    1.13889000E-01   3.65114000E-02 
   9.62837000E+00    9.20811000E-01   2.37153000E-01 
   2.85332000E+00   -3.27447000E-03   8.19702000E-01 
SP   1    1.000000
   9.05661000E-01    1.00000000E+00   1.00000000E+00 
SP   1    1.000000
   2.55611000E-01    1.00000000E+00   1.00000000E+00 
SP   1    1.000000
   8.45000000E-02    1.00000000E+00   1.00000000E+00 
D    1    1.000000
   1.29200000E+00    1.00000000E+00 

9    0
S    6    1.000000
   6.29348000E+03    1.96979000E-03 
   9.49044000E+02    1.49613000E-02 
   2.18776000E+02    7.35006000E-02 
   6.36916000E+01    2.48937000E-01 
   1.88282000E+01    6.02460000E-01 
   2.72023000E+00    2.56202000E-01 
SP   3    1.000000
   3.06331000E+01    1.11906000E-01   3.83119000E-02 
   7.02614000E+00    9.21666000E-01   2.37403000E-01 
   2.11205000E+00   -2.56919000E-03   8.17592000E-01 
SP   1    1.000000
   6.84009000E-01    1.00000000E+00   1.00000000E+00 
SP   1    1.000000
   2.00878000E-01    1.00000000E+00   1.00000000E+00 
SP   1    1.000000
   6.39000000E-02    1.00000000E+00   1.00000000E+00 
D    1    1.000000
   9.13000000E-01    1.00000000E+00 

10    0
S    6    1.000000
   6.29348000E+03    1.96979000E-03 
   9.49044000E+02    1.49613000E-02 
   2.18776000E+02    7.35006000E-02 
   6.36916000E+01    2.48937000E-01 
   1.88282000E+01    6.02460000E-01 
   2.72023000E+00    2.56202000E-01 
SP   3    1.000000
   3.06331000E+01    1.11906000E-01   3.83119000E-02 
   7.02614000E+00    9.21666000E-01   2.37403000E-01 
   2.11205000E+00   -2.56919000E-03   8.17592000E-01 
SP   1    1.000000
   6.84009000E-01    1.00000000E+00   1.00000000E+00 
SP   1    1.000000
   2.00878000E-01    1.00000000E+00   1.00000000E+00 
SP   1    1.000000
   6.39000000E-02    1.00000000E+00   1.00000000E+00 
D    1    1.000000
   9.13000000E-01    1.00000000E+00 

11    0
S    6    1.000000
   4.56324000E+03    1.96665000E-03 
   6.82024000E+02    1.52306000E-02 
   1.54973000E+02    7.61269000E-02 
   4.44553000E+01    2.60801000E-01 
   1.30290000E+01    6.16462000E-01 
   1.82773000E+00    2.21006000E-01 
SP   3    1.000000
   2.09642000E+01    1.14660000E-01   4.02487000E-02 
   4.80331000E+00    9.19999000E-01   2.37594000E-01 
   1.45933000E+00   -3.03068000E-03   8.15854000E-01 
SP   1    1.000000
   4.83456000E-01    1.00000000E+00   1.00000000E+00 
SP   1    1.000000
   1.45585000E-01    1.00000000E+00   1.00000000E+00 
SP   1    1.000000
   4.38000000E-02    1.00000000E+00   1.00000000E+00 
D    1    1.000000
   6.26000000E-01    1.00000000E+00 

12    0
S    3    1.000000
   3.38650000E+01    2.54938000E-02 
   5.09479000E+00    1.90373000E-01 
   1.15879000E+00    8.52161000E-01 
S    1    1.000000
   3.25840000E-01    1.00000000E+00 
S    1    1.000000
   1.02741000E-01    1.00000000E+00 
S    1    1.000000
   3.60000000E-02    1.00000000E+00 
P    1    1.000000
   7.50000000E-01    1.00000000E+00 

[MO]
Sym=X
Ene= -0.002419
Spin=Alpha
Occup=1
     1    5.919017876360e-15
     2    1.747164825461e-14
     3   -1.489418212087e-14
     4   -2.784409420281e-14
     5    2.041319895123e-01
     6   -1.783824393459e-13
     7    2.162272057312e-14
     8   -1.605987376093e-13
     9    4.277798204245e-01
    10    2.911013513770e-13
    11   -1.639285158549e-12
    12    9.200329730256e-13
    13    5.148081079332e-01
    14   -7.872603537711e-11
    15   -2.313324487705e-11
    16    9.503559597869e-14
    17   -2.181858363723e-02
    18   -7.795910615872e-15
    19    1.944895883881e-02
    20    9.545825887138e-03
    21   -2.099982387917e-14
    22   -8.168868754459e-15
    23    7.471008004957e-14
    24   -2.076526396322e-14
    25    7.053132324735e-12
    26   -5.962707297220e-14
    27    1.993545287656e-14
    28   -1.284318591849e-14
    29   -1.029082985900e-02
    30    1.827188359274e-14
    31   -2.332731830164e-13
    32    3.525680733303e-12
    33    6.033075032179e-12
    34   -1.127305897377e-14
    35   -6.754916612000e-15
    36    2.851477978094e-03
    37   -1.058350449112e-15
    38   -7.643892081260e-14
    39   -5.740578680179e-13
    40   -8.615768368556e-13
    41    1.952732071397e-14
    42    1.758272543094e-14
    43    2.806894356983e-03
    44   -1.130627465422e-14
    45   -2.003368238288e-14
    46   -1.412146737625e-14
    47   -6.135950480592e-14
    48   -6.163606161182e-02
    49   -3.221390426599e-14
    50    1.176589034502e-13
    51   -1.251801323349e-13
    52   -1.249846902107e-01
    53    4.232207184744e-13
    54    6.477736381402e-14
    55   -6.456248049202e-13
    56   -1.391842642096e-01
    57    1.681458782650e-11
    58    6.740974907599e-12
    59   -3.789238028535e-12
    60    3.386095554612e-02
    61    5.891755969054e-14
    62   -3.315456772070e-04
    63    3.284992973086e-02
    64    9.460939145385e-15
    65   -2.729516911433e-15
    66    1.317331692621e-14
    67    1.850151665751e-14
    68   -1.610420397484e-14
    69   -2.441681561973e-14
    70    2.620662989255e-02
    71   -7.803206837889e-14
    72   -7.631392122441e-14
    73   -9.018376862494e-15
    74    3.897818594811e-02
    75   -1.182930495634e-13
    76    3.756219164539e-13
    77   -2.462063097373e-13
    78    7.845912247187e-02
    79    2.026318755634e-13
    80   -1.823465948665e-12
    81    1.384105541766e-13
    82    1.293227197490e-02
    83    3.993460645994e-15
    84   -1.384752072295e-03
    85    3.409575127289e-03
    86   -4.577075031971e-15
    87   -5.251410088065e-15
    88    6.216124762448e-14
    89    1.043232227027e-13
    90    4.739615302136e-14
    91   -4.160890707705e-14
    92    2.870351110473e-02
    93   -1.298105554477e-13
    94    1.323330771030e-13
    95   -9.617243391620e-14
    96    6.343931670102e-02
    97   -4.254517942677e-12
    98   -1.081045500414e-12
    99   -1.279362239298e-12
   100    9.645184044295e-02
   101   -2.390417649145e-11
   102    1.305688316954e-11
   103    8.016699267648e-12
   104   -5.448861019177e-02
   105   -5.059901059576e-15
   106   -2.573201130953e-02
   107   -2.076993231741e-03
   108    2.716149960163e-14
   109   -4.054366902426e-14
   110   -2.948991846657e-14
   111   -4.852803310059e-14
   112    1.897847075396e-14
   113    2.295982574399e-15
   114    7.602722422430e-03
   115    1.097705976084e-13
   116   -1.293777486271e-14
   117   -4.195196424060e-14
   118    1.999603486816e-02
   119    1.119978834605e-12
   120   -1.247727153651e-13
   121    4.269329401435e-14
   122   -1.741769895747e-02
   123    4.082508127068e-12
   124   -4.967664660501e-12
   125   -2.841319571070e-12
   126   -3.562790911551e-02
   127    4.509051960264e-15
   128    7.521785671503e-05
   129   -1.177403553040e-05
   130   -1.209600892462e-14
   131   -1.031976582478e-14
   132    7.454881580766e-15
   133    1.030588737552e-14
   134    1.359497969823e-13
   135   -7.501655855914e-14
   136    4.589896087007e-02
   137   -2.508788351163e-14
   138    1.926013523826e-13
   139   -1.277046303852e-13
   140    6.912311621711e-02
   141   -4.376425118785e-13
   142    8.485776818933e-13
   143    3.509938626606e-14
   144    1.223688850731e-01
   145    4.278997392806e-12
   146   -2.609664779597e-12
   147    1.425301959212e-13
   148    4.354275030513e-02
   149    2.255197476345e-14
   150    1.266907770081e-02
   151   -2.218843347334e-03
   152   -2.666764329598e-14
   153    1.636912533824e-14
   154    1.789349874096e-14
   155    3.184331418913e-14
   156   -9.964915336987e-15
   157   -6.336922164231e-14
   158   -2.402215195102e-02
   159   -4.050678577271e-14
   160   -6.121880315277e-14
   161   -9.636393590188e-14
   162   -2.483033259162e-02
   163   -1.731425922375e-12
   164   -1.486415270809e-13
   165   -1.597572815391e-13
   166   -1.392922241469e-01
   167   -1.355149452384e-11
   168    7.518943013282e-12
   169    2.750139313594e-12
   170   -1.028191151597e-01
   171   -2.595338053772e-15
   172    4.393498571962e-02
   173   -4.606768607098e-02
   174   -1.199277862169e-14
   175    1.798760317257e-14
   176   -2.465043240530e-14
   177   -4.012299661827e-14
   178    7.321434707470e-14
   179   -2.070552660629e-14
   180   -1.911025315148e-01
   181   -1.092474573982e-13
   182   -8.139640309424e-15
   183    8.094234464134e-14
   184   -4.258563926277e-01
   185    3.014571058685e-12
   186    1.671315031280e-12
   187   -1.843846658671e-12
   188   -3.352158952814e-01
   189    9.433075487768e-11
   190   -1.302465470965e-11
   191   -1.866377009318e-11
   192    1.233497509806e-01
   193   -9.418753429212e-15
   194   -1.300240845055e-02
   195   -2.887911001886e-02
   196   -4.225508856762e-15
   197    2.598195836069e-14
   198   -6.665198603805e-14
   199   -5.853840017025e-14
   200   -8.512443999638e-12
   201   -8.731970960396e-12
   202    2.017811483457e-14
   203    1.767225315435e-14
   204    3.475055896662e-03
Sym=X
Ene= -0.002729
Spin=Alpha
Occup=1
     1   -4.259875231703e-02
     2   -7.025682583038e-02
     3    1.352833861261e-01
     4    7.091849472235e-02
     5    1.822885916604e-17
     6    1.807236343140e-01
     7    1.891602958168e-01
     8    1.021434227594e-01
     9   -6.090563129753e-15
    10    1.350161627437e-01
    11    8.906862062071e-02
    12    7.385741519016e-02
    13    1.335947782253e-15
    14    1.730218817246e-02
    15    3.052898532133e-02
    16   -5.408884424239e-03
    17    4.775063648973e-14
    18   -1.015301892204e-02
    19   -5.769392713422e-15
    20   -5.987915319822e-15
    21    2.476838188569e-03
    22    2.028606980371e-02
    23    2.865568461694e-02
    24    6.635580505299e-02
    25    3.172015648367e-03
    26   -1.838901372980e-02
    27    6.414627345549e-04
    28    2.117302156717e-03
    29   -1.429322146697e-14
    30   -2.663602170971e-02
    31   -4.868112007587e-02
    32   -1.826356155159e-02
    33    9.328560627462e-03
    34    6.684782630508e-03
    35   -3.401897932878e-03
    36   -3.760094230377e-14
    37   -1.494040184374e-02
    38   -2.251029563806e-02
    39   -4.701521907691e-03
    40   -9.584807526995e-03
    41   -1.559340577166e-03
    42    2.083591830232e-03
    43    1.286007840529e-14
    44   -2.690532782820e-04
    45   -3.267592958905e-04
    46    1.693218804148e-02
    47    2.236403759354e-02
    48   -4.322772605534e-15
    49   -1.079036393551e-03
    50    2.571583446536e-02
    51    4.045226511813e-02
    52   -7.644308595782e-15
    53   -1.574421178427e-03
    54   -2.225899662235e-02
    55   -4.806281096260e-03
    56   -3.871040224936e-14
    57    3.036619435012e-02
    58   -2.873977637710e-04
    59   -1.667602137870e-02
    60   -6.328100817203e-14
    61    1.058345397503e-04
    62    1.422992812854e-14
    63    4.514496395260e-15
    64    2.165158562445e-02
    65    1.674853022599e-02
    66    1.908776119699e-03
    67    3.185641493938e-03
    68   -3.108607129224e-02
    69   -4.405301207982e-02
    70   -1.159465077454e-14
    71   -8.849758880328e-03
    72   -4.674473416837e-02
    73   -6.672393874020e-02
    74   -3.436280390385e-14
    75   -1.404851858910e-02
    76   -4.784387731969e-02
    77   -6.510026840445e-02
    78    5.815048683348e-14
    79   -2.359541794890e-02
    80   -1.375713284350e-02
    81   -5.492580423245e-03
    82    4.412464715426e-14
    83    5.492305602819e-05
    84   -3.294842763717e-15
    85    2.761101291832e-15
    86   -1.917107177161e-03
    87   -4.263878212943e-04
    88    8.908781911207e-03
    89    1.517901189068e-02
    90    1.800162035215e-02
    91    4.221687695216e-02
    92    5.504059681286e-17
    93   -4.215040923634e-02
    94    2.940643869366e-02
    95    6.336759680960e-02
    96   -1.563675499830e-14
    97   -4.613176167025e-02
    98   -1.902985214251e-02
    99    3.465901386213e-02
   100    4.644065091999e-15
   101   -1.665642418505e-01
   102   -1.701277961410e-02
   103    6.345241749023e-02
   104    2.218130617162e-13
   105   -2.242313250210e-03
   106    3.286720602983e-15
   107    1.049011183708e-14
   108    1.931633839048e-03
   109    2.898388247245e-02
   110   -7.145997633825e-03
   111   -1.185178024733e-02
   112   -4.618036736852e-02
   113    2.540854197624e-04
   114   -1.945754001151e-15
   115    3.232084307506e-02
   116   -6.525341354954e-02
   117    3.412610500124e-03
   118   -2.470253433153e-14
   119    2.478272739317e-02
   120   -5.569162374349e-02
   121   -1.147105371683e-03
   122    7.869880997741e-14
   123    3.119966807477e-02
   124   -1.341598903608e-02
   125   -1.442720081722e-02
   126   -1.352390965002e-13
   127   -1.123172719370e-03
   128    3.758463990110e-16
   129    1.029488972280e-15
   130    3.604911267346e-03
   131    1.063923605828e-03
   132   -1.267367634152e-03
   133   -1.986149292944e-03
   134   -4.159465915480e-02
   135   -1.762884205392e-02
   136   -1.179240601628e-14
   137    3.150036236308e-03
   138   -5.980174958145e-02
   139   -2.419622436785e-02
   140   -4.231574169491e-14
   141    2.025358715605e-02
   142   -6.658608562080e-02
   143   -2.255896756243e-02
   144    8.348683329211e-14
   145   -4.062268329404e-03
   146   -2.452193147732e-02
   147   -7.383461229252e-03
   148   -8.629178324088e-14
   149   -3.991449950143e-04
   150   -1.773446993853e-15
   151    5.431073855249e-15
   152    3.253685810926e-03
   153    1.441531709200e-03
   154    1.885278162320e-02
   155    3.188838424482e-02
   156   -4.277399032037e-02
   157   -1.428796155221e-02
   158   -6.217464667850e-15
   159   -9.381856757672e-02
   160   -6.622183979931e-02
   161   -1.957045010356e-02
   162   -2.383718078196e-14
   163   -1.119445168348e-01
   164   -4.673961678669e-02
   165   -1.531667975622e-02
   166    4.298939088443e-14
   167   -1.365938643445e-02
   168   -4.798033973651e-02
   169   -2.726323336533e-02
   170    5.741498480873e-15
   171    1.381539880795e-03
   172    3.883631671757e-15
   173   -2.984032987897e-15
   174    9.087353409974e-03
   175    6.283126846371e-03
   176   -1.323566876762e-02
   177   -2.183277759998e-02
   178   -1.907332696680e-01
   179   -4.499499684803e-02
   180    8.022668205572e-16
   181    6.138015701088e-02
   182   -2.864345194957e-01
   183   -7.124708218686e-02
   184    4.175422124551e-16
   185   -1.538657156771e-02
   186   -1.299924070886e-01
   187   -8.565376331164e-03
   188    1.515973280048e-14
   189    1.152006649208e-01
   190    2.309113803070e-03
   191    7.859059128685e-02
   192   -1.274315014121e-13
   193   -4.762485813425e-03
   194    1.587715349954e-14
   195   -1.224600232081e-14
   196    1.616326473071e-02
   197    2.191672703977e-02
   198   -9.949950898088e-02
   199   -1.567076806733e-01
   200   -3.894527047134e-02
   201    1.519156393292e-02
   202    5.404710858930e-03
   203   -1.184472420598e-02
   204   -7.799736964718e-15
Sym=X
Ene= -0.009914
Spin=Alpha
Occup=1
     1   -1.027969028466e-02
     2   -1.725515620849e-02
     3    5.026188989266e-02
     4    9.618424423739e-03
     5    1.158826399499e-15
     6    4.652547232983e-02
     7    8.000979568217e-02
     8    1.627985092324e-02
     9   -4.079123345006e-15
    10    8.453909170885e-02
    11    6.875298521328e-02
    12    5.362159808165e-02
    13    2.121787057350e-14
    14    3.771871320528e-01
    15    1.125286720961e-01
    16    9.787257108118e-02
    17   -3.646392275091e-14
    18   -1.358698657519e-03
    19   -4.619839907193e-15
    20   -1.486893676089e-14
    21    4.944520195277e-03
    22   -2.170508246127e-03
    23    3.038659654936e-03
    24   -3.027148706160e-03
    25   -3.370784257292e-02
    26    8.548207795284e-03
    27   -1.989245853917e-04
    28    3.387237402855e-05
    29   -5.431010955181e-15
    30   -6.911368443175e-03
    31   -5.984115931909e-03
    32   -6.920550033378e-03
    33    4.393080673838e-02
    34    2.847532795067e-03
    35    1.756600211063e-03
    36   -2.000107234708e-14
    37   -2.349522262549e-03
    38   -1.105819541712e-02
    39    1.668536494205e-03
    40    2.845194655077e-02
    41    9.963919051456e-04
    42   -7.088794624459e-04
    43    3.728005231924e-15
    44    7.628101711894e-03
    45    1.320824435692e-02
    46   -3.204551540431e-02
    47   -2.181214686930e-02
    48    1.572230665325e-15
    49   -3.846408191641e-02
    50   -5.519759137305e-02
    51   -3.858672961367e-02
    52    2.553065802043e-14
    53   -7.174581077640e-02
    54    1.363571683019e-03
    55    5.423839490955e-02
    56   -5.206964654644e-14
    57   -7.129167548093e-02
    58    1.329638733524e-02
    59    3.439817451181e-02
    60    5.853075025970e-14
    61    1.172731531339e-04
    62    3.303108725225e-15
    63    3.299115181212e-15
    64   -3.313442485879e-02
    65   -2.529167093905e-02
    66   -3.267835374152e-03
    67   -5.510748699717e-03
    68    6.713776985812e-02
    69    9.355729782738e-02
    70   -3.585098119789e-16
    71    1.623378536085e-02
    72    1.015569775486e-01
    73    1.432473630108e-01
    74    4.045742091065e-15
    75    1.521459465824e-02
    76    9.993373886689e-02
    77    1.426775294896e-01
    78   -1.326016045970e-15
    79   -1.622016890098e-02
    80    4.978084668646e-03
    81    1.811092794216e-02
    82   -5.818162056722e-15
    83   -3.266683082365e-04
    84    2.747315225538e-16
    85   -2.882237733947e-16
    86    5.106681635513e-03
    87    2.057005648898e-03
    88    4.865852802687e-03
    89    8.345620238681e-03
    90   -1.593550961247e-02
    91    5.395271293883e-02
    92    5.159024625525e-15
    93   -2.188894815222e-02
    94   -2.869305103290e-02
    95    9.694552678615e-02
    96    1.535459685069e-14
    97   -1.344752530180e-02
    98    3.615764042085e-02
    99   -6.149474712403e-02
   100   -3.207518945775e-14
   101    2.973447478766e-01
   102    1.701604778513e-02
   103   -1.340483259678e-01
   104   -7.620628897338e-14
   105   -1.634645452892e-03
   106   -1.092827793113e-14
   107   -6.797444858957e-16
   108    6.220213167149e-02
   109   -3.375256211030e-02
   110    3.912728834403e-03
   111    6.439924011088e-03
   112    1.085399305024e-01
   113   -1.877570547665e-01
   114   -1.250632496624e-15
   115   -1.566745690737e-02
   116    1.654070964912e-01
   117   -2.866596340426e-01
   118    2.427435431182e-15
   119   -2.247943246420e-02
   120    1.702845814974e-01
   121   -2.813805674219e-01
   122    5.625062811872e-15
   123    1.598039771119e-02
   124    8.178788749065e-03
   125   -3.701128646765e-02
   126    2.317783148409e-14
   127    1.455873351769e-04
   128   -4.144144137489e-16
   129    4.383492268187e-16
   130   -8.854349894192e-03
   131    5.566579361498e-03
   132   -1.131638517449e-02
   133   -1.922753089219e-02
   134    1.056744689142e-01
   135   -1.220572449090e-02
   136   -4.340959010305e-15
   137    5.641343461221e-02
   138    1.557081224657e-01
   139   -1.639978496660e-02
   140   -3.802164743124e-15
   141    1.058822230370e-01
   142    1.703859549447e-01
   143   -3.178551912926e-02
   144    2.223026940211e-14
   145    7.352328797027e-02
   146   -4.892040505821e-02
   147   -4.549379113491e-02
   148    1.080490568398e-14
   149    9.931827175574e-04
   150    2.198900574269e-15
   151   -1.675475289016e-15
   152    4.020561240527e-04
   153    8.719427460374e-04
   154   -1.314345142086e-02
   155   -2.184333135093e-02
   156   -1.053158149470e-02
   157    3.938706163109e-02
   158   -1.693963928242e-15
   159    5.854938192814e-02
   160   -1.851679325805e-02
   161    5.683978639543e-02
   162   -6.441844916941e-15
   163    1.210531515283e-01
   164   -2.254767627011e-02
   165    7.173104616131e-02
   166    2.235291574283e-14
   167    6.852952210806e-02
   168   -2.188424116533e-02
   169   -4.038125116844e-02
   170   -3.267651697348e-14
   171    1.043408155686e-03
   172   -1.931714811590e-15
   173   -2.240803638707e-15
   174    3.244958902371e-03
   175    1.212346748220e-03
   176    1.743274686486e-02
   177    2.895342810500e-02
   178   -3.557812847530e-02
   179   -8.724256620352e-02
   180    5.648493847248e-17
   181   -7.264480193641e-02
   182   -5.665861616280e-02
   183   -1.240463787670e-01
   184    4.918682416396e-15
   185   -2.569206700871e-01
   186    1.637924224781e-02
   187   -1.431127180438e-01
   188   -3.013615891861e-15
   189   -7.223723354780e-01
   190    1.325782637228e-01
   191   -5.698388391480e-02
   192    6.814157489658e-14
   193   -1.992162808121e-03
   194    6.657374833421e-15
   195   -5.459905849547e-15
   196    1.457708752530e-03
   197    3.600704956436e-03
   198   -2.043516068890e-03
   199    1.617977547578e-03
   200   -1.007114977918e-02
   201   -4.336232133160e-02
   202   -1.308374432081e-03
   203   -1.157776182136e-03
   204   -1.155203605993e-14
Sym=X
Ene= -0.031992
Spin=Alpha
Occup=1
     1   -1.295876293418e-15
     2   -7.320910793423e-15
     3   -1.030166798311e-14
     4   -3.243344049464e-15
     5    8.358498028746e-02
     6    4.821528057728e-14
     7    6.480492180422e-16
     8   -1.376014726661e-14
     9    1.413643821154e-01
    10   -1.664481557169e-13
    11    1.462896139633e-13
    12   -2.308220608225e-13
    13    1.000674997167e-01
    14   -6.971484616672e-12
    15   -1.565012703806e-12
    16   -1.474324629479e-12
    17    1.080852547161e-02
    18    3.652121024162e-15
    19   -6.259870607245e-03
    20    9.223554473059e-03
    21   -6.349321646815e-15
    22    1.170421832315e-14
    23    5.490265194399e-15
    24    6.498162097437e-14
    25    2.484631484695e-13
    26   -2.550231800077e-14
    27    1.149364718037e-14
    28   -4.517359080708e-16
    29    9.283318225076e-03
    30    3.472035960363e-15
    31   -9.018378718259e-14
    32    1.624579735238e-14
    33   -4.619616436251e-13
    34   -3.194298724934e-15
    35   -6.516425219948e-15
    36    6.690111719913e-03
    37   -6.983820728022e-15
    38   -8.541328914025e-14
    39   -4.660740817972e-13
    40   -1.502484939076e-13
    41   -1.783014605648e-15
    42    5.405864002574e-15
    43   -1.813419253834e-02
    44    8.555500200240e-16
    45    3.215524170434e-15
    46   -3.135401484960e-15
    47    5.613445375374e-15
    48   -2.514740622431e-02
    49   -1.537357921095e-14
    50   -6.080939302000e-15
    51    8.277702473038e-15
    52   -4.350658651992e-02
    53    2.440660688235e-13
    54    4.346911645631e-14
    55   -1.070448080433e-13
    56   -2.344194411949e-02
    57    3.875477021551e-13
    58    5.294917349336e-14
    59   -1.218842782509e-14
    60    1.285220761854e-03
    61   -1.994487390004e-14
    62   -3.732380451189e-02
    63   -1.798800902765e-02
    64    5.501155982383e-16
    65   -5.005217028722e-15
    66   -7.271132173907e-16
    67   -1.373821054637e-15
    68   -3.245872668948e-15
    69   -7.154085881988e-15
    70    5.286423630262e-02
    71    8.907078353579e-15
    72   -1.890005799935e-15
    73   -5.283045719236e-15
    74    8.013184474183e-02
    75   -1.601569183279e-14
    76   -2.966191188491e-14
    77    1.224623404438e-14
    78    8.622307981383e-02
    79   -8.629625281660e-14
    80    3.505270190336e-15
    81    1.907009719379e-14
    82    2.981032515128e-02
    83   -4.233930448527e-16
    84    8.687660430110e-04
    85   -1.150965418617e-03
    86   -2.174344502743e-16
    87   -3.089604902484e-16
    88    2.006212607614e-16
    89   -5.393738864917e-16
    90   -4.143726295342e-15
    91    2.363839553922e-15
    92   -1.458765353671e-02
    93   -1.291732280115e-14
    94   -3.149902567778e-15
    95   -5.768285452749e-15
    96   -2.542584135101e-02
    97    9.844708158528e-14
    98   -3.327197980282e-13
    99   -1.976137959607e-13
   100    6.033072119344e-03
   101   -2.075848425432e-12
   102    1.943395081432e-13
   103    4.518875037542e-13
   104   -2.208396400106e-04
   105   -6.446805994079e-15
   106    3.361402197553e-02
   107   -1.110450812134e-02
   108    6.547706664759e-15
   109   -5.015917834236e-15
   110   -1.191428238832e-15
   111   -9.860955425392e-16
   112    3.407283969966e-15
   113   -2.088793329354e-15
   114    6.241901465179e-02
   115    2.104294490963e-15
   116    1.376604979948e-14
   117   -5.102516563068e-15
   118    9.666766104293e-02
   119    1.223692457438e-13
   120   -6.983488505184e-14
   121   -1.456567868944e-14
   122    9.850680380778e-02
   123    2.889491294811e-13
   124    3.674261864198e-14
   125   -1.171200246787e-13
   126    3.044312321716e-02
   127   -1.409930382444e-15
   128   -2.070193990635e-03
   129   -1.759338605365e-03
   130   -1.260048691977e-15
   131    1.532084473309e-15
   132    6.458225398548e-16
   133   -1.491886626625e-16
   134   -4.163220975733e-15
   135   -2.933838796114e-15
   136   -2.117679785560e-01
   137   -1.184590370712e-14
   138   -3.027591277799e-16
   139   -4.710128561049e-14
   140   -3.384892851527e-01
   141    2.531485970546e-14
   142   -1.260471637829e-14
   143    3.552109762412e-13
   144   -3.719372203777e-01