[Molden Format]
[Atoms] (Angs)
  C      1    6     -0.00714236     -1.70213747     -0.00000000
  H      2    1     -2.06882847     -1.44022412      0.00000000
  H      3    1     -0.12337987     -2.77567521      0.00000000
  H      4    1      0.04651892      1.98813947     -0.00000000
  C      5    6     -1.21953563      0.40211669      0.00000000
  O      6    8     -2.25921553      1.03043814      0.00000000
  C      7    6      1.28797806      0.34644937     -0.00000000
  O      8    8      2.31273661      1.00537216     -0.00000000
  N      9    7      0.03446295      0.97739857     -0.00000000
  N     10    7     -1.17287765     -0.98229824      0.00000000
  C     11    6      1.20107039     -1.10433419     -0.00000000
  H     12    1      2.11220096     -1.67699125     -0.00000000
[GTO]
1    0
S    6    1.000000
   4.56324000E+03    1.96665000E-03 
   6.82024000E+02    1.52306000E-02 
   1.54973000E+02    7.61269000E-02 
   4.44553000E+01    2.60801000E-01 
   1.30290000E+01    6.16462000E-01 
   1.82773000E+00    2.21006000E-01 
SP   3    1.000000
   2.09642000E+01    1.14660000E-01   4.02487000E-02 
   4.80331000E+00    9.19999000E-01   2.37594000E-01 
   1.45933000E+00   -3.03068000E-03   8.15854000E-01 
SP   1    1.000000
   4.83456000E-01    1.00000000E+00   1.00000000E+00 
SP   1    1.000000
   1.45585000E-01    1.00000000E+00   1.00000000E+00 
SP   1    1.000000
   4.38000000E-02    1.00000000E+00   1.00000000E+00 
D    1    1.000000
   6.26000000E-01    1.00000000E+00 

2    0
S    3    1.000000
   3.38650000E+01    2.54938000E-02 
   5.09479000E+00    1.90373000E-01 
   1.15879000E+00    8.52161000E-01 
S    1    1.000000
   3.25840000E-01    1.00000000E+00 
S    1    1.000000
   1.02741000E-01    1.00000000E+00 
S    1    1.000000
   3.60000000E-02    1.00000000E+00 
P    1    1.000000
   7.50000000E-01    1.00000000E+00 

3    0
S    3    1.000000
   3.38650000E+01    2.54938000E-02 
   5.09479000E+00    1.90373000E-01 
   1.15879000E+00    8.52161000E-01 
S    1    1.000000
   3.25840000E-01    1.00000000E+00 
S    1    1.000000
   1.02741000E-01    1.00000000E+00 
S    1    1.000000
   3.60000000E-02    1.00000000E+00 
P    1    1.000000
   7.50000000E-01    1.00000000E+00 

4    0
S    3    1.000000
   3.38650000E+01    2.54938000E-02 
   5.09479000E+00    1.90373000E-01 
   1.15879000E+00    8.52161000E-01 
S    1    1.000000
   3.25840000E-01    1.00000000E+00 
S    1    1.000000
   1.02741000E-01    1.00000000E+00 
S    1    1.000000
   3.60000000E-02    1.00000000E+00 
P    1    1.000000
   7.50000000E-01    1.00000000E+00 

5    0
S    6    1.000000
   4.56324000E+03    1.96665000E-03 
   6.82024000E+02    1.52306000E-02 
   1.54973000E+02    7.61269000E-02 
   4.44553000E+01    2.60801000E-01 
   1.30290000E+01    6.16462000E-01 
   1.82773000E+00    2.21006000E-01 
SP   3    1.000000
   2.09642000E+01    1.14660000E-01   4.02487000E-02 
   4.80331000E+00    9.19999000E-01   2.37594000E-01 
   1.45933000E+00   -3.03068000E-03   8.15854000E-01 
SP   1    1.000000
   4.83456000E-01    1.00000000E+00   1.00000000E+00 
SP   1    1.000000
   1.45585000E-01    1.00000000E+00   1.00000000E+00 
SP   1    1.000000
   4.38000000E-02    1.00000000E+00   1.00000000E+00 
D    1    1.000000
   6.26000000E-01    1.00000000E+00 

6    0
S    6    1.000000
   8.58850000E+03    1.89515000E-03 
   1.29723000E+03    1.43859000E-02 
   2.99296000E+02    7.07320000E-02 
   8.73771000E+01    2.40001000E-01 
   2.56789000E+01    5.94797000E-01 
   3.74004000E+00    2.80802000E-01 
SP   3    1.000000
   4.21175000E+01    1.13889000E-01   3.65114000E-02 
   9.62837000E+00    9.20811000E-01   2.37153000E-01 
   2.85332000E+00   -3.27447000E-03   8.19702000E-01 
SP   1    1.000000
   9.05661000E-01    1.00000000E+00   1.00000000E+00 
SP   1    1.000000
   2.55611000E-01    1.00000000E+00   1.00000000E+00 
SP   1    1.000000
   8.45000000E-02    1.00000000E+00   1.00000000E+00 
D    1    1.000000
   1.29200000E+00    1.00000000E+00 

7    0
S    6    1.000000
   4.56324000E+03    1.96665000E-03 
   6.82024000E+02    1.52306000E-02 
   1.54973000E+02    7.61269000E-02 
   4.44553000E+01    2.60801000E-01 
   1.30290000E+01    6.16462000E-01 
   1.82773000E+00    2.21006000E-01 
SP   3    1.000000
   2.09642000E+01    1.14660000E-01   4.02487000E-02 
   4.80331000E+00    9.19999000E-01   2.37594000E-01 
   1.45933000E+00   -3.03068000E-03   8.15854000E-01 
SP   1    1.000000
   4.83456000E-01    1.00000000E+00   1.00000000E+00 
SP   1    1.000000
   1.45585000E-01    1.00000000E+00   1.00000000E+00 
SP   1    1.000000
   4.38000000E-02    1.00000000E+00   1.00000000E+00 
D    1    1.000000
   6.26000000E-01    1.00000000E+00 

8    0
S    6    1.000000
   8.58850000E+03    1.89515000E-03 
   1.29723000E+03    1.43859000E-02 
   2.99296000E+02    7.07320000E-02 
   8.73771000E+01    2.40001000E-01 
   2.56789000E+01    5.94797000E-01 
   3.74004000E+00    2.80802000E-01 
SP   3    1.000000
   4.21175000E+01    1.13889000E-01   3.65114000E-02 
   9.62837000E+00    9.20811000E-01   2.37153000E-01 
   2.85332000E+00   -3.27447000E-03   8.19702000E-01 
SP   1    1.000000
   9.05661000E-01    1.00000000E+00   1.00000000E+00 
SP   1    1.000000
   2.55611000E-01    1.00000000E+00   1.00000000E+00 
SP   1    1.000000
   8.45000000E-02    1.00000000E+00   1.00000000E+00 
D    1    1.000000
   1.29200000E+00    1.00000000E+00 

9    0
S    6    1.000000
   6.29348000E+03    1.96979000E-03 
   9.49044000E+02    1.49613000E-02 
   2.18776000E+02    7.35006000E-02 
   6.36916000E+01    2.48937000E-01 
   1.88282000E+01    6.02460000E-01 
   2.72023000E+00    2.56202000E-01 
SP   3    1.000000
   3.06331000E+01    1.11906000E-01   3.83119000E-02 
   7.02614000E+00    9.21666000E-01   2.37403000E-01 
   2.11205000E+00   -2.56919000E-03   8.17592000E-01 
SP   1    1.000000
   6.84009000E-01    1.00000000E+00   1.00000000E+00 
SP   1    1.000000
   2.00878000E-01    1.00000000E+00   1.00000000E+00 
SP   1    1.000000
   6.39000000E-02    1.00000000E+00   1.00000000E+00 
D    1    1.000000
   9.13000000E-01    1.00000000E+00 

10    0
S    6    1.000000
   6.29348000E+03    1.96979000E-03 
   9.49044000E+02    1.49613000E-02 
   2.18776000E+02    7.35006000E-02 
   6.36916000E+01    2.48937000E-01 
   1.88282000E+01    6.02460000E-01 
   2.72023000E+00    2.56202000E-01 
SP   3    1.000000
   3.06331000E+01    1.11906000E-01   3.83119000E-02 
   7.02614000E+00    9.21666000E-01   2.37403000E-01 
   2.11205000E+00   -2.56919000E-03   8.17592000E-01 
SP   1    1.000000
   6.84009000E-01    1.00000000E+00   1.00000000E+00 
SP   1    1.000000
   2.00878000E-01    1.00000000E+00   1.00000000E+00 
SP   1    1.000000
   6.39000000E-02    1.00000000E+00   1.00000000E+00 
D    1    1.000000
   9.13000000E-01    1.00000000E+00 

11    0
S    6    1.000000
   4.56324000E+03    1.96665000E-03 
   6.82024000E+02    1.52306000E-02 
   1.54973000E+02    7.61269000E-02 
   4.44553000E+01    2.60801000E-01 
   1.30290000E+01    6.16462000E-01 
   1.82773000E+00    2.21006000E-01 
SP   3    1.000000
   2.09642000E+01    1.14660000E-01   4.02487000E-02 
   4.80331000E+00    9.19999000E-01   2.37594000E-01 
   1.45933000E+00   -3.03068000E-03   8.15854000E-01 
SP   1    1.000000
   4.83456000E-01    1.00000000E+00   1.00000000E+00 
SP   1    1.000000
   1.45585000E-01    1.00000000E+00   1.00000000E+00 
SP   1    1.000000
   4.38000000E-02    1.00000000E+00   1.00000000E+00 
D    1    1.000000
   6.26000000E-01    1.00000000E+00 

12    0
S    3    1.000000
   3.38650000E+01    2.54938000E-02 
   5.09479000E+00    1.90373000E-01 
   1.15879000E+00    8.52161000E-01 
S    1    1.000000
   3.25840000E-01    1.00000000E+00 
S    1    1.000000
   1.02741000E-01    1.00000000E+00 
S    1    1.000000
   3.60000000E-02    1.00000000E+00 
P    1    1.000000
   7.50000000E-01    1.00000000E+00 

[MO]
Sym=X
Ene= -0.002185
Spin=Alpha
Occup=1
     1   -5.045384760782e-03
     2   -8.480682289213e-03
     3    1.411389819426e-02
     4    1.385794539426e-02
     5   -1.938165567166e-15
     6    2.491993432467e-02
     7    1.718640207538e-02
     8    2.270803131623e-02
     9   -1.863935779093e-14
    10    3.997564235904e-02
    11    3.004191401105e-02
    12    1.827618790305e-02
    13   -5.696518657161e-15
    14    2.807633664430e-02
    15    9.389075832877e-03
    16   -1.935524655972e-02
    17    5.238571515019e-14
    18    7.638493864036e-04
    19   -1.716562655414e-15
    20    2.084332925486e-14
    21    2.449539230208e-03
    22   -3.186693297350e-03
    23   -1.129685589738e-03
    24   -5.236011436042e-03
    25   -3.099863570021e-03
    26    4.948465734085e-03
    27   -3.914871014465e-04
    28   -4.964163538699e-04
    29    4.901600037125e-15
    30   -1.062428448447e-02
    31   -1.962029393714e-02
    32   -1.614001925629e-02
    33   -1.008855143811e-02
    34    4.294862970537e-04
    35   -5.630269809880e-04
    36    8.088578135492e-15
    37    1.829424850055e-02
    38    7.082114064896e-03
    39    3.258677960483e-03
    40   -2.169702588983e-03
    41   -4.513045798839e-03
    42   -9.991700541338e-04
    43   -1.176430586168e-14
    44   -9.712716600083e-03
    45   -1.652957470455e-02
    46    1.032469215312e-02
    47    1.864597903986e-02
    48   -1.581750970776e-15
    49    5.031151740375e-02
    50    1.998605308782e-02
    51    2.857800569181e-02
    52   -1.324356110434e-15
    53    5.288726188445e-02
    54    3.583521243747e-02
    55    1.921005005747e-02
    56   -4.372787938175e-14
    57   -3.080214141315e-02
    58   -6.102459342511e-03
    59    1.186933027909e-02
    60   -1.419713627721e-13
    61   -4.547172422728e-04
    62    1.934255519036e-15
    63    1.195654753399e-14
    64   -1.135502670093e-02
    65    1.101928395612e-03
    66    3.594670092564e-03
    67    6.097188958331e-03
    68    2.335754932301e-02
    69    1.906755757185e-02
    70   -1.068106007392e-14
    71   -1.801166600240e-02
    72    3.649234486481e-02
    73    2.841832609457e-02
    74   -2.318232213939e-14
    75   -2.426618922028e-02
    76    2.308430844287e-02
    77    2.545081959500e-02
    78    1.054256290335e-14
    79    3.979675181761e-03
    80    3.495275718967e-03
    81    7.391338495898e-04
    82    1.249968564277e-13
    83   -1.204949786477e-03
    84   -1.160411011650e-15
    85    1.373528182491e-15
    86    3.199818243719e-03
    87    2.632714946954e-05
    88   -2.764233975979e-02
    89   -4.628983042385e-02
    90    1.416615603357e-01
    91    7.672865723497e-02
    92   -1.287335151034e-15
    93    1.434816596078e-01
    94    2.194868328412e-01
    95    1.211010073511e-01
    96   -3.276740321391e-15
    97    1.561846046181e-01
    98    4.839795302188e-02
    99    5.625247182921e-02
   100   -4.914994252737e-14
   101    6.475785532805e-02
   102   -6.266570364864e-02
   103   -4.479144398286e-03
   104    3.139440109639e-13
   105   -8.437596362544e-03
   106    8.112068370625e-16
   107    9.856836505447e-15
   108   -2.305961411150e-03
   109    2.924638905285e-02
   110    2.980092624997e-02
   111    5.059329143355e-02
   112   -2.078615751828e-01
   113   -1.103090132497e-01
   114    2.917055409235e-15
   115   -1.460905897491e-01
   116   -3.076662923065e-01
   117   -1.626185506711e-01
   118   -2.035316840929e-14
   119   -2.973255628065e-01
   120   -1.881951366113e-01
   121   -9.538710312862e-02
   122    1.041756296857e-13
   123   -1.194560072589e-01
   124    1.064806189070e-02
   125    4.726984176834e-03
   126   -2.270048052691e-13
   127   -1.454344703182e-02
   128   -5.686308329984e-16
   129   -1.364802597507e-15
   130    1.061050100784e-02
   131    1.807529383002e-02
   132    1.447547832860e-02
   133    2.420702149651e-02
   134   -5.447079322645e-02
   135    4.673714866566e-02
   136    9.922629380237e-16
   137   -6.968935175834e-02
   138   -8.539900969890e-02
   139    7.204833299295e-02
   140   -2.840337155832e-14
   141   -1.019420306243e-01
   142   -4.871326690566e-02
   143    7.664759839633e-02
   144    7.135755789633e-14
   145   -6.783020438597e-02
   146    8.553981644394e-03
   147    6.355134711811e-03
   148   -5.697968582519e-14
   149    2.877352868699e-03
   150   -1.012780428310e-15
   151    1.492867058514e-16
   152    3.954489187108e-03
   153    6.194422835324e-03
   154   -3.347400270687e-03
   155   -5.640819870225e-03
   156    5.339078126945e-03
   157    3.011610694067e-03
   158   -6.556259673970e-15
   159    1.707372131177e-02
   160    9.498625257778e-03
   161    4.428769937286e-03
   162   -2.701598224124e-14
   163    1.663333525844e-02
   164   -3.950161535032e-03
   165    1.248019823671e-03
   166    6.492142154182e-14
   167    5.065871700215e-02
   168    5.917571463226e-03
   169    3.044843384532e-03
   170    1.149312320515e-14
   171    4.907003377110e-04
   172    4.032233456661e-15
   173   -2.607962639562e-15
   174    1.599467865023e-03
   175    9.845243539335e-04
   176    3.585682770580e-03
   177    5.976323482075e-03
   178   -7.979725955678e-03
   179   -2.811051379397e-02
   180    3.011004489182e-15
   181   -1.367459152430e-02
   182   -1.346180877010e-02
   183   -4.649441398340e-02
   184    3.043663543160e-15
   185   -3.923278438039e-02
   186    1.703598504030e-02
   187   -2.452698336774e-02
   188    2.601133720788e-14
   189   -2.786411166290e-02
   190    4.173252283833e-02
   191    1.855562497795e-02
   192   -1.552622843023e-13
   193    1.966944783016e-03
   194   -4.463289750834e-15
   195    4.508789365767e-16
   196    5.780857153495e-03
   197    1.085949290263e-02
   198   -2.175263748472e-04
   199   -5.239835310290e-03
   200   -1.693046451241e-02
   201   -8.334889250006e-03
   202   -2.302448176089e-03
   203   -1.881879935870e-03
   204    2.340713251347e-14
Sym=X
Ene= -0.022840
Spin=Alpha
Occup=1
     1   -1.293898755006e-15
     2   -2.244973641115e-15
     3    1.241689902785e-15
     4   -9.654657657391e-16
     5    6.738671481676e-02
     6    2.843933895272e-14
     7   -2.019688275111e-15
     8   -6.444525295733e-15
     9    1.129224082466e-01
    10    1.603689170905e-14
    11    4.424992182406e-15
    12    1.600641534712e-14
    13    1.393130118055e-01
    14   -4.826663258805e-12
    15   -8.122451242921e-13
    16   -9.745300575926e-13
    17    1.989370874931e-02
    18    4.624064868718e-15
    19    3.725812917053e-02
    20   -8.734468768644e-04
    21   -1.184763054992e-14
    22    5.381625491925e-15
    23   -1.862303529938e-15
    24   -8.575196550793e-14
    25    4.628186520101e-14
    26   -5.034709875791e-14
    27    3.475201565896e-15
    28   -5.086414113661e-15
    29   -1.728342273258e-02
    30    3.040846205449e-15
    31   -2.309823971942e-14
    32    7.911747187196e-14
    33   -1.530855205172e-13
    34    6.634051938369e-15
    35   -5.512392172251e-15
    36    5.108171832099e-03
    37   -2.543621190564e-16
    38    6.133357009704e-14
    39   -9.590259098140e-14
    40   -1.268700794052e-13
    41    1.053139760499e-14
    42   -6.183882531011e-15
    43    1.292618598540e-03
    44   -7.238779501284e-16
    45   -2.291645538049e-15
    46   -3.746812017618e-15
    47    3.262465163114e-15
    48   -4.396443512848e-03
    49    1.014182439884e-14
    50   -1.239429567296e-14
    51    1.572669957146e-14
    52   -1.243859260749e-02
    53   -4.531619254923e-15
    54   -3.968033005817e-14
    55    2.719007059918e-13
    56    1.527226677629e-02
    57    6.270838280176e-13
    58    7.814872943694e-14
    59   -8.369530850802e-14
    60    2.640717284009e-02
    61   -3.525627166791e-14
    62   -2.413372630285e-02
    63    3.951042836543e-02
    64   -8.512506139478e-16
    65   -1.946743607018e-14
    66    1.275492113818e-16
    67   -3.264672549852e-15
    68   -3.545147480672e-15
    69    1.143121892404e-16
    70    1.114509263414e-01
    71    2.728178856309e-14
    72   -8.085328713981e-15
    73    5.764777558974e-15
    74    1.689700225326e-01
    75   -1.514097974517e-13
    76   -8.117064712412e-14
    77   -5.766660996763e-15
    78    1.703579653277e-01
    79   -7.811525336443e-14
    80    1.726791546838e-14
    81    1.774934565424e-14
    82    3.298932240646e-02
    83   -3.990774271447e-15
    84    6.551168355344e-03
    85   -3.618117105282e-03
    86    2.119139392373e-15
    87    8.928518603841e-16
    88   -9.923235175327e-16
    89   -4.557074438012e-15
    90   -7.252210290811e-15
    91    2.701079093742e-15
    92    1.013975643756e-02
    93    1.318537786869e-14
    94    7.266295687144e-15
    95   -2.132871371060e-14
    96    1.960408814862e-02
    97    3.225738296601e-14
    98    1.126426135155e-13
    99    4.789698182167e-14
   100    1.450911161514e-03
   101   -2.854304692377e-12
   102    2.770323313137e-13
   103    5.681966928028e-13
   104   -2.763732882530e-02
   105   -1.062167840925e-14
   106   -2.297358351025e-02
   107   -2.568311084104e-02
   108    2.750618244093e-15
   109    3.587421438236e-15
   110    2.603094631150e-17
   111   -1.919805418901e-15
   112   -8.984774917350e-15
   113    1.109888848227e-14
   114   -7.385373734973e-02
   115    1.460602613287e-14
   116   -1.045041182909e-14
   117    1.507355258754e-14
   118   -1.092721459329e-01
   119   -8.216195137002e-14
   120   -3.815216246930e-15
   121    4.656019120676e-14
   122   -1.153625587853e-01
   123   -6.289633634093e-14
   124    1.182656217350e-13
   125   -1.997722756348e-14
   126   -2.761972075166e-02
   127   -1.350560596295e-17
   128    4.313026614858e-03
   129    2.112668271301e-03
   130   -1.317239756146e-15
   131    6.105365223251e-16
   132    2.702670113110e-15
   133    7.614807219117e-15
   134   -5.226051018411e-15
   135    3.608317713499e-15
   136    1.135621137869e-02
   137   -3.586149145089e-14
   138   -8.992022394807e-15
   139    2.074610465169e-14
   140    1.975003280206e-02
   141   -7.979176643493e-15
   142    4.232269938501e-14
   143   -1.588588325802e-13
   144    1.803128427840e-02
   145    7.037369925326e-14
   146    2.588658557563e-13
   147    2.545271100860e-13
   148    4.734335850796e-03
   149   -7.402312796211e-15
   150    2.724611946030e-03
   151   -6.580581543951e-04
   152   -2.848009014293e-15
   153   -3.509678386400e-15
   154    1.786098208364e-15
   155    3.494633865208e-15
   156    1.642802965099e-15
   157    2.612517529431e-16
   158   -1.788821900876e-01
   159   -3.983499636486e-14
   160    1.413807833349e-14
   161   -1.406686234760e-14
   162   -2.830081131424e-01
   163    2.050051084696e-13
   164   -9.769517190307e-14
   165    7.758360953780e-14
   166   -3.428930286703e-01
   167    4.178118051943e-13
   168    1.250949536928e-13
   169    1.049510394358e-13
   170   -9.901402162681e-02
   171   -7.521978090034e-15
   172    2.876407968730e-03
   173   -5.812681804419e-03
   174    1.251897761669e-15
   175    4.573409328241e-15
   176    7.048150388547e-16
   177   -5.079314104413e-15
   178   -3.032133252409e-15
   179    5.295448731464e-15
   180    1.400277297189e-01
   181    4.703565445692e-14
   182   -1.232193662356e-14
   183    6.271662530974e-15
   184    2.330767980620e-01
   185   -2.000286240709e-13
   186   -2.993809946256e-14
   187    1.955655134086e-14
   188    2.455716328641e-01
   189    6.451984993389e-12
   190   -1.614645938691e-12
   191    6.441674636509e-13
   192    4.568188965281e-02
   193    1.282667821206e-14
   194   -1.203427730469e-02
   195    5.130398242226e-04
   196    4.966393220417e-15
   197    6.835876127078e-15
   198   -4.179054223478e-15
   199    3.365637862613e-14
   200    1.314191072143e-13
   201    5.810306201769e-13
   202   -1.436386347572e-14
   203   -7.724090749226e-15
   204    1.132775793364e-02
Sym=X
Ene= -0.025290
Spin=Alpha
Occup=1
     1    5.474294709983e-03
     2    9.555839439214e-03
     3   -2.209375240864e-02
     4   -1.405857307114e-02
     5   -2.493553564847e-15
     6   -2.761520162012e-02
     7   -3.861294566266e-02
     8   -2.526703538869e-02
     9   -3.639171594535e-15
    10   -8.666291885896e-02
    11   -4.785190669701e-02
    12   -6.428534793449e-02
    13   -1.791790513540e-14
    14   -4.383291650095e-01
    15   -1.034495520846e-01
    16   -1.115466742244e-01
    17   -1.225123993391e-14
    18    1.513610960464e-04
    19    3.269770278341e-15
    20    1.072023970710e-14
    21   -8.042984215754e-03
    22    3.752727174600e-03
    23   -1.384353452338e-03
    24    6.649971558332e-04
    25    1.518121209801e-02
    26    4.656690631065e-03
    27   -2.747862997337e-04
    28    3.460388828826e-04
    29    3.832983541836e-15
    30    1.473586202584e-02
    31    1.882740169229e-02
    32    1.149680488358e-02
    33   -4.031636074079e-02
    34   -1.541822384505e-03
    35   -1.332351572111e-03
    36    1.396247984476e-14
    37   -1.323826286274e-02
    38   -3.980724038691e-03
    39    2.317139628399e-02
    40   -5.252032334891e-02
    41    1.680399772826e-04
    42    2.251148847025e-03
    43   -1.142495198429e-16
    44   -8.490430405915e-03
    45   -1.462266386867e-02
    46    2.673526235472e-02
    47    6.893813902895e-03
    48   -1.109255252164e-15
    49    4.161001940107e-02
    50    4.598827321605e-02
    51    1.316610473019e-02
    52   -2.444071722086e-14
    53    7.863316835052e-02
    54    3.506951903986e-02
    55   -2.717917482732e-03
    56    6.544718172264e-14
    57    9.094427571843e-02
    58    1.836724425739e-02
    59    1.096713835475e-02
    60    1.344566105650e-14
    61   -1.458094763242e-04
    62   -2.817458595111e-15
    63   -6.363502255055e-15
    64    4.734877885133e-03
    65    1.012403546312e-02
    66    5.859412993414e-04
    67    1.022371323521e-03
    68   -2.416376440466e-02
    69   -1.477545086017e-02
    70   -2.135280727086e-15
    71   -3.508522592835e-03
    72   -3.575031944394e-02
    73   -2.310196476169e-02
    74   -6.799598299929e-15
    75   -8.407933121576e-04
    76   -3.705530511753e-02
    77   -2.890994227959e-02
    78   -5.661590636381e-15
    79    1.347199926622e-02
    80    8.741372412794e-04
    81   -4.259352736536e-03
    82   -3.741768199372e-14
    83    3.040579325044e-04
    84   -5.009930694232e-16
    85    1.481365308718e-16
    86   -7.757236007375e-04
    87    4.322258996709e-04
    88   -2.755898917196e-03
    89   -4.988680092045e-03
    90   -7.972916811428e-03
    91   -2.092800374925e-02
    92   -5.814098397767e-15
    93    1.236352184094e-02
    94   -1.145614705248e-02
    95   -4.546332450114e-02
    96   -1.436030307475e-14
    97    1.791738614795e-02
    98   -6.953756034458e-02
    99    8.884044564107e-02
   100    1.996619568377e-14
   101   -3.889038596967e-01
   102   -2.939387950923e-02
   103    1.917457083312e-01
   104   -5.117075849027e-14
   105    1.176923870877e-03
   106    1.237987698130e-14
   107    4.971954392669e-16
   108   -6.868476508378e-02
   109    3.592314373519e-02
   110   -6.199874375582e-03
   111   -1.027808149875e-02
   112   -1.293460437430e-01
   113    2.330098350003e-01
   114    3.211287346390e-15
   115    2.639799870731e-02
   116   -1.973713127919e-01
   117    3.556911471229e-01
   118    6.708216580303e-16
   119    3.854180374639e-02
   120   -2.001193722181e-01
   121    3.378599978192e-01
   122   -1.850761914265e-14
   123    6.548841480445e-03
   124   -1.538708263945e-02
   125    3.287493239324e-02
   126    5.922505924006e-14
   127    1.221708307475e-04
   128    8.993696254457e-16
   129   -2.250968906064e-16
   130    1.327625820621e-02
   131   -8.294276803340e-03
   132    2.451066325253e-02
   133    4.114711348897e-02
   134   -7.146344942744e-02
   135    6.300608226848e-03
   136   -1.414448683252e-15
   137   -1.146502827735e-01
   138   -1.060342797022e-01
   139    2.624807968133e-03
   140   -8.788383810468e-15
   141   -2.236774260264e-01
   142   -1.161660952775e-01
   143    3.192673806402e-02
   144   -1.815422917110e-14
   145   -1.994932998318e-01
   146    4.827769437006e-02
   147    3.656097903790e-02
   148   -6.976297921299e-15
   149   -1.210742998691e-03
   150   -1.968469118958e-15
   151    2.567396275770e-15
   152    2.694280573499e-03
   153   -1.710564000167e-03
   154    4.026819144689e-03
   155    6.813817294283e-03
   156   -6.651819418206e-04
   157   -3.188311964113e-03
   158    9.698634490634e-15
   159   -1.966148478534e-02
   160   -8.752108342021e-04
   161   -4.789236238984e-03
   162    1.886578269606e-14
   163   -3.478265648898e-02
   164    7.022628466145e-03
   165   -1.088940318698e-02
   166   -6.471453009030e-15
   167    2.943712789823e-02
   168    1.623334614069e-02
   169    4.271639998696e-02
   170    3.385954450836e-14
   171   -4.687759057720e-04
   172    1.447822563276e-15
   173    2.989037724670e-15
   174   -2.976167122770e-03
   175    2.477641190396e-04
   176   -1.654748416165e-02
   177   -2.754865932294e-02
   178    1.435275185136e-02
   179    6.543113819562e-02
   180   -8.393497175623e-15
   181    7.138034022711e-02
   182    2.523058370440e-02
   183    8.800276735630e-02
   184   -2.044703934235e-14
   185    2.557703520773e-01
   186   -2.629808040762e-02
   187    1.313271083362e-01
   188   -1.091502574791e-14
   189    8.628583606220e-01
   190   -1.428672579940e-01
   191    9.167767390021e-02
   192    1.098777930004e-14
   193    1.355232999842e-03
   194   -4.097736836571e-15
   195    4.522461718528e-15
   196    2.049895145060e-03
   197   -1.031607186545e-03
   198   -3.022898704723e-03
   199   -1.004496191688e-02
   200    8.843973770246e-03
   201    5.225524119948e-02
   202    1.202723674486e-03
   203   -9.957291855914e-04
   204    5.246481754390e-15
Sym=X
Ene= -0.732850
Spin=Alpha
Occup=1
     1   -9.194491146820e-16
     2   -6.825590561443e-15
     3   -8.950068436424e-15
     4   -6.104753997932e-16
     5    7.894759716018e-03
     6    5.433219150866e-14
     7   -7.448593141834e-15
     8    1.346148375512e-14
     9    1.589275782966e-02
    10   -2.382195819618e-14
    11    2.029820265185e-13
    12   -1.565426349841e-13
    13    3.186786986985e-03
    14   -1.183419289843e-11
    15   -2.607577079707e-12
    16   -2.453975476321e-12
    17   -1.393097953147e-03
    18   -1.545570738017e-15
    19   -1.129593686130e-03
    20   -1.083680763976e-03
    21   -6.259596786254e-15
    22    5.419652409204e-15
    23    6.645209923391e-15
    24   -3.675281507841e-14
    25    3.544749888015e-13
    26   -1.017688292249e-13
    27    2.056054500932e-15
    28   -1.116988182159e-15
    29    2.884063067802e-03
    30    4.931628873611e-15
    31   -4.292439401388e-14
    32   -3.060827685949e-14
    33   -7.778348039614e-13
    34   -5.511395377455e-15
    35   -7.066262229915e-15
    36    6.568633810685e-04
    37   -7.651415723161e-15
    38    4.293847992068e-14
    39   -5.731464796151e-13
    40   -2.751964247306e-14
    41    1.350030737906e-15
    42   -5.983539366366e-16
    43   -1.619208741564e-02
    44   -3.627473764957e-16
    45   -4.478674993230e-16
    46   -3.071481369625e-15
    47    3.250101521454e-15
    48    3.314231160833e-03
    49    8.111702228438e-15
    50   -4.784786603895e-15
    51   -3.881942859620e-15
    52    6.316004018342e-03
    53   -4.574304685533e-15
    54    1.503502716685e-13
    55   -2.755946556306e-14
    56    2.053011554379e-02
    57    1.242257052897e-12
    58    1.533394732495e-13
    59   -4.711884679751e-13
    60    7.115244091129e-03
    61   -9.692812969402e-15
    62   -5.102055268640e-02
    63    2.344755897987e-03
    64    1.197410791222e-15
    65    2.283019859998e-15
    66   -6.155185570482e-17
    67    2.090904865939e-17
    68   -3.014529800478e-15
    69   -4.719570647244e-15
    70    1.246562159274e-01
    71   -9.046339712889e-16
    72   -5.171748188861e-15
    73    1.466906856898e-15
    74    1.899924657334e-01
    75    5.417298934759e-14
    76    1.534459816433e-14
    77   -3.102672087557e-14
    78    1.871517549998e-01
    79   -4.322826655076e-14
    80   -3.004107029215e-14
    81    3.348545143725e-14
    82    4.675145419896e-02
    83   -6.388663040706e-17
    84    6.747676841207e-03
    85   -4.986798405257e-03
    86   -7.960963730525e-16
    87   -4.926923822487e-16
    88    6.965138789834e-16
    89    9.009767356477e-16
    90   -4.377255500694e-15
    91    5.597875434700e-15
    92    2.882092710272e-02
    93   -1.654499855817e-14
    94    4.544100225857e-15
    95   -4.161920815626e-15
    96    4.962188605391e-02
    97    4.680732332205e-14
    98   -2.666514952135e-13
    99   -7.656787120219e-16
   100    5.683838856145e-02
   101   -2.343991335540e-12
   102    8.351080156499e-13
   103    1.566038832529e-13
   104    7.743111182717e-03
   105   -6.337131993275e-15
   106    5.193072357783e-02
   107    6.597727112706e-03
   108    8.978317840435e-17
   109   -6.112098458661e-15
   110   -1.489887456653e-15
   111    8.953103497961e-17
   112    2.597779032613e-15
   113   -3.326993118944e-15
   114    1.463719782334e-01
   115   -2.193890980860e-15
   116    6.026860691201e-15
   117   -2.856006528798e-15
   118    2.235928360004e-01
   119    8.587143581032e-14
   120   -2.906470290571e-14
   121   -2.781452367049e-14
   122    2.124032718940e-01
   123    1.587637264945e-13
   124   -2.338093341038e-14
   125   -9.579755217407e-14
   126    4.748852046773e-02
   127   -5.111277016816e-16
   128   -9.551421030254e-03
   129   -6.744710712890e-03
   130   -7.121723769938e-16
   131    2.157671735486e-15
   132   -7.616829932080e-17
   133   -2.015891564619e-15
   134   -4.350460397322e-15
   135    1.597213905045e-15
   136   -2.007674321514e-01
   137    1.224958179901e-14
   138    4.670003314839e-15
   139   -1.884133636590e-14
   140   -3.174038081326e-01
   141   -1.289316889317e-13
   142   -3.398399282703e-14
   143    1.313140164386e-13
   144   -3.705325088050e-01