[Molden Format]
[Atoms] (Angs)
  C      1    6     -0.00714236     -1.70213747     -0.00000000
  H      2    1     -2.06882847     -1.44022412      0.00000000
  H      3    1     -0.12337987     -2.77567521      0.00000000
  H      4    1      0.04651892      1.98813947     -0.00000000
  C      5    6     -1.21953563      0.40211669      0.00000000
  O      6    8     -2.25921553      1.03043814      0.00000000
  C      7    6      1.28797806      0.34644937     -0.00000000
  O      8    8      2.31273661      1.00537216     -0.00000000
  N      9    7      0.03446295      0.97739857     -0.00000000
  N     10    7     -1.17287765     -0.98229824      0.00000000
  C     11    6      1.20107039     -1.10433419     -0.00000000
  H     12    1      2.11220096     -1.67699125     -0.00000000
[GTO]
1    0
S    6    1.000000
   4.56324000E+03    1.96665000E-03 
   6.82024000E+02    1.52306000E-02 
   1.54973000E+02    7.61269000E-02 
   4.44553000E+01    2.60801000E-01 
   1.30290000E+01    6.16462000E-01 
   1.82773000E+00    2.21006000E-01 
SP   3    1.000000
   2.09642000E+01    1.14660000E-01   4.02487000E-02 
   4.80331000E+00    9.19999000E-01   2.37594000E-01 
   1.45933000E+00   -3.03068000E-03   8.15854000E-01 
SP   1    1.000000
   4.83456000E-01    1.00000000E+00   1.00000000E+00 
SP   1    1.000000
   1.45585000E-01    1.00000000E+00   1.00000000E+00 
SP   1    1.000000
   4.38000000E-02    1.00000000E+00   1.00000000E+00 
D    1    1.000000
   6.26000000E-01    1.00000000E+00 

2    0
S    3    1.000000
   3.38650000E+01    2.54938000E-02 
   5.09479000E+00    1.90373000E-01 
   1.15879000E+00    8.52161000E-01 
S    1    1.000000
   3.25840000E-01    1.00000000E+00 
S    1    1.000000
   1.02741000E-01    1.00000000E+00 
S    1    1.000000
   3.60000000E-02    1.00000000E+00 
P    1    1.000000
   7.50000000E-01    1.00000000E+00 

3    0
S    3    1.000000
   3.38650000E+01    2.54938000E-02 
   5.09479000E+00    1.90373000E-01 
   1.15879000E+00    8.52161000E-01 
S    1    1.000000
   3.25840000E-01    1.00000000E+00 
S    1    1.000000
   1.02741000E-01    1.00000000E+00 
S    1    1.000000
   3.60000000E-02    1.00000000E+00 
P    1    1.000000
   7.50000000E-01    1.00000000E+00 

4    0
S    3    1.000000
   3.38650000E+01    2.54938000E-02 
   5.09479000E+00    1.90373000E-01 
   1.15879000E+00    8.52161000E-01 
S    1    1.000000
   3.25840000E-01    1.00000000E+00 
S    1    1.000000
   1.02741000E-01    1.00000000E+00 
S    1    1.000000
   3.60000000E-02    1.00000000E+00 
P    1    1.000000
   7.50000000E-01    1.00000000E+00 

5    0
S    6    1.000000
   4.56324000E+03    1.96665000E-03 
   6.82024000E+02    1.52306000E-02 
   1.54973000E+02    7.61269000E-02 
   4.44553000E+01    2.60801000E-01 
   1.30290000E+01    6.16462000E-01 
   1.82773000E+00    2.21006000E-01 
SP   3    1.000000
   2.09642000E+01    1.14660000E-01   4.02487000E-02 
   4.80331000E+00    9.19999000E-01   2.37594000E-01 
   1.45933000E+00   -3.03068000E-03   8.15854000E-01 
SP   1    1.000000
   4.83456000E-01    1.00000000E+00   1.00000000E+00 
SP   1    1.000000
   1.45585000E-01    1.00000000E+00   1.00000000E+00 
SP   1    1.000000
   4.38000000E-02    1.00000000E+00   1.00000000E+00 
D    1    1.000000
   6.26000000E-01    1.00000000E+00 

6    0
S    6    1.000000
   8.58850000E+03    1.89515000E-03 
   1.29723000E+03    1.43859000E-02 
   2.99296000E+02    7.07320000E-02 
   8.73771000E+01    2.40001000E-01 
   2.56789000E+01    5.94797000E-01 
   3.74004000E+00    2.80802000E-01 
SP   3    1.000000
   4.21175000E+01    1.13889000E-01   3.65114000E-02 
   9.62837000E+00    9.20811000E-01   2.37153000E-01 
   2.85332000E+00   -3.27447000E-03   8.19702000E-01 
SP   1    1.000000
   9.05661000E-01    1.00000000E+00   1.00000000E+00 
SP   1    1.000000
   2.55611000E-01    1.00000000E+00   1.00000000E+00 
SP   1    1.000000
   8.45000000E-02    1.00000000E+00   1.00000000E+00 
D    1    1.000000
   1.29200000E+00    1.00000000E+00 

7    0
S    6    1.000000
   4.56324000E+03    1.96665000E-03 
   6.82024000E+02    1.52306000E-02 
   1.54973000E+02    7.61269000E-02 
   4.44553000E+01    2.60801000E-01 
   1.30290000E+01    6.16462000E-01 
   1.82773000E+00    2.21006000E-01 
SP   3    1.000000
   2.09642000E+01    1.14660000E-01   4.02487000E-02 
   4.80331000E+00    9.19999000E-01   2.37594000E-01 
   1.45933000E+00   -3.03068000E-03   8.15854000E-01 
SP   1    1.000000
   4.83456000E-01    1.00000000E+00   1.00000000E+00 
SP   1    1.000000
   1.45585000E-01    1.00000000E+00   1.00000000E+00 
SP   1    1.000000
   4.38000000E-02    1.00000000E+00   1.00000000E+00 
D    1    1.000000
   6.26000000E-01    1.00000000E+00 

8    0
S    6    1.000000
   8.58850000E+03    1.89515000E-03 
   1.29723000E+03    1.43859000E-02 
   2.99296000E+02    7.07320000E-02 
   8.73771000E+01    2.40001000E-01 
   2.56789000E+01    5.94797000E-01 
   3.74004000E+00    2.80802000E-01 
SP   3    1.000000
   4.21175000E+01    1.13889000E-01   3.65114000E-02 
   9.62837000E+00    9.20811000E-01   2.37153000E-01 
   2.85332000E+00   -3.27447000E-03   8.19702000E-01 
SP   1    1.000000
   9.05661000E-01    1.00000000E+00   1.00000000E+00 
SP   1    1.000000
   2.55611000E-01    1.00000000E+00   1.00000000E+00 
SP   1    1.000000
   8.45000000E-02    1.00000000E+00   1.00000000E+00 
D    1    1.000000
   1.29200000E+00    1.00000000E+00 

9    0
S    6    1.000000
   6.29348000E+03    1.96979000E-03 
   9.49044000E+02    1.49613000E-02 
   2.18776000E+02    7.35006000E-02 
   6.36916000E+01    2.48937000E-01 
   1.88282000E+01    6.02460000E-01 
   2.72023000E+00    2.56202000E-01 
SP   3    1.000000
   3.06331000E+01    1.11906000E-01   3.83119000E-02 
   7.02614000E+00    9.21666000E-01   2.37403000E-01 
   2.11205000E+00   -2.56919000E-03   8.17592000E-01 
SP   1    1.000000
   6.84009000E-01    1.00000000E+00   1.00000000E+00 
SP   1    1.000000
   2.00878000E-01    1.00000000E+00   1.00000000E+00 
SP   1    1.000000
   6.39000000E-02    1.00000000E+00   1.00000000E+00 
D    1    1.000000
   9.13000000E-01    1.00000000E+00 

10    0
S    6    1.000000
   6.29348000E+03    1.96979000E-03 
   9.49044000E+02    1.49613000E-02 
   2.18776000E+02    7.35006000E-02 
   6.36916000E+01    2.48937000E-01 
   1.88282000E+01    6.02460000E-01 
   2.72023000E+00    2.56202000E-01 
SP   3    1.000000
   3.06331000E+01    1.11906000E-01   3.83119000E-02 
   7.02614000E+00    9.21666000E-01   2.37403000E-01 
   2.11205000E+00   -2.56919000E-03   8.17592000E-01 
SP   1    1.000000
   6.84009000E-01    1.00000000E+00   1.00000000E+00 
SP   1    1.000000
   2.00878000E-01    1.00000000E+00   1.00000000E+00 
SP   1    1.000000
   6.39000000E-02    1.00000000E+00   1.00000000E+00 
D    1    1.000000
   9.13000000E-01    1.00000000E+00 

11    0
S    6    1.000000
   4.56324000E+03    1.96665000E-03 
   6.82024000E+02    1.52306000E-02 
   1.54973000E+02    7.61269000E-02 
   4.44553000E+01    2.60801000E-01 
   1.30290000E+01    6.16462000E-01 
   1.82773000E+00    2.21006000E-01 
SP   3    1.000000
   2.09642000E+01    1.14660000E-01   4.02487000E-02 
   4.80331000E+00    9.19999000E-01   2.37594000E-01 
   1.45933000E+00   -3.03068000E-03   8.15854000E-01 
SP   1    1.000000
   4.83456000E-01    1.00000000E+00   1.00000000E+00 
SP   1    1.000000
   1.45585000E-01    1.00000000E+00   1.00000000E+00 
SP   1    1.000000
   4.38000000E-02    1.00000000E+00   1.00000000E+00 
D    1    1.000000
   6.26000000E-01    1.00000000E+00 

12    0
S    3    1.000000
   3.38650000E+01    2.54938000E-02 
   5.09479000E+00    1.90373000E-01 
   1.15879000E+00    8.52161000E-01 
S    1    1.000000
   3.25840000E-01    1.00000000E+00 
S    1    1.000000
   1.02741000E-01    1.00000000E+00 
S    1    1.000000
   3.60000000E-02    1.00000000E+00 
P    1    1.000000
   7.50000000E-01    1.00000000E+00 

[MO]
Sym=X
Ene= -0.003480
Spin=Alpha
Occup=1
     1    1.052221567029e-15
     2    6.013564865681e-15
     3    5.734307554404e-15
     4   -5.839798176055e-16
     5   -1.224859913438e-01
     6   -5.363085483641e-14
     7    1.006311111189e-14
     8    4.912097632473e-16
     9   -2.055047561605e-01
    10    3.051945621444e-14
    11   -1.085362500609e-13
    12    1.040579228180e-13
    13   -1.360049097058e-01
    14   -4.545067633074e-14
    15    3.142927120111e-13
    16   -1.378671851260e-13
    17   -1.853047095542e-02
    18   -3.370443556963e-15
    19    4.229258766946e-03
    20   -1.269428412932e-02
    21    8.886468453046e-15
    22   -8.589208238102e-15
    23   -7.086976134821e-15
    24   -2.538736333021e-14
    25   -2.484841098778e-13
    26    3.486008337299e-15
    27   -1.759574521067e-14
    28    7.103607510526e-15
    29   -1.569766742342e-02
    30   -6.292370087545e-15
    31    4.545934832361e-14
    32    2.730984261951e-14
    33    2.680363238958e-14
    34   -6.994184625972e-15
    35    9.809688468250e-15
    36   -9.427017919792e-03
    37    1.455533041571e-15
    38    5.944444820244e-14
    39    1.142419347889e-13
    40   -1.054271382201e-13
    41   -6.094482251254e-15
    42    5.932653548972e-15
    43    1.257579780021e-02
    44    2.297574333358e-16
    45    2.386162230635e-16
    46    6.279704144796e-15
    47   -1.522339795466e-15
    48    2.664667415737e-02
    49    1.143422293337e-14
    50    2.278225888346e-14
    51   -2.220284146630e-14
    52    4.518140387612e-02
    53   -8.514619901959e-14
    54   -9.201412639548e-14
    55    1.892944774452e-13
    56    4.100438131956e-02
    57    8.052149361269e-13
    58    2.720219696858e-13
    59   -4.659524681605e-14
    60    3.868002873439e-03
    61    4.573067649652e-14
    62    1.226517073640e-02
    63    2.642228956743e-02
    64    3.179086518853e-15
    65    1.302092292720e-14
    66    2.620150463715e-15
    67    4.796258974791e-15
    68    7.719578128588e-15
    69    1.336671222478e-15
    70    2.259766280640e-02
    71   -3.579352585115e-14
    72    3.156007251923e-14
    73   -5.108539137262e-15
    74    3.525656051356e-02
    75    8.717501259868e-14
    76   -2.316025913593e-14
    77   -1.973248169389e-14
    78    2.589320118862e-02
    79   -3.758459857889e-13
    80   -1.182482784282e-13
    81    8.282983373612e-14
    82   -8.394566997067e-03
    83    2.164029569508e-15
    84    2.799212802441e-03
    85   -1.881734604595e-03
    86    2.966478065682e-16
    87   -1.772660924518e-15
    88   -2.614975482487e-16
    89    5.131808325890e-16
    90    1.711281225938e-15
    91   -3.932801654331e-15
    92   -2.617845877284e-02
    93    1.389272161546e-14
    94    1.116043115171e-14
    95   -1.992515532604e-15
    96   -4.539498397719e-02
    97   -2.253614310908e-13
    98    2.032881856176e-13
    99    8.393385449380e-14
   100   -3.360652677750e-02
   101   -2.667474396045e-12
   102    3.900204904996e-13
   103    6.577664205169e-13
   104   -1.255955701213e-02
   105    1.144855220885e-14
   106   -2.628888595447e-02
   107    6.725022491384e-03
   108   -1.258175961302e-14
   109    8.238794459169e-15
   110    1.554631793385e-15
   111    3.208899489949e-15
   112   -3.569817541184e-15
   113    9.980307473338e-17
   114   -7.459687309321e-02
   115   -1.831653328527e-14
   116   -1.406140697789e-14
   117   -5.342328210080e-15
   118   -1.148286999764e-01
   119   -3.461335841906e-14
   120    4.181739097042e-14
   121    2.010463244070e-14
   122   -1.070409270241e-01
   123   -2.382299512772e-14
   124   -7.735716007567e-14
   125   -4.016180220360e-14
   126   -1.795524359689e-02
   127    1.933033794793e-15
   128    5.510159065152e-03
   129    3.634676953141e-03
   130    2.058988258431e-15
   131   -3.791567685254e-15
   132   -1.382324982617e-15
   133    8.033627193256e-17
   134    5.279079098643e-15
   135   -3.943315211180e-16
   136    1.315059287501e-01
   137    4.072958330083e-15
   138    1.836826688320e-17
   139    2.558200554294e-14
   140    2.108628821286e-01
   141    5.983565361756e-14
   142    5.369991138653e-14
   143   -2.181641227357e-13
   144    2.297758308192e-01
   145    4.822224390838e-13
   146   -8.505687726968e-15
   147   -2.129347567056e-13
   148    4.772447706003e-02
   149    6.770658066558e-15
   150   -4.250013992439e-03
   151   -1.051557532537e-03
   152    4.684406037711e-15
   153    2.017685985926e-15
   154   -6.360197113151e-16
   155   -8.627339797770e-16
   156    3.632112696850e-15
   157    9.842676665696e-16
   158   -1.486181428208e-01
   159   -1.024315811674e-15
   160    9.391945523513e-15
   161    1.826001222686e-14
   162   -2.361430609516e-01
   163    1.223130703932e-13
   164   -1.156614194741e-13
   165    9.064342528167e-15
   166   -2.281681789793e-01
   167    1.609961606775e-14
   168   -3.360846862732e-13
   169   -1.073681175201e-13
   170   -2.169089591149e-02
   171    6.869545029625e-15
   172   -7.183019018844e-03
   173    5.363197701590e-03
   174   -1.248634623724e-17
   175   -4.158996578840e-16
   176    2.810187790903e-15
   177    8.407629799548e-15
   178   -1.881222344863e-15
   179    2.633978482114e-15
   180   -8.684844279424e-02
   181   -6.998246037223e-14
   182    3.215874944933e-14
   183    1.275722263665e-14
   184   -1.467873891343e-01
   185    3.039414259644e-13
   186   -1.235195978767e-13
   187   -4.102296522986e-14
   188   -1.035221193765e-01
   189    1.928557093662e-12
   190   -1.208319727121e-15
   191    7.016154268829e-13
   192    7.852082701264e-03
   193   -1.457678686409e-14
   194    1.388829297862e-02
   195    6.069965374633e-03
   196   -2.942815972834e-15
   197   -1.229175626432e-14
   198    5.463351916713e-15
   199   -2.315528382201e-14
   200   -7.265014897381e-14
   201   -4.018634276085e-14
   202    2.267733306866e-14
   203    1.056263436640e-14
   204   -7.256498920576e-03
Sym=X
Ene= -0.052236
Spin=Alpha
Occup=1
     1   -2.977086804994e-16
     2   -3.781723647713e-15
     3   -6.242625180516e-15
     4   -1.135913094734e-15
     5   -5.934902310074e-02
     6    2.704439216350e-14
     7    2.166446000181e-15
     8    1.195762173798e-14
     9   -9.703600279953e-02
    10   -1.063756512533e-14
    11    1.666232909102e-13
    12   -1.445453377403e-13
    13   -7.469527559475e-02
    14   -1.261083633963e-11
    15   -2.533934260524e-12
    16   -2.895869040630e-12
    17   -1.083620375798e-02
    18   -3.056603709437e-15
    19    2.351779282252e-03
    20   -8.641838166979e-03
    21   -3.961558074729e-15
    22    3.156746599630e-15
    23    3.490956027284e-15
    24   -3.677004459165e-14
    25    2.048865872598e-13
    26   -1.393501474906e-13
    27   -4.611558425119e-15
    28    9.230140988870e-16
    29   -4.374408166768e-03
    30    1.951328396902e-15
    31   -3.079624389449e-14
    32   -7.925512797575e-14
    33   -9.413487020349e-13
    34   -8.472969001001e-15
    35   -4.132064744559e-15
    36   -4.445301065000e-03
    37   -8.474273160226e-15
    38    6.542846796749e-14
    39   -5.656811671073e-13
    40   -3.977696547686e-14
    41   -1.480743451524e-15
    42    1.674231470039e-15
    43   -1.094564045067e-02
    44   -4.571432602186e-16
    45   -1.045199441548e-15
    46   -8.040447980415e-16
    47    3.774682298559e-15
    48    3.461270151190e-02
    49    1.895740836061e-14
    50    6.861486435207e-15
    51   -1.237893057020e-14
    52    5.948164270795e-02
    53   -8.410163465276e-14
    54    6.657721823048e-14
    55    5.198507521932e-14
    56    6.270973304787e-02
    57    1.704403910501e-12
    58    2.323129775932e-13
    59   -5.729511606686e-13
    60    1.416462252034e-02
    61    8.547726820657e-15
    62   -5.257256599865e-02
    63    1.917770134271e-02
    64    2.038604388736e-15
    65    9.086823968669e-15
    66    9.384261043517e-16
    67    1.845222429827e-15
    68   -8.206311977212e-16
    69   -3.656643643901e-15
    70    1.705408347547e-01
    71   -1.670003550038e-14
    72    5.286467930164e-15
    73    3.158970352005e-16
    74    2.609897430538e-01
    75    9.330484903122e-14
    76    1.248314866725e-14
    77   -3.579586176415e-14
    78    2.488196852821e-01
    79   -2.500422101982e-13
    80   -7.932259069990e-14
    81    8.382245411910e-14
    82    4.860996462976e-02
    83    6.017166333902e-16
    84    1.126851150747e-02
    85   -7.576583541476e-03
    86   -8.113611850569e-16
    87   -1.040463423523e-15
    88    7.976879976660e-17
    89    2.774062684296e-16
    90   -4.626459276583e-15
    91    4.288235734770e-15
    92    2.235390544971e-02
    93   -1.176219320928e-14
    94    4.985484624008e-15
    95   -8.140049432586e-15
    96    3.853489315264e-02
    97   -2.382751209173e-14
    98   -2.234534555682e-13
    99    2.355468111398e-14
   100    4.852796954101e-02
   101   -3.804407859014e-12
   102    9.911802285532e-13
   103    4.070278060309e-13
   104    3.506882526781e-03
   105   -2.534441656635e-15
   106    4.200350237798e-02
   107    1.228160692784e-02
   108   -5.575287912023e-15
   109   -4.763455278462e-15
   110   -6.643943989019e-16
   111    1.859444047835e-15
   112    1.557993928528e-15
   113   -3.614466106077e-15
   114    1.300831290902e-01
   115   -1.140189816226e-14
   116    4.356852119582e-15
   117   -5.064518841282e-15
   118    1.993398851429e-01
   119    8.561261883681e-14
   120   -3.547320558372e-14
   121   -2.800482199858e-14
   122    1.900763809093e-01
   123    1.729544709797e-13
   124   -8.819287649663e-15
   125   -9.562849180191e-14
   126    4.382011382504e-02
   127    2.460651946453e-16
   128   -8.150193464404e-03
   129   -5.609009149588e-03
   130    7.627559565476e-17
   131    9.588635950488e-16
   132   -5.488766325517e-16
   133   -1.872813799180e-15
   134   -2.989056770568e-15
   135    1.590185472060e-15
   136   -1.432138260551e-01
   137    1.305815478427e-14
   138    4.252805206226e-15
   139   -1.109054229748e-14
   140   -2.245813463277e-01
   141   -8.159430152619e-14
   142   -4.047248098337e-14
   143    5.654071798143e-14
   144   -2.760076728885e-01
   145    6.092362644908e-14
   146    1.268866037815e-13
   147    9.538565198915e-13
   148   -6.179758053278e-02
   149    3.187777972126e-15
   150   -1.229506790764e-04
   151    2.880345757350e-03
   152    4.214424865656e-15
   153   -5.962579870509e-16
   154    1.789140192073e-16
   155    1.867402465499e-15
   156   -3.193224715283e-16
   157    2.181608245261e-15
   158   -6.239469698837e-02
   159   -1.170024781091e-14
   160   -4.100793337287e-15
   161    1.073065061527e-14
   162   -9.790074736845e-02
   163    1.105386932469e-13
   164    2.587427448729e-14
   165   -4.282089457395e-14
   166   -1.027511307995e-01
   167    8.881341334277e-13
   168    6.141349722162e-13
   169    4.743773052355e-13
   170   -8.956221109030e-03
   171   -1.908293780003e-15
   172   -5.946127680564e-03
   173    3.760450260033e-03
   174    2.669976629074e-15
   175   -3.338618868619e-15
   176   -2.388926157438e-18
   177   -3.008942936687e-15
   178   -3.959960093575e-16
   179    3.973132639744e-15
   180   -3.824039090927e-02
   181    4.098979131607e-14
   182   -1.609538810570e-15
   183   -2.288543026073e-14
   184   -6.243382155630e-02
   185   -3.101721406988e-13
   186    2.870384531049e-14
   187    1.831274094709e-13
   188   -6.057387004585e-02
   189    1.402200036416e-11
   190   -4.301563881847e-12
   191    3.306882391316e-13
   192    7.280218057670e-03
   193    2.787390515336e-15
   194    9.139516078336e-03
   195    3.843163157148e-03
   196    2.529599999198e-16
   197    3.959769157992e-16
   198    3.287285108456e-15
   199   -7.226056955932e-16
   200    2.519398392232e-13
   201    1.318342494777e-12
   202   -5.868092996269e-15
   203    4.065424542152e-15
   204   -2.194105060648e-03
Sym=X
Ene= -0.804875
Spin=Alpha
Occup=1
     1   -1.898932369723e-15
     2   -4.041116138181e-15
     3    1.015728197266e-15
     4    7.284053580900e-16
     5    9.147206604024e-02
     6    4.353610672250e-14
     7   -1.539703415049e-14
     8    9.307277538203e-15
     9    1.531508895731e-01
    10    1.010488584522e-13
    11    4.636921150322e-14
    12    1.026389339706e-13
    13    1.716570963503e-01
    14   -6.543373505949e-12
    15   -1.156640404712e-12
    16   -1.274225937915e-12
    17    2.446864804949e-02
    18    2.290817886931e-15
    19    3.652221893124e-02
    20    1.775791666417e-03
    21   -6.683531586616e-15
    22   -4.344163085098e-17
    23   -8.837811066953e-16
    24   -1.423734460986e-13
    25    5.147950058858e-14
    26   -7.671209928667e-14
    27   -2.684061737926e-15
    28   -2.885463339370e-15
    29   -1.535933221557e-02
    30    1.871151165831e-15
    31    8.883357545632e-15
    32    8.037909437710e-14
    33   -2.321743221464e-13
    34    4.002030950407e-15
    35   -4.347721816842e-15
    36    7.131314653812e-03
    37    1.196022875796e-15
    38    1.270464475842e-13
    39   -1.441617778123e-13
    40   -8.819724705600e-14
    41    1.080313062984e-14
    42   -1.027339403515e-14
    43   -3.652067605119e-04
    44   -2.982575435121e-16
    45   -1.041890879350e-15
    46   -4.398157537751e-15
    47    2.732369483586e-15
    48   -1.113869510576e-02
    49    3.896590188206e-15
    50   -1.246154028910e-14
    51    4.986045316627e-15
    52   -2.364699069593e-02
    53   -4.911703669991e-15
    54    1.177962672699e-13
    55    2.827425752541e-13
    56    1.003448286659e-02
    57    1.060248824873e-12
    58    1.734807757310e-13
    59   -2.298129343433e-13
    60    2.668329091958e-02
    61   -2.744267333008e-14
    62   -1.949006133455e-02
    63    3.252638845778e-02
    64   -2.107522104242e-15
    65   -1.360005436331e-14
    66    1.024455765318e-16
    67   -3.362754600598e-15
    68   -2.001319438978e-15
    69    4.281930874106e-16
    70    9.568650498607e-02
    71    2.447640145120e-14
    72   -4.062627688010e-15
    73    5.801169768411e-15
    74    1.459613695734e-01
    75   -9.254084987026e-14
    76   -5.847566961676e-14
    77   -3.129474300159e-14
    78    1.482728468367e-01
    79    1.294837677101e-14
    80    2.018825325866e-14
    81    4.632147988210e-15
    82    2.922956732077e-02
    83   -3.703459832105e-15
    84    4.923382283114e-03
    85   -2.385353631222e-03
    86    2.251714412463e-15
    87   -1.806629665149e-16
    88   -1.954735490470e-16
    89   -3.812562714887e-15
    90   -6.719130769713e-15
    91    4.876417051996e-15
    92    3.512598964649e-03
    93    1.467014443788e-14
    94    1.421952070011e-14
    95   -1.365415981784e-14
    96    8.636296813164e-03
    97    2.626107666673e-14
    98    1.823758147601e-13
    99    1.204522976038e-13
   100   -9.041065090496e-03
   101   -3.304811031265e-12
   102    5.870125272637e-13
   103    5.612125333696e-13
   104   -3.143062332285e-02
   105   -9.033346500175e-15
   106   -1.887103297925e-02
   107   -2.934814995192e-02
   108    2.208201563829e-15
   109    2.736066628898e-15
   110    7.193591154655e-17
   111   -1.751698507386e-15
   112   -2.627507713575e-15
   113   -1.119468607463e-16
   114   -8.948541207852e-02
   115    1.434669543665e-14
   116   -7.303673789042e-15
   117   -1.242400510611e-15
   118   -1.361335217608e-01
   119   -1.230386471948e-13
   120    5.158632609107e-14
   121    3.021211354502e-14
   122   -1.385571503408e-01
   123   -1.395309288551e-13
   124    7.419141932968e-14
   125   -2.203856176553e-14
   126   -2.882710149516e-02
   127    8.223771591770e-16
   128    4.924603742628e-03
   129    2.365131640855e-03
   130   -1.404448928739e-15
   131    6.291521578826e-16
   132    3.480588048262e-16
   133    3.233661144489e-15
   134   -1.128936341223e-15
   135    4.804984990983e-15
   136   -4.935806214861e-03
   137   -8.689070977192e-15
   138   -1.955556080352e-15
   139    3.423491886877e-14
   140   -8.079798508820e-03
   141   -1.290145900063e-13
   142    7.869736880243e-14
   143   -2.480914228880e-13
   144   -9.487242618557e-03
   145    2.250892513286e-13
   146    2.847958015742e-13
   147    3.282782103674e-13
   148    3.439700981356e-03
   149   -3.799647841337e-15
   150    7.478268366744e-04
   151   -2.056377527158e-04
   152   -2.127187810144e-16
   153   -2.968287075327e-15
   154    1.349629879852e-15
   155    2.353596507070e-15
   156    4.045156906533e-15
   157    1.460478822514e-15
   158   -1.530389483151e-01
   159   -2.451296337264e-14
   160    2.945773513702e-14
   161   -4.385208434239e-15
   162   -2.412970572010e-01
   163    1.754461191002e-13
   164   -2.532039038151e-13
   165    2.795710702397e-14
   166   -3.029658850883e-01
   167    3.612264962064e-13
   168    2.265906767851e-13
   169    7.387734225711e-14
   170   -9.847351446924e-02
   171   -7.731422345551e-15
   172    5.270721914464e-03
   173   -6.027910712862e-03
   174    2.381628389229e-15
   175    3.958809302578e-15
   176    1.034280649232e-15
   177   -5.204484060894e-15
   178   -2.299171244310e-15
   179    3.161321239828e-15
   180    1.534856874503e-01
   181    5.071486596637e-14
   182   -9.095860197243e-15
   183    6.864597320564e-15
   184    2.549819217600e-01
   185   -2.481531697163e-13
   186   -8.691196140351e-15
   187    3.217003055392e-14
   188    2.672446906712e-01
   189    8.221800746888e-12
   190   -2.115047418721e-12
   191    4.873807409842e-13
   192    4.760064374524e-02
   193    1.415580492823e-14
   194   -1.501576839306e-02
   195   -2.240561551311e-03
   196    3.738519786212e-15
   197    9.547735939816e-15
   198   -6.260115388705e-15
   199    4.052686787377e-14
   200    8.925075660791e-14
   201    5.919548993880e-13
   202   -1.494238210708e-14
   203   -2.285190414988e-15
   204    1.253676822814e-02
Sym=X
Ene= 0.804875
Spin=Alpha
Occup=0
     1    1.176802069736e-02
     2    2.065392354419e-02
     3    1.107624182306e-02
     4    2.393252474647e-02
     5    1.064159332590e-14
     6   -6.864017582635e-02
     7    1.559406599563e-02
     8    3.718935324897e-02
     9    2.551698594254e-14
    10   -1.283615539953e-01
    11    1.483021257389e-01
    12    1.191759387460e-01
    13    8.546045866172e-14
    14   -3.523904941404e+00
    15    4.747177179374e-01
    16    1.735201818993e-01
    17   -6.302802607371e-13
    18   -3.370874005463e-03
    19   -2.421291268877e-14
    20    1.344243298422e-14
    21   -3.728135818293e-03
    22   -1.629705676445e-03
    23   -3.605483708482e-03
    24   -1.616099666505e-02
    25   -6.221344102035e-01
    26   -1.356726577032e+00
    27    1.217910532407e-02
    28    7.766447782973e-03
    29   -2.597463392063e-15
    30    1.708939536462e-03
    31    1.930754711499e-02
    32    2.601728041656e-01
    33    1.596419035660e+00
    34    7.228024123470e-03
    35   -9.183785958700e-03
    36    5.709804607946e-15
    37    6.416010178937e-04
    38    4.078861934986e-03
    39   -1.586543676608e-01
    40   -1.722394257451e-02
    41   -1.398370498289e-03
    42   -1.575855265313e-03
    43   -2.565029950319e-15
    44    6.182083596452e-03
    45    1.095436199925e-02
    46   -3.918815008204e-03
    47    1.457771981882e-02
    48    1.966398289396e-14
    49   -3.071355640354e-02
    50   -4.367528433883e-03
    51    2.703041624193e-02
    52   -6.120551740376e-14
    53   -6.431748242083e-02
    54    2.240600537201e-02
    55   -3.296434388750e-02
    56    1.880448337332e-13
    57   -3.108943356200e-02
    58   -5.590890000557e-02
    59   -2.570085043859e-01
    60    1.309311935660e-12
    61   -9.306962983772e-03
    62   -3.964031472449e-15
    63    4.986003385430e-15
    64    2.477682976754e-03
    65    8.429954345965e-03
    66   -6.374872459575e-03
    67   -1.100307154488e-02
    68   -1.019209502822e-02
    69   -1.413957462342e-02
    70    5.844580949420e-14
    71    3.518663872293e-02
    72   -1.457549001622e-02
    73   -2.170386583422e-02
    74    8.384139777261e-15
    75    8.407224837066e-02
    76   -3.465297002875e-03
    77   -3.115516434764e-02
    78    4.548064142684e-13
    79    5.831267675597e-02
    80   -5.789262363913e-02
    81    1.362854825377e-02
    82   -1.432141359829e-12
    83   -1.338678709150e-03
    84    8.590994727733e-15
    85   -3.475409801598e-15
    86    2.853545299159e-04
    87   -1.311486888443e-03
    88   -2.992871289709e-03
    89   -5.276067061176e-03
    90   -3.437018959172e-03
    91   -8.143454246342e-03
    92    2.879304895874e-14
    93    1.245499134570e-02
    94   -2.842355773321e-03
    95   -1.189294521336e-02
    96    8.083528941802e-14
    97    7.347660779513e-02
    98   -1.340492817323e-01
    99   -8.485298406328e-02
   100   -1.330600993673e-14
   101   -1.847850830681e+00
   102    5.331432006187e-01
   103    3.271228981708e-01
   104   -2.717141122796e-12
   105    2.652916191457e-03
   106   -9.971427590117e-15
   107    1.069307898689e-14
   108   -4.087509329308e-04
   109    9.971826535489e-03
   110    1.451495164083e-03
   111    2.614567907448e-03
   112   -9.713514516711e-03
   113    3.351750878953e-03
   114   -1.104228751320e-13
   115   -1.020405841284e-02
   116   -1.286756388815e-02
   117    5.120704278002e-03
   118   -1.360817688281e-13
   119    8.660643073594e-03
   120   -2.274099483168e-02
   121    3.631524395659e-03
   122   -4.621403658412e-13
   123    2.375285000299e-01
   124   -1.149487549852e-01
   125   -9.021781582377e-02
   126    1.782085707926e-12
   127    7.989661882322e-04
   128    8.033221798183e-15
   129    6.257118710916e-15
   130    1.890478167963e-04
   131   -3.466320655234e-04
   132   -1.897751109583e-03
   133   -3.370533142699e-03
   134   -2.329654514865e-02
   135    3.650722954146e-03
   136    3.648415183637e-16
   137    1.335007738343e-02
   138   -3.452372567017e-02
   139    4.980870898074e-03
   140    1.535723166342e-14
   141   -1.879609012345e-02
   142   -7.602512277544e-02
   143    3.138302670026e-02
   144   -1.897415803520e-13