[Molden Format]
[Atoms] (Angs)
  C      1    6     -0.00714236     -1.70213747     -0.00000000
  H      2    1     -2.06882847     -1.44022412      0.00000000
  H      3    1     -0.12337987     -2.77567521      0.00000000
  H      4    1      0.04651892      1.98813947     -0.00000000
  C      5    6     -1.21953563      0.40211669      0.00000000
  O      6    8     -2.25921553      1.03043814      0.00000000
  C      7    6      1.28797806      0.34644937     -0.00000000
  O      8    8      2.31273661      1.00537216     -0.00000000
  N      9    7      0.03446295      0.97739857     -0.00000000
  N     10    7     -1.17287765     -0.98229824      0.00000000
  C     11    6      1.20107039     -1.10433419     -0.00000000
  H     12    1      2.11220096     -1.67699125     -0.00000000
[GTO]
1    0
S    6    1.000000
   4.56324000E+03    1.96665000E-03 
   6.82024000E+02    1.52306000E-02 
   1.54973000E+02    7.61269000E-02 
   4.44553000E+01    2.60801000E-01 
   1.30290000E+01    6.16462000E-01 
   1.82773000E+00    2.21006000E-01 
SP   3    1.000000
   2.09642000E+01    1.14660000E-01   4.02487000E-02 
   4.80331000E+00    9.19999000E-01   2.37594000E-01 
   1.45933000E+00   -3.03068000E-03   8.15854000E-01 
SP   1    1.000000
   4.83456000E-01    1.00000000E+00   1.00000000E+00 
SP   1    1.000000
   1.45585000E-01    1.00000000E+00   1.00000000E+00 
SP   1    1.000000
   4.38000000E-02    1.00000000E+00   1.00000000E+00 
D    1    1.000000
   6.26000000E-01    1.00000000E+00 

2    0
S    3    1.000000
   3.38650000E+01    2.54938000E-02 
   5.09479000E+00    1.90373000E-01 
   1.15879000E+00    8.52161000E-01 
S    1    1.000000
   3.25840000E-01    1.00000000E+00 
S    1    1.000000
   1.02741000E-01    1.00000000E+00 
S    1    1.000000
   3.60000000E-02    1.00000000E+00 
P    1    1.000000
   7.50000000E-01    1.00000000E+00 

3    0
S    3    1.000000
   3.38650000E+01    2.54938000E-02 
   5.09479000E+00    1.90373000E-01 
   1.15879000E+00    8.52161000E-01 
S    1    1.000000
   3.25840000E-01    1.00000000E+00 
S    1    1.000000
   1.02741000E-01    1.00000000E+00 
S    1    1.000000
   3.60000000E-02    1.00000000E+00 
P    1    1.000000
   7.50000000E-01    1.00000000E+00 

4    0
S    3    1.000000
   3.38650000E+01    2.54938000E-02 
   5.09479000E+00    1.90373000E-01 
   1.15879000E+00    8.52161000E-01 
S    1    1.000000
   3.25840000E-01    1.00000000E+00 
S    1    1.000000
   1.02741000E-01    1.00000000E+00 
S    1    1.000000
   3.60000000E-02    1.00000000E+00 
P    1    1.000000
   7.50000000E-01    1.00000000E+00 

5    0
S    6    1.000000
   4.56324000E+03    1.96665000E-03 
   6.82024000E+02    1.52306000E-02 
   1.54973000E+02    7.61269000E-02 
   4.44553000E+01    2.60801000E-01 
   1.30290000E+01    6.16462000E-01 
   1.82773000E+00    2.21006000E-01 
SP   3    1.000000
   2.09642000E+01    1.14660000E-01   4.02487000E-02 
   4.80331000E+00    9.19999000E-01   2.37594000E-01 
   1.45933000E+00   -3.03068000E-03   8.15854000E-01 
SP   1    1.000000
   4.83456000E-01    1.00000000E+00   1.00000000E+00 
SP   1    1.000000
   1.45585000E-01    1.00000000E+00   1.00000000E+00 
SP   1    1.000000
   4.38000000E-02    1.00000000E+00   1.00000000E+00 
D    1    1.000000
   6.26000000E-01    1.00000000E+00 

6    0
S    6    1.000000
   8.58850000E+03    1.89515000E-03 
   1.29723000E+03    1.43859000E-02 
   2.99296000E+02    7.07320000E-02 
   8.73771000E+01    2.40001000E-01 
   2.56789000E+01    5.94797000E-01 
   3.74004000E+00    2.80802000E-01 
SP   3    1.000000
   4.21175000E+01    1.13889000E-01   3.65114000E-02 
   9.62837000E+00    9.20811000E-01   2.37153000E-01 
   2.85332000E+00   -3.27447000E-03   8.19702000E-01 
SP   1    1.000000
   9.05661000E-01    1.00000000E+00   1.00000000E+00 
SP   1    1.000000
   2.55611000E-01    1.00000000E+00   1.00000000E+00 
SP   1    1.000000
   8.45000000E-02    1.00000000E+00   1.00000000E+00 
D    1    1.000000
   1.29200000E+00    1.00000000E+00 

7    0
S    6    1.000000
   4.56324000E+03    1.96665000E-03 
   6.82024000E+02    1.52306000E-02 
   1.54973000E+02    7.61269000E-02 
   4.44553000E+01    2.60801000E-01 
   1.30290000E+01    6.16462000E-01 
   1.82773000E+00    2.21006000E-01 
SP   3    1.000000
   2.09642000E+01    1.14660000E-01   4.02487000E-02 
   4.80331000E+00    9.19999000E-01   2.37594000E-01 
   1.45933000E+00   -3.03068000E-03   8.15854000E-01 
SP   1    1.000000
   4.83456000E-01    1.00000000E+00   1.00000000E+00 
SP   1    1.000000
   1.45585000E-01    1.00000000E+00   1.00000000E+00 
SP   1    1.000000
   4.38000000E-02    1.00000000E+00   1.00000000E+00 
D    1    1.000000
   6.26000000E-01    1.00000000E+00 

8    0
S    6    1.000000
   8.58850000E+03    1.89515000E-03 
   1.29723000E+03    1.43859000E-02 
   2.99296000E+02    7.07320000E-02 
   8.73771000E+01    2.40001000E-01 
   2.56789000E+01    5.94797000E-01 
   3.74004000E+00    2.80802000E-01 
SP   3    1.000000
   4.21175000E+01    1.13889000E-01   3.65114000E-02 
   9.62837000E+00    9.20811000E-01   2.37153000E-01 
   2.85332000E+00   -3.27447000E-03   8.19702000E-01 
SP   1    1.000000
   9.05661000E-01    1.00000000E+00   1.00000000E+00 
SP   1    1.000000
   2.55611000E-01    1.00000000E+00   1.00000000E+00 
SP   1    1.000000
   8.45000000E-02    1.00000000E+00   1.00000000E+00 
D    1    1.000000
   1.29200000E+00    1.00000000E+00 

9    0
S    6    1.000000
   6.29348000E+03    1.96979000E-03 
   9.49044000E+02    1.49613000E-02 
   2.18776000E+02    7.35006000E-02 
   6.36916000E+01    2.48937000E-01 
   1.88282000E+01    6.02460000E-01 
   2.72023000E+00    2.56202000E-01 
SP   3    1.000000
   3.06331000E+01    1.11906000E-01   3.83119000E-02 
   7.02614000E+00    9.21666000E-01   2.37403000E-01 
   2.11205000E+00   -2.56919000E-03   8.17592000E-01 
SP   1    1.000000
   6.84009000E-01    1.00000000E+00   1.00000000E+00 
SP   1    1.000000
   2.00878000E-01    1.00000000E+00   1.00000000E+00 
SP   1    1.000000
   6.39000000E-02    1.00000000E+00   1.00000000E+00 
D    1    1.000000
   9.13000000E-01    1.00000000E+00 

10    0
S    6    1.000000
   6.29348000E+03    1.96979000E-03 
   9.49044000E+02    1.49613000E-02 
   2.18776000E+02    7.35006000E-02 
   6.36916000E+01    2.48937000E-01 
   1.88282000E+01    6.02460000E-01 
   2.72023000E+00    2.56202000E-01 
SP   3    1.000000
   3.06331000E+01    1.11906000E-01   3.83119000E-02 
   7.02614000E+00    9.21666000E-01   2.37403000E-01 
   2.11205000E+00   -2.56919000E-03   8.17592000E-01 
SP   1    1.000000
   6.84009000E-01    1.00000000E+00   1.00000000E+00 
SP   1    1.000000
   2.00878000E-01    1.00000000E+00   1.00000000E+00 
SP   1    1.000000
   6.39000000E-02    1.00000000E+00   1.00000000E+00 
D    1    1.000000
   9.13000000E-01    1.00000000E+00 

11    0
S    6    1.000000
   4.56324000E+03    1.96665000E-03 
   6.82024000E+02    1.52306000E-02 
   1.54973000E+02    7.61269000E-02 
   4.44553000E+01    2.60801000E-01 
   1.30290000E+01    6.16462000E-01 
   1.82773000E+00    2.21006000E-01 
SP   3    1.000000
   2.09642000E+01    1.14660000E-01   4.02487000E-02 
   4.80331000E+00    9.19999000E-01   2.37594000E-01 
   1.45933000E+00   -3.03068000E-03   8.15854000E-01 
SP   1    1.000000
   4.83456000E-01    1.00000000E+00   1.00000000E+00 
SP   1    1.000000
   1.45585000E-01    1.00000000E+00   1.00000000E+00 
SP   1    1.000000
   4.38000000E-02    1.00000000E+00   1.00000000E+00 
D    1    1.000000
   6.26000000E-01    1.00000000E+00 

12    0
S    3    1.000000
   3.38650000E+01    2.54938000E-02 
   5.09479000E+00    1.90373000E-01 
   1.15879000E+00    8.52161000E-01 
S    1    1.000000
   3.25840000E-01    1.00000000E+00 
S    1    1.000000
   1.02741000E-01    1.00000000E+00 
S    1    1.000000
   3.60000000E-02    1.00000000E+00 
P    1    1.000000
   7.50000000E-01    1.00000000E+00 

[MO]
Sym=X
Ene= -0.487297
Spin=Alpha
Occup=1
     1   -5.544534939277e-03
     2   -9.363503526054e-03
     3   -1.083619908022e-03
     4   -2.350023816043e-02
     5   -3.327590468135e-14
     6    2.119126654756e-02
     7    1.331030048910e-03
     8   -3.644779305250e-02
     9   -8.299361899089e-14
    10    2.351458015593e-01
    11    4.586391665384e-02
    12    1.004955473882e-02
    13   -1.273805930030e-13
    14    2.275297259212e+00
    15   -3.426426619156e-01
    16    1.626092420459e-01
    17   -6.227964670476e-13
    18    6.472267690138e-04
    19    1.262405421702e-14
    20    1.697880250138e-15
    21    1.364962376419e-02
    22    1.217089846744e-03
    23   -1.062990584565e-02
    24   -6.622761860032e-02
    25   -4.756842328973e-01
    26   -1.658553857200e+00
    27    9.393428327172e-03
    28    5.199956814019e-03
    29   -3.110781663994e-15
    30   -4.557945946424e-03
    31    2.048998267100e-03
    32   -1.761272244973e-01
    33   -7.407669569834e-01
    34    3.300934221714e-03
    35    7.037106649875e-03
    36   -9.108966876722e-15
    37   -6.627027163390e-03
    38   -1.569168136839e-02
    39    4.403636187093e-01
    40    1.356841670246e+00
    41   -5.361826588694e-03
    42    1.244779846282e-02
    43   -8.215526886190e-15
    44   -2.986160471059e-03
    45   -4.881139329988e-03
    46   -1.090869857665e-02
    47    8.926218742680e-03
    48    8.418560603144e-15
    49   -3.165181137005e-03
    50   -2.350326734286e-02
    51    1.193448052616e-02
    52    3.897877144833e-14
    53    2.715360739783e-01
    54   -1.341214266666e-01
    55    9.453185246877e-02
    56   -1.993325350519e-14
    57    8.471055736128e-01
    58   -3.727746428483e-01
    59    3.864512296624e-01
    60    8.203515387160e-13
    61    1.455850888114e-02
    62    9.233141911578e-16
    63   -4.951703744814e-15
    64    6.897833103240e-03
    65    1.417109817924e-02
    66    1.389012572733e-02
    67    2.401006605945e-02
    68   -3.596599926591e-02
    69   -3.784825947994e-02
    70   -2.053360968274e-14
    71   -8.233661537059e-02
    72   -4.819680287480e-02
    73   -5.201648842282e-02
    74   -3.050359707450e-14
    75   -1.807810338934e-01
    76   -8.735956512207e-02
    77   -1.710104099156e-02
    78   -3.236649576568e-14
    79   -5.677355401709e-01
    80    8.074592904003e-03
    81    8.191810598375e-02
    82   -1.865218746730e-13
    83    1.971075941009e-03
    84    8.594428108340e-16
    85    2.441932281062e-15
    86   -3.829008940878e-03
    87   -1.399279525813e-03
    88   -4.972727861118e-03
    89   -8.826154198002e-03
    90   -1.109626418224e-02
    91    1.808118029648e-03
    92    9.077450698838e-15
    93    2.940069911851e-02
    94   -2.282720570202e-02
    95    1.404170105450e-03
    96    8.211808472175e-15
    97    2.413529347745e-02
    98   -2.121773241062e-02
    99   -3.700538254279e-02
   100   -6.856321600087e-14
   101    3.061861386043e+00
   102    3.872431799752e-02
   103   -1.290884424159e+00
   104   -6.332955613848e-13
   105    6.762515917733e-03
   106    6.144723251383e-15
   107   -1.174264635047e-14
   108    5.860329046040e-03
   109    3.852644676418e-04
   110    2.516049549152e-03
   111    4.377371776329e-03
   112    5.008989416893e-03
   113   -6.768741282329e-03
   114   -6.541080758145e-15
   115   -1.550165481792e-02
   116    6.456479056108e-03
   117   -9.121117617901e-03
   118   -7.188232361134e-15
   119   -2.621256772768e-03
   120    6.512686217930e-03
   121   -1.920065784545e-02
   122   -4.892558429034e-14
   123   -3.091587247299e-02
   124   -1.870214304410e-02
   125    7.552422426129e-02
   126    2.175779199143e-13
   127    3.857875418035e-04
   128    7.613227615699e-17
   129    2.427288986337e-15
   130    3.879004735904e-05
   131    7.998259845458e-05
   132    1.263599933625e-02
   133    2.182271901741e-02
   134   -6.415837045196e-05
   135   -3.518161266975e-02
   136   -1.057591925964e-14
   137   -6.658174025904e-02
   138    3.799831893911e-03
   139   -5.450614106105e-02
   140   -3.594472720085e-14
   141   -2.072561519841e-01
   142    1.678371225501e-02
   143   -8.120472802540e-02
   144    4.084574787252e-14
   145   -3.721250944186e-01
   146    5.036378940761e-02
   147   -7.284716455558e-01
   148   -1.872559507573e-13
   149    3.863765714402e-03
   150   -9.100572984377e-16
   151   -3.883451678929e-15
   152    3.770409862594e-04
   153   -4.331734593575e-03
   154   -8.049888467075e-03
   155   -1.374625064262e-02
   156   -3.520436401538e-02
   157   -3.721821514153e-02
   158    1.252129427737e-14
   159    3.778197849299e-02
   160   -5.642789166879e-02
   161   -5.540142314532e-02
   162    1.132007231414e-14
   163    1.793362871375e-01
   164   -1.191355898391e-01
   165   -1.206876239682e-01
   166    7.951305462666e-14
   167   -2.962338611949e-01
   168   -5.589010315979e-01
   169   -2.213706374866e-01
   170   -9.933373975832e-14
   171    2.293427094705e-03
   172   -2.204989770395e-15
   173    4.387268890522e-15
   174   -3.391650398696e-03
   175   -6.448527334033e-03
   176    2.110163250584e-03
   177    3.611514671460e-03
   178   -1.614380475315e-03
   179   -1.318123671159e-02
   180    3.161121069628e-14
   181   -6.026470434375e-03
   182    6.960880171437e-04
   183   -1.410649055098e-02
   184    6.225068127070e-14
   185   -1.522332125925e-01
   186    7.621880542845e-02
   187   -6.865781135413e-02
   188    9.703087808344e-14
   189   -3.868525256369e+00
   190    1.878906177184e-01
   191   -1.150671311030e+00
   192    8.403276988373e-13
   193    2.080203608046e-03
   194    1.925398848550e-15
   195    5.788225316143e-15
   196   -5.203709104976e-03
   197   -1.893059534553e-04
   198   -1.772968272762e-03
   199   -1.567915386659e-02
   200   -4.850025585334e-02
   201   -1.233742426102e-01
   202   -6.196005728307e-04
   203   -9.100092213824e-04
   204    3.434084924210e-15
Sym=X
Ene= 0.487297
Spin=Alpha
Occup=0
     1   -1.327318497932e-14
     2   -2.246923262724e-14
     3    1.235377503251e-14
     4    9.363622166352e-15
     5    3.195184981520e-02
     6    1.018228163226e-13
     7   -1.087650470166e-13
     8    4.779718055890e-14
     9    5.463786326212e-02
    10    4.124562450536e-13
    11    1.210731052383e-13
    12    5.922098582798e-13
    13    5.008874798279e-02
    14    2.888193021085e-11
    15    1.038815325914e-11
    16    3.450092285132e-12
    17    3.857486316817e-02
    18   -1.140740027388e-14
    19   -2.675223185467e-02
    20    2.072977464855e-03
    21   -1.325990340709e-14
    22    5.804401258471e-15
    23    1.210256043829e-14
    24   -2.279761227912e-13
    25   -3.095144958305e-13
    26   -1.172052327459e-13
    27   -1.193532821205e-14
    28   -1.240165961867e-15
    29    1.221469251446e-02
    30    2.617935271485e-14
    31    1.141204716657e-13
    32    9.878029054134e-13
    33    3.981738801199e-12
    34   -7.716102821330e-15
    35    1.105715690470e-14
    36    3.169747105780e-03
    37    1.057876172946e-14
    38    7.059041738236e-14
    39    1.516984205884e-12
    40   -1.271828404986e-12
    41    7.967335257687e-15
    42   -1.876374711442e-17
    43    1.247292266063e-02
    44   -3.439502607828e-16
    45   -8.056215672703e-16
    46    9.026616434276e-15
    47   -2.518527912348e-15
    48   -2.667264669849e-01
    49   -4.603013437042e-14
    50   -1.996735797719e-14
    51    2.058116066491e-14
    52   -4.575234114745e-01
    53    2.324121874240e-13
    54    1.276874467284e-12
    55    3.554648222341e-13
    56   -6.530872893427e-01
    57    2.183197843346e-12
    58    5.949221557086e-13
    59   -9.591938388475e-13
    60   -1.805190710768e-01
    61    9.694094196569e-15
    62    9.191994413294e-03
    63   -1.187955296854e-03
    64    1.208471346120e-14
    65    3.114586096937e-15
    66    2.226779528503e-15
    67    1.759525107039e-15
    68   -3.289623300358e-15
    69    9.540094509111e-15
    70    1.596216262741e-01
    71   -1.395133191794e-14
    72   -1.162839246258e-14
    73    2.169318289276e-14
    74    2.155936099849e-01
    75    1.045220375721e-13
    76   -6.360027793327e-15
    77   -1.155125105572e-13
    78    2.577487033858e-01
    79    1.966342405084e-12
    80    5.530730261580e-13
    81   -4.897274946051e-13
    82    1.122666533585e-01
    83    3.158471174788e-15
    84   -1.360516870691e-02
    85    8.233254633947e-03
    86   -1.313589399414e-15
    87    3.348592826000e-15
    88    6.891780917584e-15
    89    1.493996961632e-14
    90    6.632950669936e-15
    91    8.061645287426e-15
    92    2.508504512820e-02
    93   -6.361275293026e-14
    94    3.793854799918e-14
    95    2.968487629921e-15
    96    4.467307800710e-02
    97    2.268024379681e-13
    98    1.463904939617e-13
    99   -5.425508849835e-14
   100    3.385551479672e-02
   101    2.653103340922e-12
   102   -9.158566005407e-12
   103    2.698810929826e-12
   104    2.873038170135e-02
   105    8.572620178960e-15
   106   -2.046009368753e-02
   107    1.613486158267e-02
   108    1.003091984168e-14
   109   -1.210407164293e-14
   110    1.204494440191e-15
   111    1.137311126475e-15
   112    6.066006601223e-15
   113   -1.616323778428e-14
   114   -2.455396850059e-02
   115   -1.324616663017e-14
   116    1.489246392269e-14
   117   -2.921404166525e-14
   118   -3.699447515000e-02
   119   -4.013516459431e-14
   120   -7.245888450836e-14
   121    6.160042234945e-14
   122   -4.406534249906e-02
   123    5.992872762895e-13
   124    7.142114984608e-13
   125    1.147913599576e-14
   126   -2.637282904314e-02
   127   -2.342631929473e-15
   128   -9.898944229339e-04
   129    9.289056386201e-04
   130   -2.686533476950e-15
   131    1.308839075477e-15
   132    4.521507882422e-15
   133    6.987031402697e-15
   134    2.081869374728e-14
   135    3.694896521170e-15
   136    9.780216826945e-02
   137    1.727124453542e-14
   138    1.895052785576e-14
   139    7.792661526078e-14
   140    1.473957103851e-01
   141   -5.842760793603e-13
   142    5.217950209339e-13
   143   -3.313535988079e-13
   144    2.713502463406e-01
   145   -8.477409153676e-12
   146   -8.473838644638e-14
   147   -9.911675144741e-13
   148    1.709352528962e-01
   149    7.033582516618e-15
   150    2.446589178836e-02
   151    8.150669762256e-03
   152    1.345247223732e-15
   153    4.764546741095e-15
   154    1.601423483726e-14
   155    2.685048165988e-14
   156    6.836252270331e-15
   157    9.484161306084e-15
   158    8.398243127850e-02
   159   -1.031573662468e-13
   160    7.128785535875e-14
   161    1.414768359958e-14
   162    1.258617502876e-01
   163   -1.289832244770e-13
   164   -7.669505585731e-13
   165    1.134762128323e-13
   166    2.374463931636e-01
   167    1.375158313407e-12
   168    6.730799658620e-14
   169   -2.580654102415e-12
   170    1.694530705943e-01
   171   -3.240164072632e-15
   172    4.665587175233e-03
   173   -2.751073762756e-02
   174    8.045389107852e-15
   175    1.073204427000e-14
   176   -1.031056187589e-14
   177   -1.316156343373e-14
   178    7.084803041675e-15
   179   -8.753872614548e-15
   180   -6.243594854694e-02
   181   -6.347201660762e-14
   182    4.070493440051e-14
   183    4.286928362987e-14
   184   -9.893187198016e-02
   185    6.822852534512e-13
   186    1.530791761304e-13
   187   -5.167211871815e-13
   188   -1.676732083091e-01
   189   -3.526947896157e-11
   190    1.443743706940e-11
   191    8.760503190097e-12
   192   -1.106992503151e-01
   193   -2.405107709725e-14
   194   -3.399063004066e-03
   195    3.923857541607e-04
   196    3.056130267573e-14
   197   -2.152055306698e-15
   198    3.485869009229e-14
   199   -1.742190579818e-13
   200    7.175322039694e-13
   201    3.106681345319e-13
   202    2.270959031204e-14
   203    5.816853293153e-16
   204   -6.304598094996e-03
[5D]
