[Molden Format]
[Atoms] (Angs)
  C      1    6     -0.00714236     -1.70213747     -0.00000000
  H      2    1     -2.06882847     -1.44022412      0.00000000
  H      3    1     -0.12337987     -2.77567521      0.00000000
  H      4    1      0.04651892      1.98813947     -0.00000000
  C      5    6     -1.21953563      0.40211669      0.00000000
  O      6    8     -2.25921553      1.03043814      0.00000000
  C      7    6      1.28797806      0.34644937     -0.00000000
  O      8    8      2.31273661      1.00537216     -0.00000000
  N      9    7      0.03446295      0.97739857     -0.00000000
  N     10    7     -1.17287765     -0.98229824      0.00000000
  C     11    6      1.20107039     -1.10433419     -0.00000000
  H     12    1      2.11220096     -1.67699125     -0.00000000
[GTO]
1    0
S    6    1.000000
   4.56324000E+03    1.96665000E-03 
   6.82024000E+02    1.52306000E-02 
   1.54973000E+02    7.61269000E-02 
   4.44553000E+01    2.60801000E-01 
   1.30290000E+01    6.16462000E-01 
   1.82773000E+00    2.21006000E-01 
SP   3    1.000000
   2.09642000E+01    1.14660000E-01   4.02487000E-02 
   4.80331000E+00    9.19999000E-01   2.37594000E-01 
   1.45933000E+00   -3.03068000E-03   8.15854000E-01 
SP   1    1.000000
   4.83456000E-01    1.00000000E+00   1.00000000E+00 
SP   1    1.000000
   1.45585000E-01    1.00000000E+00   1.00000000E+00 
SP   1    1.000000
   4.38000000E-02    1.00000000E+00   1.00000000E+00 
D    1    1.000000
   6.26000000E-01    1.00000000E+00 

2    0
S    3    1.000000
   3.38650000E+01    2.54938000E-02 
   5.09479000E+00    1.90373000E-01 
   1.15879000E+00    8.52161000E-01 
S    1    1.000000
   3.25840000E-01    1.00000000E+00 
S    1    1.000000
   1.02741000E-01    1.00000000E+00 
S    1    1.000000
   3.60000000E-02    1.00000000E+00 
P    1    1.000000
   7.50000000E-01    1.00000000E+00 

3    0
S    3    1.000000
   3.38650000E+01    2.54938000E-02 
   5.09479000E+00    1.90373000E-01 
   1.15879000E+00    8.52161000E-01 
S    1    1.000000
   3.25840000E-01    1.00000000E+00 
S    1    1.000000
   1.02741000E-01    1.00000000E+00 
S    1    1.000000
   3.60000000E-02    1.00000000E+00 
P    1    1.000000
   7.50000000E-01    1.00000000E+00 

4    0
S    3    1.000000
   3.38650000E+01    2.54938000E-02 
   5.09479000E+00    1.90373000E-01 
   1.15879000E+00    8.52161000E-01 
S    1    1.000000
   3.25840000E-01    1.00000000E+00 
S    1    1.000000
   1.02741000E-01    1.00000000E+00 
S    1    1.000000
   3.60000000E-02    1.00000000E+00 
P    1    1.000000
   7.50000000E-01    1.00000000E+00 

5    0
S    6    1.000000
   4.56324000E+03    1.96665000E-03 
   6.82024000E+02    1.52306000E-02 
   1.54973000E+02    7.61269000E-02 
   4.44553000E+01    2.60801000E-01 
   1.30290000E+01    6.16462000E-01 
   1.82773000E+00    2.21006000E-01 
SP   3    1.000000
   2.09642000E+01    1.14660000E-01   4.02487000E-02 
   4.80331000E+00    9.19999000E-01   2.37594000E-01 
   1.45933000E+00   -3.03068000E-03   8.15854000E-01 
SP   1    1.000000
   4.83456000E-01    1.00000000E+00   1.00000000E+00 
SP   1    1.000000
   1.45585000E-01    1.00000000E+00   1.00000000E+00 
SP   1    1.000000
   4.38000000E-02    1.00000000E+00   1.00000000E+00 
D    1    1.000000
   6.26000000E-01    1.00000000E+00 

6    0
S    6    1.000000
   8.58850000E+03    1.89515000E-03 
   1.29723000E+03    1.43859000E-02 
   2.99296000E+02    7.07320000E-02 
   8.73771000E+01    2.40001000E-01 
   2.56789000E+01    5.94797000E-01 
   3.74004000E+00    2.80802000E-01 
SP   3    1.000000
   4.21175000E+01    1.13889000E-01   3.65114000E-02 
   9.62837000E+00    9.20811000E-01   2.37153000E-01 
   2.85332000E+00   -3.27447000E-03   8.19702000E-01 
SP   1    1.000000
   9.05661000E-01    1.00000000E+00   1.00000000E+00 
SP   1    1.000000
   2.55611000E-01    1.00000000E+00   1.00000000E+00 
SP   1    1.000000
   8.45000000E-02    1.00000000E+00   1.00000000E+00 
D    1    1.000000
   1.29200000E+00    1.00000000E+00 

7    0
S    6    1.000000
   4.56324000E+03    1.96665000E-03 
   6.82024000E+02    1.52306000E-02 
   1.54973000E+02    7.61269000E-02 
   4.44553000E+01    2.60801000E-01 
   1.30290000E+01    6.16462000E-01 
   1.82773000E+00    2.21006000E-01 
SP   3    1.000000
   2.09642000E+01    1.14660000E-01   4.02487000E-02 
   4.80331000E+00    9.19999000E-01   2.37594000E-01 
   1.45933000E+00   -3.03068000E-03   8.15854000E-01 
SP   1    1.000000
   4.83456000E-01    1.00000000E+00   1.00000000E+00 
SP   1    1.000000
   1.45585000E-01    1.00000000E+00   1.00000000E+00 
SP   1    1.000000
   4.38000000E-02    1.00000000E+00   1.00000000E+00 
D    1    1.000000
   6.26000000E-01    1.00000000E+00 

8    0
S    6    1.000000
   8.58850000E+03    1.89515000E-03 
   1.29723000E+03    1.43859000E-02 
   2.99296000E+02    7.07320000E-02 
   8.73771000E+01    2.40001000E-01 
   2.56789000E+01    5.94797000E-01 
   3.74004000E+00    2.80802000E-01 
SP   3    1.000000
   4.21175000E+01    1.13889000E-01   3.65114000E-02 
   9.62837000E+00    9.20811000E-01   2.37153000E-01 
   2.85332000E+00   -3.27447000E-03   8.19702000E-01 
SP   1    1.000000
   9.05661000E-01    1.00000000E+00   1.00000000E+00 
SP   1    1.000000
   2.55611000E-01    1.00000000E+00   1.00000000E+00 
SP   1    1.000000
   8.45000000E-02    1.00000000E+00   1.00000000E+00 
D    1    1.000000
   1.29200000E+00    1.00000000E+00 

9    0
S    6    1.000000
   6.29348000E+03    1.96979000E-03 
   9.49044000E+02    1.49613000E-02 
   2.18776000E+02    7.35006000E-02 
   6.36916000E+01    2.48937000E-01 
   1.88282000E+01    6.02460000E-01 
   2.72023000E+00    2.56202000E-01 
SP   3    1.000000
   3.06331000E+01    1.11906000E-01   3.83119000E-02 
   7.02614000E+00    9.21666000E-01   2.37403000E-01 
   2.11205000E+00   -2.56919000E-03   8.17592000E-01 
SP   1    1.000000
   6.84009000E-01    1.00000000E+00   1.00000000E+00 
SP   1    1.000000
   2.00878000E-01    1.00000000E+00   1.00000000E+00 
SP   1    1.000000
   6.39000000E-02    1.00000000E+00   1.00000000E+00 
D    1    1.000000
   9.13000000E-01    1.00000000E+00 

10    0
S    6    1.000000
   6.29348000E+03    1.96979000E-03 
   9.49044000E+02    1.49613000E-02 
   2.18776000E+02    7.35006000E-02 
   6.36916000E+01    2.48937000E-01 
   1.88282000E+01    6.02460000E-01 
   2.72023000E+00    2.56202000E-01 
SP   3    1.000000
   3.06331000E+01    1.11906000E-01   3.83119000E-02 
   7.02614000E+00    9.21666000E-01   2.37403000E-01 
   2.11205000E+00   -2.56919000E-03   8.17592000E-01 
SP   1    1.000000
   6.84009000E-01    1.00000000E+00   1.00000000E+00 
SP   1    1.000000
   2.00878000E-01    1.00000000E+00   1.00000000E+00 
SP   1    1.000000
   6.39000000E-02    1.00000000E+00   1.00000000E+00 
D    1    1.000000
   9.13000000E-01    1.00000000E+00 

11    0
S    6    1.000000
   4.56324000E+03    1.96665000E-03 
   6.82024000E+02    1.52306000E-02 
   1.54973000E+02    7.61269000E-02 
   4.44553000E+01    2.60801000E-01 
   1.30290000E+01    6.16462000E-01 
   1.82773000E+00    2.21006000E-01 
SP   3    1.000000
   2.09642000E+01    1.14660000E-01   4.02487000E-02 
   4.80331000E+00    9.19999000E-01   2.37594000E-01 
   1.45933000E+00   -3.03068000E-03   8.15854000E-01 
SP   1    1.000000
   4.83456000E-01    1.00000000E+00   1.00000000E+00 
SP   1    1.000000
   1.45585000E-01    1.00000000E+00   1.00000000E+00 
SP   1    1.000000
   4.38000000E-02    1.00000000E+00   1.00000000E+00 
D    1    1.000000
   6.26000000E-01    1.00000000E+00 

12    0
S    3    1.000000
   3.38650000E+01    2.54938000E-02 
   5.09479000E+00    1.90373000E-01 
   1.15879000E+00    8.52161000E-01 
S    1    1.000000
   3.25840000E-01    1.00000000E+00 
S    1    1.000000
   1.02741000E-01    1.00000000E+00 
S    1    1.000000
   3.60000000E-02    1.00000000E+00 
P    1    1.000000
   7.50000000E-01    1.00000000E+00 

[MO]
Sym=X
Ene= -0.484354
Spin=Alpha
Occup=1
     1   -3.944200277833e-15
     2   -8.223477215112e-15
     3   -1.528689797302e-14
     4   -2.332848415200e-14
     5   -9.407094209204e-02
     6    6.944909499012e-14
     7   -2.728227584370e-14
     8   -2.193555967267e-14
     9   -1.540745817209e-01
    10   -1.044420309155e-12
    11    3.168151336377e-13
    12   -8.449401786830e-13
    13   -2.362474669968e-01
    14   -4.082325076657e-11
    15   -5.711717177809e-12
    16   -1.138051071840e-11
    17   -1.140643302629e-01
    18    5.530925515006e-15
    19   -1.125253106199e-02
    20    2.938041735283e-03
    21    6.817744126709e-15
    22    5.285467859906e-15
    23    3.652384339574e-15
    24    2.917414558494e-13
    25    9.964902924930e-13
    26    1.928855799467e-12
    27    2.318058348699e-14
    28    9.546329180288e-15
    29    8.462973416139e-03
    30    7.618680014042e-15
    31   -4.005419798469e-14
    32   -6.072532507763e-13
    33   -3.997877023343e-12
    34   -3.528847555116e-15
    35    5.249684978042e-15
    36   -9.581400313607e-03
    37   -6.844556082588e-15
    38   -1.903950503490e-13
    39    3.910041113172e-13
    40   -2.271622294307e-12
    41   -3.672913145936e-16
    42    8.952093764731e-15
    43   -1.150303060413e-02
    44   -5.201480634268e-15
    45   -6.937512944228e-15
    46    8.666580517532e-15
    47   -1.851647427306e-16
    48   -1.764676892917e-02
    49    4.069975685429e-14
    50   -1.872425802809e-15
    51    2.746878549408e-14
    52   -3.135415200439e-02
    53   -1.873604574162e-13
    54   -2.809966324039e-13
    55   -4.190773576958e-13
    56   -2.393188261358e-02
    57    9.470143397401e-12
    58    2.546147263042e-12
    59   -8.204762602712e-13
    60    5.780536275972e-03
    61    1.585157703344e-14
    62   -1.944550631371e-02
    63   -1.765958060575e-02
    64    5.748193472150e-15
    65    1.268785388245e-14
    66    4.856757698018e-15
    67    8.195942103697e-15
    68   -1.732529529738e-16
    69    1.716211974028e-14
    70    1.840225512972e-02
    71   -1.852762574357e-14
    72   -1.776569276843e-14
    73   -2.564654489052e-15
    74    2.780758041452e-02
    75   -1.278007312889e-13
    76    8.750296158668e-14
    77    2.153662564842e-13
    78    3.523093617098e-02
    79    2.819638064599e-13
    80   -1.052400285244e-13
    81   -6.364694502089e-13
    82    1.457440508448e-02
    83    1.249461394400e-15
    84   -6.883194202936e-04
    85   -1.038928507491e-03
    86    4.232840489329e-16
    87    1.152814063967e-15
    88   -3.985486254918e-15
    89   -6.950972796414e-15
    90   -9.847136130808e-16
    91    1.646793053177e-14
    92    2.230682458530e-01
    93   -5.557661430862e-14
    94    5.642394818502e-15
    95    1.827449704378e-14
    96    3.851165652255e-01
    97    1.222466398633e-12
    98   -2.130717563223e-13
    99    2.647536246372e-13
   100    5.558308712491e-01
   101   -1.593869910644e-11
   102   -8.527761010550e-13
   103    3.960398279000e-12
   104    1.730574010019e-01
   105   -7.970957313842e-15
   106    1.411269346082e-03
   107   -1.166472509751e-02
   108    8.478933712262e-15
   109   -5.106052308236e-15
   110    7.292686188720e-16
   111    1.216331638002e-15
   112    1.825818330973e-14
   113   -1.707687490103e-14
   114   -2.082752494840e-01
   115    1.393001203842e-14
   116    3.883215263745e-14
   117   -6.485608307019e-15
   118   -2.820727855373e-01
   119   -1.827439450062e-13
   120   -3.757227728118e-14
   121    1.430042328139e-14
   122   -2.917245536236e-01
   123    5.834331788427e-13
   124    6.840307936888e-13
   125    3.273952099263e-13
   126   -9.123380004417e-02
   127   -3.384958126908e-15
   128   -7.772490454588e-03
   129   -6.612333228647e-03
   130   -8.482885409652e-16
   131    2.613904719566e-15
   132   -5.390765153407e-16
   133    2.968075230037e-15
   134    5.265288649689e-15
   135   -8.275345128365e-15
   136   -8.657160937701e-02
   137   -2.719881418183e-14
   138    1.724600350532e-14
   139   -5.216061209733e-14
   140   -1.327099818975e-01
   141    4.475804246509e-13
   142   -2.282600993031e-13
   143    4.076850807298e-13
   144   -2.399211446937e-01
   145   -6.586797490045e-12
   146    1.074604423170e-13
   147    1.793459224280e-12
   148   -1.722695597692e-01
   149   -8.587255298028e-15
   150    1.981963772557e-02
   151   -8.044203577955e-03
   152    4.230747550653e-15
   153    4.714556610838e-15
   154    6.435936100283e-16
   155    4.299898843525e-15
   156   -6.791998446564e-16
   157   -1.258457714857e-14
   158    6.429997890795e-02
   159    4.400586901407e-15
   160   -5.222411148265e-14
   161   -3.495419379551e-14
   162    9.943600401472e-02
   163   -2.918963082683e-13
   164    7.585469684441e-13
   165    7.003311894538e-15
   166    1.635016425457e-01
   167    4.622755677332e-12
   168    3.794646906265e-12
   169    3.587167263033e-14
   170    1.254051218608e-01
   171    8.826254798388e-15
   172   -8.092918112169e-03
   173    4.330221542447e-03
   174   -1.451715499809e-14
   175   -7.298560887610e-15
   176   -6.511988079930e-15
   177   -1.165901057231e-14
   178    1.309671758535e-14
   179   -7.689903550684e-15
   180   -6.209197916024e-03
   181    3.631735256847e-14
   182   -3.344971046180e-14
   183   -2.651463325062e-14
   184   -9.785142355645e-03
   185    3.028103639719e-13
   186    5.144282282449e-14
   187    8.989031820416e-14
   188   -6.903546054126e-02
   189    4.778392898333e-11
   190   -9.663590602537e-12
   191    4.813590507486e-12
   192   -4.050838368501e-02
   193    9.537241823186e-15
   194    1.610256712137e-02
   195    3.333241115922e-02
   196    2.070889528553e-15
   197    5.305546168609e-15
   198   -1.607591292033e-14
   199    2.894439928982e-14
   200   -7.195626635548e-13
   201    4.620918230892e-12
   202   -1.756443735331e-14
   203   -5.544038406607e-16
   204   -1.773901681370e-03
Sym=X
Ene= 0.484354
Spin=Alpha
Occup=0
     1   -5.098350118889e-15
     2   -3.206345341927e-15
     3    3.120345782511e-15
     4   -1.666240662933e-14
     5    1.657873826046e-02
     6    1.339743611585e-14
     7   -2.768190206963e-14
     8   -4.991278971834e-14
     9    3.069293950972e-02
    10   -1.757477038600e-13
    11   -1.769832169714e-14
    12   -1.501712464674e-13
    13    7.388847015770e-02
    14    1.909776235767e-12
    15    1.528575344041e-12
    16   -7.894477471239e-13
    17    8.322358809551e-01
    18    1.133408711746e-14
    19   -1.085463256130e-02
    20   -8.111575357696e-03
    21    3.812753239861e-15
    22   -2.480480787599e-15
    23    2.685749101901e-15
    24    5.643970077751e-14
    25    5.812998798805e-13
    26    2.023415114288e-12
    27    1.113092310299e-14
    28    5.461929395833e-15
    29    1.472186081577e-03
    30    3.503438373215e-15
    31   -1.128177374914e-13
    32    3.607505830723e-13
    33   -3.818880146755e-13
    34    2.831178234696e-15
    35    4.017462379217e-15
    36    5.488516092182e-03
    37    1.166365888666e-14
    38   -1.054100380053e-13
    39    1.157844045911e-12
    40   -1.797368330669e-12
    41   -3.307140421900e-15
    42    1.062957662578e-14
    43    5.426887301340e-03
    44   -2.343050295793e-15
    45   -3.547748989418e-15
    46    1.987916974608e-14
    47    2.125147888390e-15
    48   -6.479247123209e-02
    49    1.367013563455e-14
    50   -1.229312374168e-14
    51    4.635098646684e-15
    52   -1.180658311565e-01
    53   -1.949515992109e-13
    54    4.586808173342e-13
    55    7.252147169144e-14
    56   -1.478023348369e-01
    57    3.622798533618e-13
    58    1.812276273988e-12
    59    1.845305962660e-12
    60    5.056791826580e-01
    61    9.570295480244e-15
    62   -1.234525580240e-02
    63    6.687557912491e-03
    64    2.643343673823e-15
    65   -6.087316249303e-16
    66    1.878993506398e-15
    67    1.314992838704e-15
    68   -3.163494449298e-15
    69    4.507815633768e-15
    70    2.332279396998e-02
    71   -1.367177198624e-15
    72   -2.136376500968e-14
    73   -1.681036952068e-15
    74    3.044630905249e-02
    75   -5.272558348549e-14
    76    6.318025206840e-14
    77    3.915933955763e-14
    78    6.959470934591e-02
    79    1.353473109258e-12
    80    1.432820685671e-13
    81   -6.942245310838e-13
    82   -1.788015397285e-02
    83    3.945457560923e-15
    84   -3.204726577420e-03
    85    2.277346328138e-03
    86    1.619139849050e-15
    87    4.328441171996e-15
    88   -2.105890776683e-15
    89   -1.535500841522e-15
    90    4.058418772253e-16
    91    2.078183340827e-15
    92   -2.390082109119e-02
    93   -1.174312948280e-14
    94   -2.032671237532e-14
    95   -1.002366130604e-14
    96   -3.498048043801e-02
    97    4.236788416333e-13
    98   -1.084889232918e-13
    99    1.228883936662e-13
   100   -5.102591946427e-02
   101   -1.039443104903e-12
   102   -4.298403637792e-12
   103    1.914609621351e-12
   104    1.732141975089e+00
   105   -3.537067475697e-15
   106   -6.465870679880e-03
   107    1.180836006931e-02
   108    1.181686796862e-14
   109    2.522123911347e-16
   110   -1.716848281997e-15
   111   -6.280671181157e-15
   112    3.154356190581e-15
   113   -1.637895575622e-14
   114   -4.249556589483e-02
   115    2.545834443151e-14
   116    9.989213160487e-15
   117   -4.215139694590e-15
   118   -6.646248622502e-02
   119   -2.856171441957e-14
   120   -8.655907337716e-14
   121   -7.609641623161e-14
   122   -2.835039846908e-02
   123    5.590685864683e-13
   124    6.666324800975e-13
   125    3.231053214426e-13
   126   -1.221357079827e-01
   127   -4.903912281694e-15
   128    3.834493496111e-03
   129    4.149970679656e-03
   130   -1.994261197256e-15
   131    3.128213816331e-15
   132    4.233687237355e-15
   133    8.925366245824e-15
   134    2.077175478809e-14
   135   -1.089792773628e-14
   136   -1.207054922635e-02
   137   -3.947622402575e-14
   138    2.686891677347e-14
   139   -2.744364955833e-14
   140   -3.535108460681e-02
   141    2.073460787423e-14
   142    1.096037917867e-13
   143    1.776760777412e-13
   144    4.337225624870e-02
   145   -7.156917620047e-12
   146    1.417426876016e-13
   147   -2.646304622097e-13
   148   -5.442431328551e-01
   149   -4.436617682533e-15
   150    7.974174713301e-03
   151    6.667937794014e-03
   152   -1.403508727129e-15
   153    3.025709569907e-15
   154    1.645914558309e-15
   155    9.091233283844e-15
   156    2.036503005370e-15
   157   -1.309595066037e-15
   158   -9.107230191004e-03
   159   -8.001627815256e-15
   160   -2.163585618287e-14
   161   -3.093189192900e-15
   162   -2.657614607167e-02
   163   -2.769040402018e-13
   164    1.659049837484e-13
   165    8.749310436916e-14
   166    3.483752640200e-02
   167    2.383293192031e-12
   168    9.179713971177e-13
   169    1.893968801902e-13
   170   -4.603084880874e-01
   171    6.928084468278e-15
   172    1.778532774413e-03
   173   -9.478774845349e-03
   174   -6.079587747107e-15
   175   -3.109709834693e-15
   176   -8.536244919971e-15
   177   -7.335336435991e-15
   178    2.043915559651e-14
   179   -8.179870287264e-15
   180   -7.611912815180e-02
   181   -1.173152823584e-14
   182   -1.226331246470e-14
   183   -1.216085434506e-14
   184   -1.102312246394e-01
   185    6.167583226539e-13
   186    2.408718512582e-13
   187   -6.683768490981e-14
   188   -2.699302117540e-01
   189   -8.580633857033e-13
   190    3.174069087408e-12
   191    2.996847598392e-12
   192   -9.714828139759e-01
   193   -1.713149956743e-14
   194   -1.512728745936e-03
   195   -6.103292216011e-03
   196    5.657777411610e-15
   197    5.183362330595e-15
   198    1.043979713495e-15
   199   -5.667392216456e-14
   200   -4.492267158920e-13
   201    9.991478375602e-13
   202    3.414489195586e-17
   203   -1.435699980817e-15
   204   -4.048583510208e-03
[5D]
